frame t= 0.000 in water
98287
   81GLY      N    1   5.588   5.978   5.177
   81GLY    HT1    2   5.680   6.020   5.178
   81GLY    HT2    3   5.544   5.979   5.268
   81GLY     CA    4   5.500   6.047   5.077
   81GLY    HA1    5   5.487   6.151   5.107
   81GLY    HA2    6   5.544   6.039   4.979
   81GLY      C    7   5.359   5.990   5.068
   81GLY      O    8   5.278   6.006   5.159
   82GLU      N    9   5.326   5.921   4.956
   82GLU     HN   10   5.391   5.903   4.883
   82GLU     CA   11   5.190   5.876   4.929
   82GLU     HA   12   5.121   5.926   4.996
   82GLU     CB   13   5.150   5.912   4.783
   82GLU    HB1   14   5.206   5.848   4.711
   82GLU    HB2   15   5.041   5.890   4.769
   82GLU     CG   16   5.177   6.060   4.746
   82GLU    HG1   17   5.131   6.126   4.823
   82GLU    HG2   18   5.286   6.079   4.746
   82GLU     CD   19   5.124   6.103   4.610
   82GLU    OE1   20   5.129   6.023   4.513
   82GLU    OE2   21   5.086   6.222   4.597
   82GLU      C   22   5.179   5.726   4.952
   82GLU      O   23   5.255   5.646   4.896
   83TRP      N   24   5.084   5.683   5.037
   83TRP     HN   25   5.018   5.747   5.078
   83TRP     CA   26   5.073   5.546   5.084
   83TRP     HA   27   5.156   5.486   5.046
   83TRP     CB   28   5.073   5.540   5.239
   83TRP    HB1   29   5.008   5.621   5.278
   83TRP    HB2   30   5.033   5.443   5.274
   83TRP     CG   31   5.212   5.555   5.297
   83TRP    CD1   32   5.293   5.665   5.300
   83TRP    HD1   33   5.264   5.762   5.260
   83TRP    NE1   34   5.416   5.634   5.354
   83TRP    HE1   35   5.498   5.686   5.347
   83TRP    CE2   36   5.417   5.499   5.383
   83TRP    CD2   37   5.290   5.446   5.349
   83TRP    CE3   38   5.262   5.310   5.365
   83TRP    HE3   39   5.166   5.268   5.339
   83TRP    CZ3   40   5.364   5.227   5.414
   83TRP    HZ3   41   5.345   5.121   5.425
   83TRP    CZ2   42   5.517   5.416   5.432
   83TRP    HZ2   43   5.615   5.455   5.454
   83TRP    CH2   44   5.490   5.279   5.446
   83TRP    HH2   45   5.569   5.213   5.481
   83TRP      C   46   4.947   5.479   5.032
   83TRP      O   47   4.843   5.543   5.011
   84THR      N   48   4.952   5.347   5.009
   84THR     HN   49   5.037   5.294   5.022
   84THR     CA   50   4.841   5.271   4.955
   84THR     HA   51   4.749   5.319   4.983
   84THR     CB   52   4.843   5.259   4.802
   84THR     HB   53   4.781   5.172   4.769
   84THR    OG1   54   4.974   5.243   4.749
   84THR    HG1   55   5.022   5.325   4.769
   84THR    CG2   56   4.786   5.385   4.736
   84THR   HG21   57   4.682   5.402   4.770
   84THR   HG22   58   4.847   5.474   4.761
   84THR   HG23   59   4.785   5.373   4.626
   84THR      C   60   4.836   5.133   5.018
   84THR      O   61   4.936   5.078   5.066
   85TYR      N   62   4.715   5.075   5.025
   85TYR     HN   63   4.635   5.118   4.984
   85TYR     CA   64   4.687   4.949   5.091
   85TYR     HA   65   4.780   4.897   5.114
   85TYR     CB   66   4.603   4.974   5.220
   85TYR    HB1   67   4.649   5.060   5.273
   85TYR    HB2   68   4.499   5.004   5.194
   85TYR     CG   69   4.595   4.859   5.319
   85TYR    CD1   70   4.539   4.734   5.288
   85TYR    HD1   71   4.497   4.717   5.190
   85TYR    CE1   72   4.534   4.631   5.383
   85TYR    HE1   73   4.492   4.535   5.357
   85TYR     CZ   74   4.582   4.653   5.513
   85TYR     OH   75   4.580   4.550   5.609
   85TYR     HH   76   4.603   4.591   5.695
   85TYR    CD2   77   4.639   4.880   5.450
   85TYR    HD2   78   4.678   4.977   5.478
   85TYR    CE2   79   4.633   4.779   5.547
   85TYR    HE2   80   4.668   4.799   5.647
   85TYR      C   81   4.607   4.866   4.993
   85TYR      O   82   4.503   4.911   4.945
   86ASP      N   83   4.651   4.743   4.959
   86ASP     HN   84   4.740   4.707   4.992
   86ASP     CA   85   4.574   4.652   4.879
   86ASP     HA   86   4.491   4.705   4.834
   86ASP     CB   87   4.661   4.591   4.766
   86ASP    HB1   88   4.736   4.665   4.731
   86ASP    HB2   89   4.716   4.501   4.800
   86ASP     CG   90   4.575   4.554   4.647
   86ASP    OD1   91   4.461   4.508   4.668
   86ASP    OD2   92   4.621   4.579   4.532
   86ASP      C   93   4.514   4.544   4.969
   86ASP      O   94   4.581   4.452   5.017
   87ASP      N   95   4.383   4.554   4.995
   87ASP     HN   96   4.330   4.628   4.953
   87ASP     CA   97   4.308   4.467   5.084
   87ASP     HA   98   4.371   4.436   5.166
   87ASP     CB   99   4.189   4.553   5.136
   87ASP    HB1  100   4.230   4.641   5.191
   87ASP    HB2  101   4.131   4.590   5.050
   87ASP     CG  102   4.096   4.480   5.230
   87ASP    OD1  103   4.138   4.442   5.343
   87ASP    OD2  104   3.977   4.463   5.192
   87ASP      C  105   4.264   4.340   5.009
   87ASP      O  106   4.229   4.238   5.069
   88ALA      N  107   4.269   4.343   4.874
   88ALA     HN  108   4.302   4.425   4.827
   88ALA     CA  109   4.239   4.230   4.789
   88ALA     HA  110   4.142   4.191   4.817
   88ALA     CB  111   4.235   4.277   4.642
   88ALA    HB1  112   4.166   4.363   4.631
   88ALA    HB2  113   4.335   4.310   4.607
   88ALA    HB3  114   4.200   4.196   4.574
   88ALA      C  115   4.340   4.116   4.803
   88ALA      O  116   4.304   3.998   4.810
   89THR      N  117   4.471   4.149   4.807
   89THR     HN  118   4.498   4.244   4.792
   89THR     CA  119   4.578   4.049   4.812
   89THR     HA  120   4.535   3.952   4.828
   89THR     CB  121   4.657   4.041   4.683
   89THR     HB  122   4.740   3.966   4.693
   89THR    OG1  123   4.712   4.166   4.644
   89THR    HG1  124   4.671   4.188   4.558
   89THR    CG2  125   4.565   3.994   4.569
   89THR   HG21  126   4.516   3.899   4.595
   89THR   HG22  127   4.486   4.070   4.549
   89THR   HG23  128   4.624   3.981   4.475
   89THR      C  129   4.672   4.068   4.931
   89THR      O  130   4.774   4.000   4.940
   90LYS      N  131   4.636   4.155   5.027
   90LYS     HN  132   4.555   4.211   5.013
   90LYS     CA  133   4.705   4.177   5.154
   90LYS     HA  134   4.647   4.252   5.206
   90LYS     CB  135   4.707   4.052   5.246
   90LYS    HB1  136   4.773   3.975   5.202
   90LYS    HB2  137   4.750   4.081   5.345
   90LYS     CG  138   4.568   3.991   5.271
   90LYS    HG1  139   4.498   4.072   5.301
   90LYS    HG2  140   4.531   3.948   5.175
   90LYS     CD  141   4.571   3.884   5.381
   90LYS    HD1  142   4.647   3.807   5.354
   90LYS    HD2  143   4.606   3.933   5.475
   90LYS     CE  144   4.436   3.817   5.409
   90LYS    HE1  145   4.446   3.741   5.490
   90LYS    HE2  146   4.361   3.893   5.440
   90LYS     NZ  147   4.385   3.749   5.288
   90LYS    HZ1  148   4.461   3.687   5.248
   90LYS    HZ2  149   4.299   3.692   5.310
   90LYS    HZ3  150   4.360   3.822   5.219
   90LYS      C  151   4.845   4.237   5.141
   90LYS      O  152   4.940   4.197   5.208
   91THR      N  153   4.858   4.339   5.055
   91THR     HN  154   4.776   4.376   5.010
   91THR     CA  155   4.986   4.398   5.017
   91THR     HA  156   5.064   4.359   5.081
   91THR     CB  157   5.023   4.366   4.872
   91THR     HB  158   4.929   4.354   4.813
   91THR    OG1  159   5.096   4.243   4.867
   91THR    HG1  160   5.188   4.269   4.885
   91THR    CG2  161   5.113   4.469   4.802
   91THR   HG21  162   5.205   4.488   4.860
   91THR   HG22  163   5.142   4.431   4.702
   91THR   HG23  164   5.059   4.565   4.787
   91THR      C  165   4.984   4.546   5.043
   91THR      O  166   4.895   4.619   4.998
   92PHE      N  167   5.083   4.597   5.118
   92PHE     HN  168   5.151   4.537   5.158
   92PHE     CA  169   5.106   4.739   5.136
   92PHE     HA  170   5.012   4.793   5.130
   92PHE     CB  171   5.177   4.766   5.271
   92PHE    HB1  172   5.221   4.672   5.310
   92PHE    HB2  173   5.260   4.839   5.261
   92PHE     CG  174   5.086   4.823   5.374
   92PHE    CD1  175   5.049   4.959   5.366
   92PHE    HD1  176   5.082   5.018   5.282
   92PHE    CE1  177   4.972   5.018   5.467
   92PHE    HE1  178   4.944   5.121   5.458
   92PHE     CZ  179   4.932   4.941   5.578
   92PHE     HZ  180   4.871   4.986   5.655
   92PHE    CD2  181   5.042   4.747   5.484
   92PHE    HD2  182   5.070   4.643   5.491
   92PHE    CE2  183   4.966   4.806   5.585
   92PHE    HE2  184   4.933   4.746   5.669
   92PHE      C  185   5.194   4.793   5.024
   92PHE      O  186   5.282   4.723   4.975
   93THR      N  187   5.173   4.919   4.984
   93THR     HN  188   5.099   4.976   5.023
   93THR     CA  189   5.248   4.980   4.875
   93THR     HA  190   5.344   4.932   4.866
   93THR     CB  191   5.175   4.971   4.741
   93THR     HB  192   5.078   5.026   4.747
   93THR    OG1  193   5.145   4.835   4.709
   93THR    HG1  194   5.050   4.828   4.729
   93THR    CG2  195   5.257   5.025   4.624
   93THR   HG21  196   5.269   5.135   4.631
   93THR   HG22  197   5.357   4.977   4.619
   93THR   HG23  198   5.204   5.004   4.528
   93THR      C  199   5.271   5.125   4.910
   93THR      O  200   5.193   5.189   4.981
   94VAL      N  201   5.384   5.183   4.866
   94VAL     HN  202   5.450   5.134   4.809
   94VAL     CA  203   5.420   5.319   4.899
   94VAL     HA  204   5.329   5.378   4.906
   94VAL     CB  205   5.495   5.326   5.032
   94VAL     HB  206   5.426   5.287   5.111
   94VAL    CG1  207   5.620   5.236   5.032
   94VAL   HG11  208   5.594   5.130   5.016
   94VAL   HG12  209   5.691   5.267   4.953
   94VAL   HG13  210   5.672   5.244   5.130
   94VAL    CG2  211   5.529   5.471   5.068
   94VAL   HG21  212   5.601   5.514   4.995
   94VAL   HG22  213   5.438   5.534   5.071
   94VAL   HG23  214   5.578   5.475   5.168
   94VAL      C  215   5.499   5.376   4.782
   94VAL      O  216   5.571   5.304   4.714
   95THR      N  217   5.483   5.506   4.752
   95THR     HN  218   5.421   5.564   4.806
   95THR     CA  219   5.556   5.573   4.644
   95THR     HA  220   5.650   5.521   4.627
   95THR     CB  221   5.479   5.581   4.512
   95THR     HB  222   5.381   5.632   4.528
   95THR    OG1  223   5.455   5.451   4.461
   95THR    HG1  224   5.432   5.394   4.536
   95THR    CG2  225   5.558   5.653   4.402
   95THR   HG21  226   5.656   5.604   4.387
   95THR   HG22  227   5.503   5.649   4.306
   95THR   HG23  228   5.574   5.760   4.426
   95THR      C  229   5.589   5.713   4.690
   95THR      O  230   5.507   5.781   4.752
   96GLU      N  231   5.713   5.759   4.668
   96GLU     HN  232   5.783   5.700   4.626
   96GLU     CA  233   5.759   5.889   4.714
   96GLU     HA  234   5.705   5.913   4.804
   96GLU     CB  235   5.908   5.878   4.753
   96GLU    HB1  236   5.923   5.774   4.790
   96GLU    HB2  237   5.973   5.892   4.664
   96GLU     CG  238   5.950   5.970   4.871
   96GLU    HG1  239   5.863   5.993   4.935
   96GLU    HG2  240   6.024   5.916   4.933
   96GLU     CD  241   6.016   6.100   4.827
   96GLU    OE1  242   5.951   6.207   4.836
   96GLU    OE2  243   6.136   6.094   4.788
   96GLU      C  244   5.732   6.005   4.612
   96GLU    OT1  245   5.767   6.008   4.494
   96GLU    OT2  246   5.658   6.110   4.664
   96GLU    HT2  247   5.659   6.184   4.601
   97SOL     OW  248   0.289   0.686   0.106
   97SOL    HW1  249   0.228   0.654   0.173
   97SOL    HW2  250   0.242   0.673   0.024
   98SOL     OW  251   0.172   0.326   1.031
   98SOL    HW1  252   0.222   0.265   1.084
   98SOL    HW2  253   0.095   0.276   1.004
   99SOL     OW  254   0.015   0.362   0.618
   99SOL    HW1  255   9.934   0.411   0.608
   99SOL    HW2  256   9.989   0.270   0.609
  100SOL     OW  257   0.570   1.308   1.204
  100SOL    HW1  258   0.487   1.310   1.156
  100SOL    HW2  259   0.587   1.400   1.226
  101SOL     OW  260   1.590   1.524   0.706
  101SOL    HW1  261   1.542   1.491   0.782
  101SOL    HW2  262   1.524   1.527   0.637
  102SOL     OW  263   1.141   0.705   0.689
  102SOL    HW1  264   1.185   0.790   0.680
  102SOL    HW2  265   1.089   0.713   0.769
  103SOL     OW  266   1.777   0.582   0.223
  103SOL    HW1  267   1.714   0.601   0.152
  103SOL    HW2  268   1.736   0.511   0.273
  104SOL     OW  269   0.730   1.132   1.060
  104SOL    HW1  270   0.668   1.172   1.120
  104SOL    HW2  271   0.772   1.206   1.016
  105SOL     OW  272   0.879   0.749   1.825
  105SOL    HW1  273   0.881   0.818   1.891
  105SOL    HW2  274   0.897   0.794   1.742
  106SOL     OW  275   0.688   0.978   0.648
  106SOL    HW1  276   0.757   0.979   0.715
  106SOL    HW2  277   0.622   1.039   0.680
  107SOL     OW  278   0.715   1.147   1.836
  107SOL    HW1  279   0.767   1.221   1.870
  107SOL    HW2  280   0.642   1.189   1.790
  108SOL     OW  281   0.337   1.419   1.062
  108SOL    HW1  282   0.264   1.399   1.004
  108SOL    HW2  283   0.395   1.476   1.011
  109SOL     OW  284   1.453   1.506   1.372
  109SOL    HW1  285   1.508   1.583   1.385
  109SOL    HW2  286   1.381   1.517   1.434
  110SOL     OW  287   0.462   0.400   1.454
  110SOL    HW1  288   0.542   0.352   1.474
  110SOL    HW2  289   0.392   0.345   1.490
  111SOL     OW  290   1.584   0.463   0.749
  111SOL    HW1  291   1.511   0.462   0.687
  111SOL    HW2  292   1.562   0.532   0.811
  112SOL     OW  293   0.263   1.662   0.473
  112SOL    HW1  294   0.210   1.738   0.496
  112SOL    HW2  295   0.349   1.698   0.449
  113SOL     OW  296   1.137   1.341   1.697
  113SOL    HW1  297   1.182   1.330   1.780
  113SOL    HW2  298   1.084   1.262   1.687
  114SOL     OW  299   0.198   1.418   0.555
  114SOL    HW1  300   0.227   1.507   0.534
  114SOL    HW2  301   0.103   1.420   0.544
  115SOL     OW  302   0.276   1.083   0.873
  115SOL    HW1  303   0.281   0.992   0.903
  115SOL    HW2  304   0.216   1.125   0.934
  116SOL     OW  305   0.585   1.811   1.410
  116SOL    HW1  306   0.507   1.790   1.461
  116SOL    HW2  307   0.617   1.893   1.447
  117SOL     OW  308   0.582   0.957   0.161
  117SOL    HW1  309   0.545   1.030   0.112
  117SOL    HW2  310   0.635   0.997   0.229
  118SOL     OW  311   1.543   0.124   1.456
  118SOL    HW1  312   1.604   0.176   1.405
  118SOL    HW2  313   1.533   0.171   1.539
  119SOL     OW  314   0.155   0.677   0.605
  119SOL    HW1  315   0.111   0.593   0.622
  119SOL    HW2  316   0.126   0.734   0.676
  120SOL     OW  317   1.862   1.737   0.306
  120SOL    HW1  318   1.931   1.716   0.368
  120SOL    HW2  319   1.876   1.829   0.285
  121SOL     OW  320   9.981   1.605   0.193
  121SOL    HW1  321   0.017   1.517   0.197
  121SOL    HW2  322   0.053   1.660   0.162
  122SOL     OW  323   1.701   0.923   0.664
  122SOL    HW1  324   1.782   0.876   0.645
  122SOL    HW2  325   1.681   0.971   0.583
  123SOL     OW  326   1.663   1.091   0.440
  123SOL    HW1  327   1.744   1.087   0.389
  123SOL    HW2  328   1.678   1.161   0.504
  124SOL     OW  329   0.165   0.771   1.547
  124SOL    HW1  330   0.261   0.762   1.543
  124SOL    HW2  331   0.151   0.855   1.591
  125SOL     OW  332   0.622   1.387   0.759
  125SOL    HW1  333   0.579   1.302   0.757
  125SOL    HW2  334   0.613   1.420   0.669
  126SOL     OW  335   1.270   1.225   1.419
  126SOL    HW1  336   1.297   1.157   1.358
  126SOL    HW2  337   1.333   1.219   1.491
  127SOL     OW  338   0.838   0.060   0.589
  127SOL    HW1  339   0.867   0.140   0.546
  127SOL    HW2  340   0.749   0.047   0.557
  128SOL     OW  341   0.167   0.951   1.267
  128SOL    HW1  342   0.257   0.916   1.261
  128SOL    HW2  343   0.137   0.954   1.176
  129SOL     OW  344   1.485   1.034   0.236
  129SOL    HW1  345   1.432   0.961   0.268
  129SOL    HW2  346   1.551   1.048   0.304
  130SOL     OW  347   1.177   1.823   1.637
  130SOL    HW1  348   1.179   1.885   1.564
  130SOL    HW2  349   1.194   1.738   1.596
  131SOL     OW  350   0.331   0.317   1.727
  131SOL    HW1  351   0.408   0.312   1.783
  131SOL    HW2  352   0.257   0.313   1.788
  132SOL     OW  353   1.473   1.416   0.930
  132SOL    HW1  354   1.409   1.436   0.999
  132SOL    HW2  355   1.454   1.326   0.905
  133SOL     OW  356   1.643   1.797   0.564
  133SOL    HW1  357   1.627   1.751   0.482
  133SOL    HW2  358   1.641   1.728   0.631
  134SOL     OW  359   0.608   0.707   0.291
  134SOL    HW1  360   0.608   0.789   0.241
  134SOL    HW2  361   0.535   0.717   0.352
  135SOL     OW  362   1.284   0.394   0.942
  135SOL    HW1  363   1.195   0.361   0.952
  135SOL    HW2  364   1.338   0.334   0.994
  136SOL     OW  365   1.590   1.677   0.324
  136SOL    HW1  366   1.684   1.687   0.309
  136SOL    HW2  367   1.554   1.659   0.237
  137SOL     OW  368   0.794   0.611   1.446
  137SOL    HW1  369   0.764   0.579   1.531
  137SOL    HW2  370   0.768   0.543   1.384
  138SOL     OW  371   1.402   0.494   1.676
  138SOL    HW1  372   1.407   0.533   1.763
  138SOL    HW2  373   1.448   0.410   1.685
  139SOL     OW  374   0.945   0.882   1.590
  139SOL    HW1  375   1.000   0.817   1.547
  139SOL    HW2  376   0.898   0.925   1.519
  140SOL     OW  377   1.011   0.424   1.219
  140SOL    HW1  378   0.919   0.428   1.244
  140SOL    HW2  379   1.011   0.382   1.133
  141SOL     OW  380   1.073   0.709   0.420
  141SOL    HW1  381   1.095   0.703   0.513
  141SOL    HW2  382   0.987   0.668   0.413
  142SOL     OW  383   0.064   0.832   0.826
  142SOL    HW1  384   0.150   0.827   0.869
  142SOL    HW2  385   0.006   0.867   0.893
  143SOL     OW  386   0.112   1.863   1.580
  143SOL    HW1  387   0.109   1.857   1.676
  143SOL    HW2  388   0.058   1.789   1.550
  144SOL     OW  389   0.836   0.371   0.214
  144SOL    HW1  390   0.826   0.415   0.130
  144SOL    HW2  391   0.847   0.279   0.193
  145SOL     OW  392   1.692   0.565   1.836
  145SOL    HW1  393   1.667   0.644   1.786
  145SOL    HW2  394   1.714   0.501   1.768
  146SOL     OW  395   1.397   1.151   0.554
  146SOL    HW1  396   1.475   1.140   0.500
  146SOL    HW2  397   1.342   1.211   0.505
  147SOL     OW  398   0.577   0.202   0.916
  147SOL    HW1  399   0.574   0.220   1.010
  147SOL    HW2  400   0.576   0.288   0.874
  148SOL     OW  401   0.998   1.448   0.470
  148SOL    HW1  402   0.976   1.525   0.417
  148SOL    HW2  403   0.965   1.470   0.557
  149SOL     OW  404   0.337   1.803   0.949
  149SOL    HW1  405   0.385   1.724   0.927
  149SOL    HW2  406   0.389   1.874   0.912
  150SOL     OW  407   1.805   1.046   0.895
  150SOL    HW1  408   1.758   1.027   0.814
  150SOL    HW2  409   1.735   1.055   0.961
  151SOL     OW  410   1.217   1.543   1.516
  151SOL    HW1  411   1.206   1.472   1.579
  151SOL    HW2  412   1.151   1.525   1.449
  152SOL     OW  413   0.326   0.932   0.288
  152SOL    HW1  414   0.402   0.933   0.229
  152SOL    HW2  415   0.322   0.842   0.320
  153SOL     OW  416   1.483   0.768   0.717
  153SOL    HW1  417   1.482   0.729   0.804
  153SOL    HW2  418   1.564   0.820   0.715
  154SOL     OW  419   0.484   1.274   1.735
  154SOL    HW1  420   0.461   1.283   1.643
  154SOL    HW2  421   0.400   1.266   1.780
  155SOL     OW  422   1.108   1.784   0.178
  155SOL    HW1  423   1.052   1.743   0.243
  155SOL    HW2  424   1.148   1.711   0.131
  156SOL     OW  425   0.184   0.286   1.489
  156SOL    HW1  426   0.156   0.374   1.466
  156SOL    HW2  427   0.220   0.295   1.577
  157SOL     OW  428   1.628   1.369   0.110
  157SOL    HW1  429   1.587   1.456   0.104
  157SOL    HW2  430   1.562   1.309   0.076
  158SOL     OW  431   0.520   1.734   0.378
  158SOL    HW1  432   0.556   1.806   0.430
  158SOL    HW2  433   0.584   1.720   0.308
  159SOL     OW  434   1.398   0.143   0.407
  159SOL    HW1  435   1.388   0.109   0.318
  159SOL    HW2  436   1.452   0.078   0.452
  160SOL     OW  437   0.259   1.790   1.217
  160SOL    HW1  438   0.302   1.712   1.250
  160SOL    HW2  439   0.277   1.790   1.123
  161SOL     OW  440   0.953   1.702   0.892
  161SOL    HW1  441   1.036   1.657   0.906
  161SOL    HW2  442   0.908   1.651   0.825
  162SOL     OW  443   0.389   0.698   0.463
  162SOL    HW1  444   0.411   0.606   0.479
  162SOL    HW2  445   0.303   0.709   0.504
  163SOL     OW  446   1.503   0.231   1.720
  163SOL    HW1  447   1.517   0.251   1.812
  163SOL    HW2  448   1.434   0.165   1.719
  164SOL     OW  449   0.613   0.109   0.113
  164SOL    HW1  450   0.708   0.105   0.125
  164SOL    HW2  451   0.602   0.109   0.018
  165SOL     OW  452   0.757   0.276   1.781
  165SOL    HW1  453   0.827   0.212   1.773
  165SOL    HW2  454   0.715   0.255   1.864
  166SOL     OW  455   0.871   1.528   1.200
  166SOL    HW1  456   0.853   1.487   1.115
  166SOL    HW2  457   0.939   1.473   1.239
  167SOL     OW  458   1.335   0.595   1.432
  167SOL    HW1  459   1.368   0.569   1.517
  167SOL    HW2  460   1.368   0.684   1.419
  168SOL     OW  461   0.820   1.378   0.962
  168SOL    HW1  462   0.905   1.374   0.918
  168SOL    HW2  463   0.757   1.391   0.891
  169SOL     OW  464   0.935   0.522   0.898
  169SOL    HW1  465   0.907   0.509   0.807
  169SOL    HW2  466   0.959   0.434   0.928
  170SOL     OW  467   0.594   0.033   0.474
  170SOL    HW1  468   0.523   0.015   0.535
  170SOL    HW2  469   0.568   0.114   0.430
  171SOL     OW  470   1.420   1.199   0.031
  171SOL    HW1  471   1.446   1.134   0.097
  171SOL    HW2  472   1.339   1.237   0.065
  172SOL     OW  473   0.358   0.054   0.186
  172SOL    HW1  474   0.453   0.068   0.177
  172SOL    HW2  475   0.350   9.994   0.260
  173SOL     OW  476   0.947   0.276   0.460
  173SOL    HW1  477   0.911   0.310   0.378
  173SOL    HW2  478   1.041   0.295   0.454
  174SOL     OW  479   1.075   0.693   1.444
  174SOL    HW1  480   1.010   0.623   1.447
  174SOL    HW2  481   1.159   0.647   1.439
  175SOL     OW  482   1.209   1.587   0.801
  175SOL    HW1  483   1.224   1.647   0.727
  175SOL    HW2  484   1.282   1.605   0.861
  176SOL     OW  485   0.489   1.153   0.723
  176SOL    HW1  486   0.417   1.132   0.783
  176SOL    HW2  487   0.449   1.148   0.636
  177SOL     OW  488   1.256   1.793   0.614
  177SOL    HW1  489   1.303   1.857   0.561
  177SOL    HW2  490   1.187   1.843   0.657
  178SOL     OW  491   1.105   0.508   9.979
  178SOL    HW1  492   1.010   0.503   9.983
  178SOL    HW2  493   1.132   0.535   0.067
  179SOL     OW  494   0.122   0.541   1.388
  179SOL    HW1  495   0.205   0.557   1.343
  179SOL    HW2  496   0.109   0.620   1.442
  180SOL     OW  497   0.563   0.235   1.189
  180SOL    HW1  498   0.605   0.174   1.250
  180SOL    HW2  499   0.470   0.229   1.209
  181SOL     OW  500   0.868   0.470   0.643
  181SOL    HW1  501   0.838   0.530   0.574
  181SOL    HW2  502   0.894   0.391   0.595
  182SOL     OW  503   0.991   0.062   0.812
  182SOL    HW1  504   0.936   0.061   0.733
  182SOL    HW2  505   0.994   9.971   0.841
  183SOL     OW  506   1.431   1.153   0.854
  183SOL    HW1  507   1.362   1.087   0.866
  183SOL    HW2  508   1.441   1.160   0.759
  184SOL     OW  509   1.457   0.623   0.954
  184SOL    HW1  510   1.395   0.550   0.961
  184SOL    HW2  511   1.512   0.615   1.032
  185SOL     OW  512   1.860   0.793   0.377
  185SOL    HW1  513   1.906   0.746   0.446
  185SOL    HW2  514   1.817   0.725   0.326
  186SOL     OW  515   0.481   1.468   0.194
  186SOL    HW1  516   0.412   1.415   0.234
  186SOL    HW2  517   0.529   1.406   0.139
  187SOL     OW  518   1.711   1.273   0.628
  187SOL    HW1  519   1.803   1.265   0.653
  187SOL    HW2  520   1.686   1.361   0.656
  188SOL     OW  521   1.413   0.562   0.095
  188SOL    HW1  522   1.339   0.550   0.155
  188SOL    HW2  523   1.454   0.476   0.091
  189SOL     OW  524   0.525   0.262   0.329
  189SOL    HW1  525   0.570   0.218   0.256
  189SOL    HW2  526   0.506   0.350   0.296
  190SOL     OW  527   1.735   1.244   1.533
  190SOL    HW1  528   1.823   1.210   1.519
  190SOL    HW2  529   1.748   1.331   1.570
  191SOL     OW  530   1.044   1.358   1.337
  191SOL    HW1  531   0.966   1.322   1.379
  191SOL    HW2  532   1.117   1.310   1.377
  192SOL     OW  533   1.608   1.635   1.672
  192SOL    HW1  534   1.597   1.671   1.585
  192SOL    HW2  535   1.686   1.579   1.665
  193SOL     OW  536   1.151   1.241   1.105
  193SOL    HW1  537   1.088   1.274   1.169
  193SOL    HW2  538   1.118   1.271   1.021
  194SOL     OW  539   1.607   1.092   1.078
  194SOL    HW1  540   1.598   1.158   1.146
  194SOL    HW2  541   1.537   1.113   1.015
  195SOL     OW  542   0.887   0.168   1.383
  195SOL    HW1  543   0.911   0.126   1.301
  195SOL    HW2  544   0.971   0.190   1.424
  196SOL     OW  545   0.981   1.116   1.722
  196SOL    HW1  546   0.891   1.132   1.750
  196SOL    HW2  547   0.977   1.036   1.670
  197SOL     OW  548   0.724   1.056   0.377
  197SOL    HW1  549   0.707   1.029   0.467
  197SOL    HW2  550   0.804   1.011   0.352
  198SOL     OW  551   0.425   0.848   1.262
  198SOL    HW1  552   0.495   0.853   1.327
  198SOL    HW2  553   0.398   0.756   1.263
  199SOL     OW  554   1.270   0.374   1.287
  199SOL    HW1  555   1.300   0.452   1.333
  199SOL    HW2  556   1.180   0.396   1.260
  200SOL     OW  557   0.076   1.584   1.331
  200SOL    HW1  558   0.077   1.662   1.276
  200SOL    HW2  559   0.169   1.564   1.345
  201SOL     OW  560   0.372   1.128   0.480
  201SOL    HW1  561   0.354   1.199   0.419
  201SOL    HW2  562   0.368   1.048   0.427
  202SOL     OW  563   0.566   0.488   0.847
  202SOL    HW1  564   0.569   0.551   0.775
  202SOL    HW2  565   0.620   0.527   0.916
  203SOL     OW  566   1.249   1.348   0.417
  203SOL    HW1  567   1.303   1.422   0.446
  203SOL    HW2  568   1.160   1.372   0.443
  204SOL     OW  569   1.310   1.469   1.141
  204SOL    HW1  570   1.356   1.475   1.225
  204SOL    HW2  571   1.258   1.389   1.148
  205SOL     OW  572   1.533   0.635   0.474
  205SOL    HW1  573   1.513   0.674   0.559
  205SOL    HW2  574   1.490   0.691   0.410
  206SOL     OW  575   0.348   1.533   1.306
  206SOL    HW1  576   0.336   1.487   1.223
  206SOL    HW2  577   0.442   1.549   1.311
  207SOL     OW  578   0.445   0.726   1.612
  207SOL    HW1  579   0.502   0.772   1.551
  207SOL    HW2  580   0.493   0.646   1.634
  208SOL     OW  581   1.626   0.788   1.699
  208SOL    HW1  582   1.538   0.826   1.690
  208SOL    HW2  583   1.675   0.826   1.626
  209SOL     OW  584   0.953   0.078   1.774
  209SOL    HW1  585   1.019   0.129   1.820
  209SOL    HW2  586   0.997   0.043   1.697
  210SOL     OW  587   0.526   0.032   1.730
  210SOL    HW1  588   0.588   9.966   1.700
  210SOL    HW2  589   0.519   0.093   1.656
  211SOL     OW  590   0.593   0.880   1.041
  211SOL    HW1  591   0.632   0.968   1.041
  211SOL    HW2  592   0.533   0.880   1.114
  212SOL     OW  593   1.306   0.858   1.003
  212SOL    HW1  594   1.218   0.832   0.979
  212SOL    HW2  595   1.359   0.780   0.987
  213SOL     OW  596   1.185   0.525   0.247
  213SOL    HW1  597   1.198   0.452   0.308
  213SOL    HW2  598   1.148   0.595   0.300
  214SOL     OW  599   0.300   0.184   1.255
  214SOL    HW1  600   0.254   0.218   1.332
  214SOL    HW2  601   0.310   0.090   1.272
  215SOL     OW  602   0.002   1.323   1.281
  215SOL    HW1  603   0.049   1.274   1.348
  215SOL    HW2  604   0.018   1.415   1.301
  216SOL     OW  605   0.709   0.627   1.038
  216SOL    HW1  606   0.789   0.624   0.984
  216SOL    HW2  607   0.677   0.717   1.028
  217SOL     OW  608   1.752   0.968   1.870
  217SOL    HW1  609   1.711   0.897   1.821
  217SOL    HW2  610   1.688   0.989   1.938
  218SOL     OW  611   0.367   0.014   0.623
  218SOL    HW1  612   0.338   0.102   0.599
  218SOL    HW2  613   0.289   9.959   0.614
  219SOL     OW  614   1.629   0.400   0.367
  219SOL    HW1  615   1.654   0.336   0.434
  219SOL    HW2  616   1.592   0.473   0.416
  220SOL     OW  617   1.038   0.764   0.960
  220SOL    HW1  618   1.016   0.780   1.051
  220SOL    HW2  619   1.009   0.675   0.943
  221SOL     OW  620   0.982   1.564   1.735
  221SOL    HW1  621   0.960   1.608   1.653
  221SOL    HW2  622   1.021   1.481   1.708
  222SOL     OW  623   1.838   1.495   1.603
  222SOL    HW1  624   1.865   1.524   1.515
  222SOL    HW2  625   1.917   1.505   1.656
  223SOL     OW  626   0.364   0.906   1.811
  223SOL    HW1  627   0.441   0.935   1.861
  223SOL    HW2  628   0.400   0.845   1.745
  224SOL     OW  629   1.502   0.306   0.139
  224SOL    HW1  630   1.467   0.218   0.152
  224SOL    HW2  631   1.543   0.328   0.223
  225SOL     OW  632   1.324   0.812   0.034
  225SOL    HW1  633   1.357   0.723   0.040
  225SOL    HW2  634   1.390   0.859   9.984
  226SOL     OW  635   1.072   1.354   0.866
  226SOL    HW1  636   1.081   1.281   0.804
  226SOL    HW2  637   1.124   1.425   0.827
  227SOL     OW  638   0.317   0.813   0.947
  227SOL    HW1  639   0.410   0.833   0.942
  227SOL    HW2  640   0.313   0.721   0.974
  228SOL     OW  641   0.350   0.539   1.010
  228SOL    HW1  642   0.285   0.469   1.004
  228SOL    HW2  643   0.416   0.516   0.945
  229SOL     OW  644   1.146   0.391   1.679
  229SOL    HW1  645   1.093   0.442   1.739
  229SOL    HW2  646   1.229   0.439   1.673
  230SOL     OW  647   1.144   0.208   1.475
  230SOL    HW1  648   1.142   0.269   1.549
  230SOL    HW2  649   1.198   0.253   1.410
  231SOL     OW  650   9.993   1.308   0.241
  231SOL    HW1  651   9.920   1.300   0.179
  231SOL    HW2  652   0.010   1.219   0.270
  232SOL     OW  653   0.079   1.685   0.949
  232SOL    HW1  654   0.114   1.602   0.915
  232SOL    HW2  655   0.152   1.747   0.941
  233SOL     OW  656   0.498   1.578   0.913
  233SOL    HW1  657   0.565   1.645   0.922
  233SOL    HW2  658   0.537   1.512   0.857
  234SOL     OW  659   0.950   0.786   1.215
  234SOL    HW1  660   1.010   0.770   1.289
  234SOL    HW2  661   0.871   0.736   1.237
  235SOL     OW  662   0.024   0.546   1.115
  235SOL    HW1  663   0.081   0.474   1.089
  235SOL    HW2  664   0.034   0.552   1.210
  236SOL     OW  665   0.162   0.548   1.707
  236SOL    HW1  666   0.247   0.523   1.671
  236SOL    HW2  667   0.142   0.632   1.665
  237SOL     OW  668   1.390   0.921   1.652
  237SOL    HW1  669   1.408   1.015   1.647
  237SOL    HW2  670   1.382   0.894   1.561
  238SOL     OW  671   0.832   0.585   0.387
  238SOL    HW1  672   0.832   0.510   0.328
  238SOL    HW2  673   0.756   0.637   0.360
  239SOL     OW  674   1.626   0.605   1.170
  239SOL    HW1  675   1.607   0.549   1.246
  239SOL    HW2  676   1.714   0.580   1.143
  240SOL     OW  677   0.257   1.559   1.722
  240SOL    HW1  678   0.264   1.595   1.811
  240SOL    HW2  679   0.265   1.464   1.734
  241SOL     OW  680   0.733   0.447   1.239
  241SOL    HW1  681   0.672   0.375   1.224
  241SOL    HW2  682   0.716   0.509   1.168
  242SOL     OW  683   0.901   1.681   1.492
  242SOL    HW1  684   0.880   1.632   1.413
  242SOL    HW2  685   0.906   1.772   1.464
  243SOL     OW  686   0.461   0.492   0.187
  243SOL    HW1  687   0.537   0.543   0.217
  243SOL    HW2  688   0.400   0.557   0.152
  244SOL     OW  689   0.156   1.159   1.439
  244SOL    HW1  690   0.147   1.116   1.524
  244SOL    HW2  691   0.166   1.088   1.377
  245SOL     OW  692   1.303   1.037   1.209
  245SOL    HW1  693   1.311   0.973   1.138
  245SOL    HW2  694   1.250   1.107   1.171
  246SOL     OW  695   1.327   0.821   0.317
  246SOL    HW1  696   1.242   0.799   0.357
  246SOL    HW2  697   1.312   0.814   0.223
  247SOL     OW  698   1.788   1.723   1.172
  247SOL    HW1  699   1.849   1.749   1.103
  247SOL    HW2  700   1.755   1.638   1.144
  248SOL     OW  701   1.242   1.735   1.093
  248SOL    HW1  702   1.326   1.764   1.058
  248SOL    HW2  703   1.255   1.643   1.116
  249SOL     OW  704   0.097   1.182   1.050
  249SOL    HW1  705   0.101   1.238   1.127
  249SOL    HW2  706   0.004   1.179   1.027
  250SOL     OW  707   0.692   1.683   1.747
  250SOL    HW1  708   0.631   1.756   1.734
  250SOL    HW2  709   0.765   1.702   1.688
  251SOL     OW  710   0.881   0.111   0.143
  251SOL    HW1  711   0.968   0.135   0.112
  251SOL    HW2  712   0.896   0.035   0.200
  252SOL     OW  713   1.775   0.195   0.522
  252SOL    HW1  714   1.790   0.182   0.429
  252SOL    HW2  715   1.815   0.118   0.563
  253SOL     OW  716   1.400   1.571   0.504
  253SOL    HW1  717   1.457   1.605   0.435
  253SOL    HW2  718   1.347   1.646   0.531
  254SOL     OW  719   0.112   1.797   1.856
  254SOL    HW1  720   0.074   1.743   1.926
  254SOL    HW2  721   0.185   1.842   1.898
  255SOL     OW  722   1.278   0.938   0.669
  255SOL    HW1  723   1.352   0.879   0.683
  255SOL    HW2  724   1.315   1.010   0.618
  256SOL     OW  725   0.784   1.281   1.410
  256SOL    HW1  726   0.760   1.329   1.490
  256SOL    HW2  727   0.710   1.293   1.352
  257SOL     OW  728   0.692   1.636   0.177
  257SOL    HW1  729   0.703   1.644   0.082
  257SOL    HW2  730   0.623   1.571   0.188
  258SOL     OW  731   1.616   1.729   1.402
  258SOL    HW1  732   1.673   1.729   1.325
  258SOL    HW2  733   1.600   1.822   1.420
  259SOL     OW  734   1.852   0.154   0.963
  259SOL    HW1  735   1.882   0.081   0.909
  259SOL    HW2  736   1.766   0.177   0.928
  260SOL     OW  737   0.262   0.355   0.742
  260SOL    HW1  738   0.173   0.360   0.708
  260SOL    HW2  739   0.252   0.317   0.829
  261SOL     OW  740   1.218   1.566   0.050
  261SOL    HW1  741   1.205   1.477   0.082
  261SOL    HW2  742   1.231   1.557   9.956
  262SOL     OW  743   0.825   1.013   1.383
  262SOL    HW1  744   0.861   1.002   1.295
  262SOL    HW2  745   0.813   1.107   1.392
  263SOL     OW  746   0.944   0.927   0.294
  263SOL    HW1  747   0.992   0.943   0.213
  263SOL    HW2  748   0.992   0.857   0.338
  264SOL     OW  749   1.490   1.612   0.074
  264SOL    HW1  750   1.395   1.603   0.080
  264SOL    HW2  751   1.507   1.621   9.980
  265SOL     OW  752   0.371   1.322   1.496
  265SOL    HW1  753   0.364   1.397   1.436
  265SOL    HW2  754   0.298   1.265   1.472
  266SOL     OW  755   1.599   1.290   1.277
  266SOL    HW1  756   1.653   1.266   1.352
  266SOL    HW2  757   1.539   1.357   1.311
  267SOL     OW  758   1.076   1.121   0.729
  267SOL    HW1  759   1.000   1.072   0.761
  267SOL    HW2  760   1.137   1.054   0.701
  268SOL     OW  761   1.032   0.264   0.989
  268SOL    HW1  762   1.021   0.212   0.909
  268SOL    HW2  763   1.026   0.201   1.060
  269SOL     OW  764   0.624   1.494   0.509
  269SOL    HW1  765   0.661   1.438   0.441
  269SOL    HW2  766   0.565   1.553   0.461
  270SOL     OW  767   1.741   0.370   1.389
  270SOL    HW1  768   1.814   0.430   1.378
  270SOL    HW2  769   1.756   0.302   1.323
  271SOL     OW  770   0.271   1.326   0.305
  271SOL    HW1  771   0.182   1.317   0.269
  271SOL    HW2  772   0.257   1.361   0.393
  272SOL     OW  773   0.142   1.015   1.672
  272SOL    HW1  774   0.072   1.010   1.736
  272SOL    HW2  775   0.223   1.005   1.723
  273SOL     OW  776   0.662   0.228   1.524
  273SOL    HW1  777   0.738   0.206   1.472
  273SOL    HW2  778   0.697   0.250   1.611
  274SOL     OW  779   0.005   0.360   9.952
  274SOL    HW1  780   0.008   0.437   0.009
  274SOL    HW2  781   0.090   0.357   9.909
  275SOL     OW  782   1.414   0.857   1.388
  275SOL    HW1  783   1.361   0.916   1.333
  275SOL    HW2  784   1.501   0.862   1.350
  276SOL     OW  785   0.045   0.150   0.300
  276SOL    HW1  786   0.110   0.213   0.272
  276SOL    HW2  787   0.073   0.123   0.388
  277SOL     OW  788   1.192   1.312   0.144
  277SOL    HW1  789   1.100   1.287   0.138
  277SOL    HW2  790   1.211   1.309   0.238
  278SOL     OW  791   0.631   0.830   1.440
  278SOL    HW1  792   0.689   0.905   1.427
  278SOL    HW2  793   0.689   0.754   1.441
  279SOL     OW  794   1.487   1.802   0.991
  279SOL    HW1  795   1.514   1.877   0.938
  279SOL    HW2  796   1.568   1.756   1.011
  280SOL     OW  797   0.710   0.548   1.699
  280SOL    HW1  798   0.759   0.607   1.756
  280SOL    HW2  799   0.726   0.461   1.735
  281SOL     OW  800   1.469   1.184   1.620
  281SOL    HW1  801   1.462   1.207   1.713
  281SOL    HW2  802   1.558   1.208   1.596
  282SOL     OW  803   0.365   1.755   1.562
  282SOL    HW1  804   0.282   1.799   1.544
  282SOL    HW2  805   0.340   1.672   1.603
  283SOL     OW  806   1.654   0.877   1.253
  283SOL    HW1  807   1.650   0.793   1.208
  283SOL    HW2  808   1.642   0.942   1.184
  284SOL     OW  809   1.215   0.340   0.451
  284SOL    HW1  810   1.279   0.270   0.437
  284SOL    HW2  811   1.247   0.386   0.528
  285SOL     OW  812   0.578   0.719   0.683
  285SOL    HW1  813   0.622   0.803   0.672
  285SOL    HW2  814   0.511   0.718   0.614
  286SOL     OW  815   1.741   0.356   1.662
  286SOL    HW1  816   1.742   0.367   1.567
  286SOL    HW2  817   1.662   0.305   1.680
  287SOL     OW  818   1.757   0.926   1.503
  287SOL    HW1  819   1.742   1.019   1.517
  287SOL    HW2  820   1.730   0.910   1.413
  288SOL     OW  821   0.898   1.415   0.047
  288SOL    HW1  822   0.813   1.374   0.032
  288SOL    HW2  823   0.890   1.455   0.133
  289SOL     OW  824   0.673   1.780   0.921
  289SOL    HW1  825   0.648   1.872   0.911
  289SOL    HW2  826   0.769   1.780   0.920
  290SOL     OW  827   0.875   0.978   0.858
  290SOL    HW1  828   0.926   0.906   0.895
  290SOL    HW2  829   0.828   1.015   0.933
  291SOL     OW  830   1.097   0.963   0.069
  291SOL    HW1  831   1.097   1.024   9.995
  291SOL    HW2  832   1.173   0.907   0.055
  292SOL     OW  833   1.830   1.558   0.841
  292SOL    HW1  834   1.754   1.549   0.784
  292SOL    HW2  835   1.810   1.505   0.917
  293SOL     OW  836   0.238   1.300   1.839
  293SOL    HW1  837   0.147   1.303   1.810
  293SOL    HW2  838   0.234   1.310   1.934
  294SOL     OW  839   0.106   1.109   0.586
  294SOL    HW1  840   0.088   1.095   0.679
  294SOL    HW2  841   0.199   1.133   0.582
  295SOL     OW  842   0.699   1.418   1.633
  295SOL    HW1  843   0.621   1.377   1.670
  295SOL    HW2  844   0.700   1.507   1.669
  296SOL     OW  845   1.765   0.148   1.229
  296SOL    HW1  846   1.712   0.069   1.222
  296SOL    HW2  847   1.806   0.158   1.144
  297SOL     OW  848   0.440   0.448   0.550
  297SOL    HW1  849   0.509   0.382   0.540
  297SOL    HW2  850   0.396   0.424   0.631
  298SOL     OW  851   1.695   1.480   1.083
  298SOL    HW1  852   1.617   1.461   1.030
  298SOL    HW2  853   1.695   1.413   1.150
  299SOL     OW  854   0.365   0.585   1.280
  299SOL    HW1  855   0.413   0.519   1.330
  299SOL    HW2  856   0.373   0.557   1.189
  300SOL     OW  857   0.843   1.595   0.664
  300SOL    HW1  858   0.835   1.678   0.617
  300SOL    HW2  859   0.763   1.547   0.643
  301SOL     OW  860   1.435   0.239   1.114
  301SOL    HW1  861   1.460   0.156   1.154
  301SOL    HW2  862   1.383   0.284   1.181
  302SOL     OW  863   0.992   0.042   1.157
  302SOL    HW1  864   0.919   9.994   1.120
  302SOL    HW2  865   1.057   9.975   1.178
  303SOL     OW  866   0.769   1.330   0.343
  303SOL    HW1  867   0.749   1.236   0.347
  303SOL    HW2  868   0.854   1.339   0.385
  304SOL     OW  869   0.618   1.569   1.287
  304SOL    HW1  870   0.614   1.656   1.328
  304SOL    HW2  871   0.707   1.563   1.253
  305SOL     OW  872   1.367   0.050   0.150
  305SOL    HW1  873   1.387   0.024   0.060
  305SOL    HW2  874   1.324   9.974   0.188
  306SOL     OW  875   1.301   0.475   0.677
  306SOL    HW1  876   1.250   0.556   0.676
  306SOL    HW2  877   1.292   0.442   0.766
  307SOL     OW  878   1.601   0.226   0.884
  307SOL    HW1  879   1.545   0.239   0.960
  307SOL    HW2  880   1.597   0.309   0.837
  308SOL     OW  881   0.081   1.058   0.322
  308SOL    HW1  882   0.168   1.017   0.315
  308SOL    HW2  883   0.069   1.072   0.415
  309SOL     OW  884   0.913   1.674   0.337
  309SOL    HW1  885   0.833   1.663   0.285
  309SOL    HW2  886   0.891   1.743   0.400
  310SOL     OW  887   0.261   0.549   1.967
  310SOL    HW1  888   0.212   0.601   2.030
  310SOL    HW2  889   0.221   0.569   1.882
  311SOL     OW  890   0.168   0.327   2.884
  311SOL    HW1  891   0.222   0.258   2.924
  311SOL    HW2  892   0.087   0.283   2.859
  312SOL     OW  893   0.022   0.370   2.480
  312SOL    HW1  894   9.938   0.417   2.474
  312SOL    HW2  895   9.999   0.279   2.462
  313SOL     OW  896   0.570   1.309   3.065
  313SOL    HW1  897   0.486   1.310   3.019
  313SOL    HW2  898   0.586   1.400   3.088
  314SOL     OW  899   1.588   1.525   2.567
  314SOL    HW1  900   1.541   1.493   2.644
  314SOL    HW2  901   1.521   1.527   2.498
  315SOL     OW  902   1.139   0.707   2.550
  315SOL    HW1  903   1.184   0.790   2.539
  315SOL    HW2  904   1.089   0.716   2.631
  316SOL     OW  905   1.805   0.588   2.078
  316SOL    HW1  906   1.767   0.586   1.990
  316SOL    HW2  907   1.763   0.515   2.123
  317SOL     OW  908   0.729   1.132   2.919
  317SOL    HW1  909   0.667   1.172   2.980
  317SOL    HW2  910   0.771   1.207   2.876
  318SOL     OW  911   0.880   0.748   3.687
  318SOL    HW1  912   0.881   0.816   3.753
  318SOL    HW2  913   0.898   0.793   3.605
  319SOL     OW  914   0.687   0.983   2.510
  319SOL    HW1  915   0.757   0.982   2.576
  319SOL    HW2  916   0.623   1.045   2.545
  320SOL     OW  917   0.716   1.147   3.697
  320SOL    HW1  918   0.767   1.221   3.732
  320SOL    HW2  919   0.642   1.189   3.652
  321SOL     OW  920   0.334   1.425   2.925
  321SOL    HW1  921   0.258   1.408   2.871
  321SOL    HW2  922   0.392   1.478   2.870
  322SOL     OW  923   1.454   1.506   3.234
  322SOL    HW1  924   1.509   1.583   3.247
  322SOL    HW2  925   1.381   1.517   3.296
  323SOL     OW  926   0.461   0.401   3.318
  323SOL    HW1  927   0.542   0.353   3.337
  323SOL    HW2  928   0.391   0.344   3.347
  324SOL     OW  929   1.589   0.459   2.607
  324SOL    HW1  930   1.518   0.462   2.543
  324SOL    HW2  931   1.572   0.532   2.666
  325SOL     OW  932   0.221   1.660   2.287
  325SOL    HW1  933   0.182   1.726   2.344
  325SOL    HW2  934   0.303   1.699   2.258
  326SOL     OW  935   1.136   1.342   3.558
  326SOL    HW1  936   1.182   1.330   3.642
  326SOL    HW2  937   1.083   1.262   3.549
  327SOL     OW  938   0.285   1.403   2.364
  327SOL    HW1  939   0.255   1.494   2.360
  327SOL    HW2  940   0.230   1.362   2.430
  328SOL     OW  941   0.304   1.082   2.764
  328SOL    HW1  942   0.299   0.988   2.785
  328SOL    HW2  943   0.234   1.121   2.815
  329SOL     OW  944   0.585   1.811   3.271
  329SOL    HW1  945   0.507   1.790   3.322
  329SOL    HW2  946   0.618   1.892   3.309
  330SOL     OW  947   0.569   0.988   2.016
  330SOL    HW1  948   0.620   1.030   1.947
  330SOL    HW2  949   0.605   1.022   2.097
  331SOL     OW  950   1.542   0.124   3.317
  331SOL    HW1  951   1.604   0.176   3.267
  331SOL    HW2  952   1.532   0.171   3.400
  332SOL     OW  953   0.140   0.656   2.437
  332SOL    HW1  954   0.120   0.567   2.464
  332SOL    HW2  955   0.121   0.709   2.514
  333SOL     OW  956   1.846   1.743   2.179
  333SOL    HW1  957   1.918   1.728   2.240
  333SOL    HW2  958   1.853   1.836   2.157
  334SOL     OW  959   0.029   1.621   2.062
  334SOL    HW1  960   0.011   1.527   2.058
  334SOL    HW2  961   0.088   1.632   2.137
  335SOL     OW  962   1.699   0.928   2.517
  335SOL    HW1  963   1.780   0.882   2.494
  335SOL    HW2  964   1.677   0.979   2.439
  336SOL     OW  965   1.657   1.105   2.295
  336SOL    HW1  966   1.742   1.097   2.251
  336SOL    HW2  967   1.671   1.171   2.363
  337SOL     OW  968   0.165   0.771   3.409
  337SOL    HW1  969   0.261   0.762   3.406
  337SOL    HW2  970   0.151   0.855   3.453
  338SOL     OW  971   0.627   1.399   2.600
  338SOL    HW1  972   0.585   1.313   2.607
  338SOL    HW2  973   0.610   1.427   2.510
  339SOL     OW  974   1.270   1.226   3.280
  339SOL    HW1  975   1.298   1.157   3.219
  339SOL    HW2  976   1.333   1.220   3.352
  340SOL     OW  977   0.851   0.035   2.416
  340SOL    HW1  978   0.874   0.124   2.389
  340SOL    HW2  979   0.758   0.027   2.395
  341SOL     OW  980   0.167   0.949   3.129
  341SOL    HW1  981   0.256   0.916   3.123
  341SOL    HW2  982   0.132   0.942   3.041
  342SOL     OW  983   1.535   1.016   2.062
  342SOL    HW1  984   1.466   0.956   2.092
  342SOL    HW2  985   1.577   1.046   2.142
  343SOL     OW  986   1.177   1.823   3.499
  343SOL    HW1  987   1.179   1.885   3.427
  343SOL    HW2  988   1.194   1.738   3.458
  344SOL     OW  989   0.330   0.316   3.591
  344SOL    HW1  990   0.408   0.313   3.647
  344SOL    HW2  991   0.256   0.312   3.652
  345SOL     OW  992   1.472   1.418   2.792
  345SOL    HW1  993   1.409   1.437   2.861
  345SOL    HW2  994   1.454   1.327   2.768
  346SOL     OW  995   1.637   1.796   2.424
  346SOL    HW1  996   1.620   1.749   2.342
  346SOL    HW2  997   1.637   1.728   2.491
  347SOL     OW  998   0.604   0.723   2.139
  347SOL    HW1  999   0.608   0.809   2.097
  347SOL    HW2 1000   0.537   0.733   2.207
  348SOL     OW 1001   1.283   0.393   2.801
  348SOL    HW1 1002   1.194   0.359   2.810
  348SOL    HW2 1003   1.337   0.333   2.854
  349SOL     OW 1004   1.579   1.673   2.181
  349SOL    HW1 1005   1.673   1.688   2.170
  349SOL    HW2 1006   1.546   1.661   2.092
  350SOL     OW 1007   0.794   0.611   3.307
  350SOL    HW1 1008   0.764   0.579   3.392
  350SOL    HW2 1009   0.768   0.543   3.245
  351SOL     OW 1010   1.401   0.493   3.538
  351SOL    HW1 1011   1.406   0.533   3.625
  351SOL    HW2 1012   1.447   0.409   3.547
  352SOL     OW 1013   0.945   0.881   3.453
  352SOL    HW1 1014   1.000   0.817   3.409
  352SOL    HW2 1015   0.897   0.924   3.382
  353SOL     OW 1016   1.011   0.421   3.076
  353SOL    HW1 1017   0.919   0.426   3.102
  353SOL    HW2 1018   1.009   0.378   2.990
  354SOL     OW 1019   1.059   0.706   2.283
  354SOL    HW1 1020   1.081   0.701   2.376
  354SOL    HW2 1021   0.975   0.660   2.276
  355SOL     OW 1022   0.078   0.827   2.668
  355SOL    HW1 1023   0.164   0.821   2.710
  355SOL    HW2 1024   0.020   0.860   2.737
  356SOL     OW 1025   0.112   1.862   3.443
  356SOL    HW1 1026   0.110   1.856   3.538
  356SOL    HW2 1027   0.057   1.789   3.413
  357SOL     OW 1028   0.903   0.352   2.062
  357SOL    HW1 1029   0.924   0.419   1.997
  357SOL    HW2 1030   0.953   0.275   2.034
  358SOL     OW 1031   1.692   0.565   3.698
  358SOL    HW1 1032   1.667   0.644   3.649
  358SOL    HW2 1033   1.714   0.501   3.630
  359SOL     OW 1034   1.394   1.151   2.405
  359SOL    HW1 1035   1.473   1.139   2.353
  359SOL    HW2 1036   1.340   1.211   2.354
  360SOL     OW 1037   0.599   0.199   2.780
  360SOL    HW1 1038   0.584   0.219   2.873
  360SOL    HW2 1039   0.590   0.284   2.736
  361SOL     OW 1040   0.996   1.451   2.327
  361SOL    HW1 1041   0.974   1.526   2.272
  361SOL    HW2 1042   0.966   1.476   2.415
  362SOL     OW 1043   0.339   1.806   2.803
  362SOL    HW1 1044   0.387   1.726   2.782
  362SOL    HW2 1045   0.399   1.877   2.781
  363SOL     OW 1046   1.805   1.045   2.753
  363SOL    HW1 1047   1.758   1.029   2.671
  363SOL    HW2 1048   1.736   1.054   2.818
  364SOL     OW 1049   1.217   1.543   3.378
  364SOL    HW1 1050   1.207   1.472   3.441
  364SOL    HW2 1051   1.151   1.527   3.312
  365SOL     OW 1052   0.312   0.942   2.145
  365SOL    HW1 1053   0.387   0.953   2.087
  365SOL    HW2 1054   0.323   0.854   2.182
  366SOL     OW 1055   1.485   0.766   2.573
  366SOL    HW1 1056   1.482   0.729   2.661
  366SOL    HW2 1057   1.564   0.820   2.573
  367SOL     OW 1058   0.484   1.274   3.597
  367SOL    HW1 1059   0.462   1.282   3.504
  367SOL    HW2 1060   0.400   1.266   3.642
  368SOL     OW 1061   1.142   1.776   2.086
  368SOL    HW1 1062   1.061   1.744   2.125
  368SOL    HW2 1063   1.163   1.712   2.018
  369SOL     OW 1064   0.184   0.286   3.352
  369SOL    HW1 1065   0.155   0.374   3.328
  369SOL    HW2 1066   0.220   0.295   3.440
  370SOL     OW 1067   1.639   1.389   1.962
  370SOL    HW1 1068   1.598   1.474   1.949
  370SOL    HW2 1069   1.572   1.326   1.936
  371SOL     OW 1070   0.471   1.748   2.181
  371SOL    HW1 1071   0.520   1.797   2.248
  371SOL    HW2 1072   0.539   1.704   2.129
  372SOL     OW 1073   1.405   0.162   2.278
  372SOL    HW1 1074   1.397   0.105   2.202
  372SOL    HW2 1075   1.495   0.152   2.307
  373SOL     OW 1076   0.257   1.791   3.078
  373SOL    HW1 1077   0.301   1.713   3.111
  373SOL    HW2 1078   0.270   1.787   2.983
  374SOL     OW 1079   0.954   1.703   2.754
  374SOL    HW1 1080   1.038   1.660   2.768
  374SOL    HW2 1081   0.912   1.651   2.684
  375SOL     OW 1082   0.393   0.707   2.322
  375SOL    HW1 1083   0.419   0.617   2.339
  375SOL    HW2 1084   0.306   0.715   2.362
  376SOL     OW 1085   1.504   0.230   3.582
  376SOL    HW1 1086   1.517   0.250   3.674
  376SOL    HW2 1087   1.435   0.163   3.582
  377SOL     OW 1088   0.614   0.104   1.977
  377SOL    HW1 1089   0.664   0.033   2.016
  377SOL    HW2 1090   0.592   0.072   1.889
  378SOL     OW 1091   0.757   0.276   3.642
  378SOL    HW1 1092   0.827   0.212   3.635
  378SOL    HW2 1093   0.714   0.254   3.725
  379SOL     OW 1094   0.871   1.527   3.061
  379SOL    HW1 1095   0.853   1.486   2.976
  379SOL    HW2 1096   0.938   1.472   3.100
  380SOL     OW 1097   1.334   0.595   3.294
  380SOL    HW1 1098   1.368   0.568   3.379
  380SOL    HW2 1099   1.368   0.683   3.281
  381SOL     OW 1100   0.819   1.377   2.820
  381SOL    HW1 1101   0.906   1.373   2.779
  381SOL    HW2 1102   0.760   1.393   2.747
  382SOL     OW 1103   0.934   0.522   2.756
  382SOL    HW1 1104   0.906   0.511   2.665
  382SOL    HW2 1105   0.957   0.434   2.786
  383SOL     OW 1106   0.595   0.018   2.336
  383SOL    HW1 1107   0.523   9.997   2.395
  383SOL    HW2 1108   0.570   0.103   2.297
  384SOL     OW 1109   1.434   1.213   1.895
  384SOL    HW1 1110   1.464   1.139   1.948
  384SOL    HW2 1111   1.349   1.236   1.931
  385SOL     OW 1112   0.334   0.113   1.989
  385SOL    HW1 1113   0.430   0.112   1.984
  385SOL    HW2 1114   0.312   0.041   2.048
  386SOL     OW 1115   0.943   0.275   2.325
  386SOL    HW1 1116   0.915   0.301   2.237
  386SOL    HW2 1117   1.037   0.294   2.326
  387SOL     OW 1118   1.075   0.693   3.306
  387SOL    HW1 1119   1.010   0.623   3.311
  387SOL    HW2 1120   1.159   0.647   3.301
  388SOL     OW 1121   1.209   1.586   2.664
  388SOL    HW1 1122   1.223   1.647   2.591
  388SOL    HW2 1123   1.283   1.603   2.723
  389SOL     OW 1124   0.491   1.160   2.586
  389SOL    HW1 1125   0.430   1.137   2.656
  389SOL    HW2 1126   0.442   1.143   2.506
  390SOL     OW 1127   1.254   1.791   2.479
  390SOL    HW1 1128   1.302   1.854   2.426
  390SOL    HW2 1129   1.183   1.842   2.519
  391SOL     OW 1130   1.030   0.529   1.887
  391SOL    HW1 1131   0.984   0.610   1.868
  391SOL    HW2 1132   1.088   0.550   1.960
  392SOL     OW 1133   0.122   0.541   3.250
  392SOL    HW1 1134   0.205   0.556   3.205
  392SOL    HW2 1135   0.109   0.620   3.304
  393SOL     OW 1136   0.564   0.236   3.052
  393SOL    HW1 1137   0.605   0.176   3.114
  393SOL    HW2 1138   0.470   0.229   3.070
  394SOL     OW 1139   0.864   0.474   2.501
  394SOL    HW1 1140   0.825   0.531   2.434
  394SOL    HW2 1141   0.889   0.395   2.454
  395SOL     OW 1142   0.983   0.062   2.660
  395SOL    HW1 1143   0.934   0.054   2.578
  395SOL    HW2 1144   0.986   9.973   2.696
  396SOL     OW 1145   1.434   1.153   2.716
  396SOL    HW1 1146   1.364   1.088   2.726
  396SOL    HW2 1147   1.447   1.160   2.622
  397SOL     OW 1148   1.457   0.624   2.813
  397SOL    HW1 1149   1.397   0.550   2.819
  397SOL    HW2 1150   1.512   0.616   2.891
  398SOL     OW 1151   1.825   0.798   2.251
  398SOL    HW1 1152   1.887   0.755   2.311
  398SOL    HW2 1153   1.814   0.735   2.179
  399SOL     OW 1154   0.493   1.430   1.996
  399SOL    HW1 1155   0.408   1.407   2.036
  399SOL    HW2 1156   0.499   1.374   1.919
  400SOL     OW 1157   1.708   1.273   2.495
  400SOL    HW1 1158   1.801   1.266   2.516
  400SOL    HW2 1159   1.684   1.362   2.521
  401SOL     OW 1160   1.394   0.578   1.935
  401SOL    HW1 1161   1.334   0.557   2.006
  401SOL    HW2 1162   1.480   0.550   1.967
  402SOL     OW 1163   0.539   0.257   2.193
  402SOL    HW1 1164   0.579   0.205   2.124
  402SOL    HW2 1165   0.530   0.345   2.155
  403SOL     OW 1166   1.735   1.244   3.395
  403SOL    HW1 1167   1.823   1.210   3.380
  403SOL    HW2 1168   1.748   1.331   3.432
  404SOL     OW 1169   1.043   1.357   3.198
  404SOL    HW1 1170   0.965   1.321   3.241
  404SOL    HW2 1171   1.116   1.310   3.238
  405SOL     OW 1172   1.608   1.634   3.534
  405SOL    HW1 1173   1.597   1.671   3.446
  405SOL    HW2 1174   1.686   1.579   3.527
  406SOL     OW 1175   1.151   1.240   2.967
  406SOL    HW1 1176   1.089   1.273   3.031
  406SOL    HW2 1177   1.119   1.271   2.883
  407SOL     OW 1178   1.609   1.092   2.938
  407SOL    HW1 1179   1.601   1.158   3.007
  407SOL    HW2 1180   1.539   1.113   2.876
  408SOL     OW 1181   0.886   0.166   3.241
  408SOL    HW1 1182   0.910   0.125   3.157
  408SOL    HW2 1183   0.970   0.188   3.281
  409SOL     OW 1184   0.981   1.116   3.584
  409SOL    HW1 1185   0.891   1.132   3.612
  409SOL    HW2 1186   0.977   1.036   3.532
  410SOL     OW 1187   0.708   1.063   2.242
  410SOL    HW1 1188   0.695   1.038   2.334
  410SOL    HW2 1189   0.784   1.012   2.214
  411SOL     OW 1190   0.425   0.847   3.122
  411SOL    HW1 1191   0.494   0.853   3.188
  411SOL    HW2 1192   0.398   0.755   3.124
  412SOL     OW 1193   1.269   0.375   3.147
  412SOL    HW1 1194   1.299   0.453   3.194
  412SOL    HW2 1195   1.180   0.396   3.119
  413SOL     OW 1196   0.076   1.583   3.193
  413SOL    HW1 1197   0.076   1.662   3.139
  413SOL    HW2 1198   0.168   1.564   3.208
  414SOL     OW 1199   0.341   1.115   2.360
  414SOL    HW1 1200   0.340   1.202   2.320
  414SOL    HW2 1201   0.334   1.055   2.286
  415SOL     OW 1202   0.570   0.483   2.713
  415SOL    HW1 1203   0.572   0.542   2.638
  415SOL    HW2 1204   0.623   0.528   2.780
  416SOL     OW 1205   1.247   1.353   2.260
  416SOL    HW1 1206   1.302   1.423   2.294
  416SOL    HW2 1207   1.159   1.375   2.291
  417SOL     OW 1208   1.310   1.469   3.004
  417SOL    HW1 1209   1.357   1.475   3.087
  417SOL    HW2 1210   1.258   1.389   3.011
  418SOL     OW 1211   1.576   0.626   2.342
  418SOL    HW1 1212   1.525   0.667   2.412
  418SOL    HW2 1213   1.628   0.698   2.306
  419SOL     OW 1214   0.348   1.534   3.170
  419SOL    HW1 1215   0.335   1.490   3.086
  419SOL    HW2 1216   0.442   1.550   3.175
  420SOL     OW 1217   0.445   0.727   3.474
  420SOL    HW1 1218   0.502   0.772   3.412
  420SOL    HW2 1219   0.492   0.646   3.495
  421SOL     OW 1220   1.626   0.788   3.561
  421SOL    HW1 1221   1.538   0.826   3.552
  421SOL    HW2 1222   1.675   0.826   3.488
  422SOL     OW 1223   0.953   0.078   3.637
  422SOL    HW1 1224   1.020   0.130   3.682
  422SOL    HW2 1225   0.997   0.043   3.559
  423SOL     OW 1226   0.526   0.033   3.593
  423SOL    HW1 1227   0.588   9.967   3.560
  423SOL    HW2 1228   0.516   0.094   3.520
  424SOL     OW 1229   0.592   0.881   2.901
  424SOL    HW1 1230   0.630   0.969   2.901
  424SOL    HW2 1231   0.532   0.880   2.975
  425SOL     OW 1232   1.306   0.858   2.863
  425SOL    HW1 1233   1.217   0.832   2.840
  425SOL    HW2 1234   1.360   0.781   2.847
  426SOL     OW 1235   1.191   0.534   2.117
  426SOL    HW1 1236   1.201   0.459   2.176
  426SOL    HW2 1237   1.152   0.602   2.171
  427SOL     OW 1238   0.304   0.182   3.121
  427SOL    HW1 1239   0.254   0.216   3.196
  427SOL    HW2 1240   0.312   0.088   3.138
  428SOL     OW 1241   0.005   1.321   3.140
  428SOL    HW1 1242   0.052   1.273   3.208
  428SOL    HW2 1243   0.019   1.413   3.161
  429SOL     OW 1244   0.712   0.630   2.900
  429SOL    HW1 1245   0.790   0.626   2.845
  429SOL    HW2 1246   0.679   0.719   2.889
  430SOL     OW 1247   1.752   0.968   3.732
  430SOL    HW1 1248   1.711   0.897   3.683
  430SOL    HW2 1249   1.688   0.989   3.800
  431SOL     OW 1250   0.380   0.012   2.514
  431SOL    HW1 1251   0.349   0.093   2.473
  431SOL    HW2 1252   0.319   9.945   2.482
  432SOL     OW 1253   1.637   0.398   2.202
  432SOL    HW1 1254   1.675   0.334   2.262
  432SOL    HW2 1255   1.607   0.469   2.258
  433SOL     OW 1256   1.038   0.764   2.820
  433SOL    HW1 1257   1.016   0.779   2.912
  433SOL    HW2 1258   1.008   0.674   2.803
  434SOL     OW 1259   0.981   1.564   3.597
  434SOL    HW1 1260   0.960   1.608   3.515
  434SOL    HW2 1261   1.021   1.481   3.570
  435SOL     OW 1262   1.838   1.494   3.464
  435SOL    HW1 1263   1.865   1.523   3.377
  435SOL    HW2 1264   1.917   1.505   3.518
  436SOL     OW 1265   0.364   0.906   3.673
  436SOL    HW1 1266   0.441   0.934   3.723
  436SOL    HW2 1267   0.400   0.845   3.608
  437SOL     OW 1268   1.515   0.281   1.982
  437SOL    HW1 1269   1.475   0.203   2.020
  437SOL    HW2 1270   1.562   0.322   2.055
  438SOL     OW 1271   1.281   0.822   1.882
  438SOL    HW1 1272   1.323   0.737   1.891
  438SOL    HW2 1273   1.317   0.859   1.801
  439SOL     OW 1274   1.072   1.353   2.728
  439SOL    HW1 1275   1.082   1.281   2.666
  439SOL    HW2 1276   1.124   1.424   2.690
  440SOL     OW 1277   0.323   0.806   2.804
  440SOL    HW1 1278   0.416   0.825   2.803
  440SOL    HW2 1279   0.318   0.715   2.834
  441SOL     OW 1280   0.352   0.535   2.873
  441SOL    HW1 1281   0.286   0.467   2.866
  441SOL    HW2 1282   0.419   0.511   2.809
  442SOL     OW 1283   1.144   0.393   3.536
  442SOL    HW1 1284   1.092   0.442   3.599
  442SOL    HW2 1285   1.227   0.439   3.532
  443SOL     OW 1286   1.143   0.208   3.334
  443SOL    HW1 1287   1.139   0.268   3.408
  443SOL    HW2 1288   1.197   0.254   3.269
  444SOL     OW 1289   9.969   1.331   2.082
  444SOL    HW1 1290   9.926   1.323   1.997
  444SOL    HW2 1291   9.988   1.241   2.108
  445SOL     OW 1292   0.081   1.686   2.811
  445SOL    HW1 1293   0.114   1.602   2.779
  445SOL    HW2 1294   0.153   1.747   2.796
  446SOL     OW 1295   0.497   1.576   2.769
  446SOL    HW1 1296   0.565   1.643   2.781
  446SOL    HW2 1297   0.536   1.513   2.709
  447SOL     OW 1298   0.951   0.786   3.076
  447SOL    HW1 1299   1.009   0.770   3.150
  447SOL    HW2 1300   0.872   0.736   3.097
  448SOL     OW 1301   0.026   0.548   2.977
  448SOL    HW1 1302   0.083   0.475   2.950
  448SOL    HW2 1303   0.035   0.552   3.072
  449SOL     OW 1304   0.162   0.548   3.569
  449SOL    HW1 1305   0.247   0.523   3.532
  449SOL    HW2 1306   0.142   0.632   3.528
  450SOL     OW 1307   1.390   0.921   3.514
  450SOL    HW1 1308   1.408   1.015   3.509
  450SOL    HW2 1309   1.382   0.894   3.423
  451SOL     OW 1310   0.821   0.577   2.236
  451SOL    HW1 1311   0.822   0.501   2.178
  451SOL    HW2 1312   0.748   0.630   2.204
  452SOL     OW 1313   1.626   0.605   3.030
  452SOL    HW1 1314   1.606   0.550   3.106
  452SOL    HW2 1315   1.714   0.579   3.004
  453SOL     OW 1316   0.257   1.559   3.584
  453SOL    HW1 1317   0.262   1.597   3.672
  453SOL    HW2 1318   0.264   1.465   3.598
  454SOL     OW 1319   0.734   0.448   3.100
  454SOL    HW1 1320   0.673   0.376   3.085
  454SOL    HW2 1321   0.717   0.510   3.029
  455SOL     OW 1322   0.903   1.680   3.353
  455SOL    HW1 1323   0.881   1.632   3.273
  455SOL    HW2 1324   0.907   1.772   3.325
  456SOL     OW 1325   0.513   0.482   2.044
  456SOL    HW1 1326   0.555   0.565   2.069
  456SOL    HW2 1327   0.427   0.508   2.011
  457SOL     OW 1328   0.157   1.159   3.301
  457SOL    HW1 1329   0.147   1.115   3.386
  457SOL    HW2 1330   0.166   1.087   3.239
  458SOL     OW 1331   1.303   1.036   3.070
  458SOL    HW1 1332   1.312   0.973   2.999
  458SOL    HW2 1333   1.250   1.107   3.033
  459SOL     OW 1334   1.324   0.864   2.154
  459SOL    HW1 1335   1.252   0.831   2.209
  459SOL    HW2 1336   1.295   0.848   2.065
  460SOL     OW 1337   1.788   1.723   3.034
  460SOL    HW1 1338   1.849   1.749   2.965
  460SOL    HW2 1339   1.755   1.638   3.006
  461SOL     OW 1340   1.241   1.735   2.954
  461SOL    HW1 1341   1.325   1.764   2.919
  461SOL    HW2 1342   1.255   1.643   2.978
  462SOL     OW 1343   0.098   1.183   2.907
  462SOL    HW1 1344   0.103   1.238   2.985
  462SOL    HW2 1345   0.005   1.177   2.887
  463SOL     OW 1346   0.692   1.683   3.610
  463SOL    HW1 1347   0.631   1.756   3.596
  463SOL    HW2 1348   0.766   1.702   3.553
  464SOL     OW 1349   1.763   0.187   2.346
  464SOL    HW1 1350   1.816   0.188   2.266
  464SOL    HW2 1351   1.797   0.113   2.397
  465SOL     OW 1352   1.397   1.569   2.365
  465SOL    HW1 1353   1.452   1.604   2.294
  465SOL    HW2 1354   1.342   1.643   2.391
  466SOL     OW 1355   0.114   1.796   3.718
  466SOL    HW1 1356   0.075   1.743   3.788
  466SOL    HW2 1357   0.187   1.842   3.761
  467SOL     OW 1358   1.279   0.938   2.525
  467SOL    HW1 1359   1.353   0.878   2.538
  467SOL    HW2 1360   1.315   1.010   2.473
  468SOL     OW 1361   0.784   1.281   3.272
  468SOL    HW1 1362   0.760   1.329   3.352
  468SOL    HW2 1363   0.709   1.293   3.214
  469SOL     OW 1364   0.673   1.633   2.019
  469SOL    HW1 1365   0.689   1.649   1.926
  469SOL    HW2 1366   0.617   1.556   2.022
  470SOL     OW 1367   1.616   1.729   3.264
  470SOL    HW1 1368   1.673   1.729   3.187
  470SOL    HW2 1369   1.600   1.822   3.282
  471SOL     OW 1370   1.852   0.154   2.824
  471SOL    HW1 1371   1.882   0.080   2.770
  471SOL    HW2 1372   1.766   0.175   2.788
  472SOL     OW 1373   0.266   0.370   2.605
  472SOL    HW1 1374   0.183   0.364   2.558
  472SOL    HW2 1375   0.248   0.334   2.691
  473SOL     OW 1376   1.212   1.588   1.898
  473SOL    HW1 1377   1.201   1.497   1.926
  473SOL    HW2 1378   1.142   1.602   1.834
  474SOL     OW 1379   0.825   1.012   3.246
  474SOL    HW1 1380   0.862   1.001   3.158
  474SOL    HW2 1381   0.814   1.107   3.255
  475SOL     OW 1382   0.916   0.915   2.160
  475SOL    HW1 1383   0.970   0.944   2.087
  475SOL    HW2 1384   0.968   0.849   2.205
  476SOL     OW 1385   1.484   1.646   1.920
  476SOL    HW1 1386   1.392   1.626   1.903
  476SOL    HW2 1387   1.525   1.649   1.833
  477SOL     OW 1388   0.372   1.321   3.357
  477SOL    HW1 1389   0.363   1.397   3.299
  477SOL    HW2 1390   0.299   1.264   3.333
  478SOL     OW 1391   1.599   1.290   3.139
  478SOL    HW1 1392   1.653   1.266   3.214
  478SOL    HW2 1393   1.540   1.357   3.173
  479SOL     OW 1394   1.077   1.120   2.590
  479SOL    HW1 1395   1.002   1.071   2.622
  479SOL    HW2 1396   1.139   1.054   2.561
  480SOL     OW 1397   1.028   0.261   2.843
  480SOL    HW1 1398   1.014   0.211   2.763
  480SOL    HW2 1399   1.021   0.196   2.913
  481SOL     OW 1400   0.606   1.487   2.345
  481SOL    HW1 1401   0.657   1.440   2.280
  481SOL    HW2 1402   0.518   1.493   2.307
  482SOL     OW 1403   1.741   0.368   3.250
  482SOL    HW1 1404   1.814   0.429   3.239
  482SOL    HW2 1405   1.756   0.301   3.184
  483SOL     OW 1406   0.243   1.360   2.104
  483SOL    HW1 1407   0.148   1.348   2.105
  483SOL    HW2 1408   0.266   1.380   2.195
  484SOL     OW 1409   0.142   1.014   3.534
  484SOL    HW1 1410   0.072   1.007   3.599
  484SOL    HW2 1411   0.223   1.005   3.585
  485SOL     OW 1412   0.662   0.229   3.385
  485SOL    HW1 1413   0.738   0.205   3.332
  485SOL    HW2 1414   0.698   0.250   3.471
  486SOL     OW 1415   0.052   0.321   1.815
  486SOL    HW1 1416   0.008   0.345   1.896
  486SOL    HW2 1417   0.069   0.404   1.771
  487SOL     OW 1418   1.414   0.857   3.250
  487SOL    HW1 1419   1.361   0.915   3.195
  487SOL    HW2 1420   1.502   0.862   3.212
  488SOL     OW 1421   0.043   0.093   2.150
  488SOL    HW1 1422   0.091   0.176   2.137
  488SOL    HW2 1423   0.027   0.091   2.245
  489SOL     OW 1424   1.181   1.322   1.984
  489SOL    HW1 1425   1.089   1.298   1.983
  489SOL    HW2 1426   1.204   1.325   2.077
  490SOL     OW 1427   0.630   0.830   3.301
  490SOL    HW1 1428   0.689   0.905   3.288
  490SOL    HW2 1429   0.689   0.754   3.303
  491SOL     OW 1430   1.487   1.803   2.854
  491SOL    HW1 1431   1.513   1.877   2.799
  491SOL    HW2 1432   1.569   1.758   2.874
  492SOL     OW 1433   0.711   0.547   3.561
  492SOL    HW1 1434   0.759   0.606   3.618
  492SOL    HW2 1435   0.727   0.460   3.597
  493SOL     OW 1436   1.469   1.184   3.482
  493SOL    HW1 1437   1.462   1.207   3.574
  493SOL    HW2 1438   1.558   1.208   3.458
  494SOL     OW 1439   0.365   1.755   3.424
  494SOL    HW1 1440   0.282   1.799   3.407
  494SOL    HW2 1441   0.341   1.672   3.465
  495SOL     OW 1442   1.654   0.877   3.115
  495SOL    HW1 1443   1.650   0.793   3.070
  495SOL    HW2 1444   1.643   0.942   3.046
  496SOL     OW 1445   1.210   0.343   2.316
  496SOL    HW1 1446   1.277   0.276   2.301
  496SOL    HW2 1447   1.241   0.390   2.394
  497SOL     OW 1448   0.584   0.722   2.548
  497SOL    HW1 1449   0.625   0.807   2.536
  497SOL    HW2 1450   0.518   0.717   2.479
  498SOL     OW 1451   1.741   0.356   3.524
  498SOL    HW1 1452   1.742   0.367   3.429
  498SOL    HW2 1453   1.662   0.305   3.541
  499SOL     OW 1454   1.757   0.926   3.365
  499SOL    HW1 1455   1.742   1.019   3.378
  499SOL    HW2 1456   1.730   0.910   3.274
  500SOL     OW 1457   0.875   1.356   1.926
  500SOL    HW1 1458   0.835   1.378   2.010
  500SOL    HW2 1459   0.884   1.441   1.882
  501SOL     OW 1460   0.674   1.776   2.780
  501SOL    HW1 1461   0.649   1.869   2.773
  501SOL    HW2 1462   0.769   1.777   2.781
  502SOL     OW 1463   0.875   0.978   2.718
  502SOL    HW1 1464   0.925   0.905   2.755
  502SOL    HW2 1465   0.828   1.015   2.793
  503SOL     OW 1466   1.063   0.974   1.944
  503SOL    HW1 1467   1.048   1.034   1.871
  503SOL    HW2 1468   1.141   0.924   1.918
  504SOL     OW 1469   1.830   1.559   2.702
  504SOL    HW1 1470   1.753   1.550   2.645
  504SOL    HW2 1471   1.808   1.506   2.779
  505SOL     OW 1472   0.239   1.301   3.701
  505SOL    HW1 1473   0.147   1.303   3.672
  505SOL    HW2 1474   0.234   1.310   3.796
  506SOL     OW 1475   0.154   1.224   2.532
  506SOL    HW1 1476   0.093   1.168   2.580
  506SOL    HW2 1477   0.212   1.162   2.487
  507SOL     OW 1478   0.698   1.419   3.494
  507SOL    HW1 1479   0.621   1.377   3.532
  507SOL    HW2 1480   0.699   1.507   3.531
  508SOL     OW 1481   1.763   0.148   3.089
  508SOL    HW1 1482   1.711   0.068   3.081
  508SOL    HW2 1483   1.806   0.157   3.004
  509SOL     OW 1484   0.446   0.460   2.410
  509SOL    HW1 1485   0.496   0.382   2.383
  509SOL    HW2 1486   0.393   0.430   2.483
  510SOL     OW 1487   1.695   1.480   2.944
  510SOL    HW1 1488   1.617   1.461   2.892
  510SOL    HW2 1489   1.696   1.413   3.012
  511SOL     OW 1490   0.365   0.585   3.142
  511SOL    HW1 1491   0.413   0.519   3.193
  511SOL    HW2 1492   0.374   0.556   3.051
  512SOL     OW 1493   0.844   1.583   2.534
  512SOL    HW1 1494   0.815   1.655   2.477
  512SOL    HW2 1495   0.766   1.527   2.543
  513SOL     OW 1496   1.434   0.239   2.974
  513SOL    HW1 1497   1.463   0.159   3.017
  513SOL    HW2 1498   1.383   0.285   3.041
  514SOL     OW 1499   1.009   0.043   3.018
  514SOL    HW1 1500   0.959   9.964   2.997
  514SOL    HW2 1501   1.095   0.011   3.044
  515SOL     OW 1502   0.776   1.333   2.191
  515SOL    HW1 1503   0.752   1.241   2.204
  515SOL    HW2 1504   0.856   1.345   2.242
  516SOL     OW 1505   0.618   1.570   3.148
  516SOL    HW1 1506   0.615   1.656   3.189
  516SOL    HW2 1507   0.707   1.562   3.115
  517SOL     OW 1508   1.385   0.032   2.036
  517SOL    HW1 1509   1.469   9.987   2.043
  517SOL    HW2 1510   1.320   9.963   2.046
  518SOL     OW 1511   1.300   0.478   2.537
  518SOL    HW1 1512   1.248   0.558   2.538
  518SOL    HW2 1513   1.292   0.444   2.627
  519SOL     OW 1514   1.600   0.224   2.745
  519SOL    HW1 1515   1.544   0.237   2.821
  519SOL    HW2 1516   1.597   0.308   2.698
  520SOL     OW 1517   0.065   1.085   2.155
  520SOL    HW1 1518   0.146   1.037   2.135
  520SOL    HW2 1519   0.033   1.044   2.235
  521SOL     OW 1520   0.902   1.671   2.189
  521SOL    HW1 1521   0.822   1.658   2.138
  521SOL    HW2 1522   0.880   1.739   2.252
  522SOL     OW 1523   0.261   0.549   3.829
  522SOL    HW1 1524   0.211   0.601   3.892
  522SOL    HW2 1525   0.221   0.569   3.745
  523SOL     OW 1526   0.168   0.327   4.747
  523SOL    HW1 1527   0.222   0.259   4.787
  523SOL    HW2 1528   0.087   0.283   4.721
  524SOL     OW 1529   0.022   0.370   4.342
  524SOL    HW1 1530   9.938   0.417   4.336
  524SOL    HW2 1531  10.000   0.279   4.324
  525SOL     OW 1532   0.570   1.309   4.927
  525SOL    HW1 1533   0.486   1.310   4.881
  525SOL    HW2 1534   0.586   1.400   4.950
  526SOL     OW 1535   1.588   1.525   4.429
  526SOL    HW1 1536   1.541   1.493   4.506
  526SOL    HW2 1537   1.521   1.527   4.360
  527SOL     OW 1538   1.139   0.707   4.411
  527SOL    HW1 1539   1.184   0.790   4.401
  527SOL    HW2 1540   1.089   0.716   4.493
  528SOL     OW 1541   1.805   0.588   3.940
  528SOL    HW1 1542   1.767   0.586   3.852
  528SOL    HW2 1543   1.763   0.515   3.985
  529SOL     OW 1544   0.729   1.132   4.781
  529SOL    HW1 1545   0.667   1.172   4.842
  529SOL    HW2 1546   0.771   1.207   4.738
  530SOL     OW 1547   0.880   0.748   5.549
  530SOL    HW1 1548   0.882   0.816   5.615
  530SOL    HW2 1549   0.898   0.793   5.467
  531SOL     OW 1550   0.688   0.983   4.372
  531SOL    HW1 1551   0.757   0.982   4.438
  531SOL    HW2 1552   0.623   1.045   4.407
  532SOL     OW 1553   0.716   1.147   5.559
  532SOL    HW1 1554   0.767   1.221   5.593
  532SOL    HW2 1555   0.642   1.188   5.514
  533SOL     OW 1556   0.334   1.425   4.787
  533SOL    HW1 1557   0.258   1.408   4.733
  533SOL    HW2 1558   0.392   1.478   4.732
  534SOL     OW 1559   1.454   1.506   5.096
  534SOL    HW1 1560   1.508   1.583   5.109
  534SOL    HW2 1561   1.381   1.517   5.158
  535SOL     OW 1562   0.462   0.401   5.180
  535SOL    HW1 1563   0.542   0.353   5.199
  535SOL    HW2 1564   0.391   0.344   5.210
  536SOL     OW 1565   1.589   0.459   4.469
  536SOL    HW1 1566   1.518   0.462   4.405
  536SOL    HW2 1567   1.571   0.532   4.528
  537SOL     OW 1568   0.222   1.659   4.151
  537SOL    HW1 1569   0.182   1.726   4.208
  537SOL    HW2 1570   0.304   1.699   4.122
  538SOL     OW 1571   1.136   1.342   5.420
  538SOL    HW1 1572   1.182   1.330   5.504
  538SOL    HW2 1573   1.083   1.263   5.411
  539SOL     OW 1574   0.286   1.402   4.226
  539SOL    HW1 1575   0.256   1.493   4.222
  539SOL    HW2 1576   0.230   1.362   4.292
  540SOL     OW 1577   0.304   1.082   4.626
  540SOL    HW1 1578   0.299   0.988   4.647
  540SOL    HW2 1579   0.234   1.122   4.677
  541SOL     OW 1580   0.585   1.811   5.133
  541SOL    HW1 1581   0.507   1.790   5.185
  541SOL    HW2 1582   0.618   1.892   5.171
  542SOL     OW 1583   0.569   0.987   3.878
  542SOL    HW1 1584   0.620   1.030   3.809
  542SOL    HW2 1585   0.606   1.022   3.959
  543SOL     OW 1586   1.542   0.124   5.179
  543SOL    HW1 1587   1.604   0.176   5.129
  543SOL    HW2 1588   1.532   0.171   5.262
  544SOL     OW 1589   0.140   0.656   4.299
  544SOL    HW1 1590   0.120   0.567   4.325
  544SOL    HW2 1591   0.121   0.709   4.376
  545SOL     OW 1592   1.846   1.743   4.042
  545SOL    HW1 1593   1.918   1.728   4.103
  545SOL    HW2 1594   1.853   1.836   4.019
  546SOL     OW 1595   0.029   1.621   3.924
  546SOL    HW1 1596   0.011   1.527   3.920
  546SOL    HW2 1597   0.087   1.631   3.999
  547SOL     OW 1598   1.699   0.928   4.378
  547SOL    HW1 1599   1.780   0.882   4.355
  547SOL    HW2 1600   1.677   0.979   4.301
  548SOL     OW 1601   1.657   1.105   4.157
  548SOL    HW1 1602   1.742   1.097   4.113
  548SOL    HW2 1603   1.671   1.171   4.225
  549SOL     OW 1604   0.165   0.771   5.271
  549SOL    HW1 1605   0.261   0.762   5.268
  549SOL    HW2 1606   0.151   0.855   5.315
  550SOL     OW 1607   0.628   1.399   4.462
  550SOL    HW1 1608   0.585   1.313   4.469
  550SOL    HW2 1609   0.610   1.427   4.372
  551SOL     OW 1610   1.270   1.226   5.142
  551SOL    HW1 1611   1.298   1.157   5.081
  551SOL    HW2 1612   1.333   1.220   5.214
  552SOL     OW 1613   0.851   0.035   4.278
  552SOL    HW1 1614   0.874   0.124   4.251
  552SOL    HW2 1615   0.758   0.027   4.257
  553SOL     OW 1616   0.167   0.949   4.991
  553SOL    HW1 1617   0.256   0.916   4.985
  553SOL    HW2 1618   0.132   0.942   4.903
  554SOL     OW 1619   1.535   1.016   3.924
  554SOL    HW1 1620   1.466   0.956   3.953
  554SOL    HW2 1621   1.577   1.046   4.004
  555SOL     OW 1622   1.177   1.823   5.361
  555SOL    HW1 1623   1.179   1.885   5.289
  555SOL    HW2 1624   1.194   1.738   5.320
  556SOL     OW 1625   0.330   0.316   5.453
  556SOL    HW1 1626   0.408   0.313   5.509
  556SOL    HW2 1627   0.256   0.312   5.514
  557SOL     OW 1628   1.472   1.418   4.654
  557SOL    HW1 1629   1.409   1.437   4.723
  557SOL    HW2 1630   1.454   1.327   4.630
  558SOL     OW 1631   1.637   1.796   4.286
  558SOL    HW1 1632   1.620   1.749   4.204
  558SOL    HW2 1633   1.637   1.727   4.353
  559SOL     OW 1634   0.604   0.723   4.001
  559SOL    HW1 1635   0.608   0.809   3.959
  559SOL    HW2 1636   0.537   0.733   4.069
  560SOL     OW 1637   1.283   0.392   4.663
  560SOL    HW1 1638   1.194   0.359   4.672
  560SOL    HW2 1639   1.337   0.333   4.716
  561SOL     OW 1640   1.579   1.673   4.043
  561SOL    HW1 1641   1.673   1.688   4.032
  561SOL    HW2 1642   1.546   1.660   3.954
  562SOL     OW 1643   0.794   0.611   5.169
  562SOL    HW1 1644   0.764   0.579   5.254
  562SOL    HW2 1645   0.768   0.543   5.107
  563SOL     OW 1646   1.401   0.492   5.400
  563SOL    HW1 1647   1.406   0.532   5.487
  563SOL    HW2 1648   1.447   0.409   5.409
  564SOL     OW 1649   0.945   0.881   5.315
  564SOL    HW1 1650   1.000   0.817   5.271
  564SOL    HW2 1651   0.897   0.924   5.244
  565SOL     OW 1652   1.011   0.421   4.938
  565SOL    HW1 1653   0.919   0.426   4.964
  565SOL    HW2 1654   1.009   0.378   4.852
  566SOL     OW 1655   1.059   0.706   4.145
  566SOL    HW1 1656   1.081   0.701   4.238
  566SOL    HW2 1657   0.975   0.660   4.138
  567SOL     OW 1658   0.078   0.827   4.530
  567SOL    HW1 1659   0.164   0.821   4.572
  567SOL    HW2 1660   0.021   0.860   4.599
  568SOL     OW 1661   0.111   1.862   5.305
  568SOL    HW1 1662   0.110   1.857   5.400
  568SOL    HW2 1663   0.057   1.789   5.275
  569SOL     OW 1664   0.902   0.352   3.924
  569SOL    HW1 1665   0.924   0.419   3.859
  569SOL    HW2 1666   0.950   0.274   3.896
  570SOL     OW 1667   1.692   0.565   5.559
  570SOL    HW1 1668   1.667   0.643   5.510
  570SOL    HW2 1669   1.714   0.501   5.492
  571SOL     OW 1670   1.393   1.151   4.267
  571SOL    HW1 1671   1.473   1.139   4.215
  571SOL    HW2 1672   1.340   1.211   4.216
  572SOL     OW 1673   0.598   0.199   4.642
  572SOL    HW1 1674   0.583   0.219   4.735
  572SOL    HW2 1675   0.589   0.284   4.598
  573SOL     OW 1676   0.996   1.451   4.189
  573SOL    HW1 1677   0.974   1.526   4.134
  573SOL    HW2 1678   0.966   1.476   4.277
  574SOL     OW 1679   0.339   1.806   4.662
  574SOL    HW1 1680   0.387   1.726   4.642
  574SOL    HW2 1681   0.400   1.877   4.642
  575SOL     OW 1682   1.805   1.045   4.614
  575SOL    HW1 1683   1.758   1.029   4.532
  575SOL    HW2 1684   1.736   1.054   4.680
  576SOL     OW 1685   1.218   1.544   5.240
  576SOL    HW1 1686   1.207   1.472   5.303
  576SOL    HW2 1687   1.150   1.528   5.175
  577SOL     OW 1688   0.313   0.942   4.007
  577SOL    HW1 1689   0.388   0.953   3.949
  577SOL    HW2 1690   0.324   0.854   4.044
  578SOL     OW 1691   1.485   0.766   4.435
  578SOL    HW1 1692   1.482   0.729   4.523
  578SOL    HW2 1693   1.564   0.820   4.435
  579SOL     OW 1694   0.484   1.274   5.459
  579SOL    HW1 1695   0.462   1.282   5.366
  579SOL    HW2 1696   0.400   1.266   5.504
  580SOL     OW 1697   1.142   1.776   3.948
  580SOL    HW1 1698   1.061   1.744   3.987
  580SOL    HW2 1699   1.163   1.712   3.880
  581SOL     OW 1700   0.184   0.286   5.214
  581SOL    HW1 1701   0.155   0.374   5.190
  581SOL    HW2 1702   0.220   0.295   5.302
  582SOL     OW 1703   1.639   1.388   3.825
  582SOL    HW1 1704   1.598   1.474   3.811
  582SOL    HW2 1705   1.572   1.326   3.798
  583SOL     OW 1706   0.471   1.748   4.043
  583SOL    HW1 1707   0.520   1.797   4.110
  583SOL    HW2 1708   0.539   1.704   3.992
  584SOL     OW 1709   1.405   0.162   4.140
  584SOL    HW1 1710   1.398   0.104   4.064
  584SOL    HW2 1711   1.495   0.151   4.169
  585SOL     OW 1712   0.256   1.790   4.940
  585SOL    HW1 1713   0.301   1.713   4.973
  585SOL    HW2 1714   0.267   1.785   4.845
  586SOL     OW 1715   0.954   1.703   4.616
  586SOL    HW1 1716   1.038   1.660   4.631
  586SOL    HW2 1717   0.912   1.651   4.546
  587SOL     OW 1718   0.392   0.707   4.184
  587SOL    HW1 1719   0.419   0.617   4.201
  587SOL    HW2 1720   0.306   0.715   4.224
  588SOL     OW 1721   1.504   0.230   5.444
  588SOL    HW1 1722   1.517   0.250   5.536
  588SOL    HW2 1723   1.435   0.163   5.444
  589SOL     OW 1724   0.615   0.105   3.839
  589SOL    HW1 1725   0.664   0.033   3.878
  589SOL    HW2 1726   0.592   0.072   3.751
  590SOL     OW 1727   0.757   0.276   5.504
  590SOL    HW1 1728   0.827   0.212   5.496
  590SOL    HW2 1729   0.714   0.254   5.587
  591SOL     OW 1730   0.871   1.527   4.923
  591SOL    HW1 1731   0.853   1.486   4.838
  591SOL    HW2 1732   0.938   1.472   4.962
  592SOL     OW 1733   1.334   0.595   5.156
  592SOL    HW1 1734   1.368   0.568   5.241
  592SOL    HW2 1735   1.368   0.683   5.143
  593SOL     OW 1736   0.820   1.377   4.682
  593SOL    HW1 1737   0.906   1.373   4.641
  593SOL    HW2 1738   0.760   1.393   4.609
  594SOL     OW 1739   0.934   0.522   4.618
  594SOL    HW1 1740   0.906   0.511   4.527
  594SOL    HW2 1741   0.957   0.434   4.648
  595SOL     OW 1742   0.595   0.018   4.197
  595SOL    HW1 1743   0.523   9.997   4.256
  595SOL    HW2 1744   0.570   0.103   4.159
  596SOL     OW 1745   1.434   1.213   3.757
  596SOL    HW1 1746   1.464   1.139   3.810
  596SOL    HW2 1747   1.349   1.236   3.793
  597SOL     OW 1748   0.334   0.114   3.851
  597SOL    HW1 1749   0.430   0.112   3.847
  597SOL    HW2 1750   0.312   0.041   3.910
  598SOL     OW 1751   0.943   0.275   4.187
  598SOL    HW1 1752   0.915   0.301   4.099
  598SOL    HW2 1753   1.037   0.294   4.188
  599SOL     OW 1754   1.075   0.693   5.168
  599SOL    HW1 1755   1.010   0.623   5.173
  599SOL    HW2 1756   1.159   0.647   5.163
  600SOL     OW 1757   1.210   1.586   4.526
  600SOL    HW1 1758   1.223   1.647   4.453
  600SOL    HW2 1759   1.283   1.603   4.585
  601SOL     OW 1760   0.491   1.160   4.448
  601SOL    HW1 1761   0.430   1.138   4.519
  601SOL    HW2 1762   0.442   1.143   4.368
  602SOL     OW 1763   1.254   1.791   4.341
  602SOL    HW1 1764   1.302   1.855   4.288
  602SOL    HW2 1765   1.183   1.842   4.381
  603SOL     OW 1766   1.032   0.527   3.749
  603SOL    HW1 1767   0.985   0.608   3.729
  603SOL    HW2 1768   1.089   0.549   3.822
  604SOL     OW 1769   0.122   0.541   5.112
  604SOL    HW1 1770   0.205   0.556   5.067
  604SOL    HW2 1771   0.109   0.620   5.166
  605SOL     OW 1772   0.564   0.236   4.914
  605SOL    HW1 1773   0.605   0.176   4.977
  605SOL    HW2 1774   0.470   0.229   4.932
  606SOL     OW 1775   0.864   0.475   4.363
  606SOL    HW1 1776   0.825   0.531   4.296
  606SOL    HW2 1777   0.889   0.395   4.316
  607SOL     OW 1778   0.984   0.062   4.522
  607SOL    HW1 1779   0.934   0.054   4.440
  607SOL    HW2 1780   0.986   9.973   4.557
  608SOL     OW 1781   1.434   1.153   4.578
  608SOL    HW1 1782   1.364   1.088   4.589
  608SOL    HW2 1783   1.447   1.160   4.484
  609SOL     OW 1784   1.457   0.624   4.675
  609SOL    HW1 1785   1.396   0.550   4.681
  609SOL    HW2 1786   1.512   0.616   4.753
  610SOL     OW 1787   1.825   0.798   4.113
  610SOL    HW1 1788   1.887   0.755   4.173
  610SOL    HW2 1789   1.814   0.735   4.042
  611SOL     OW 1790   0.493   1.429   3.859
  611SOL    HW1 1791   0.408   1.407   3.898
  611SOL    HW2 1792   0.499   1.374   3.781
  612SOL     OW 1793   1.708   1.273   4.357
  612SOL    HW1 1794   1.801   1.266   4.378
  612SOL    HW2 1795   1.684   1.362   4.383
  613SOL     OW 1796   1.394   0.578   3.797
  613SOL    HW1 1797   1.334   0.557   3.868
  613SOL    HW2 1798   1.480   0.550   3.829
  614SOL     OW 1799   0.539   0.257   4.055
  614SOL    HW1 1800   0.580   0.205   3.986
  614SOL    HW2 1801   0.530   0.345   4.017
  615SOL     OW 1802   1.735   1.244   5.256
  615SOL    HW1 1803   1.823   1.210   5.242
  615SOL    HW2 1804   1.748   1.331   5.294
  616SOL     OW 1805   1.043   1.357   5.060
  616SOL    HW1 1806   0.965   1.321   5.103
  616SOL    HW2 1807   1.116   1.310   5.100
  617SOL     OW 1808   1.608   1.634   5.396
  617SOL    HW1 1809   1.597   1.671   5.308
  617SOL    HW2 1810   1.686   1.579   5.389
  618SOL     OW 1811   1.152   1.240   4.829
  618SOL    HW1 1812   1.089   1.273   4.893
  618SOL    HW2 1813   1.119   1.271   4.745
  619SOL     OW 1814   1.609   1.092   4.800
  619SOL    HW1 1815   1.601   1.158   4.869
  619SOL    HW2 1816   1.539   1.113   4.738
  620SOL     OW 1817   0.886   0.166   5.102
  620SOL    HW1 1818   0.910   0.125   5.019
  620SOL    HW2 1819   0.970   0.188   5.143
  621SOL     OW 1820   0.981   1.116   5.446
  621SOL    HW1 1821   0.891   1.132   5.474
  621SOL    HW2 1822   0.977   1.036   5.394
  622SOL     OW 1823   0.709   1.063   4.104
  622SOL    HW1 1824   0.695   1.038   4.195
  622SOL    HW2 1825   0.784   1.012   4.076
  623SOL     OW 1826   0.425   0.847   4.984
  623SOL    HW1 1827   0.494   0.853   5.050
  623SOL    HW2 1828   0.398   0.755   4.986
  624SOL     OW 1829   1.270   0.375   5.009
  624SOL    HW1 1830   1.299   0.453   5.056
  624SOL    HW2 1831   1.180   0.396   4.981
  625SOL     OW 1832   0.075   1.583   5.055
  625SOL    HW1 1833   0.075   1.662   5.002
  625SOL    HW2 1834   0.168   1.564   5.070
  626SOL     OW 1835   0.341   1.115   4.222
  626SOL    HW1 1836   0.340   1.202   4.183
  626SOL    HW2 1837   0.334   1.055   4.148
  627SOL     OW 1838   0.570   0.483   4.575
  627SOL    HW1 1839   0.572   0.542   4.500
  627SOL    HW2 1840   0.623   0.528   4.642
  628SOL     OW 1841   1.247   1.353   4.122
  628SOL    HW1 1842   1.302   1.423   4.156
  628SOL    HW2 1843   1.159   1.375   4.153
  629SOL     OW 1844   1.310   1.469   4.866
  629SOL    HW1 1845   1.357   1.475   4.949
  629SOL    HW2 1846   1.258   1.389   4.873
  630SOL     OW 1847   1.576   0.626   4.204
  630SOL    HW1 1848   1.525   0.667   4.274
  630SOL    HW2 1849   1.628   0.698   4.168
  631SOL     OW 1850   0.348   1.534   5.032
  631SOL    HW1 1851   0.335   1.490   4.948
  631SOL    HW2 1852   0.442   1.550   5.037
  632SOL     OW 1853   0.445   0.727   5.336
  632SOL    HW1 1854   0.502   0.772   5.274
  632SOL    HW2 1855   0.491   0.646   5.357
  633SOL     OW 1856   1.626   0.788   5.422
  633SOL    HW1 1857   1.538   0.826   5.414
  633SOL    HW2 1858   1.675   0.826   5.350
  634SOL     OW 1859   0.953   0.079   5.499
  634SOL    HW1 1860   1.020   0.130   5.544
  634SOL    HW2 1861   0.997   0.044   5.421
  635SOL     OW 1862   0.526   0.033   5.454
  635SOL    HW1 1863   0.588   9.967   5.423
  635SOL    HW2 1864   0.516   0.094   5.381
  636SOL     OW 1865   0.592   0.881   4.762
  636SOL    HW1 1866   0.630   0.969   4.763
  636SOL    HW2 1867   0.532   0.880   4.837
  637SOL     OW 1868   1.306   0.858   4.725
  637SOL    HW1 1869   1.217   0.832   4.702
  637SOL    HW2 1870   1.360   0.780   4.709
  638SOL     OW 1871   1.192   0.534   3.979
  638SOL    HW1 1872   1.201   0.459   4.038
  638SOL    HW2 1873   1.152   0.602   4.033
  639SOL     OW 1874   0.304   0.182   4.983
  639SOL    HW1 1875   0.254   0.216   5.058
  639SOL    HW2 1876   0.312   0.088   5.000
  640SOL     OW 1877   0.005   1.321   5.002
  640SOL    HW1 1878   0.052   1.273   5.070
  640SOL    HW2 1879   0.019   1.413   5.023
  641SOL     OW 1880   0.712   0.630   4.762
  641SOL    HW1 1881   0.790   0.626   4.707
  641SOL    HW2 1882   0.679   0.719   4.750
  642SOL     OW 1883   1.752   0.969   5.593
  642SOL    HW1 1884   1.711   0.897   5.545
  642SOL    HW2 1885   1.688   0.989   5.662
  643SOL     OW 1886   0.380   0.011   4.375
  643SOL    HW1 1887   0.350   0.092   4.336
  643SOL    HW2 1888   0.318   9.945   4.344
  644SOL     OW 1889   1.637   0.398   4.064
  644SOL    HW1 1890   1.675   0.334   4.124
  644SOL    HW2 1891   1.608   0.469   4.120
  645SOL     OW 1892   1.038   0.764   4.682
  645SOL    HW1 1893   1.016   0.779   4.774
  645SOL    HW2 1894   1.009   0.674   4.665
  646SOL     OW 1895   0.981   1.564   5.458
  646SOL    HW1 1896   0.960   1.608   5.376
  646SOL    HW2 1897   1.021   1.481   5.432
  647SOL     OW 1898   1.838   1.494   5.326
  647SOL    HW1 1899   1.865   1.523   5.239
  647SOL    HW2 1900   1.917   1.505   5.380
  648SOL     OW 1901   0.364   0.906   5.535
  648SOL    HW1 1902   0.441   0.934   5.585
  648SOL    HW2 1903   0.400   0.845   5.470
  649SOL     OW 1904   1.515   0.281   3.844
  649SOL    HW1 1905   1.475   0.203   3.882
  649SOL    HW2 1906   1.562   0.322   3.917
  650SOL     OW 1907   1.281   0.822   3.744
  650SOL    HW1 1908   1.323   0.737   3.753
  650SOL    HW2 1909   1.317   0.859   3.663
  651SOL     OW 1910   1.072   1.353   4.589
  651SOL    HW1 1911   1.082   1.281   4.527
  651SOL    HW2 1912   1.124   1.424   4.552
  652SOL     OW 1913   0.323   0.806   4.666
  652SOL    HW1 1914   0.416   0.825   4.665
  652SOL    HW2 1915   0.318   0.715   4.696
  653SOL     OW 1916   0.352   0.535   4.735
  653SOL    HW1 1917   0.286   0.467   4.728
  653SOL    HW2 1918   0.419   0.510   4.671
  654SOL     OW 1919   1.144   0.393   5.397
  654SOL    HW1 1920   1.092   0.442   5.460
  654SOL    HW2 1921   1.227   0.439   5.394
  655SOL     OW 1922   1.143   0.208   5.195
  655SOL    HW1 1923   1.139   0.268   5.270
  655SOL    HW2 1924   1.197   0.254   5.131
  656SOL     OW 1925   9.969   1.331   3.944
  656SOL    HW1 1926   9.924   1.322   3.859
  656SOL    HW2 1927   9.988   1.241   3.970
  657SOL     OW 1928   0.082   1.686   4.673
  657SOL    HW1 1929   0.114   1.601   4.641
  657SOL    HW2 1930   0.153   1.747   4.657
  658SOL     OW 1931   0.497   1.577   4.631
  658SOL    HW1 1932   0.565   1.643   4.644
  658SOL    HW2 1933   0.536   1.513   4.571
  659SOL     OW 1934   0.951   0.786   4.938
  659SOL    HW1 1935   1.009   0.770   5.012
  659SOL    HW2 1936   0.872   0.736   4.959
  660SOL     OW 1937   0.026   0.548   4.839
  660SOL    HW1 1938   0.083   0.475   4.812
  660SOL    HW2 1939   0.035   0.552   4.934
  661SOL     OW 1940   0.162   0.548   5.431
  661SOL    HW1 1941   0.247   0.523   5.395
  661SOL    HW2 1942   0.142   0.632   5.390
  662SOL     OW 1943   1.390   0.921   5.376
  662SOL    HW1 1944   1.408   1.015   5.371
  662SOL    HW2 1945   1.382   0.894   5.285
  663SOL     OW 1946   0.821   0.577   4.098
  663SOL    HW1 1947   0.822   0.501   4.040
  663SOL    HW2 1948   0.748   0.630   4.066
  664SOL     OW 1949   1.625   0.605   4.892
  664SOL    HW1 1950   1.606   0.550   4.968
  664SOL    HW2 1951   1.714   0.579   4.866
  665SOL     OW 1952   0.257   1.560   5.447
  665SOL    HW1 1953   0.262   1.597   5.534
  665SOL    HW2 1954   0.264   1.465   5.461
  666SOL     OW 1955   0.734   0.448   4.962
  666SOL    HW1 1956   0.673   0.376   4.947
  666SOL    HW2 1957   0.717   0.510   4.891
  667SOL     OW 1958   0.904   1.680   5.214
  667SOL    HW1 1959   0.882   1.632   5.134
  667SOL    HW2 1960   0.908   1.771   5.186
  668SOL     OW 1961   0.513   0.482   3.906
  668SOL    HW1 1962   0.555   0.565   3.931
  668SOL    HW2 1963   0.427   0.508   3.873
  669SOL     OW 1964   0.157   1.158   5.163
  669SOL    HW1 1965   0.147   1.115   5.248
  669SOL    HW2 1966   0.166   1.087   5.101
  670SOL     OW 1967   1.304   1.036   4.932
  670SOL    HW1 1968   1.312   0.973   4.861
  670SOL    HW2 1969   1.250   1.107   4.895
  671SOL     OW 1970   1.324   0.864   4.016
  671SOL    HW1 1971   1.253   0.831   4.071
  671SOL    HW2 1972   1.295   0.848   3.927
  672SOL     OW 1973   1.788   1.723   4.896
  672SOL    HW1 1974   1.849   1.749   4.827
  672SOL    HW2 1975   1.755   1.638   4.868
  673SOL     OW 1976   1.241   1.734   4.816
  673SOL    HW1 1977   1.325   1.764   4.781
  673SOL    HW2 1978   1.255   1.643   4.839
  674SOL     OW 1979   0.098   1.184   4.768
  674SOL    HW1 1980   0.103   1.238   4.847
  674SOL    HW2 1981   0.005   1.177   4.749
  675SOL     OW 1982   0.692   1.682   5.472
  675SOL    HW1 1983   0.631   1.756   5.459
  675SOL    HW2 1984   0.766   1.702   5.415
  676SOL     OW 1985   1.763   0.187   4.209
  676SOL    HW1 1986   1.816   0.188   4.129
  676SOL    HW2 1987   1.797   0.113   4.259
  677SOL     OW 1988   1.397   1.569   4.227
  677SOL    HW1 1989   1.452   1.604   4.156
  677SOL    HW2 1990   1.342   1.643   4.253
  678SOL     OW 1991   0.114   1.796   5.580
  678SOL    HW1 1992   0.075   1.743   5.650
  678SOL    HW2 1993   0.187   1.842   5.623
  679SOL     OW 1994   1.279   0.938   4.387
  679SOL    HW1 1995   1.353   0.878   4.400
  679SOL    HW2 1996   1.315   1.010   4.335
  680SOL     OW 1997   0.784   1.281   5.134
  680SOL    HW1 1998   0.760   1.329   5.213
  680SOL    HW2 1999   0.709   1.292   5.076
  681SOL     OW 2000   0.673   1.633   3.882
  681SOL    HW1 2001   0.689   1.648   3.789
  681SOL    HW2 2002   0.617   1.555   3.884
  682SOL     OW 2003   1.616   1.730   5.126
  682SOL    HW1 2004   1.673   1.729   5.049
  682SOL    HW2 2005   1.600   1.822   5.145
  683SOL     OW 2006   1.852   0.154   4.686
  683SOL    HW1 2007   1.882   0.079   4.633
  683SOL    HW2 2008   1.766   0.176   4.650
  684SOL     OW 2009   0.267   0.370   4.467
  684SOL    HW1 2010   0.183   0.364   4.420
  684SOL    HW2 2011   0.249   0.334   4.553
  685SOL     OW 2012   1.212   1.588   3.760
  685SOL    HW1 2013   1.201   1.497   3.788
  685SOL    HW2 2014   1.142   1.602   3.696
  686SOL     OW 2015   0.825   1.012   5.108
  686SOL    HW1 2016   0.862   1.001   5.020
  686SOL    HW2 2017   0.814   1.107   5.117
  687SOL     OW 2018   0.915   0.915   4.022
  687SOL    HW1 2019   0.970   0.944   3.949
  687SOL    HW2 2020   0.968   0.849   4.067
  688SOL     OW 2021   1.485   1.645   3.782
  688SOL    HW1 2022   1.392   1.625   3.765
  688SOL    HW2 2023   1.525   1.649   3.695
  689SOL     OW 2024   0.372   1.321   5.219
  689SOL    HW1 2025   0.363   1.397   5.161
  689SOL    HW2 2026   0.299   1.264   5.195
  690SOL     OW 2027   1.599   1.290   5.001
  690SOL    HW1 2028   1.653   1.266   5.076
  690SOL    HW2 2029   1.540   1.357   5.035
  691SOL     OW 2030   1.077   1.120   4.451
  691SOL    HW1 2031   1.002   1.071   4.484
  691SOL    HW2 2032   1.139   1.053   4.423
  692SOL     OW 2033   1.028   0.261   4.705
  692SOL    HW1 2034   1.014   0.211   4.624
  692SOL    HW2 2035   1.021   0.196   4.775
  693SOL     OW 2036   0.606   1.487   4.207
  693SOL    HW1 2037   0.657   1.440   4.142
  693SOL    HW2 2038   0.518   1.492   4.169
  694SOL     OW 2039   1.741   0.369   5.112
  694SOL    HW1 2040   1.814   0.430   5.101
  694SOL    HW2 2041   1.756   0.301   5.046
  695SOL     OW 2042   0.243   1.360   3.965
  695SOL    HW1 2043   0.148   1.348   3.967
  695SOL    HW2 2044   0.266   1.379   4.056
  696SOL     OW 2045   0.142   1.014   5.396
  696SOL    HW1 2046   0.072   1.007   5.461
  696SOL    HW2 2047   0.223   1.005   5.447
  697SOL     OW 2048   0.662   0.229   5.246
  697SOL    HW1 2049   0.739   0.205   5.194
  697SOL    HW2 2050   0.698   0.250   5.333
  698SOL     OW 2051   0.052   0.321   3.677
  698SOL    HW1 2052   0.007   0.345   3.758
  698SOL    HW2 2053   0.069   0.404   3.634
  699SOL     OW 2054   1.414   0.857   5.112
  699SOL    HW1 2055   1.361   0.915   5.057
  699SOL    HW2 2056   1.502   0.862   5.074
  700SOL     OW 2057   0.043   0.094   4.012
  700SOL    HW1 2058   0.091   0.176   3.999
  700SOL    HW2 2059   0.025   0.091   4.106
  701SOL     OW 2060   1.182   1.322   3.846
  701SOL    HW1 2061   1.089   1.297   3.845
  701SOL    HW2 2062   1.204   1.325   3.939
  702SOL     OW 2063   0.630   0.830   5.163
  702SOL    HW1 2064   0.689   0.905   5.150
  702SOL    HW2 2065   0.689   0.754   5.165
  703SOL     OW 2066   1.487   1.803   4.715
  703SOL    HW1 2067   1.512   1.877   4.661
  703SOL    HW2 2068   1.569   1.758   4.736
  704SOL     OW 2069   0.711   0.547   5.423
  704SOL    HW1 2070   0.759   0.606   5.480
  704SOL    HW2 2071   0.726   0.460   5.459
  705SOL     OW 2072   1.469   1.184   5.344
  705SOL    HW1 2073   1.461   1.207   5.436
  705SOL    HW2 2074   1.558   1.208   5.320
  706SOL     OW 2075   0.365   1.755   5.286
  706SOL    HW1 2076   0.282   1.799   5.269
  706SOL    HW2 2077   0.341   1.672   5.327
  707SOL     OW 2078   1.654   0.877   4.977
  707SOL    HW1 2079   1.650   0.793   4.932
  707SOL    HW2 2080   1.643   0.942   4.908
  708SOL     OW 2081   1.210   0.342   4.178
  708SOL    HW1 2082   1.277   0.276   4.163
  708SOL    HW2 2083   1.241   0.390   4.256
  709SOL     OW 2084   0.584   0.722   4.410
  709SOL    HW1 2085   0.625   0.807   4.398
  709SOL    HW2 2086   0.518   0.717   4.341
  710SOL     OW 2087   1.741   0.356   5.386
  710SOL    HW1 2088   1.742   0.367   5.291
  710SOL    HW2 2089   1.662   0.305   5.403
  711SOL     OW 2090   1.758   0.926   5.227
  711SOL    HW1 2091   1.742   1.019   5.241
  711SOL    HW2 2092   1.730   0.910   5.136
  712SOL     OW 2093   0.874   1.356   3.788
  712SOL    HW1 2094   0.834   1.377   3.873
  712SOL    HW2 2095   0.884   1.441   3.745
  713SOL     OW 2096   0.674   1.777   4.642
  713SOL    HW1 2097   0.649   1.869   4.635
  713SOL    HW2 2098   0.769   1.777   4.643
  714SOL     OW 2099   0.875   0.978   4.580
  714SOL    HW1 2100   0.925   0.905   4.617
  714SOL    HW2 2101   0.828   1.015   4.655
  715SOL     OW 2102   1.064   0.975   3.807
  715SOL    HW1 2103   1.048   1.034   3.733
  715SOL    HW2 2104   1.141   0.924   3.780
  716SOL     OW 2105   1.829   1.559   4.564
  716SOL    HW1 2106   1.753   1.550   4.507
  716SOL    HW2 2107   1.807   1.506   4.641
  717SOL     OW 2108   0.239   1.301   5.563
  717SOL    HW1 2109   0.148   1.303   5.534
  717SOL    HW2 2110   0.234   1.310   5.658
  718SOL     OW 2111   0.153   1.224   4.394
  718SOL    HW1 2112   0.091   1.169   4.441
  718SOL    HW2 2113   0.211   1.162   4.350
  719SOL     OW 2114   0.698   1.419   5.356
  719SOL    HW1 2115   0.621   1.377   5.394
  719SOL    HW2 2116   0.699   1.507   5.393
  720SOL     OW 2117   1.763   0.148   4.951
  720SOL    HW1 2118   1.711   0.068   4.943
  720SOL    HW2 2119   1.806   0.157   4.866
  721SOL     OW 2120   0.447   0.460   4.272
  721SOL    HW1 2121   0.496   0.382   4.245
  721SOL    HW2 2122   0.393   0.430   4.345
  722SOL     OW 2123   1.695   1.480   4.806
  722SOL    HW1 2124   1.617   1.461   4.754
  722SOL    HW2 2125   1.696   1.413   4.874
  723SOL     OW 2126   0.365   0.585   5.004
  723SOL    HW1 2127   0.413   0.519   5.055
  723SOL    HW2 2128   0.374   0.556   4.913
  724SOL     OW 2129   0.844   1.583   4.396
  724SOL    HW1 2130   0.815   1.655   4.339
  724SOL    HW2 2131   0.767   1.527   4.405
  725SOL     OW 2132   1.434   0.239   4.836
  725SOL    HW1 2133   1.463   0.159   4.879
  725SOL    HW2 2134   1.383   0.285   4.903
  726SOL     OW 2135   1.009   0.043   4.880
  726SOL    HW1 2136   0.959   9.964   4.859
  726SOL    HW2 2137   1.096   0.011   4.906
  727SOL     OW 2138   0.776   1.333   4.053
  727SOL    HW1 2139   0.752   1.241   4.067
  727SOL    HW2 2140   0.856   1.345   4.104
  728SOL     OW 2141   0.618   1.570   5.010
  728SOL    HW1 2142   0.615   1.656   5.052
  728SOL    HW2 2143   0.707   1.562   4.977
  729SOL     OW 2144   1.385   0.032   3.898
  729SOL    HW1 2145   1.469   9.987   3.905
  729SOL    HW2 2146   1.320   9.963   3.908
  730SOL     OW 2147   1.300   0.478   4.399
  730SOL    HW1 2148   1.248   0.558   4.400
  730SOL    HW2 2149   1.292   0.444   4.489
  731SOL     OW 2150   1.600   0.225   4.607
  731SOL    HW1 2151   1.544   0.237   4.683
  731SOL    HW2 2152   1.598   0.308   4.561
  732SOL     OW 2153   0.066   1.085   4.017
  732SOL    HW1 2154   0.146   1.037   3.997
  732SOL    HW2 2155   0.033   1.043   4.097
  733SOL     OW 2156   0.902   1.670   4.051
  733SOL    HW1 2157   0.822   1.658   4.000
  733SOL    HW2 2158   0.880   1.739   4.114
  734SOL     OW 2159   0.261   0.549   5.691
  734SOL    HW1 2160   0.211   0.601   5.754
  734SOL    HW2 2161   0.221   0.569   5.607
  735SOL     OW 2162   0.168   0.327   6.608
  735SOL    HW1 2163   0.222   0.258   6.647
  735SOL    HW2 2164   0.087   0.283   6.583
  736SOL     OW 2165   0.022   0.370   6.204
  736SOL    HW1 2166   9.938   0.416   6.198
  736SOL    HW2 2167  10.000   0.279   6.186
  737SOL     OW 2168   0.570   1.309   6.789
  737SOL    HW1 2169   0.487   1.310   6.743
  737SOL    HW2 2170   0.586   1.400   6.812
  738SOL     OW 2171   1.588   1.524   6.291
  738SOL    HW1 2172   1.541   1.493   6.368
  738SOL    HW2 2173   1.521   1.527   6.222
  739SOL     OW 2174   1.139   0.707   6.273
  739SOL    HW1 2175   1.184   0.790   6.263
  739SOL    HW2 2176   1.089   0.716   6.355
  740SOL     OW 2177   1.805   0.588   5.802
  740SOL    HW1 2178   1.768   0.586   5.714
  740SOL    HW2 2179   1.763   0.515   5.847
  741SOL     OW 2180   0.729   1.132   6.643
  741SOL    HW1 2181   0.667   1.172   6.704
  741SOL    HW2 2182   0.771   1.207   6.600
  742SOL     OW 2183   0.880   0.748   7.411
  742SOL    HW1 2184   0.882   0.817   7.477
  742SOL    HW2 2185   0.898   0.793   7.329
  743SOL     OW 2186   0.688   0.983   6.234
  743SOL    HW1 2187   0.757   0.982   6.300
  743SOL    HW2 2188   0.623   1.045   6.269
  744SOL     OW 2189   0.715   1.147   7.421
  744SOL    HW1 2190   0.767   1.220   7.455
  744SOL    HW2 2191   0.642   1.188   7.376
  745SOL     OW 2192   0.334   1.425   6.649
  745SOL    HW1 2193   0.258   1.408   6.595
  745SOL    HW2 2194   0.392   1.478   6.594
  746SOL     OW 2195   1.454   1.506   6.958
  746SOL    HW1 2196   1.509   1.583   6.971
  746SOL    HW2 2197   1.382   1.517   7.020
  747SOL     OW 2198   0.462   0.401   7.041
  747SOL    HW1 2199   0.542   0.353   7.060
  747SOL    HW2 2200   0.391   0.344   7.072
  748SOL     OW 2201   1.589   0.459   6.331
  748SOL    HW1 2202   1.518   0.462   6.267
  748SOL    HW2 2203   1.572   0.532   6.390
  749SOL     OW 2204   0.222   1.660   6.012
  749SOL    HW1 2205   0.183   1.726   6.069
  749SOL    HW2 2206   0.304   1.699   5.983
  750SOL     OW 2207   1.137   1.342   7.282
  750SOL    HW1 2208   1.182   1.330   7.366
  750SOL    HW2 2209   1.084   1.262   7.273
  751SOL     OW 2210   0.286   1.403   6.088
  751SOL    HW1 2211   0.255   1.494   6.084
  751SOL    HW2 2212   0.230   1.362   6.154
  752SOL     OW 2213   0.304   1.082   6.488
  752SOL    HW1 2214   0.299   0.988   6.509
  752SOL    HW2 2215   0.234   1.121   6.539
  753SOL     OW 2216   0.584   1.811   6.994
  753SOL    HW1 2217   0.507   1.790   7.046
  753SOL    HW2 2218   0.618   1.892   7.033
  754SOL     OW 2219   0.569   0.987   5.739
  754SOL    HW1 2220   0.620   1.030   5.671
  754SOL    HW2 2221   0.606   1.022   5.821
  755SOL     OW 2222   1.541   0.123   7.041
  755SOL    HW1 2223   1.605   0.175   6.991
  755SOL    HW2 2224   1.532   0.171   7.124
  756SOL     OW 2225   0.140   0.657   6.161
  756SOL    HW1 2226   0.120   0.567   6.187
  756SOL    HW2 2227   0.121   0.709   6.238
  757SOL     OW 2228   1.846   1.743   5.903
  757SOL    HW1 2229   1.918   1.728   5.965
  757SOL    HW2 2230   1.853   1.836   5.881
  758SOL     OW 2231   0.029   1.621   5.786
  758SOL    HW1 2232   0.011   1.527   5.782
  758SOL    HW2 2233   0.087   1.631   5.861
  759SOL     OW 2234   1.699   0.928   6.241
  759SOL    HW1 2235   1.780   0.882   6.218
  759SOL    HW2 2236   1.677   0.979   6.163
  760SOL     OW 2237   1.657   1.105   6.019
  760SOL    HW1 2238   1.742   1.097   5.975
  760SOL    HW2 2239   1.671   1.171   6.087
  761SOL     OW 2240   0.166   0.771   7.133
  761SOL    HW1 2241   0.261   0.762   7.130
  761SOL    HW2 2242   0.151   0.855   7.177
  762SOL     OW 2243   0.628   1.399   6.324
  762SOL    HW1 2244   0.585   1.313   6.331
  762SOL    HW2 2245   0.610   1.427   6.234
  763SOL     OW 2246   1.270   1.226   7.004
  763SOL    HW1 2247   1.298   1.157   6.943
  763SOL    HW2 2248   1.333   1.220   7.076
  764SOL     OW 2249   0.851   0.035   6.140
  764SOL    HW1 2250   0.874   0.124   6.113
  764SOL    HW2 2251   0.758   0.027   6.119
  765SOL     OW 2252   0.167   0.949   6.853
  765SOL    HW1 2253   0.256   0.916   6.847
  765SOL    HW2 2254   0.132   0.942   6.764
  766SOL     OW 2255   1.535   1.016   5.786
  766SOL    HW1 2256   1.466   0.956   5.815
  766SOL    HW2 2257   1.577   1.046   5.866
  767SOL     OW 2258   1.176   1.823   7.223
  767SOL    HW1 2259   1.179   1.885   7.151
  767SOL    HW2 2260   1.194   1.738   7.182
  768SOL     OW 2261   0.330   0.317   7.314
  768SOL    HW1 2262   0.409   0.313   7.369
  768SOL    HW2 2263   0.257   0.312   7.376
  769SOL     OW 2264   1.472   1.417   6.516
  769SOL    HW1 2265   1.409   1.437   6.585
  769SOL    HW2 2266   1.454   1.327   6.492
  770SOL     OW 2267   1.637   1.796   6.148
  770SOL    HW1 2268   1.620   1.749   6.066
  770SOL    HW2 2269   1.637   1.727   6.215
  771SOL     OW 2270   0.604   0.723   5.863
  771SOL    HW1 2271   0.608   0.809   5.821
  771SOL    HW2 2272   0.537   0.733   5.931
  772SOL     OW 2273   1.283   0.392   6.525
  772SOL    HW1 2274   1.194   0.359   6.534
  772SOL    HW2 2275   1.337   0.333   6.578
  773SOL     OW 2276   1.579   1.673   5.905
  773SOL    HW1 2277   1.673   1.688   5.894
  773SOL    HW2 2278   1.546   1.660   5.816
  774SOL     OW 2279   0.794   0.611   7.031
  774SOL    HW1 2280   0.764   0.579   7.116
  774SOL    HW2 2281   0.768   0.543   6.969
  775SOL     OW 2282   1.401   0.492   7.262
  775SOL    HW1 2283   1.406   0.532   7.349
  775SOL    HW2 2284   1.447   0.409   7.271
  776SOL     OW 2285   0.945   0.882   7.177
  776SOL    HW1 2286   1.001   0.817   7.133
  776SOL    HW2 2287   0.897   0.924   7.106
  777SOL     OW 2288   1.011   0.421   6.800
  777SOL    HW1 2289   0.919   0.426   6.826
  777SOL    HW2 2290   1.009   0.378   6.714
  778SOL     OW 2291   1.059   0.706   6.007
  778SOL    HW1 2292   1.081   0.701   6.100
  778SOL    HW2 2293   0.975   0.660   6.000
  779SOL     OW 2294   0.079   0.827   6.392
  779SOL    HW1 2295   0.164   0.821   6.434
  779SOL    HW2 2296   0.021   0.860   6.461
  780SOL     OW 2297   0.112   1.863   7.166
  780SOL    HW1 2298   0.110   1.857   7.262
  780SOL    HW2 2299   0.058   1.789   7.137
  781SOL     OW 2300   0.902   0.352   5.786
  781SOL    HW1 2301   0.924   0.418   5.721
  781SOL    HW2 2302   0.950   0.274   5.758
  782SOL     OW 2303   1.691   0.565   7.422
  782SOL    HW1 2304   1.667   0.643   7.373
  782SOL    HW2 2305   1.714   0.501   7.354
  783SOL     OW 2306   1.394   1.151   6.129
  783SOL    HW1 2307   1.473   1.139   6.077
  783SOL    HW2 2308   1.340   1.211   6.078
  784SOL     OW 2309   0.599   0.199   6.504
  784SOL    HW1 2310   0.584   0.219   6.597
  784SOL    HW2 2311   0.590   0.284   6.460
  785SOL     OW 2312   0.996   1.451   6.051
  785SOL    HW1 2313   0.974   1.526   5.996
  785SOL    HW2 2314   0.966   1.476   6.139
  786SOL     OW 2315   0.339   1.805   6.529
  786SOL    HW1 2316   0.387   1.725   6.507
  786SOL    HW2 2317   0.398   1.876   6.505
  787SOL     OW 2318   1.805   1.046   6.476
  787SOL    HW1 2319   1.758   1.029   6.395
  787SOL    HW2 2320   1.736   1.054   6.542
  788SOL     OW 2321   1.217   1.543   7.102
  788SOL    HW1 2322   1.207   1.472   7.165
  788SOL    HW2 2323   1.151   1.527   7.036
  789SOL     OW 2324   0.313   0.942   5.869
  789SOL    HW1 2325   0.388   0.953   5.811
  789SOL    HW2 2326   0.324   0.854   5.906
  790SOL     OW 2327   1.485   0.766   6.297
  790SOL    HW1 2328   1.482   0.729   6.385
  790SOL    HW2 2329   1.564   0.820   6.297
  791SOL     OW 2330   0.484   1.274   7.321
  791SOL    HW1 2331   0.462   1.282   7.229
  791SOL    HW2 2332   0.400   1.266   7.366
  792SOL     OW 2333   1.142   1.776   5.809
  792SOL    HW1 2334   1.061   1.744   5.849
  792SOL    HW2 2335   1.163   1.712   5.742
  793SOL     OW 2336   0.184   0.285   7.076
  793SOL    HW1 2337   0.155   0.374   7.052
  793SOL    HW2 2338   0.220   0.295   7.164
  794SOL     OW 2339   1.639   1.388   5.686
  794SOL    HW1 2340   1.598   1.474   5.673
  794SOL    HW2 2341   1.572   1.326   5.659
  795SOL     OW 2342   0.471   1.748   5.905
  795SOL    HW1 2343   0.520   1.797   5.972
  795SOL    HW2 2344   0.539   1.704   5.854
  796SOL     OW 2345   1.405   0.162   6.002
  796SOL    HW1 2346   1.398   0.104   5.926
  796SOL    HW2 2347   1.496   0.151   6.031
  797SOL     OW 2348   0.258   1.791   6.802
  797SOL    HW1 2349   0.302   1.713   6.835
  797SOL    HW2 2350   0.272   1.787   6.707
  798SOL     OW 2351   0.954   1.703   6.478
  798SOL    HW1 2352   1.038   1.660   6.493
  798SOL    HW2 2353   0.913   1.651   6.408
  799SOL     OW 2354   0.392   0.707   6.046
  799SOL    HW1 2355   0.419   0.617   6.063
  799SOL    HW2 2356   0.306   0.715   6.086
  800SOL     OW 2357   1.504   0.230   7.305
  800SOL    HW1 2358   1.517   0.250   7.398
  800SOL    HW2 2359   1.435   0.163   7.305
  801SOL     OW 2360   0.615   0.105   5.701
  801SOL    HW1 2361   0.664   0.033   5.740
  801SOL    HW2 2362   0.592   0.073   5.613
  802SOL     OW 2363   0.757   0.276   7.366
  802SOL    HW1 2364   0.827   0.212   7.359
  802SOL    HW2 2365   0.714   0.254   7.449
  803SOL     OW 2366   0.871   1.527   6.784
  803SOL    HW1 2367   0.853   1.485   6.700
  803SOL    HW2 2368   0.938   1.472   6.824
  804SOL     OW 2369   1.334   0.595   7.018
  804SOL    HW1 2370   1.368   0.568   7.103
  804SOL    HW2 2371   1.368   0.683   7.005
  805SOL     OW 2372   0.819   1.377   6.544
  805SOL    HW1 2373   0.906   1.373   6.503
  805SOL    HW2 2374   0.760   1.393   6.471
  806SOL     OW 2375   0.934   0.522   6.480
  806SOL    HW1 2376   0.906   0.511   6.390
  806SOL    HW2 2377   0.957   0.434   6.510
  807SOL     OW 2378   0.595   0.019   6.059
  807SOL    HW1 2379   0.523   9.997   6.119
  807SOL    HW2 2380   0.570   0.103   6.021
  808SOL     OW 2381   1.434   1.213   5.619
  808SOL    HW1 2382   1.464   1.139   5.672
  808SOL    HW2 2383   1.349   1.236   5.655
  809SOL     OW 2384   0.334   0.114   5.713
  809SOL    HW1 2385   0.430   0.113   5.709
  809SOL    HW2 2386   0.312   0.041   5.771
  810SOL     OW 2387   0.943   0.275   6.049
  810SOL    HW1 2388   0.915   0.301   5.961
  810SOL    HW2 2389   1.037   0.294   6.050
  811SOL     OW 2390   1.075   0.693   7.030
  811SOL    HW1 2391   1.010   0.623   7.035
  811SOL    HW2 2392   1.159   0.648   7.025
  812SOL     OW 2393   1.210   1.586   6.388
  812SOL    HW1 2394   1.223   1.646   6.315
  812SOL    HW2 2395   1.283   1.603   6.447
  813SOL     OW 2396   0.491   1.160   6.310
  813SOL    HW1 2397   0.430   1.138   6.381
  813SOL    HW2 2398   0.442   1.143   6.230
  814SOL     OW 2399   1.254   1.791   6.203
  814SOL    HW1 2400   1.302   1.855   6.150
  814SOL    HW2 2401   1.184   1.842   6.243
  815SOL     OW 2402   1.032   0.527   5.611
  815SOL    HW1 2403   0.985   0.608   5.591
  815SOL    HW2 2404   1.089   0.549   5.684
  816SOL     OW 2405   0.122   0.541   6.974
  816SOL    HW1 2406   0.205   0.556   6.929
  816SOL    HW2 2407   0.109   0.620   7.028
  817SOL     OW 2408   0.564   0.236   6.776
  817SOL    HW1 2409   0.605   0.176   6.838
  817SOL    HW2 2410   0.471   0.229   6.795
  818SOL     OW 2411   0.864   0.475   6.225
  818SOL    HW1 2412   0.825   0.531   6.158
  818SOL    HW2 2413   0.889   0.395   6.178
  819SOL     OW 2414   0.984   0.062   6.384
  819SOL    HW1 2415   0.934   0.054   6.302
  819SOL    HW2 2416   0.986   9.973   6.420
  820SOL     OW 2417   1.433   1.153   6.441
  820SOL    HW1 2418   1.364   1.088   6.451
  820SOL    HW2 2419   1.447   1.160   6.346
  821SOL     OW 2420   1.457   0.624   6.537
  821SOL    HW1 2421   1.396   0.550   6.543
  821SOL    HW2 2422   1.512   0.616   6.615
  822SOL     OW 2423   1.825   0.798   5.975
  822SOL    HW1 2424   1.887   0.755   6.035
  822SOL    HW2 2425   1.814   0.735   5.903
  823SOL     OW 2426   0.493   1.429   5.721
  823SOL    HW1 2427   0.408   1.407   5.760
  823SOL    HW2 2428   0.499   1.374   5.643
  824SOL     OW 2429   1.708   1.273   6.219
  824SOL    HW1 2430   1.801   1.266   6.240
  824SOL    HW2 2431   1.684   1.362   6.245
  825SOL     OW 2432   1.394   0.578   5.659
  825SOL    HW1 2433   1.334   0.557   5.730
  825SOL    HW2 2434   1.480   0.549   5.691
  826SOL     OW 2435   0.539   0.257   5.917
  826SOL    HW1 2436   0.580   0.205   5.848
  826SOL    HW2 2437   0.530   0.345   5.879
  827SOL     OW 2438   1.735   1.244   7.118
  827SOL    HW1 2439   1.823   1.210   7.104
  827SOL    HW2 2440   1.748   1.331   7.156
  828SOL     OW 2441   1.043   1.357   6.922
  828SOL    HW1 2442   0.965   1.321   6.965
  828SOL    HW2 2443   1.116   1.310   6.962
  829SOL     OW 2444   1.608   1.634   7.258
  829SOL    HW1 2445   1.597   1.671   7.170
  829SOL    HW2 2446   1.686   1.579   7.251
  830SOL     OW 2447   1.151   1.239   6.691
  830SOL    HW1 2448   1.089   1.273   6.755
  830SOL    HW2 2449   1.119   1.271   6.607
  831SOL     OW 2450   1.609   1.092   6.662
  831SOL    HW1 2451   1.601   1.158   6.731
  831SOL    HW2 2452   1.539   1.113   6.600
  832SOL     OW 2453   0.886   0.166   6.964
  832SOL    HW1 2454   0.910   0.124   6.881
  832SOL    HW2 2455   0.969   0.188   7.005
  833SOL     OW 2456   0.981   1.116   7.308
  833SOL    HW1 2457   0.891   1.132   7.336
  833SOL    HW2 2458   0.977   1.036   7.256
  834SOL     OW 2459   0.708   1.063   5.966
  834SOL    HW1 2460   0.695   1.038   6.057
  834SOL    HW2 2461   0.784   1.012   5.938
  835SOL     OW 2462   0.425   0.847   6.846
  835SOL    HW1 2463   0.494   0.853   6.912
  835SOL    HW2 2464   0.398   0.755   6.848
  836SOL     OW 2465   1.269   0.375   6.871
  836SOL    HW1 2466   1.299   0.453   6.918
  836SOL    HW2 2467   1.180   0.396   6.843
  837SOL     OW 2468   0.076   1.583   6.917
  837SOL    HW1 2469   0.076   1.662   6.862
  837SOL    HW2 2470   0.168   1.564   6.932
  838SOL     OW 2471   0.341   1.115   6.084
  838SOL    HW1 2472   0.340   1.202   6.045
  838SOL    HW2 2473   0.334   1.055   6.010
  839SOL     OW 2474   0.570   0.483   6.437
  839SOL    HW1 2475   0.572   0.542   6.362
  839SOL    HW2 2476   0.623   0.528   6.504
  840SOL     OW 2477   1.247   1.353   5.984
  840SOL    HW1 2478   1.302   1.423   6.018
  840SOL    HW2 2479   1.159   1.375   6.015
  841SOL     OW 2480   1.310   1.469   6.728
  841SOL    HW1 2481   1.357   1.475   6.811
  841SOL    HW2 2482   1.258   1.389   6.735
  842SOL     OW 2483   1.576   0.627   6.066
  842SOL    HW1 2484   1.525   0.667   6.136
  842SOL    HW2 2485   1.628   0.698   6.030
  843SOL     OW 2486   0.348   1.534   6.894
  843SOL    HW1 2487   0.335   1.490   6.810
  843SOL    HW2 2488   0.443   1.550   6.899
  844SOL     OW 2489   0.445   0.727   7.198
  844SOL    HW1 2490   0.502   0.772   7.136
  844SOL    HW2 2491   0.491   0.646   7.219
  845SOL     OW 2492   1.625   0.788   7.285
  845SOL    HW1 2493   1.538   0.826   7.276
  845SOL    HW2 2494   1.675   0.826   7.212
  846SOL     OW 2495   0.953   0.078   7.361
  846SOL    HW1 2496   1.020   0.130   7.406
  846SOL    HW2 2497   0.997   0.043   7.283
  847SOL     OW 2498   0.526   0.033   7.316
  847SOL    HW1 2499   0.588   9.967   7.285
  847SOL    HW2 2500   0.517   0.093   7.243
  848SOL     OW 2501   0.592   0.881   6.625
  848SOL    HW1 2502   0.630   0.969   6.625
  848SOL    HW2 2503   0.532   0.880   6.699
  849SOL     OW 2504   1.306   0.858   6.587
  849SOL    HW1 2505   1.217   0.832   6.564
  849SOL    HW2 2506   1.360   0.781   6.571
  850SOL     OW 2507   1.192   0.533   5.841
  850SOL    HW1 2508   1.201   0.459   5.900
  850SOL    HW2 2509   1.152   0.602   5.895
  851SOL     OW 2510   0.304   0.182   6.846
  851SOL    HW1 2511   0.254   0.216   6.920
  851SOL    HW2 2512   0.312   0.088   6.862
  852SOL     OW 2513   0.005   1.322   6.864
  852SOL    HW1 2514   0.052   1.273   6.932
  852SOL    HW2 2515   0.019   1.414   6.885
  853SOL     OW 2516   0.712   0.630   6.624
  853SOL    HW1 2517   0.790   0.626   6.569
  853SOL    HW2 2518   0.679   0.719   6.613
  854SOL     OW 2519   1.751   0.969   7.455
  854SOL    HW1 2520   1.711   0.897   7.407
  854SOL    HW2 2521   1.688   0.989   7.524
  855SOL     OW 2522   0.380   0.011   6.238
  855SOL    HW1 2523   0.349   0.093   6.197
  855SOL    HW2 2524   0.319   9.945   6.206
  856SOL     OW 2525   1.637   0.398   5.926
  856SOL    HW1 2526   1.675   0.334   5.986
  856SOL    HW2 2527   1.608   0.470   5.982
  857SOL     OW 2528   1.038   0.764   6.544
  857SOL    HW1 2529   1.016   0.779   6.636
  857SOL    HW2 2530   1.008   0.674   6.527
  858SOL     OW 2531   0.981   1.564   7.321
  858SOL    HW1 2532   0.960   1.608   7.239
  858SOL    HW2 2533   1.021   1.481   7.294
  859SOL     OW 2534   1.838   1.494   7.188
  859SOL    HW1 2535   1.865   1.523   7.101
  859SOL    HW2 2536   1.917   1.505   7.242
  860SOL     OW 2537   0.364   0.906   7.397
  860SOL    HW1 2538   0.441   0.935   7.447
  860SOL    HW2 2539   0.400   0.846   7.332
  861SOL     OW 2540   1.515   0.282   5.706
  861SOL    HW1 2541   1.475   0.204   5.744
  861SOL    HW2 2542   1.562   0.322   5.779
  862SOL     OW 2543   1.281   0.822   5.606
  862SOL    HW1 2544   1.323   0.737   5.615
  862SOL    HW2 2545   1.317   0.858   5.525
  863SOL     OW 2546   1.072   1.353   6.451
  863SOL    HW1 2547   1.082   1.281   6.389
  863SOL    HW2 2548   1.124   1.424   6.414
  864SOL     OW 2549   0.323   0.806   6.528
  864SOL    HW1 2550   0.416   0.825   6.527
  864SOL    HW2 2551   0.318   0.715   6.558
  865SOL     OW 2552   0.352   0.535   6.597
  865SOL    HW1 2553   0.286   0.467   6.590
  865SOL    HW2 2554   0.419   0.511   6.533
  866SOL     OW 2555   1.144   0.392   7.260
  866SOL    HW1 2556   1.092   0.442   7.323
  866SOL    HW2 2557   1.227   0.439   7.256
  867SOL     OW 2558   1.143   0.208   7.058
  867SOL    HW1 2559   1.139   0.268   7.132
  867SOL    HW2 2560   1.196   0.254   6.993
  868SOL     OW 2561   9.969   1.331   5.806
  868SOL    HW1 2562   9.924   1.322   5.722
  868SOL    HW2 2563   9.988   1.241   5.832
  869SOL     OW 2564   0.080   1.686   6.534
  869SOL    HW1 2565   0.113   1.602   6.503
  869SOL    HW2 2566   0.152   1.747   6.521
  870SOL     OW 2567   0.497   1.576   6.493
  870SOL    HW1 2568   0.564   1.643   6.505
  870SOL    HW2 2569   0.536   1.513   6.433
  871SOL     OW 2570   0.951   0.786   6.800
  871SOL    HW1 2571   1.009   0.770   6.874
  871SOL    HW2 2572   0.872   0.736   6.821
  872SOL     OW 2573   0.026   0.548   6.701
  872SOL    HW1 2574   0.083   0.475   6.674
  872SOL    HW2 2575   0.035   0.552   6.796
  873SOL     OW 2576   0.162   0.548   7.293
  873SOL    HW1 2577   0.246   0.522   7.257
  873SOL    HW2 2578   0.142   0.632   7.251
  874SOL     OW 2579   1.390   0.921   7.238
  874SOL    HW1 2580   1.408   1.015   7.233
  874SOL    HW2 2581   1.382   0.894   7.147
  875SOL     OW 2582   0.821   0.577   5.960
  875SOL    HW1 2583   0.822   0.501   5.902
  875SOL    HW2 2584   0.748   0.630   5.928
  876SOL     OW 2585   1.626   0.605   6.754
  876SOL    HW1 2586   1.606   0.550   6.830
  876SOL    HW2 2587   1.714   0.579   6.728
  877SOL     OW 2588   0.257   1.559   7.309
  877SOL    HW1 2589   0.263   1.597   7.397
  877SOL    HW2 2590   0.264   1.465   7.322
  878SOL     OW 2591   0.734   0.448   6.824
  878SOL    HW1 2592   0.673   0.376   6.809
  878SOL    HW2 2593   0.717   0.510   6.753
  879SOL     OW 2594   0.903   1.680   7.077
  879SOL    HW1 2595   0.881   1.632   6.997
  879SOL    HW2 2596   0.907   1.772   7.049
  880SOL     OW 2597   0.513   0.482   5.768
  880SOL    HW1 2598   0.555   0.565   5.793
  880SOL    HW2 2599   0.427   0.508   5.735
  881SOL     OW 2600   0.157   1.159   7.025
  881SOL    HW1 2601   0.147   1.115   7.110
  881SOL    HW2 2602   0.166   1.087   6.962
  882SOL     OW 2603   1.303   1.036   6.794
  882SOL    HW1 2604   1.312   0.973   6.723
  882SOL    HW2 2605   1.250   1.107   6.757
  883SOL     OW 2606   1.324   0.865   5.878
  883SOL    HW1 2607   1.253   0.831   5.933
  883SOL    HW2 2608   1.294   0.848   5.788
  884SOL     OW 2609   1.787   1.724   6.757
  884SOL    HW1 2610   1.849   1.750   6.689
  884SOL    HW2 2611   1.755   1.638   6.730
  885SOL     OW 2612   1.241   1.734   6.678
  885SOL    HW1 2613   1.325   1.764   6.643
  885SOL    HW2 2614   1.255   1.643   6.701
  886SOL     OW 2615   0.098   1.183   6.631
  886SOL    HW1 2616   0.103   1.238   6.709
  886SOL    HW2 2617   0.005   1.177   6.611
  887SOL     OW 2618   0.692   1.682   7.334
  887SOL    HW1 2619   0.632   1.756   7.320
  887SOL    HW2 2620   0.766   1.702   7.277
  888SOL     OW 2621   1.763   0.187   6.071
  888SOL    HW1 2622   1.816   0.188   5.991
  888SOL    HW2 2623   1.797   0.113   6.121
  889SOL     OW 2624   1.397   1.569   6.089
  889SOL    HW1 2625   1.452   1.604   6.019
  889SOL    HW2 2626   1.342   1.643   6.115
  890SOL     OW 2627   0.113   1.797   7.442
  890SOL    HW1 2628   0.075   1.743   7.512
  890SOL    HW2 2629   0.186   1.842   7.485
  891SOL     OW 2630   1.279   0.938   6.249
  891SOL    HW1 2631   1.353   0.878   6.262
  891SOL    HW2 2632   1.315   1.010   6.197
  892SOL     OW 2633   0.784   1.281   6.996
  892SOL    HW1 2634   0.760   1.329   7.075
  892SOL    HW2 2635   0.709   1.293   6.937
  893SOL     OW 2636   0.673   1.633   5.744
  893SOL    HW1 2637   0.689   1.648   5.651
  893SOL    HW2 2638   0.617   1.555   5.746
  894SOL     OW 2639   1.616   1.730   6.988
  894SOL    HW1 2640   1.673   1.730   6.911
  894SOL    HW2 2641   1.600   1.822   7.006
  895SOL     OW 2642   1.852   0.154   6.548
  895SOL    HW1 2643   1.882   0.080   6.496
  895SOL    HW2 2644   1.766   0.176   6.512
  896SOL     OW 2645   0.266   0.371   6.329
  896SOL    HW1 2646   0.183   0.364   6.282
  896SOL    HW2 2647   0.248   0.334   6.415
  897SOL     OW 2648   1.211   1.588   5.622
  897SOL    HW1 2649   1.201   1.497   5.650
  897SOL    HW2 2650   1.142   1.602   5.558
  898SOL     OW 2651   0.825   1.012   6.969
  898SOL    HW1 2652   0.862   1.001   6.882
  898SOL    HW2 2653   0.814   1.107   6.979
  899SOL     OW 2654   0.915   0.915   5.884
  899SOL    HW1 2655   0.970   0.944   5.811
  899SOL    HW2 2656   0.968   0.849   5.929
  900SOL     OW 2657   1.484   1.645   5.644
  900SOL    HW1 2658   1.392   1.625   5.627
  900SOL    HW2 2659   1.525   1.649   5.557
  901SOL     OW 2660   0.372   1.321   7.081
  901SOL    HW1 2661   0.363   1.397   7.023
  901SOL    HW2 2662   0.299   1.264   7.058
  902SOL     OW 2663   1.599   1.290   6.863
  902SOL    HW1 2664   1.653   1.266   6.938
  902SOL    HW2 2665   1.540   1.357   6.897
  903SOL     OW 2666   1.077   1.120   6.313
  903SOL    HW1 2667   1.002   1.071   6.346
  903SOL    HW2 2668   1.139   1.053   6.285
  904SOL     OW 2669   1.028   0.261   6.567
  904SOL    HW1 2670   1.014   0.211   6.486
  904SOL    HW2 2671   1.021   0.196   6.637
  905SOL     OW 2672   0.606   1.487   6.069
  905SOL    HW1 2673   0.657   1.440   6.004
  905SOL    HW2 2674   0.518   1.492   6.031
  906SOL     OW 2675   1.741   0.369   6.974
  906SOL    HW1 2676   1.814   0.430   6.963
  906SOL    HW2 2677   1.755   0.302   6.908
  907SOL     OW 2678   0.243   1.360   5.828
  907SOL    HW1 2679   0.148   1.347   5.829
  907SOL    HW2 2680   0.266   1.379   5.918
  908SOL     OW 2681   0.142   1.015   7.258
  908SOL    HW1 2682   0.072   1.008   7.322
  908SOL    HW2 2683   0.223   1.005   7.309
  909SOL     OW 2684   0.662   0.229   7.109
  909SOL    HW1 2685   0.739   0.205   7.056
  909SOL    HW2 2686   0.698   0.250   7.195
  910SOL     OW 2687   0.052   0.321   5.539
  910SOL    HW1 2688   0.007   0.345   5.620
  910SOL    HW2 2689   0.069   0.404   5.496
  911SOL     OW 2690   1.414   0.857   6.974
  911SOL    HW1 2691   1.361   0.915   6.919
  911SOL    HW2 2692   1.502   0.862   6.936
  912SOL     OW 2693   0.043   0.094   5.874
  912SOL    HW1 2694   0.091   0.176   5.861
  912SOL    HW2 2695   0.026   0.091   5.968
  913SOL     OW 2696   1.181   1.322   5.708
  913SOL    HW1 2697   1.089   1.297   5.707
  913SOL    HW2 2698   1.204   1.325   5.801
  914SOL     OW 2699   0.630   0.830   7.025
  914SOL    HW1 2700   0.689   0.905   7.012
  914SOL    HW2 2701   0.689   0.754   7.027
  915SOL     OW 2702   1.487   1.803   6.578
  915SOL    HW1 2703   1.513   1.877   6.524
  915SOL    HW2 2704   1.569   1.758   6.599
  916SOL     OW 2705   0.711   0.547   7.285
  916SOL    HW1 2706   0.759   0.607   7.342
  916SOL    HW2 2707   0.727   0.460   7.321
  917SOL     OW 2708   1.469   1.184   7.206
  917SOL    HW1 2709   1.462   1.207   7.298
  917SOL    HW2 2710   1.558   1.208   7.182
  918SOL     OW 2711   0.365   1.755   7.148
  918SOL    HW1 2712   0.282   1.799   7.131
  918SOL    HW2 2713   0.341   1.672   7.189
  919SOL     OW 2714   1.654   0.877   6.839
  919SOL    HW1 2715   1.650   0.793   6.794
  919SOL    HW2 2716   1.643   0.942   6.770
  920SOL     OW 2717   1.210   0.342   6.040
  920SOL    HW1 2718   1.277   0.276   6.025
  920SOL    HW2 2719   1.241   0.390   6.117
  921SOL     OW 2720   0.584   0.722   6.272
  921SOL    HW1 2721   0.625   0.807   6.260
  921SOL    HW2 2722   0.518   0.717   6.203
  922SOL     OW 2723   1.741   0.356   7.248
  922SOL    HW1 2724   1.742   0.367   7.153
  922SOL    HW2 2725   1.662   0.305   7.265
  923SOL     OW 2726   1.757   0.926   7.089
  923SOL    HW1 2727   1.742   1.019   7.103
  923SOL    HW2 2728   1.730   0.910   6.999
  924SOL     OW 2729   0.874   1.356   5.650
  924SOL    HW1 2730   0.834   1.377   5.735
  924SOL    HW2 2731   0.883   1.441   5.607
  925SOL     OW 2732   0.673   1.777   6.504
  925SOL    HW1 2733   0.649   1.869   6.497
  925SOL    HW2 2734   0.769   1.777   6.505
  926SOL     OW 2735   0.875   0.978   6.442
  926SOL    HW1 2736   0.925   0.905   6.479
  926SOL    HW2 2737   0.828   1.015   6.517
  927SOL     OW 2738   1.064   0.975   5.668
  927SOL    HW1 2739   1.048   1.034   5.595
  927SOL    HW2 2740   1.141   0.924   5.642
  928SOL     OW 2741   1.830   1.558   6.426
  928SOL    HW1 2742   1.753   1.550   6.369
  928SOL    HW2 2743   1.808   1.506   6.503
  929SOL     OW 2744   0.239   1.301   7.425
  929SOL    HW1 2745   0.147   1.303   7.396
  929SOL    HW2 2746   0.234   1.310   7.520
  930SOL     OW 2747   0.153   1.224   6.256
  930SOL    HW1 2748   0.092   1.168   6.304
  930SOL    HW2 2749   0.211   1.162   6.211
  931SOL     OW 2750   0.698   1.419   7.218
  931SOL    HW1 2751   0.621   1.377   7.256
  931SOL    HW2 2752   0.700   1.507   7.255
  932SOL     OW 2753   1.762   0.148   6.813
  932SOL    HW1 2754   1.710   0.068   6.805
  932SOL    HW2 2755   1.805   0.158   6.729
  933SOL     OW 2756   0.447   0.460   6.134
  933SOL    HW1 2757   0.496   0.382   6.107
  933SOL    HW2 2758   0.393   0.430   6.207
  934SOL     OW 2759   1.695   1.480   6.668
  934SOL    HW1 2760   1.617   1.461   6.616
  934SOL    HW2 2761   1.696   1.413   6.735
  935SOL     OW 2762   0.365   0.585   6.866
  935SOL    HW1 2763   0.413   0.519   6.917
  935SOL    HW2 2764   0.374   0.556   6.775
  936SOL     OW 2765   0.844   1.583   6.258
  936SOL    HW1 2766   0.815   1.655   6.202
  936SOL    HW2 2767   0.767   1.527   6.267
  937SOL     OW 2768   1.434   0.239   6.698
  937SOL    HW1 2769   1.464   0.159   6.741
  937SOL    HW2 2770   1.383   0.285   6.765
  938SOL     OW 2771   1.010   0.043   6.742
  938SOL    HW1 2772   0.962   9.963   6.722
  938SOL    HW2 2773   1.098   0.013   6.768
  939SOL     OW 2774   0.776   1.333   5.915
  939SOL    HW1 2775   0.752   1.241   5.928
  939SOL    HW2 2776   0.856   1.345   5.966
  940SOL     OW 2777   0.618   1.570   6.872
  940SOL    HW1 2778   0.615   1.656   6.913
  940SOL    HW2 2779   0.707   1.562   6.839
  941SOL     OW 2780   1.384   0.032   5.759
  941SOL    HW1 2781   1.469   9.987   5.766
  941SOL    HW2 2782   1.319   9.963   5.769
  942SOL     OW 2783   1.300   0.477   6.261
  942SOL    HW1 2784   1.248   0.558   6.262
  942SOL    HW2 2785   1.292   0.444   6.351
  943SOL     OW 2786   1.600   0.225   6.469
  943SOL    HW1 2787   1.544   0.237   6.545
  943SOL    HW2 2788   1.598   0.308   6.422
  944SOL     OW 2789   0.066   1.085   5.879
  944SOL    HW1 2790   0.146   1.037   5.859
  944SOL    HW2 2791   0.033   1.043   5.958
  945SOL     OW 2792   0.902   1.671   5.913
  945SOL    HW1 2793   0.821   1.658   5.862
  945SOL    HW2 2794   0.880   1.739   5.976
  946SOL     OW 2795   0.261   0.549   7.553
  946SOL    HW1 2796   0.211   0.601   7.616
  946SOL    HW2 2797   0.221   0.569   7.468
  947SOL     OW 2798   0.168   0.325   8.464
  947SOL    HW1 2799   0.224   0.249   8.483
  947SOL    HW2 2800   0.082   0.287   8.448
  948SOL     OW 2801   0.021   0.368   8.065
  948SOL    HW1 2802   9.938   0.416   8.059
  948SOL    HW2 2803   9.998   0.277   8.048
  949SOL     OW 2804   0.570   1.309   8.651
  949SOL    HW1 2805   0.486   1.311   8.604
  949SOL    HW2 2806   0.586   1.401   8.674
  950SOL     OW 2807   1.588   1.524   8.153
  950SOL    HW1 2808   1.541   1.493   8.230
  950SOL    HW2 2809   1.521   1.527   8.084
  951SOL     OW 2810   1.138   0.707   8.136
  951SOL    HW1 2811   1.184   0.791   8.125
  951SOL    HW2 2812   1.089   0.717   8.217
  952SOL     OW 2813   1.805   0.587   7.664
  952SOL    HW1 2814   1.767   0.586   7.576
  952SOL    HW2 2815   1.763   0.514   7.709
  953SOL     OW 2816   0.728   1.132   8.505
  953SOL    HW1 2817   0.666   1.172   8.566
  953SOL    HW2 2818   0.771   1.206   8.462
  954SOL     OW 2819   0.883   0.746   9.271
  954SOL    HW1 2820   0.897   0.814   9.338
  954SOL    HW2 2821   0.899   0.790   9.188
  955SOL     OW 2822   0.687   0.983   8.096
  955SOL    HW1 2823   0.757   0.982   8.161
  955SOL    HW2 2824   0.623   1.045   8.131
  956SOL     OW 2825   0.714   1.150   9.276
  956SOL    HW1 2826   0.766   1.223   9.310
  956SOL    HW2 2827   0.638   1.192   9.234
  957SOL     OW 2828   0.334   1.425   8.512
  957SOL    HW1 2829   0.258   1.408   8.457
  957SOL    HW2 2830   0.392   1.478   8.456
  958SOL     OW 2831   1.454   1.507   8.819
  958SOL    HW1 2832   1.509   1.585   8.830
  958SOL    HW2 2833   1.383   1.518   8.882
  959SOL     OW 2834   0.448   0.403   8.924
  959SOL    HW1 2835   0.530   0.356   8.938
  959SOL    HW2 2836   0.381   0.335   8.918
  960SOL     OW 2837   1.589   0.459   8.193
  960SOL    HW1 2838   1.518   0.463   8.129
  960SOL    HW2 2839   1.572   0.532   8.252
  961SOL     OW 2840   0.221   1.660   7.873
  961SOL    HW1 2841   0.182   1.727   7.930
  961SOL    HW2 2842   0.303   1.699   7.844
  962SOL     OW 2843   1.136   1.343   9.142
  962SOL    HW1 2844   1.179   1.332   9.226
  962SOL    HW2 2845   1.083   1.263   9.132
  963SOL     OW 2846   0.285   1.404   7.949
  963SOL    HW1 2847   0.255   1.494   7.946
  963SOL    HW2 2848   0.230   1.363   8.016
  964SOL     OW 2849   0.303   1.081   8.349
  964SOL    HW1 2850   0.299   0.988   8.370
  964SOL    HW2 2851   0.234   1.121   8.402
  965SOL     OW 2852   0.580   1.815   8.852
  965SOL    HW1 2853   0.505   1.792   8.907
  965SOL    HW2 2854   0.616   1.894   8.893
  966SOL     OW 2855   0.569   0.987   7.601
  966SOL    HW1 2856   0.620   1.030   7.533
  966SOL    HW2 2857   0.605   1.022   7.683
  967SOL     OW 2858   1.544   0.120   8.901
  967SOL    HW1 2859   1.607   0.171   8.850
  967SOL    HW2 2860   1.536   0.169   8.983
  968SOL     OW 2861   0.141   0.658   8.023
  968SOL    HW1 2862   0.122   0.568   8.051
  968SOL    HW2 2863   0.121   0.711   8.100
  969SOL     OW 2864   1.846   1.743   7.766
  969SOL    HW1 2865   1.918   1.728   7.827
  969SOL    HW2 2866   1.853   1.836   7.743
  970SOL     OW 2867   0.029   1.621   7.648
  970SOL    HW1 2868   0.011   1.527   7.644
  970SOL    HW2 2869   0.088   1.632   7.723
  971SOL     OW 2870   1.699   0.927   8.103
  971SOL    HW1 2871   1.781   0.883   8.082
  971SOL    HW2 2872   1.678   0.979   8.025
  972SOL     OW 2873   1.657   1.105   7.881
  972SOL    HW1 2874   1.742   1.097   7.837
  972SOL    HW2 2875   1.671   1.171   7.949
  973SOL     OW 2876   0.165   0.769   9.005
  973SOL    HW1 2877   0.261   0.760   9.005
  973SOL    HW2 2878   0.149   0.852   9.048
  974SOL     OW 2879   0.627   1.399   8.186
  974SOL    HW1 2880   0.585   1.313   8.193
  974SOL    HW2 2881   0.610   1.427   8.096
  975SOL     OW 2882   1.271   1.227   8.866
  975SOL    HW1 2883   1.300   1.158   8.806
  975SOL    HW2 2884   1.332   1.221   8.939
  976SOL     OW 2885   0.851   0.035   8.002
  976SOL    HW1 2886   0.874   0.124   7.975
  976SOL    HW2 2887   0.758   0.027   7.981
  977SOL     OW 2888   0.165   0.944   8.716
  977SOL    HW1 2889   0.255   0.912   8.708
  977SOL    HW2 2890   0.131   0.940   8.626
  978SOL     OW 2891   1.535   1.016   7.648
  978SOL    HW1 2892   1.466   0.956   7.678
  978SOL    HW2 2893   1.577   1.046   7.728
  979SOL     OW 2894   1.171   1.823   9.084
  979SOL    HW1 2895   1.176   1.886   9.012
  979SOL    HW2 2896   1.191   1.739   9.044
  980SOL     OW 2897   0.353   0.291   9.234
  980SOL    HW1 2898   0.434   0.334   9.261
  980SOL    HW2 2899   0.287   0.361   9.238
  981SOL     OW 2900   1.472   1.418   8.379
  981SOL    HW1 2901   1.409   1.437   8.448
  981SOL    HW2 2902   1.454   1.327   8.355
  982SOL     OW 2903   1.637   1.796   8.010
  982SOL    HW1 2904   1.620   1.749   7.929
  982SOL    HW2 2905   1.637   1.728   8.077
  983SOL     OW 2906   0.604   0.723   7.725
  983SOL    HW1 2907   0.609   0.809   7.683
  983SOL    HW2 2908   0.537   0.733   7.793
  984SOL     OW 2909   1.283   0.392   8.387
  984SOL    HW1 2910   1.194   0.359   8.396
  984SOL    HW2 2911   1.336   0.333   8.440
  985SOL     OW 2912   1.579   1.673   7.767
  985SOL    HW1 2913   1.673   1.688   7.756
  985SOL    HW2 2914   1.546   1.660   7.678
  986SOL     OW 2915   0.790   0.612   8.895
  986SOL    HW1 2916   0.760   0.579   8.980
  986SOL    HW2 2917   0.766   0.544   8.833
  987SOL     OW 2918   1.398   0.494   9.122
  987SOL    HW1 2919   1.402   0.535   9.208
  987SOL    HW2 2920   1.449   0.414   9.132
  988SOL     OW 2921   0.945   0.880   9.038
  988SOL    HW1 2922   1.001   0.816   8.993
  988SOL    HW2 2923   0.898   0.923   8.967
  989SOL     OW 2924   1.010   0.420   8.662
  989SOL    HW1 2925   0.918   0.426   8.689
  989SOL    HW2 2926   1.007   0.378   8.576
  990SOL     OW 2927   1.059   0.706   7.869
  990SOL    HW1 2928   1.081   0.702   7.962
  990SOL    HW2 2929   0.975   0.660   7.862
  991SOL     OW 2930   0.079   0.827   8.254
  991SOL    HW1 2931   0.164   0.821   8.297
  991SOL    HW2 2932   0.021   0.860   8.323
  992SOL     OW 2933   0.113   1.866   9.035
  992SOL    HW1 2934   0.107   1.862   9.131
  992SOL    HW2 2935   0.061   1.792   9.005
  993SOL     OW 2936   0.902   0.352   7.648
  993SOL    HW1 2937   0.925   0.419   7.583
  993SOL    HW2 2938   0.951   0.274   7.621
  994SOL     OW 2939   1.681   0.558   9.284
  994SOL    HW1 2940   1.661   0.639   9.237
  994SOL    HW2 2941   1.710   0.497   9.216
  995SOL     OW 2942   1.394   1.151   7.991
  995SOL    HW1 2943   1.473   1.139   7.939
  995SOL    HW2 2944   1.340   1.211   7.939
  996SOL     OW 2945   0.603   0.200   8.366
  996SOL    HW1 2946   0.586   0.220   8.458
  996SOL    HW2 2947   0.592   0.284   8.321
  997SOL     OW 2948   0.996   1.450   7.913
  997SOL    HW1 2949   0.974   1.526   7.858
  997SOL    HW2 2950   0.967   1.475   8.001
  998SOL     OW 2951   0.339   1.805   8.393
  998SOL    HW1 2952   0.387   1.725   8.370
  998SOL    HW2 2953   0.398   1.876   8.368
  999SOL     OW 2954   1.805   1.045   8.339
  999SOL    HW1 2955   1.757   1.030   8.257
  999SOL    HW2 2956   1.736   1.054   8.405
 1000SOL     OW 2957   1.217   1.544   8.963
 1000SOL    HW1 2958   1.207   1.474   9.027
 1000SOL    HW2 2959   1.152   1.526   8.896
 1001SOL     OW 2960   0.313   0.941   7.731
 1001SOL    HW1 2961   0.388   0.953   7.673
 1001SOL    HW2 2962   0.324   0.854   7.768
 1002SOL     OW 2963   1.485   0.766   8.159
 1002SOL    HW1 2964   1.482   0.729   8.247
 1002SOL    HW2 2965   1.564   0.820   8.158
 1003SOL     OW 2966   0.478   1.281   9.191
 1003SOL    HW1 2967   0.453   1.288   9.098
 1003SOL    HW2 2968   0.395   1.267   9.236
 1004SOL     OW 2969   1.142   1.776   7.671
 1004SOL    HW1 2970   1.061   1.744   7.711
 1004SOL    HW2 2971   1.162   1.712   7.603
 1005SOL     OW 2972   0.173   0.294   8.934
 1005SOL    HW1 2973   0.145   0.378   8.896
 1005SOL    HW2 2974   0.187   0.314   9.026
 1006SOL     OW 2975   1.639   1.388   7.548
 1006SOL    HW1 2976   1.598   1.474   7.535
 1006SOL    HW2 2977   1.571   1.326   7.521
 1007SOL     OW 2978   0.471   1.748   7.768
 1007SOL    HW1 2979   0.520   1.796   7.834
 1007SOL    HW2 2980   0.539   1.704   7.716
 1008SOL     OW 2981   1.405   0.162   7.864
 1008SOL    HW1 2982   1.398   0.104   7.788
 1008SOL    HW2 2983   1.496   0.152   7.892
 1009SOL     OW 2984   0.259   1.789   8.664
 1009SOL    HW1 2985   0.303   1.711   8.698
 1009SOL    HW2 2986   0.274   1.786   8.570
 1010SOL     OW 2987   0.954   1.703   8.340
 1010SOL    HW1 2988   1.038   1.660   8.355
 1010SOL    HW2 2989   0.913   1.651   8.270
 1011SOL     OW 2990   0.392   0.708   7.908
 1011SOL    HW1 2991   0.419   0.617   7.925
 1011SOL    HW2 2992   0.306   0.716   7.948
 1012SOL     OW 2993   1.505   0.233   9.163
 1012SOL    HW1 2994   1.520   0.249   9.256
 1012SOL    HW2 2995   1.427   0.177   9.160
 1013SOL     OW 2996   0.614   0.104   7.563
 1013SOL    HW1 2997   0.664   0.033   7.603
 1013SOL    HW2 2998   0.592   0.072   7.476
 1014SOL     OW 2999   0.752   0.271   9.229
 1014SOL    HW1 3000   0.824   0.209   9.221
 1014SOL    HW2 3001   0.713   0.251   9.315
 1015SOL     OW 3002   0.870   1.527   8.647
 1015SOL    HW1 3003   0.853   1.486   8.563
 1015SOL    HW2 3004   0.938   1.472   8.687
 1016SOL     OW 3005   1.336   0.595   8.877
 1016SOL    HW1 3006   1.368   0.569   8.963
 1016SOL    HW2 3007   1.369   0.684   8.865
 1017SOL     OW 3008   0.819   1.377   8.406
 1017SOL    HW1 3009   0.906   1.373   8.366
 1017SOL    HW2 3010   0.759   1.393   8.333
 1018SOL     OW 3011   0.934   0.522   8.343
 1018SOL    HW1 3012   0.906   0.511   8.252
 1018SOL    HW2 3013   0.957   0.433   8.372
 1019SOL     OW 3014   0.595   0.019   7.923
 1019SOL    HW1 3015   0.523   9.995   7.981
 1019SOL    HW2 3016   0.569   0.103   7.885
 1020SOL     OW 3017   1.434   1.213   7.481
 1020SOL    HW1 3018   1.464   1.139   7.534
 1020SOL    HW2 3019   1.349   1.236   7.517
 1021SOL     OW 3020   0.334   0.114   7.575
 1021SOL    HW1 3021   0.430   0.113   7.570
 1021SOL    HW2 3022   0.312   0.042   7.634
 1022SOL     OW 3023   0.943   0.275   7.911
 1022SOL    HW1 3024   0.915   0.301   7.823
 1022SOL    HW2 3025   1.037   0.294   7.912
 1023SOL     OW 3026   1.076   0.691   8.891
 1023SOL    HW1 3027   1.014   0.619   8.898
 1023SOL    HW2 3028   1.162   0.648   8.886
 1024SOL     OW 3029   1.209   1.586   8.250
 1024SOL    HW1 3030   1.223   1.646   8.177
 1024SOL    HW2 3031   1.283   1.602   8.309
 1025SOL     OW 3032   0.490   1.160   8.172
 1025SOL    HW1 3033   0.430   1.137   8.242
 1025SOL    HW2 3034   0.441   1.143   8.091
 1026SOL     OW 3035   1.254   1.791   8.065
 1026SOL    HW1 3036   1.302   1.854   8.012
 1026SOL    HW2 3037   1.184   1.843   8.105
 1027SOL     OW 3038   1.031   0.527   7.473
 1027SOL    HW1 3039   0.985   0.609   7.454
 1027SOL    HW2 3040   1.089   0.549   7.546
 1028SOL     OW 3041   0.118   0.548   8.828
 1028SOL    HW1 3042   0.203   0.562   8.788
 1028SOL    HW2 3043   0.107   0.621   8.889
 1029SOL     OW 3044   0.566   0.236   8.638
 1029SOL    HW1 3045   0.610   0.175   8.697
 1029SOL    HW2 3046   0.473   0.227   8.659
 1030SOL     OW 3047   0.864   0.474   8.087
 1030SOL    HW1 3048   0.825   0.530   8.020
 1030SOL    HW2 3049   0.889   0.394   8.040
 1031SOL     OW 3050   0.983   0.062   8.246
 1031SOL    HW1 3051   0.934   0.053   8.165
 1031SOL    HW2 3052   0.985   9.973   8.282
 1032SOL     OW 3053   1.434   1.153   8.303
 1032SOL    HW1 3054   1.365   1.087   8.313
 1032SOL    HW2 3055   1.447   1.159   8.209
 1033SOL     OW 3056   1.457   0.624   8.399
 1033SOL    HW1 3057   1.396   0.550   8.405
 1033SOL    HW2 3058   1.512   0.616   8.477
 1034SOL     OW 3059   1.824   0.797   7.837
 1034SOL    HW1 3060   1.886   0.755   7.896
 1034SOL    HW2 3061   1.814   0.735   7.765
 1035SOL     OW 3062   0.493   1.429   7.583
 1035SOL    HW1 3063   0.408   1.407   7.622
 1035SOL    HW2 3064   0.499   1.374   7.505
 1036SOL     OW 3065   1.708   1.272   8.082
 1036SOL    HW1 3066   1.801   1.265   8.103
 1036SOL    HW2 3067   1.684   1.361   8.107
 1037SOL     OW 3068   1.394   0.578   7.520
 1037SOL    HW1 3069   1.334   0.557   7.592
 1037SOL    HW2 3070   1.480   0.550   7.552
 1038SOL     OW 3071   0.538   0.257   7.779
 1038SOL    HW1 3072   0.579   0.205   7.711
 1038SOL    HW2 3073   0.530   0.345   7.741
 1039SOL     OW 3074   1.734   1.244   8.980
 1039SOL    HW1 3075   1.822   1.209   8.966
 1039SOL    HW2 3076   1.748   1.331   9.017
 1040SOL     OW 3077   1.043   1.357   8.784
 1040SOL    HW1 3078   0.966   1.322   8.828
 1040SOL    HW2 3079   1.117   1.311   8.824
 1041SOL     OW 3080   1.607   1.635   9.112
 1041SOL    HW1 3081   1.599   1.671   9.023
 1041SOL    HW2 3082   1.684   1.579   9.108
 1042SOL     OW 3083   1.151   1.239   8.553
 1042SOL    HW1 3084   1.088   1.273   8.617
 1042SOL    HW2 3085   1.118   1.271   8.469
 1043SOL     OW 3086   1.609   1.092   8.525
 1043SOL    HW1 3087   1.601   1.159   8.594
 1043SOL    HW2 3088   1.539   1.113   8.463
 1044SOL     OW 3089   0.884   0.166   8.826
 1044SOL    HW1 3090   0.908   0.124   8.743
 1044SOL    HW2 3091   0.967   0.188   8.867
 1045SOL     OW 3092   0.980   1.116   9.168
 1045SOL    HW1 3093   0.889   1.132   9.194
 1045SOL    HW2 3094   0.977   1.035   9.117
 1046SOL     OW 3095   0.708   1.063   7.828
 1046SOL    HW1 3096   0.695   1.038   7.920
 1046SOL    HW2 3097   0.784   1.012   7.800
 1047SOL     OW 3098   0.425   0.846   8.708
 1047SOL    HW1 3099   0.493   0.854   8.774
 1047SOL    HW2 3100   0.399   0.754   8.711
 1048SOL     OW 3101   1.269   0.375   8.731
 1048SOL    HW1 3102   1.299   0.453   8.778
 1048SOL    HW2 3103   1.180   0.396   8.704
 1049SOL     OW 3104   0.075   1.579   8.777
 1049SOL    HW1 3105   0.074   1.658   8.722
 1049SOL    HW2 3106   0.168   1.562   8.793
 1050SOL     OW 3107   0.341   1.115   7.945
 1050SOL    HW1 3108   0.341   1.202   7.905
 1050SOL    HW2 3109   0.334   1.055   7.871
 1051SOL     OW 3110   0.569   0.485   8.299
 1051SOL    HW1 3111   0.571   0.543   8.224
 1051SOL    HW2 3112   0.622   0.528   8.365
 1052SOL     OW 3113   1.247   1.353   7.845
 1052SOL    HW1 3114   1.302   1.423   7.880
 1052SOL    HW2 3115   1.159   1.375   7.877
 1053SOL     OW 3116   1.309   1.469   8.590
 1053SOL    HW1 3117   1.357   1.476   8.673
 1053SOL    HW2 3118   1.258   1.389   8.598
 1054SOL     OW 3119   1.576   0.627   7.928
 1054SOL    HW1 3120   1.525   0.667   7.998
 1054SOL    HW2 3121   1.629   0.698   7.892
 1055SOL     OW 3122   0.348   1.532   8.758
 1055SOL    HW1 3123   0.336   1.488   8.674
 1055SOL    HW2 3124   0.442   1.548   8.763
 1056SOL     OW 3125   0.446   0.728   9.066
 1056SOL    HW1 3126   0.500   0.775   9.002
 1056SOL    HW2 3127   0.501   0.655   9.095
 1057SOL     OW 3128   1.625   0.787   9.150
 1057SOL    HW1 3129   1.538   0.825   9.141
 1057SOL    HW2 3130   1.675   0.825   9.078
 1058SOL     OW 3131   0.956   0.082   9.225
 1058SOL    HW1 3132   1.023   0.136   9.267
 1058SOL    HW2 3133   0.999   0.047   9.147
 1059SOL     OW 3134   0.508   0.016   9.200
 1059SOL    HW1 3135   0.574   9.964   9.155
 1059SOL    HW2 3136   0.493   0.090   9.141
 1060SOL     OW 3137   0.592   0.881   8.487
 1060SOL    HW1 3138   0.631   0.968   8.488
 1060SOL    HW2 3139   0.532   0.880   8.562
 1061SOL     OW 3140   1.306   0.859   8.448
 1061SOL    HW1 3141   1.217   0.832   8.425
 1061SOL    HW2 3142   1.360   0.781   8.433
 1062SOL     OW 3143   1.192   0.534   7.703
 1062SOL    HW1 3144   1.201   0.459   7.762
 1062SOL    HW2 3145   1.152   0.602   7.757
 1063SOL     OW 3146   0.313   0.181   8.721
 1063SOL    HW1 3147   0.251   0.212   8.787
 1063SOL    HW2 3148   0.316   0.086   8.733
 1064SOL     OW 3149   0.007   1.317   8.730
 1064SOL    HW1 3150   0.052   1.269   8.800
 1064SOL    HW2 3151   0.021   1.409   8.751
 1065SOL     OW 3152   0.711   0.629   8.486
 1065SOL    HW1 3153   0.790   0.625   8.431
 1065SOL    HW2 3154   0.679   0.718   8.475
 1066SOL     OW 3155   1.756   0.972   9.314
 1066SOL    HW1 3156   1.711   0.899   9.272
 1066SOL    HW2 3157   1.701   0.995   9.389
 1067SOL     OW 3158   0.377   0.016   8.104
 1067SOL    HW1 3159   0.347   0.095   8.060
 1067SOL    HW2 3160   0.321   9.946   8.070
 1068SOL     OW 3161   1.637   0.398   7.788
 1068SOL    HW1 3162   1.675   0.334   7.848
 1068SOL    HW2 3163   1.607   0.470   7.844
 1069SOL     OW 3164   1.038   0.764   8.406
 1069SOL    HW1 3165   1.016   0.779   8.498
 1069SOL    HW2 3166   1.008   0.674   8.389
 1070SOL     OW 3167   0.981   1.566   9.180
 1070SOL    HW1 3168   0.962   1.609   9.097
 1070SOL    HW2 3169   1.021   1.483   9.156
 1071SOL     OW 3170   1.838   1.494   9.048
 1071SOL    HW1 3171   1.866   1.523   8.961
 1071SOL    HW2 3172   1.916   1.505   9.103
 1072SOL     OW 3173   0.375   0.938   9.247
 1072SOL    HW1 3174   0.446   0.955   9.309
 1072SOL    HW2 3175   0.407   0.865   9.194
 1073SOL     OW 3176   1.515   0.281   7.568
 1073SOL    HW1 3177   1.475   0.203   7.606
 1073SOL    HW2 3178   1.562   0.322   7.641
 1074SOL     OW 3179   1.280   0.822   7.468
 1074SOL    HW1 3180   1.323   0.737   7.477
 1074SOL    HW2 3181   1.316   0.859   7.387
 1075SOL     OW 3182   1.072   1.353   8.314
 1075SOL    HW1 3183   1.082   1.281   8.252
 1075SOL    HW2 3184   1.124   1.424   8.276
 1076SOL     OW 3185   0.323   0.805   8.391
 1076SOL    HW1 3186   0.417   0.825   8.389
 1076SOL    HW2 3187   0.318   0.715   8.421
 1077SOL     OW 3188   0.352   0.534   8.461
 1077SOL    HW1 3189   0.286   0.465   8.453
 1077SOL    HW2 3190   0.419   0.511   8.397
 1078SOL     OW 3191   1.137   0.405   9.107
 1078SOL    HW1 3192   1.089   0.450   9.176
 1078SOL    HW2 3193   1.224   0.445   9.109
 1079SOL     OW 3194   1.142   0.209   8.918
 1079SOL    HW1 3195   1.135   0.273   8.989
 1079SOL    HW2 3196   1.196   0.253   8.852
 1080SOL     OW 3197   9.969   1.331   7.668
 1080SOL    HW1 3198   9.924   1.323   7.583
 1080SOL    HW2 3199   9.988   1.241   7.694
 1081SOL     OW 3200   0.080   1.685   8.397
 1081SOL    HW1 3201   0.113   1.602   8.365
 1081SOL    HW2 3202   0.152   1.747   8.384
 1082SOL     OW 3203   0.497   1.576   8.355
 1082SOL    HW1 3204   0.564   1.643   8.368
 1082SOL    HW2 3205   0.536   1.513   8.295
 1083SOL     OW 3206   0.951   0.786   8.663
 1083SOL    HW1 3207   1.010   0.768   8.736
 1083SOL    HW2 3208   0.871   0.737   8.684
 1084SOL     OW 3209   0.026   0.547   8.559
 1084SOL    HW1 3210   0.085   0.476   8.534
 1084SOL    HW2 3211   0.036   0.555   8.654
 1085SOL     OW 3212   0.202   0.515   9.130
 1085SOL    HW1 3213   0.288   0.522   9.088
 1085SOL    HW2 3214   0.162   0.601   9.117
 1086SOL     OW 3215   1.391   0.921   9.098
 1086SOL    HW1 3216   1.409   1.015   9.094
 1086SOL    HW2 3217   1.384   0.895   9.006
 1087SOL     OW 3218   0.821   0.577   7.822
 1087SOL    HW1 3219   0.822   0.501   7.764
 1087SOL    HW2 3220   0.748   0.630   7.790
 1088SOL     OW 3221   1.626   0.605   8.616
 1088SOL    HW1 3222   1.606   0.551   8.692
 1088SOL    HW2 3223   1.714   0.579   8.590
 1089SOL     OW 3224   0.260   1.561   9.179
 1089SOL    HW1 3225   0.267   1.597   9.268
 1089SOL    HW2 3226   0.269   1.467   9.190
 1090SOL     OW 3227   0.733   0.449   8.687
 1090SOL    HW1 3228   0.673   0.376   8.671
 1090SOL    HW2 3229   0.716   0.510   8.616
 1091SOL     OW 3230   0.902   1.681   8.937
 1091SOL    HW1 3231   0.881   1.633   8.857
 1091SOL    HW2 3232   0.906   1.773   8.910
 1092SOL     OW 3233   0.514   0.482   7.630
 1092SOL    HW1 3234   0.555   0.564   7.655
 1092SOL    HW2 3235   0.428   0.508   7.597
 1093SOL     OW 3236   0.157   1.149   8.891
 1093SOL    HW1 3237   0.146   1.103   8.974
 1093SOL    HW2 3238   0.166   1.079   8.826
 1094SOL     OW 3239   1.304   1.037   8.655
 1094SOL    HW1 3240   1.312   0.974   8.584
 1094SOL    HW2 3241   1.250   1.107   8.619
 1095SOL     OW 3242   1.324   0.865   7.740
 1095SOL    HW1 3243   1.253   0.831   7.795
 1095SOL    HW2 3244   1.294   0.848   7.650
 1096SOL     OW 3245   1.787   1.724   8.617
 1096SOL    HW1 3246   1.848   1.750   8.548
 1096SOL    HW2 3247   1.755   1.638   8.590
 1097SOL     OW 3248   1.241   1.734   8.539
 1097SOL    HW1 3249   1.325   1.764   8.505
 1097SOL    HW2 3250   1.255   1.643   8.563
 1098SOL     OW 3251   0.100   1.183   8.496
 1098SOL    HW1 3252   0.103   1.236   8.575
 1098SOL    HW2 3253   0.006   1.176   8.474
 1099SOL     OW 3254   0.695   1.678   9.199
 1099SOL    HW1 3255   0.637   1.753   9.185
 1099SOL    HW2 3256   0.772   1.697   9.145
 1100SOL     OW 3257   1.763   0.187   7.932
 1100SOL    HW1 3258   1.816   0.188   7.852
 1100SOL    HW2 3259   1.797   0.113   7.983
 1101SOL     OW 3260   1.397   1.569   7.951
 1101SOL    HW1 3261   1.452   1.604   7.881
 1101SOL    HW2 3262   1.342   1.643   7.978
 1102SOL     OW 3263   0.099   1.790   9.310
 1102SOL    HW1 3264   0.063   1.730   9.375
 1102SOL    HW2 3265   0.173   1.832   9.353
 1103SOL     OW 3266   1.279   0.938   8.111
 1103SOL    HW1 3267   1.353   0.878   8.124
 1103SOL    HW2 3268   1.315   1.010   8.059
 1104SOL     OW 3269   0.783   1.281   8.857
 1104SOL    HW1 3270   0.758   1.328   8.937
 1104SOL    HW2 3271   0.709   1.292   8.798
 1105SOL     OW 3272   0.673   1.633   7.606
 1105SOL    HW1 3273   0.689   1.648   7.513
 1105SOL    HW2 3274   0.617   1.555   7.608
 1106SOL     OW 3275   1.615   1.731   8.845
 1106SOL    HW1 3276   1.673   1.731   8.769
 1106SOL    HW2 3277   1.599   1.824   8.864
 1107SOL     OW 3278   1.852   0.154   8.410
 1107SOL    HW1 3279   1.883   0.081   8.356
 1107SOL    HW2 3280   1.766   0.175   8.374
 1108SOL     OW 3281   0.264   0.372   8.189
 1108SOL    HW1 3282   0.182   0.365   8.142
 1108SOL    HW2 3283   0.245   0.341   8.277
 1109SOL     OW 3284   1.211   1.588   7.484
 1109SOL    HW1 3285   1.201   1.497   7.512
 1109SOL    HW2 3286   1.142   1.602   7.420
 1110SOL     OW 3287   0.825   1.012   8.831
 1110SOL    HW1 3288   0.863   1.001   8.744
 1110SOL    HW2 3289   0.814   1.107   8.841
 1111SOL     OW 3290   0.915   0.915   7.746
 1111SOL    HW1 3291   0.970   0.943   7.673
 1111SOL    HW2 3292   0.968   0.849   7.791
 1112SOL     OW 3293   1.484   1.645   7.506
 1112SOL    HW1 3294   1.392   1.625   7.489
 1112SOL    HW2 3295   1.525   1.649   7.419
 1113SOL     OW 3296   0.364   1.322   8.950
 1113SOL    HW1 3297   0.358   1.395   8.888
 1113SOL    HW2 3298   0.294   1.262   8.924
 1114SOL     OW 3299   1.599   1.290   8.725
 1114SOL    HW1 3300   1.652   1.265   8.801
 1114SOL    HW2 3301   1.540   1.357   8.759
 1115SOL     OW 3302   1.077   1.120   8.175
 1115SOL    HW1 3303   1.002   1.071   8.208
 1115SOL    HW2 3304   1.139   1.054   8.146
 1116SOL     OW 3305   1.027   0.261   8.429
 1116SOL    HW1 3306   1.013   0.211   8.349
 1116SOL    HW2 3307   1.020   0.196   8.499
 1117SOL     OW 3308   0.606   1.487   7.931
 1117SOL    HW1 3309   0.658   1.440   7.866
 1117SOL    HW2 3310   0.518   1.492   7.893
 1118SOL     OW 3311   1.742   0.370   8.835
 1118SOL    HW1 3312   1.815   0.430   8.824
 1118SOL    HW2 3313   1.756   0.302   8.769
 1119SOL     OW 3314   0.243   1.360   7.690
 1119SOL    HW1 3315   0.148   1.347   7.691
 1119SOL    HW2 3316   0.266   1.380   7.781
 1120SOL     OW 3317   0.137   1.014   9.137
 1120SOL    HW1 3318   0.100   1.093   9.175
 1120SOL    HW2 3319   0.223   1.005   9.179
 1121SOL     OW 3320   0.660   0.237   8.969
 1121SOL    HW1 3321   0.736   0.211   8.916
 1121SOL    HW2 3322   0.696   0.251   9.056
 1122SOL     OW 3323   0.052   0.321   7.401
 1122SOL    HW1 3324   0.006   0.345   7.481
 1122SOL    HW2 3325   0.069   0.404   7.357
 1123SOL     OW 3326   1.415   0.857   8.834
 1123SOL    HW1 3327   1.363   0.916   8.779
 1123SOL    HW2 3328   1.503   0.862   8.797
 1124SOL     OW 3329   0.044   0.094   7.736
 1124SOL    HW1 3330   0.091   0.176   7.723
 1124SOL    HW2 3331   0.029   0.090   7.831
 1125SOL     OW 3332   1.182   1.322   7.570
 1125SOL    HW1 3333   1.089   1.297   7.570
 1125SOL    HW2 3334   1.205   1.326   7.663
 1126SOL     OW 3335   0.628   0.832   8.889
 1126SOL    HW1 3336   0.687   0.907   8.876
 1126SOL    HW2 3337   0.686   0.756   8.890
 1127SOL     OW 3338   1.487   1.802   8.440
 1127SOL    HW1 3339   1.513   1.877   8.386
 1127SOL    HW2 3340   1.569   1.759   8.463
 1128SOL     OW 3341   0.705   0.550   9.150
 1128SOL    HW1 3342   0.756   0.609   9.205
 1128SOL    HW2 3343   0.722   0.463   9.185
 1129SOL     OW 3344   1.469   1.184   9.069
 1129SOL    HW1 3345   1.463   1.204   9.163
 1129SOL    HW2 3346   1.558   1.208   9.046
 1130SOL     OW 3347   0.366   1.756   9.014
 1130SOL    HW1 3348   0.282   1.799   8.999
 1130SOL    HW2 3349   0.344   1.673   9.056
 1131SOL     OW 3350   1.655   0.877   8.701
 1131SOL    HW1 3351   1.652   0.794   8.655
 1131SOL    HW2 3352   1.644   0.943   8.632
 1132SOL     OW 3353   1.210   0.342   7.902
 1132SOL    HW1 3354   1.277   0.276   7.887
 1132SOL    HW2 3355   1.241   0.390   7.979
 1133SOL     OW 3356   0.583   0.722   8.134
 1133SOL    HW1 3357   0.625   0.807   8.122
 1133SOL    HW2 3358   0.518   0.717   8.064
 1134SOL     OW 3359   1.745   0.353   9.108
 1134SOL    HW1 3360   1.746   0.366   9.013
 1134SOL    HW2 3361   1.664   0.304   9.125
 1135SOL     OW 3362   1.756   0.924   8.953
 1135SOL    HW1 3363   1.741   1.018   8.968
 1135SOL    HW2 3364   1.729   0.910   8.862
 1136SOL     OW 3365   0.873   1.356   7.512
 1136SOL    HW1 3366   0.834   1.377   7.597
 1136SOL    HW2 3367   0.883   1.441   7.469
 1137SOL     OW 3368   0.673   1.777   8.367
 1137SOL    HW1 3369   0.649   1.869   8.359
 1137SOL    HW2 3370   0.769   1.777   8.367
 1138SOL     OW 3371   0.875   0.978   8.304
 1138SOL    HW1 3372   0.925   0.905   8.341
 1138SOL    HW2 3373   0.829   1.015   8.379
 1139SOL     OW 3374   1.063   0.974   7.530
 1139SOL    HW1 3375   1.047   1.034   7.457
 1139SOL    HW2 3376   1.141   0.924   7.504
 1140SOL     OW 3377   1.830   1.558   8.287
 1140SOL    HW1 3378   1.753   1.549   8.231
 1140SOL    HW2 3379   1.809   1.505   8.365
 1141SOL     OW 3380   0.224   1.296   9.285
 1141SOL    HW1 3381   0.143   1.307   9.235
 1141SOL    HW2 3382   0.195   1.292   9.376
 1142SOL     OW 3383   0.154   1.224   8.117
 1142SOL    HW1 3384   0.095   1.168   8.167
 1142SOL    HW2 3385   0.212   1.163   8.071
 1143SOL     OW 3386   0.692   1.418   9.077
 1143SOL    HW1 3387   0.616   1.379   9.119
 1143SOL    HW2 3388   0.698   1.505   9.116
 1144SOL     OW 3389   1.762   0.147   8.675
 1144SOL    HW1 3390   1.711   0.066   8.667
 1144SOL    HW2 3391   1.805   0.157   8.591
 1145SOL     OW 3392   0.446   0.460   7.995
 1145SOL    HW1 3393   0.496   0.383   7.969
 1145SOL    HW2 3394   0.392   0.430   8.068
 1146SOL     OW 3395   1.696   1.480   8.530
 1146SOL    HW1 3396   1.617   1.461   8.478
 1146SOL    HW2 3397   1.697   1.413   8.598
 1147SOL     OW 3398   0.366   0.584   8.731
 1147SOL    HW1 3399   0.413   0.519   8.784
 1147SOL    HW2 3400   0.377   0.553   8.641
 1148SOL     OW 3401   0.844   1.583   8.120
 1148SOL    HW1 3402   0.815   1.655   8.063
 1148SOL    HW2 3403   0.766   1.527   8.128
 1149SOL     OW 3404   1.434   0.239   8.560
 1149SOL    HW1 3405   1.464   0.160   8.603
 1149SOL    HW2 3406   1.383   0.285   8.626
 1150SOL     OW 3407   1.013   0.043   8.605
 1150SOL    HW1 3408   0.969   9.960   8.588
 1150SOL    HW2 3409   1.102   0.019   8.631
 1151SOL     OW 3410   0.776   1.333   7.777
 1151SOL    HW1 3411   0.753   1.241   7.791
 1151SOL    HW2 3412   0.856   1.345   7.828
 1152SOL     OW 3413   0.617   1.571   8.733
 1152SOL    HW1 3414   0.613   1.658   8.772
 1152SOL    HW2 3415   0.707   1.563   8.701
 1153SOL     OW 3416   1.385   0.032   7.622
 1153SOL    HW1 3417   1.469   9.987   7.629
 1153SOL    HW2 3418   1.319   9.963   7.632
 1154SOL     OW 3419   1.299   0.478   8.123
 1154SOL    HW1 3420   1.248   0.558   8.124
 1154SOL    HW2 3421   1.292   0.444   8.213
 1155SOL     OW 3422   1.600   0.224   8.330
 1155SOL    HW1 3423   1.544   0.237   8.407
 1155SOL    HW2 3424   1.598   0.308   8.284
 1156SOL     OW 3425   0.066   1.085   7.741
 1156SOL    HW1 3426   0.146   1.037   7.720
 1156SOL    HW2 3427   0.033   1.043   7.820
 1157SOL     OW 3428   0.902   1.670   7.775
 1157SOL    HW1 3429   0.822   1.658   7.725
 1157SOL    HW2 3430   0.880   1.739   7.838
 1158SOL     OW 3431   0.256   0.572   9.432
 1158SOL    HW1 3432   0.207   0.588   9.512
 1158SOL    HW2 3433   0.218   0.633   9.368
 1159SOL     OW 3434   1.804   0.569   9.522
 1159SOL    HW1 3435   1.760   0.565   9.437
 1159SOL    HW2 3436   1.761   0.502   9.575
 1160SOL     OW 3437   0.266   1.678   9.807
 1160SOL    HW1 3438   0.207   1.750   9.830
 1160SOL    HW2 3439   0.325   1.716   9.742
 1161SOL     OW 3440   0.254   1.414   9.843
 1161SOL    HW1 3441   0.258   1.509   9.842
 1161SOL    HW2 3442   0.179   1.393   9.899
 1162SOL     OW 3443   0.572   0.988   9.453
 1162SOL    HW1 3444   0.625   1.033   9.387
 1162SOL    HW2 3445   0.608   1.020   9.536
 1163SOL     OW 3446   0.138   0.659   9.885
 1163SOL    HW1 3447   0.120   0.620   9.800
 1163SOL    HW2 3448   0.053   0.688   9.917
 1164SOL     OW 3449   1.828   1.754   9.640
 1164SOL    HW1 3450   1.905   1.735   9.694
 1164SOL    HW2 3451   1.843   1.842   9.607
 1165SOL     OW 3452   0.016   1.594   9.489
 1165SOL    HW1 3453   0.015   1.505   9.454
 1165SOL    HW2 3454   0.009   1.581   9.584
 1166SOL     OW 3455   1.655   0.856   9.916
 1166SOL    HW1 3456   1.736   0.861   9.967
 1166SOL    HW2 3457   1.658   0.933   9.859
 1167SOL     OW 3458   1.693   1.095   9.759
 1167SOL    HW1 3459   1.778   1.094   9.714
 1167SOL    HW2 3460   1.696   1.172   9.816
 1168SOL     OW 3461   0.639   1.339  10.000
 1168SOL    HW1 3462   0.579   1.264   9.997
 1168SOL    HW2 3463   0.619   1.388   9.919
 1169SOL     OW 3464   0.816   0.007   9.799
 1169SOL    HW1 3465   0.856   0.094   9.798
 1169SOL    HW2 3466   0.724   0.023   9.819
 1170SOL     OW 3467   1.560   1.024   9.519
 1170SOL    HW1 3468   1.497   0.957   9.545
 1170SOL    HW2 3469   1.600   1.052   9.601
 1171SOL     OW 3470   0.618   0.727   9.578
 1171SOL    HW1 3471   0.627   0.807   9.526
 1171SOL    HW2 3472   0.575   0.755   9.659
 1172SOL     OW 3473   1.561   1.674   9.626
 1172SOL    HW1 3474   1.654   1.696   9.634
 1172SOL    HW2 3475   1.548   1.660   9.533
 1173SOL     OW 3476   1.050   0.690   9.737
 1173SOL    HW1 3477   1.083   0.667   9.824
 1173SOL    HW2 3478   0.965   0.646   9.731
 1174SOL     OW 3479   0.065   0.961   0.067
 1174SOL    HW1 3480   0.133   0.894   0.071
 1174SOL    HW2 3481   0.058   0.994   0.156
 1175SOL     OW 3482   0.893   0.353   9.508
 1175SOL    HW1 3483   0.919   0.421   9.446
 1175SOL    HW2 3484   0.941   0.275   9.480
 1176SOL     OW 3485   1.312   1.094   9.787
 1176SOL    HW1 3486   1.364   1.119   9.863
 1176SOL    HW2 3487   1.288   1.177   9.745
 1177SOL     OW 3488   0.990   1.427   9.784
 1177SOL    HW1 3489   0.964   1.512   9.751
 1177SOL    HW2 3490   0.964   1.427   9.876
 1178SOL     OW 3491   0.330   1.767   0.179
 1178SOL    HW1 3492   0.338   1.672   0.169
 1178SOL    HW2 3493   0.392   1.790   0.248
 1179SOL     OW 3494   0.315   0.933   9.585
 1179SOL    HW1 3495   0.393   0.947   9.531
 1179SOL    HW2 3496   0.335   0.854   9.636
 1180SOL     OW 3497   1.138   1.777   9.540
 1180SOL    HW1 3498   1.062   1.739   9.584
 1180SOL    HW2 3499   1.160   1.713   9.472
 1181SOL     OW 3500   1.638   1.392   9.403
 1181SOL    HW1 3501   1.594   1.476   9.391
 1181SOL    HW2 3502   1.571   1.327   9.380
 1182SOL     OW 3503   0.479   1.757   9.626
 1182SOL    HW1 3504   0.527   1.803   9.696
 1182SOL    HW2 3505   0.546   1.710   9.577
 1183SOL     OW 3506   1.417   0.162   9.755
 1183SOL    HW1 3507   1.398   0.122   9.670
 1183SOL    HW2 3508   1.480   0.232   9.736
 1184SOL     OW 3509   0.374   0.722   9.752
 1184SOL    HW1 3510   0.420   0.639   9.766
 1184SOL    HW2 3511   0.292   0.713   9.800
 1185SOL     OW 3512   0.608   0.097   9.440
 1185SOL    HW1 3513   0.662   0.026   9.474
 1185SOL    HW2 3514   0.577   0.065   9.355
 1186SOL     OW 3515   0.563   0.097   9.841
 1186SOL    HW1 3516   0.471   0.073   9.855
 1186SOL    HW2 3517   0.559   0.166   9.774
 1187SOL     OW 3518   1.440   1.207   9.345
 1187SOL    HW1 3519   1.475   1.140   9.403
 1187SOL    HW2 3520   1.354   1.228   9.382
 1188SOL     OW 3521   0.332   0.076   9.489
 1188SOL    HW1 3522   0.425   0.097   9.487
 1188SOL    HW2 3523   0.325   9.993   9.440
 1189SOL     OW 3524   0.927   0.257   9.768
 1189SOL    HW1 3525   0.903   0.295   9.683
 1189SOL    HW2 3526   1.021   0.270   9.775
 1190SOL     OW 3527   0.436   1.153   0.035
 1190SOL    HW1 3528   0.364   1.183   0.091
 1190SOL    HW2 3529   0.394   1.135   9.951
 1191SOL     OW 3530   1.298   1.833   9.898
 1191SOL    HW1 3531   1.341   1.900   9.845
 1191SOL    HW2 3532   1.206   1.860   9.900
 1192SOL     OW 3533   1.033   0.523   9.336
 1192SOL    HW1 3534   0.987   0.604   9.314
 1192SOL    HW2 3535   1.091   0.548   9.408
 1193SOL     OW 3536   0.837   0.451   9.950
 1193SOL    HW1 3537   0.796   0.508   9.885
 1193SOL    HW2 3538   0.859   0.371   9.901
 1194SOL     OW 3539   1.859   0.811   9.633
 1194SOL    HW1 3540   1.905   0.778   9.710
 1194SOL    HW2 3541   1.832   0.732   9.586
 1195SOL     OW 3542   0.491   1.430   9.454
 1195SOL    HW1 3543   0.412   1.400   9.499
 1195SOL    HW2 3544   0.496   1.376   9.375
 1196SOL     OW 3545   1.390   0.585   9.378
 1196SOL    HW1 3546   1.334   0.564   9.452
 1196SOL    HW2 3547   1.479   0.569   9.409
 1197SOL     OW 3548   0.555   0.283   9.636
 1197SOL    HW1 3549   0.588   0.218   9.574
 1197SOL    HW2 3550   0.538   0.360   9.583
 1198SOL     OW 3551   0.699   1.048   9.689
 1198SOL    HW1 3552   0.665   0.999   9.764
 1198SOL    HW2 3553   0.781   1.004   9.667
 1199SOL     OW 3554   0.308   1.120   9.793
 1199SOL    HW1 3555   0.321   1.202   9.745
 1199SOL    HW2 3556   0.319   1.052   9.728
 1200SOL     OW 3557   1.237   1.354   9.690
 1200SOL    HW1 3558   1.291   1.425   9.721
 1200SOL    HW2 3559   1.150   1.371   9.727
 1201SOL     OW 3560   1.606   0.619   9.767
 1201SOL    HW1 3561   1.610   0.672   9.847
 1201SOL    HW2 3562   1.602   0.684   9.696
 1202SOL     OW 3563   1.193   0.532   9.563
 1202SOL    HW1 3564   1.198   0.457   9.623
 1202SOL    HW2 3565   1.158   0.603   9.616
 1203SOL     OW 3566   0.304   0.060   9.920
 1203SOL    HW1 3567   0.209   0.060   9.922
 1203SOL    HW2 3568   0.330   0.051   0.012
 1204SOL     OW 3569   1.604   0.360   9.680
 1204SOL    HW1 3570   1.670   0.316   9.733
 1204SOL    HW2 3571   1.595   0.447   9.720
 1205SOL     OW 3572   1.518   0.273   9.429
 1205SOL    HW1 3573   1.475   0.193   9.459
 1205SOL    HW2 3574   1.557   0.310   9.508
 1206SOL     OW 3575   1.271   0.827   9.325
 1206SOL    HW1 3576   1.315   0.744   9.339
 1206SOL    HW2 3577   1.310   0.863   9.245
 1207SOL     OW 3578   0.008   1.299   9.484
 1207SOL    HW1 3579   9.914   1.303   9.465
 1207SOL    HW2 3580   0.022   1.211   9.519
 1208SOL     OW 3581   0.812   0.562   9.689
 1208SOL    HW1 3582   0.818   0.490   9.626
 1208SOL    HW2 3583   0.746   0.621   9.652
 1209SOL     OW 3584   0.512   0.495   9.473
 1209SOL    HW1 3585   0.558   0.573   9.505
 1209SOL    HW2 3586   0.423   0.526   9.453
 1210SOL     OW 3587   1.362   0.858   9.604
 1210SOL    HW1 3588   1.320   0.914   9.669
 1210SOL    HW2 3589   1.299   0.855   9.532
 1211SOL     OW 3590   1.788   0.207   9.816
 1211SOL    HW1 3591   1.846   0.198   9.741
 1211SOL    HW2 3592   1.760   0.117   9.835
 1212SOL     OW 3593   1.362   1.588   9.792
 1212SOL    HW1 3594   1.433   1.605   9.731
 1212SOL    HW2 3595   1.334   1.675   9.822
 1213SOL     OW 3596   0.675   1.631   9.472
 1213SOL    HW1 3597   0.693   1.646   9.379
 1213SOL    HW2 3598   0.618   1.555   9.474
 1214SOL     OW 3599   1.802   0.145   0.262
 1214SOL    HW1 3600   1.798   0.052   0.239
 1214SOL    HW2 3601   1.773   0.191   0.183
 1215SOL     OW 3602   1.210   1.593   9.347
 1215SOL    HW1 3603   1.201   1.501   9.372
 1215SOL    HW2 3604   1.140   1.607   9.283
 1216SOL     OW 3605   0.919   0.911   9.619
 1216SOL    HW1 3606   0.970   0.937   9.543
 1216SOL    HW2 3607   0.972   0.844   9.662
 1217SOL     OW 3608   1.486   1.645   9.359
 1217SOL    HW1 3609   1.393   1.627   9.344
 1217SOL    HW2 3610   1.525   1.648   9.272
 1218SOL     OW 3611   0.596   1.477   9.770
 1218SOL    HW1 3612   0.649   1.433   9.704
 1218SOL    HW2 3613   0.515   1.501   9.723
 1219SOL     OW 3614   0.261   1.348   9.585
 1219SOL    HW1 3615   0.169   1.341   9.563
 1219SOL    HW2 3616   0.263   1.381   9.675
 1220SOL     OW 3617   0.034   0.329   9.256
 1220SOL    HW1 3618   9.974   0.365   9.322
 1220SOL    HW2 3619   0.076   0.406   9.218
 1221SOL     OW 3620   0.066   0.080   9.563
 1221SOL    HW1 3621   0.054   0.162   9.612
 1221SOL    HW2 3622   0.159   0.080   9.540
 1222SOL     OW 3623   1.180   1.323   9.422
 1222SOL    HW1 3624   1.087   1.298   9.422
 1222SOL    HW2 3625   1.203   1.329   9.515
 1223SOL     OW 3626   1.196   0.339   9.761
 1223SOL    HW1 3627   1.264   0.274   9.779
 1223SOL    HW2 3628   1.195   0.394   9.839
 1224SOL     OW 3629   0.604   0.866   9.881
 1224SOL    HW1 3630   0.621   0.882   9.974
 1224SOL    HW2 3631   0.535   0.800   9.880
 1225SOL     OW 3632   0.873   1.356   9.367
 1225SOL    HW1 3633   0.836   1.371   9.454
 1225SOL    HW2 3634   0.882   1.444   9.330
 1226SOL     OW 3635   1.051   0.967   9.391
 1226SOL    HW1 3636   1.039   1.032   9.321
 1226SOL    HW2 3637   1.131   0.920   9.366
 1227SOL     OW 3638   0.069   1.193   9.913
 1227SOL    HW1 3639   0.047   1.117   9.967
 1227SOL    HW2 3640   0.153   1.171   9.874
 1228SOL     OW 3641   0.495   0.491   9.823
 1228SOL    HW1 3642   0.527   0.417   9.770
 1228SOL    HW2 3643   0.438   0.451   9.888
 1229SOL     OW 3644   0.778   1.321   9.629
 1229SOL    HW1 3645   0.752   1.231   9.650
 1229SOL    HW2 3646   0.854   1.337   9.685
 1230SOL     OW 3647   1.392   0.043   9.506
 1230SOL    HW1 3648   1.474   9.994   9.507
 1230SOL    HW2 3649   1.324   9.976   9.512
 1231SOL     OW 3650   0.066   1.059   9.592
 1231SOL    HW1 3651   0.148   1.011   9.585
 1231SOL    HW2 3652   0.039   1.048   9.683
 1232SOL     OW 3653   0.904   1.663   9.660
 1232SOL    HW1 3654   0.825   1.651   9.608
 1232SOL    HW2 3655   0.881   1.732   9.722
 1233SOL     OW 3656   0.266   2.549   0.136
 1233SOL    HW1 3657   0.212   2.507   0.203
 1233SOL    HW2 3658   0.223   2.526   0.054
 1234SOL     OW 3659   0.196   2.143   1.000
 1234SOL    HW1 3660   0.234   2.107   1.080
 1234SOL    HW2 3661   0.105   2.115   1.001
 1235SOL     OW 3662   0.045   2.284   0.635
 1235SOL    HW1 3663   9.951   2.288   0.654
 1235SOL    HW2 3664   0.052   2.223   0.562
 1236SOL     OW 3665   0.569   3.170   1.203
 1236SOL    HW1 3666   0.487   3.173   1.154
 1236SOL    HW2 3667   0.587   3.261   1.226
 1237SOL     OW 3668   1.589   3.386   0.706
 1237SOL    HW1 3669   1.542   3.353   0.783
 1237SOL    HW2 3670   1.523   3.389   0.637
 1238SOL     OW 3671   1.142   2.562   0.686
 1238SOL    HW1 3672   1.187   2.646   0.678
 1238SOL    HW2 3673   1.090   2.571   0.767
 1239SOL     OW 3674   1.775   2.444   0.200
 1239SOL    HW1 3675   1.701   2.475   0.148
 1239SOL    HW2 3676   1.740   2.373   0.252
 1240SOL     OW 3677   0.729   2.992   1.060
 1240SOL    HW1 3678   0.667   3.033   1.120
 1240SOL    HW2 3679   0.772   3.066   1.016
 1241SOL     OW 3680   0.888   2.606   1.826
 1241SOL    HW1 3681   0.894   2.675   1.892
 1241SOL    HW2 3682   0.903   2.652   1.743
 1242SOL     OW 3683   0.692   2.845   0.647
 1242SOL    HW1 3684   0.760   2.846   0.715
 1242SOL    HW2 3685   0.625   2.906   0.679
 1243SOL     OW 3686   0.717   3.010   1.835
 1243SOL    HW1 3687   0.768   3.084   1.869
 1243SOL    HW2 3688   0.643   3.051   1.790
 1244SOL     OW 3689   0.337   3.281   1.062
 1244SOL    HW1 3690   0.264   3.262   1.003
 1244SOL    HW2 3691   0.395   3.338   1.010
 1245SOL     OW 3692   1.453   3.368   1.372
 1245SOL    HW1 3693   1.508   3.446   1.385
 1245SOL    HW2 3694   1.381   3.379   1.434
 1246SOL     OW 3695   0.478   2.248   1.451
 1246SOL    HW1 3696   0.549   2.186   1.467
 1246SOL    HW2 3697   0.399   2.202   1.481
 1247SOL     OW 3698   1.580   2.294   0.753
 1247SOL    HW1 3699   1.505   2.301   0.693
 1247SOL    HW2 3700   1.566   2.364   0.817
 1248SOL     OW 3701   0.267   3.523   0.477
 1248SOL    HW1 3702   0.212   3.599   0.498
 1248SOL    HW2 3703   0.351   3.560   0.451
 1249SOL     OW 3704   1.136   3.203   1.696
 1249SOL    HW1 3705   1.181   3.192   1.780
 1249SOL    HW2 3706   1.083   3.124   1.687
 1250SOL     OW 3707   0.196   3.280   0.556
 1250SOL    HW1 3708   0.227   3.369   0.536
 1250SOL    HW2 3709   0.101   3.284   0.544
 1251SOL     OW 3710   0.279   2.943   0.875
 1251SOL    HW1 3711   0.284   2.852   0.904
 1251SOL    HW2 3712   0.218   2.984   0.937
 1252SOL     OW 3713   0.586   3.671   1.410
 1252SOL    HW1 3714   0.508   3.651   1.461
 1252SOL    HW2 3715   0.618   3.754   1.447
 1253SOL     OW 3716   0.585   2.814   0.160
 1253SOL    HW1 3717   0.553   2.888   0.108
 1253SOL    HW2 3718   0.640   2.855   0.227
 1254SOL     OW 3719   1.593   1.994   1.460
 1254SOL    HW1 3720   1.629   2.071   1.416
 1254SOL    HW2 3721   1.560   2.027   1.544
 1255SOL     OW 3722   0.146   2.535   0.583
 1255SOL    HW1 3723   0.115   2.450   0.614
 1255SOL    HW2 3724   0.124   2.596   0.652
 1256SOL     OW 3725   1.862   3.599   0.306
 1256SOL    HW1 3726   1.932   3.578   0.368
 1256SOL    HW2 3727   1.876   3.692   0.285
 1257SOL     OW 3728   9.982   3.469   0.192
 1257SOL    HW1 3729   0.019   3.381   0.192
 1257SOL    HW2 3730   0.053   3.525   0.160
 1258SOL     OW 3731   1.698   2.783   0.664
 1258SOL    HW1 3732   1.781   2.739   0.644
 1258SOL    HW2 3733   1.678   2.832   0.584
 1259SOL     OW 3734   1.662   2.953   0.442
 1259SOL    HW1 3735   1.743   2.949   0.392
 1259SOL    HW2 3736   1.676   3.023   0.506
 1260SOL     OW 3737   0.178   2.616   1.570
 1260SOL    HW1 3738   0.273   2.615   1.575
 1260SOL    HW2 3739   0.154   2.707   1.590
 1261SOL     OW 3740   0.622   3.250   0.759
 1261SOL    HW1 3741   0.578   3.164   0.757
 1261SOL    HW2 3742   0.613   3.283   0.669
 1262SOL     OW 3743   1.271   3.087   1.418
 1262SOL    HW1 3744   1.298   3.018   1.357
 1262SOL    HW2 3745   1.333   3.081   1.490
 1263SOL     OW 3746   0.861   1.872   0.526
 1263SOL    HW1 3747   0.902   1.952   0.493
 1263SOL    HW2 3748   0.768   1.894   0.534
 1264SOL     OW 3749   0.164   2.802   1.275
 1264SOL    HW1 3750   0.253   2.767   1.267
 1264SOL    HW2 3751   0.136   2.818   1.185
 1265SOL     OW 3752   1.490   2.891   0.235
 1265SOL    HW1 3753   1.436   2.819   0.267
 1265SOL    HW2 3754   1.552   2.907   0.306
 1266SOL     OW 3755   1.178   3.685   1.637
 1266SOL    HW1 3756   1.180   3.747   1.564
 1266SOL    HW2 3757   1.195   3.600   1.596
 1267SOL     OW 3758   0.342   2.112   1.787
 1267SOL    HW1 3759   0.385   2.182   1.838
 1267SOL    HW2 3760   0.250   2.117   1.814
 1268SOL     OW 3761   1.473   3.278   0.931
 1268SOL    HW1 3762   1.409   3.298   0.999
 1268SOL    HW2 3763   1.454   3.187   0.906
 1269SOL     OW 3764   1.644   3.659   0.564
 1269SOL    HW1 3765   1.627   3.613   0.482
 1269SOL    HW2 3766   1.641   3.590   0.631
 1270SOL     OW 3767   0.609   2.556   0.283
 1270SOL    HW1 3768   0.614   2.641   0.238
 1270SOL    HW2 3769   0.541   2.568   0.349
 1271SOL     OW 3770   1.282   2.253   0.941
 1271SOL    HW1 3771   1.193   2.219   0.947
 1271SOL    HW2 3772   1.333   2.194   0.997
 1272SOL     OW 3773   1.591   3.539   0.324
 1272SOL    HW1 3774   1.685   3.550   0.309
 1272SOL    HW2 3775   1.555   3.521   0.237
 1273SOL     OW 3776   0.791   2.472   1.437
 1273SOL    HW1 3777   0.762   2.444   1.523
 1273SOL    HW2 3778   0.766   2.401   1.378
 1274SOL     OW 3779   1.392   2.339   1.673
 1274SOL    HW1 3780   1.397   2.382   1.758
 1274SOL    HW2 3781   1.441   2.258   1.684
 1275SOL     OW 3782   0.945   2.744   1.590
 1275SOL    HW1 3783   1.000   2.679   1.546
 1275SOL    HW2 3784   0.897   2.787   1.519
 1276SOL     OW 3785   1.009   2.259   1.210
 1276SOL    HW1 3786   0.917   2.273   1.232
 1276SOL    HW2 3787   1.007   2.214   1.125
 1277SOL     OW 3788   1.071   2.561   0.417
 1277SOL    HW1 3789   1.091   2.557   0.511
 1277SOL    HW2 3790   0.987   2.517   0.409
 1278SOL     OW 3791   0.066   2.694   0.812
 1278SOL    HW1 3792   0.152   2.689   0.853
 1278SOL    HW2 3793   0.009   2.729   0.881
 1279SOL     OW 3794   0.112   3.725   1.581
 1279SOL    HW1 3795   0.110   3.719   1.676
 1279SOL    HW2 3796   0.058   3.652   1.551
 1280SOL     OW 3797   0.861   2.202   0.199
 1280SOL    HW1 3798   0.848   2.249   0.116
 1280SOL    HW2 3799   0.866   2.110   0.174
 1281SOL     OW 3800   1.687   2.425   1.840
 1281SOL    HW1 3801   1.665   2.502   1.788
 1281SOL    HW2 3802   1.715   2.360   1.775
 1282SOL     OW 3803   1.396   3.011   0.556
 1282SOL    HW1 3804   1.474   3.002   0.502
 1282SOL    HW2 3805   1.341   3.072   0.508
 1283SOL     OW 3806   0.570   2.037   0.912
 1283SOL    HW1 3807   0.569   2.062   1.005
 1283SOL    HW2 3808   0.554   2.119   0.865
 1284SOL     OW 3809   0.998   3.310   0.470
 1284SOL    HW1 3810   0.977   3.386   0.416
 1284SOL    HW2 3811   0.965   3.332   0.557
 1285SOL     OW 3812   0.337   3.667   0.946
 1285SOL    HW1 3813   0.386   3.587   0.925
 1285SOL    HW2 3814   0.392   3.738   0.913
 1286SOL     OW 3815   1.803   2.906   0.894
 1286SOL    HW1 3816   1.755   2.888   0.814
 1286SOL    HW2 3817   1.736   2.916   0.961
 1287SOL     OW 3818   1.218   3.405   1.516
 1287SOL    HW1 3819   1.207   3.334   1.579
 1287SOL    HW2 3820   1.150   3.390   1.451
 1288SOL     OW 3821   0.329   2.798   0.270
 1288SOL    HW1 3822   0.415   2.808   0.230
 1288SOL    HW2 3823   0.309   2.704   0.262
 1289SOL     OW 3824   1.486   2.619   0.713
 1289SOL    HW1 3825   1.486   2.578   0.799
 1289SOL    HW2 3826   1.564   2.674   0.712
 1290SOL     OW 3827   0.485   3.137   1.735
 1290SOL    HW1 3828   0.462   3.145   1.643
 1290SOL    HW2 3829   0.401   3.128   1.780
 1291SOL     OW 3830   1.108   3.646   0.178
 1291SOL    HW1 3831   1.052   3.605   0.243
 1291SOL    HW2 3832   1.148   3.573   0.131
 1292SOL     OW 3833   0.220   2.143   1.497
 1292SOL    HW1 3834   0.130   2.171   1.483
 1292SOL    HW2 3835   0.214   2.071   1.561
 1293SOL     OW 3836   1.630   3.232   0.111
 1293SOL    HW1 3837   1.589   3.318   0.104
 1293SOL    HW2 3838   1.563   3.172   0.077
 1294SOL     OW 3839   0.521   3.596   0.378
 1294SOL    HW1 3840   0.557   3.669   0.429
 1294SOL    HW2 3841   0.584   3.583   0.308
 1295SOL     OW 3842   1.397   1.966   0.448
 1295SOL    HW1 3843   1.395   1.945   0.354
 1295SOL    HW2 3844   1.489   1.951   0.473
 1296SOL     OW 3845   0.256   3.652   1.217
 1296SOL    HW1 3846   0.300   3.574   1.249
 1296SOL    HW2 3847   0.272   3.651   1.122
 1297SOL     OW 3848   0.952   3.564   0.892
 1297SOL    HW1 3849   1.035   3.518   0.907
 1297SOL    HW2 3850   0.908   3.513   0.824
 1298SOL     OW 3851   0.401   2.560   0.467
 1298SOL    HW1 3852   0.419   2.468   0.489
 1298SOL    HW2 3853   0.312   2.575   0.500
 1299SOL     OW 3854   1.508   2.085   1.717
 1299SOL    HW1 3855   1.520   2.104   1.810
 1299SOL    HW2 3856   1.441   2.016   1.715
 1300SOL     OW 3857   0.614   1.955   0.169
 1300SOL    HW1 3858   0.704   1.942   0.142
 1300SOL    HW2 3859   0.563   1.950   0.088
 1301SOL     OW 3860   0.758   2.139   1.756
 1301SOL    HW1 3861   0.842   2.094   1.754
 1301SOL    HW2 3862   0.711   2.100   1.829
 1302SOL     OW 3863   0.871   3.389   1.200
 1302SOL    HW1 3864   0.853   3.348   1.115
 1302SOL    HW2 3865   0.939   3.334   1.239
 1303SOL     OW 3866   1.329   2.453   1.432
 1303SOL    HW1 3867   1.362   2.423   1.517
 1303SOL    HW2 3868   1.367   2.541   1.422
 1304SOL     OW 3869   0.820   3.239   0.962
 1304SOL    HW1 3870   0.905   3.235   0.918
 1304SOL    HW2 3871   0.757   3.252   0.891
 1305SOL     OW 3872   0.932   2.377   0.890
 1305SOL    HW1 3873   0.907   2.364   0.799
 1305SOL    HW2 3874   0.956   2.290   0.922
 1306SOL     OW 3875   0.603   1.946   0.524
 1306SOL    HW1 3876   0.530   1.942   0.585
 1306SOL    HW2 3877   0.583   2.021   0.467
 1307SOL     OW 3878   1.423   3.060   0.034
 1307SOL    HW1 3879   1.449   2.995   0.099
 1307SOL    HW2 3880   1.342   3.098   0.069
 1308SOL     OW 3881   0.962   2.113   0.446
 1308SOL    HW1 3882   0.928   2.150   0.365
 1308SOL    HW2 3883   1.055   2.139   0.446
 1309SOL     OW 3884   1.074   2.555   1.444
 1309SOL    HW1 3885   1.010   2.484   1.450
 1309SOL    HW2 3886   1.158   2.510   1.440
 1310SOL     OW 3887   1.210   3.449   0.800
 1310SOL    HW1 3888   1.224   3.508   0.727
 1310SOL    HW2 3889   1.281   3.468   0.861
 1311SOL     OW 3890   0.489   3.015   0.722
 1311SOL    HW1 3891   0.418   2.994   0.783
 1311SOL    HW2 3892   0.449   3.008   0.635
 1312SOL     OW 3893   1.256   3.655   0.613
 1312SOL    HW1 3894   1.303   3.719   0.560
 1312SOL    HW2 3895   1.188   3.705   0.657
 1313SOL     OW 3896   1.093   2.425   9.981
 1313SOL    HW1 3897   1.006   2.385   9.988
 1313SOL    HW2 3898   1.129   2.417   0.070
 1314SOL     OW 3899   0.103   2.449   1.361
 1314SOL    HW1 3900   0.194   2.437   1.332
 1314SOL    HW2 3901   0.110   2.505   1.438
 1315SOL     OW 3902   0.563   2.085   1.184
 1315SOL    HW1 3903   0.598   2.013   1.235
 1315SOL    HW2 3904   0.469   2.085   1.202
 1316SOL     OW 3905   0.877   2.311   0.633
 1316SOL    HW1 3906   0.844   2.368   0.564
 1316SOL    HW2 3907   0.902   2.230   0.588
 1317SOL     OW 3908   1.034   1.919   0.746
 1317SOL    HW1 3909   0.973   1.912   0.673
 1317SOL    HW2 3910   1.009   1.847   0.805
 1318SOL     OW 3911   1.430   3.015   0.854
 1318SOL    HW1 3912   1.362   2.950   0.867
 1318SOL    HW2 3913   1.440   3.021   0.759
 1319SOL     OW 3914   1.462   2.477   0.951
 1319SOL    HW1 3915   1.397   2.407   0.961
 1319SOL    HW2 3916   1.517   2.470   1.029
 1320SOL     OW 3917   1.861   2.651   0.369
 1320SOL    HW1 3918   1.902   2.602   0.439
 1320SOL    HW2 3919   1.821   2.584   0.313
 1321SOL     OW 3920   0.481   3.330   0.195
 1321SOL    HW1 3921   0.412   3.277   0.236
 1321SOL    HW2 3922   0.528   3.268   0.140
 1322SOL     OW 3923   1.711   3.135   0.629
 1322SOL    HW1 3924   1.803   3.128   0.654
 1322SOL    HW2 3925   1.685   3.223   0.657
 1323SOL     OW 3926   1.417   2.427   0.092
 1323SOL    HW1 3927   1.341   2.416   0.149
 1323SOL    HW2 3928   1.455   2.339   0.085
 1324SOL     OW 3929   0.519   2.137   0.343
 1324SOL    HW1 3930   0.552   2.071   0.283
 1324SOL    HW2 3931   0.496   2.211   0.287
 1325SOL     OW 3932   1.735   3.106   1.533
 1325SOL    HW1 3933   1.823   3.072   1.519
 1325SOL    HW2 3934   1.749   3.193   1.570
 1326SOL     OW 3935   1.043   3.218   1.335
 1326SOL    HW1 3936   0.966   3.183   1.379
 1326SOL    HW2 3937   1.117   3.171   1.376
 1327SOL     OW 3938   1.608   3.497   1.672
 1327SOL    HW1 3939   1.597   3.533   1.584
 1327SOL    HW2 3940   1.686   3.441   1.665
 1328SOL     OW 3941   1.152   3.100   1.105
 1328SOL    HW1 3942   1.089   3.133   1.169
 1328SOL    HW2 3943   1.119   3.132   1.020
 1329SOL     OW 3944   1.607   2.954   1.078
 1329SOL    HW1 3945   1.600   3.020   1.147
 1329SOL    HW2 3946   1.538   2.975   1.016
 1330SOL     OW 3947   0.921   1.943   1.385
 1330SOL    HW1 3948   0.940   1.927   1.292
 1330SOL    HW2 3949   1.000   1.984   1.419
 1331SOL     OW 3950   0.981   2.977   1.723
 1331SOL    HW1 3951   0.891   2.993   1.751
 1331SOL    HW2 3952   0.976   2.897   1.670
 1332SOL     OW 3953   0.725   2.917   0.376
 1332SOL    HW1 3954   0.709   2.892   0.467
 1332SOL    HW2 3955   0.806   2.870   0.352
 1333SOL     OW 3956   0.420   2.697   1.261
 1333SOL    HW1 3957   0.490   2.707   1.326
 1333SOL    HW2 3958   0.396   2.604   1.266
 1334SOL     OW 3959   1.266   2.229   1.292
 1334SOL    HW1 3960   1.293   2.310   1.336
 1334SOL    HW2 3961   1.177   2.247   1.262
 1335SOL     OW 3962   0.076   3.444   1.331
 1335SOL    HW1 3963   0.075   3.523   1.277
 1335SOL    HW2 3964   0.169   3.425   1.344
 1336SOL     OW 3965   0.372   2.984   0.479
 1336SOL    HW1 3966   0.353   3.055   0.418
 1336SOL    HW2 3967   0.369   2.905   0.426
 1337SOL     OW 3968   0.535   2.377   0.862
 1337SOL    HW1 3969   0.546   2.438   0.788
 1337SOL    HW2 3970   0.602   2.405   0.925
 1338SOL     OW 3971   1.249   3.209   0.419
 1338SOL    HW1 3972   1.303   3.283   0.447
 1338SOL    HW2 3973   1.160   3.234   0.445
 1339SOL     OW 3974   1.309   3.331   1.142
 1339SOL    HW1 3975   1.356   3.337   1.225
 1339SOL    HW2 3976   1.258   3.251   1.149
 1340SOL     OW 3977   1.539   2.485   0.471
 1340SOL    HW1 3978   1.519   2.522   0.557
 1340SOL    HW2 3979   1.493   2.542   0.409
 1341SOL     OW 3980   0.348   3.394   1.306
 1341SOL    HW1 3981   0.335   3.349   1.222
 1341SOL    HW2 3982   0.442   3.410   1.311
 1342SOL     OW 3983   0.451   2.596   1.620
 1342SOL    HW1 3984   0.508   2.639   1.556
 1342SOL    HW2 3985   0.500   2.518   1.646
 1343SOL     OW 3986   1.627   2.648   1.698
 1343SOL    HW1 3987   1.540   2.686   1.689
 1343SOL    HW2 3988   1.678   2.686   1.626
 1344SOL     OW 3989   0.994   2.005   1.761
 1344SOL    HW1 3990   1.053   2.077   1.740
 1344SOL    HW2 3991   1.044   1.926   1.739
 1345SOL     OW 3992   0.504   1.895   1.747
 1345SOL    HW1 3993   0.456   1.843   1.683
 1345SOL    HW2 3994   0.450   1.973   1.760
 1346SOL     OW 3995   0.593   2.737   1.043
 1346SOL    HW1 3996   0.630   2.826   1.043
 1346SOL    HW2 3997   0.531   2.737   1.115
 1347SOL     OW 3998   1.309   2.715   1.004
 1347SOL    HW1 3999   1.220   2.689   0.978
 1347SOL    HW2 4000   1.363   2.638   0.986
 1348SOL     OW 4001   1.192   2.382   0.245
 1348SOL    HW1 4002   1.207   2.308   0.303
 1348SOL    HW2 4003   1.152   2.449   0.301
 1349SOL     OW 4004   0.296   2.057   1.241
 1349SOL    HW1 4005   0.270   2.087   1.328
 1349SOL    HW2 4006   0.279   1.963   1.242
 1350SOL     OW 4007   0.004   3.182   1.281
 1350SOL    HW1 4008   0.051   3.134   1.350
 1350SOL    HW2 4009   0.019   3.274   1.302
 1351SOL     OW 4010   0.712   2.486   1.042
 1351SOL    HW1 4011   0.789   2.480   0.985
 1351SOL    HW2 4012   0.682   2.576   1.033
 1352SOL     OW 4013   1.751   2.830   1.870
 1352SOL    HW1 4014   1.711   2.757   1.821
 1352SOL    HW2 4015   1.687   2.850   1.938
 1353SOL     OW 4016   0.368   1.948   0.656
 1353SOL    HW1 4017   0.343   2.031   0.695
 1353SOL    HW2 4018   0.286   1.900   0.646
 1354SOL     OW 4019   1.637   2.256   0.351
 1354SOL    HW1 4020   1.670   2.191   0.415
 1354SOL    HW2 4021   1.602   2.326   0.405
 1355SOL     OW 4022   1.037   2.620   0.957
 1355SOL    HW1 4023   1.015   2.635   1.049
 1355SOL    HW2 4024   1.006   2.531   0.939
 1356SOL     OW 4025   0.982   3.427   1.734
 1356SOL    HW1 4026   0.961   3.470   1.651
 1356SOL    HW2 4027   1.021   3.343   1.708
 1357SOL     OW 4028   1.838   3.356   1.602
 1357SOL    HW1 4029   1.865   3.386   1.515
 1357SOL    HW2 4030   1.917   3.367   1.656
 1358SOL     OW 4031   0.364   2.780   1.811
 1358SOL    HW1 4032   0.437   2.804   1.867
 1358SOL    HW2 4033   0.399   2.714   1.752
 1359SOL     OW 4034   1.500   2.167   0.128
 1359SOL    HW1 4035   1.452   2.087   0.150
 1359SOL    HW2 4036   1.548   2.188   0.208
 1360SOL     OW 4037   1.323   2.680   0.038
 1360SOL    HW1 4038   1.357   2.590   0.039
 1360SOL    HW2 4039   1.383   2.727   9.981
 1361SOL     OW 4040   1.073   3.215   0.865
 1361SOL    HW1 4041   1.083   3.142   0.804
 1361SOL    HW2 4042   1.124   3.286   0.827
 1362SOL     OW 4043   0.315   2.671   0.941
 1362SOL    HW1 4044   0.410   2.686   0.936
 1362SOL    HW2 4045   0.307   2.580   0.971
 1363SOL     OW 4046   0.311   2.390   1.011
 1363SOL    HW1 4047   0.268   2.305   1.003
 1363SOL    HW2 4048   0.387   2.385   0.953
 1364SOL     OW 4049   1.138   2.230   1.685
 1364SOL    HW1 4050   1.092   2.282   1.752
 1364SOL    HW2 4051   1.224   2.273   1.676
 1365SOL     OW 4052   1.158   2.051   1.475
 1365SOL    HW1 4053   1.146   2.114   1.546
 1365SOL    HW2 4054   1.204   2.101   1.407
 1366SOL     OW 4055   9.992   3.169   0.239
 1366SOL    HW1 4056   9.915   3.160   0.183
 1366SOL    HW2 4057   0.011   3.080   0.269
 1367SOL     OW 4058   0.081   3.547   0.949
 1367SOL    HW1 4059   0.115   3.464   0.916
 1367SOL    HW2 4060   0.153   3.609   0.938
 1368SOL     OW 4061   0.498   3.440   0.913
 1368SOL    HW1 4062   0.565   3.507   0.922
 1368SOL    HW2 4063   0.537   3.374   0.857
 1369SOL     OW 4064   0.949   2.643   1.213
 1369SOL    HW1 4065   1.009   2.630   1.287
 1369SOL    HW2 4066   0.870   2.597   1.238
 1370SOL     OW 4067   0.037   2.427   1.086
 1370SOL    HW1 4068   0.129   2.430   1.061
 1370SOL    HW2 4069   0.037   2.432   1.181
 1371SOL     OW 4070   0.172   2.377   1.699
 1371SOL    HW1 4071   0.227   2.325   1.641
 1371SOL    HW2 4072   0.160   2.460   1.653
 1372SOL     OW 4073   1.392   2.783   1.652
 1372SOL    HW1 4074   1.409   2.877   1.646
 1372SOL    HW2 4075   1.384   2.755   1.561
 1373SOL     OW 4076   0.836   2.425   0.375
 1373SOL    HW1 4077   0.838   2.350   0.316
 1373SOL    HW2 4078   0.759   2.475   0.348
 1374SOL     OW 4079   1.636   2.463   1.164
 1374SOL    HW1 4080   1.626   2.404   1.239
 1374SOL    HW2 4081   1.727   2.452   1.136
 1375SOL     OW 4082   0.257   3.422   1.723
 1375SOL    HW1 4083   0.263   3.459   1.811
 1375SOL    HW2 4084   0.265   3.327   1.737
 1376SOL     OW 4085   0.737   2.296   1.235
 1376SOL    HW1 4086   0.673   2.226   1.222
 1376SOL    HW2 4087   0.717   2.360   1.167
 1377SOL     OW 4088   0.905   3.541   1.489
 1377SOL    HW1 4089   0.882   3.493   1.409
 1377SOL    HW2 4090   0.908   3.633   1.462
 1378SOL     OW 4091   0.461   2.354   0.159
 1378SOL    HW1 4092   0.535   2.402   0.196
 1378SOL    HW2 4093   0.394   2.421   0.146
 1379SOL     OW 4094   0.156   3.017   1.443
 1379SOL    HW1 4095   0.149   2.975   1.528
 1379SOL    HW2 4096   0.165   2.944   1.381
 1380SOL     OW 4097   1.304   2.897   1.208
 1380SOL    HW1 4098   1.313   2.833   1.138
 1380SOL    HW2 4099   1.251   2.967   1.171
 1381SOL     OW 4100   1.328   2.680   0.318
 1381SOL    HW1 4101   1.243   2.658   0.357
 1381SOL    HW2 4102   1.313   2.676   0.224
 1382SOL     OW 4103   1.787   3.585   1.171
 1382SOL    HW1 4104   1.848   3.611   1.102
 1382SOL    HW2 4105   1.755   3.500   1.143
 1383SOL     OW 4106   1.241   3.596   1.091
 1383SOL    HW1 4107   1.326   3.625   1.057
 1383SOL    HW2 4108   1.255   3.505   1.115
 1384SOL     OW 4109   0.099   3.037   1.055
 1384SOL    HW1 4110   0.103   3.097   1.129
 1384SOL    HW2 4111   0.006   3.034   1.031
 1385SOL     OW 4112   0.692   3.545   1.748
 1385SOL    HW1 4113   0.631   3.618   1.735
 1385SOL    HW2 4114   0.766   3.565   1.691
 1386SOL     OW 4115   0.886   1.939   0.099
 1386SOL    HW1 4116   0.882   1.912   0.008
 1386SOL    HW2 4117   0.964   1.896   0.134
 1387SOL     OW 4118   1.754   2.044   0.495
 1387SOL    HW1 4119   1.815   2.021   0.425
 1387SOL    HW2 4120   1.724   1.960   0.530
 1388SOL     OW 4121   1.400   3.433   0.503
 1388SOL    HW1 4122   1.457   3.468   0.435
 1388SOL    HW2 4123   1.347   3.508   0.531
 1389SOL     OW 4124   0.113   3.658   1.857
 1389SOL    HW1 4125   0.074   3.605   1.926
 1389SOL    HW2 4126   0.186   3.704   1.899
 1390SOL     OW 4127   1.281   2.795   0.669
 1390SOL    HW1 4128   1.354   2.735   0.681
 1390SOL    HW2 4129   1.317   2.867   0.619
 1391SOL     OW 4130   0.784   3.143   1.412
 1391SOL    HW1 4131   0.760   3.191   1.491
 1391SOL    HW2 4132   0.709   3.155   1.353
 1392SOL     OW 4133   0.692   3.498   0.177
 1392SOL    HW1 4134   0.703   3.505   0.082
 1392SOL    HW2 4135   0.624   3.432   0.189
 1393SOL     OW 4136   1.616   3.592   1.402
 1393SOL    HW1 4137   1.673   3.591   1.325
 1393SOL    HW2 4138   1.600   3.684   1.420
 1394SOL     OW 4139   1.845   2.022   0.964
 1394SOL    HW1 4140   1.873   1.932   0.944
 1394SOL    HW2 4141   1.758   2.028   0.927
 1395SOL     OW 4142   0.281   2.189   0.743
 1395SOL    HW1 4143   0.203   2.227   0.704
 1395SOL    HW2 4144   0.257   2.172   0.834
 1396SOL     OW 4145   1.219   3.428   0.051
 1396SOL    HW1 4146   1.205   3.339   0.083
 1396SOL    HW2 4147   1.231   3.418   9.957
 1397SOL     OW 4148   0.825   2.875   1.382
 1397SOL    HW1 4149   0.860   2.866   1.293
 1397SOL    HW2 4150   0.813   2.969   1.394
 1398SOL     OW 4151   0.943   2.783   0.296
 1398SOL    HW1 4152   0.992   2.802   0.215
 1398SOL    HW2 4153   0.991   2.711   0.336
 1399SOL     OW 4154   1.490   3.474   0.074
 1399SOL    HW1 4155   1.395   3.465   0.081
 1399SOL    HW2 4156   1.507   3.483   9.980
 1400SOL     OW 4157   0.371   3.183   1.495
 1400SOL    HW1 4158   0.363   3.257   1.436
 1400SOL    HW2 4159   0.298   3.125   1.472
 1401SOL     OW 4160   1.599   3.152   1.277
 1401SOL    HW1 4161   1.653   3.128   1.353
 1401SOL    HW2 4162   1.540   3.219   1.311
 1402SOL     OW 4163   1.079   2.981   0.730
 1402SOL    HW1 4164   1.003   2.933   0.762
 1402SOL    HW2 4165   1.139   2.912   0.701
 1403SOL     OW 4166   1.034   2.110   0.964
 1403SOL    HW1 4167   1.034   2.068   0.878
 1403SOL    HW2 4168   1.025   2.038   1.026
 1404SOL     OW 4169   0.624   3.356   0.509
 1404SOL    HW1 4170   0.661   3.299   0.441
 1404SOL    HW2 4171   0.565   3.415   0.461
 1405SOL     OW 4172   1.745   2.244   1.388
 1405SOL    HW1 4173   1.816   2.308   1.384
 1405SOL    HW2 4174   1.772   2.175   1.327
 1406SOL     OW 4175   0.271   3.186   0.308
 1406SOL    HW1 4176   0.183   3.180   0.270
 1406SOL    HW2 4177   0.257   3.221   0.396
 1407SOL     OW 4178   0.141   2.871   1.674
 1407SOL    HW1 4179   0.075   2.890   1.741
 1407SOL    HW2 4180   0.222   2.860   1.724
 1408SOL     OW 4181   0.685   2.054   1.497
 1408SOL    HW1 4182   0.768   2.029   1.459
 1408SOL    HW2 4183   0.707   2.086   1.585
 1409SOL     OW 4184   0.026   2.252   0.035
 1409SOL    HW1 4185   9.944   2.283   0.074
 1409SOL    HW2 4186   0.059   2.326   9.985
 1410SOL     OW 4187   1.414   2.716   1.388
 1410SOL    HW1 4188   1.362   2.774   1.334
 1410SOL    HW2 4189   1.502   2.720   1.351
 1411SOL     OW 4190   0.105   1.923   0.211
 1411SOL    HW1 4191   0.146   2.010   0.211
 1411SOL    HW2 4192   0.178   1.862   0.206
 1412SOL     OW 4193   1.194   3.173   0.146
 1412SOL    HW1 4194   1.103   3.145   0.138
 1412SOL    HW2 4195   1.212   3.171   0.240
 1413SOL     OW 4196   0.629   2.693   1.436
 1413SOL    HW1 4197   0.688   2.768   1.424
 1413SOL    HW2 4198   0.687   2.617   1.435
 1414SOL     OW 4199   1.487   3.664   0.992
 1414SOL    HW1 4200   1.514   3.739   0.938
 1414SOL    HW2 4201   1.569   3.620   1.013
 1415SOL     OW 4202   0.711   2.416   1.692
 1415SOL    HW1 4203   0.762   2.469   1.753
 1415SOL    HW2 4204   0.724   2.326   1.723
 1416SOL     OW 4205   1.469   3.046   1.620
 1416SOL    HW1 4206   1.461   3.068   1.712
 1416SOL    HW2 4207   1.558   3.070   1.596
 1417SOL     OW 4208   0.365   3.617   1.562
 1417SOL    HW1 4209   0.282   3.661   1.544
 1417SOL    HW2 4210   0.341   3.534   1.603
 1418SOL     OW 4211   1.655   2.737   1.253
 1418SOL    HW1 4212   1.653   2.654   1.207
 1418SOL    HW2 4213   1.642   2.803   1.185
 1419SOL     OW 4214   1.228   2.190   0.449
 1419SOL    HW1 4215   1.287   2.114   0.448
 1419SOL    HW2 4216   1.255   2.240   0.525
 1420SOL     OW 4217   0.573   2.594   0.689
 1420SOL    HW1 4218   0.620   2.676   0.675
 1420SOL    HW2 4219   0.515   2.587   0.613
 1421SOL     OW 4220   1.747   2.217   1.664
 1421SOL    HW1 4221   1.744   2.233   1.570
 1421SOL    HW2 4222   1.670   2.164   1.682
 1422SOL     OW 4223   1.760   2.787   1.504
 1422SOL    HW1 4224   1.743   2.880   1.517
 1422SOL    HW2 4225   1.733   2.769   1.414
 1423SOL     OW 4226   0.898   3.278   0.045
 1423SOL    HW1 4227   0.813   3.238   0.031
 1423SOL    HW2 4228   0.892   3.318   0.132
 1424SOL     OW 4229   0.673   3.641   0.921
 1424SOL    HW1 4230   0.649   3.733   0.912
 1424SOL    HW2 4231   0.769   3.642   0.920
 1425SOL     OW 4232   0.876   2.840   0.859
 1425SOL    HW1 4233   0.925   2.766   0.895
 1425SOL    HW2 4234   0.829   2.876   0.934
 1426SOL     OW 4235   1.095   2.831   0.072
 1426SOL    HW1 4236   1.095   2.887   9.995
 1426SOL    HW2 4237   1.169   2.772   0.059
 1427SOL     OW 4238   1.829   3.420   0.841
 1427SOL    HW1 4239   1.753   3.411   0.784
 1427SOL    HW2 4240   1.807   3.369   0.919
 1428SOL     OW 4241   0.239   3.163   1.839
 1428SOL    HW1 4242   0.148   3.167   1.810
 1428SOL    HW2 4243   0.234   3.173   1.934
 1429SOL     OW 4244   0.101   2.970   0.584
 1429SOL    HW1 4245   0.075   2.959   0.675
 1429SOL    HW2 4246   0.194   2.994   0.589
 1430SOL     OW 4247   0.699   3.281   1.633
 1430SOL    HW1 4248   0.622   3.240   1.671
 1430SOL    HW2 4249   0.700   3.370   1.670
 1431SOL     OW 4250   1.811   2.033   1.234
 1431SOL    HW1 4251   1.812   1.939   1.248
 1431SOL    HW2 4252   1.825   2.044   1.140
 1432SOL     OW 4253   0.446   2.311   0.547
 1432SOL    HW1 4254   0.485   2.240   0.497
 1432SOL    HW2 4255   0.409   2.269   0.624
 1433SOL     OW 4256   1.696   3.341   1.082
 1433SOL    HW1 4257   1.618   3.322   1.030
 1433SOL    HW2 4258   1.696   3.274   1.150
 1434SOL     OW 4259   0.364   2.432   1.285
 1434SOL    HW1 4260   0.414   2.369   1.337
 1434SOL    HW2 4261   0.367   2.397   1.196
 1435SOL     OW 4262   0.844   3.457   0.664
 1435SOL    HW1 4263   0.836   3.540   0.617
 1435SOL    HW2 4264   0.764   3.409   0.642
 1436SOL     OW 4265   1.421   2.093   1.115
 1436SOL    HW1 4266   1.426   2.003   1.146
 1436SOL    HW2 4267   1.376   2.140   1.185
 1437SOL     OW 4268   1.010   1.879   1.122
 1437SOL    HW1 4269   0.956   1.815   1.075
 1437SOL    HW2 4270   1.097   1.838   1.124
 1438SOL     OW 4271   0.768   3.191   0.343
 1438SOL    HW1 4272   0.749   3.097   0.347
 1438SOL    HW2 4273   0.854   3.200   0.385
 1439SOL     OW 4274   0.618   3.430   1.287
 1439SOL    HW1 4275   0.614   3.517   1.328
 1439SOL    HW2 4276   0.707   3.424   1.253
 1440SOL     OW 4277   1.356   1.919   0.177
 1440SOL    HW1 4278   1.382   1.879   0.094
 1440SOL    HW2 4279   1.266   1.890   0.191
 1441SOL     OW 4280   1.302   2.330   0.676
 1441SOL    HW1 4281   1.252   2.412   0.671
 1441SOL    HW2 4282   1.291   2.300   0.766
 1442SOL     OW 4283   1.583   2.050   0.894
 1442SOL    HW1 4284   1.530   2.079   0.968
 1442SOL    HW2 4285   1.581   2.124   0.833
 1443SOL     OW 4286   0.082   2.920   0.321
 1443SOL    HW1 4287   0.171   2.884   0.313
 1443SOL    HW2 4288   0.072   2.935   0.415
 1444SOL     OW 4289   0.913   3.536   0.337
 1444SOL    HW1 4290   0.833   3.525   0.285
 1444SOL    HW2 4291   0.891   3.605   0.400
 1445SOL     OW 4292   0.286   2.456   1.943
 1445SOL    HW1 4293   0.220   2.474   2.009
 1445SOL    HW2 4294   0.237   2.436   1.863
 1446SOL     OW 4295   0.198   2.142   2.860
 1446SOL    HW1 4296   0.235   2.106   2.941
 1446SOL    HW2 4297   0.106   2.116   2.862
 1447SOL     OW 4298   0.042   2.288   2.493
 1447SOL    HW1 4299   9.950   2.300   2.517
 1447SOL    HW2 4300   0.040   2.225   2.422
 1448SOL     OW 4301   0.569   3.170   3.064
 1448SOL    HW1 4302   0.486   3.172   3.017
 1448SOL    HW2 4303   0.586   3.261   3.087
 1449SOL     OW 4304   1.587   3.386   2.567
 1449SOL    HW1 4305   1.541   3.355   2.644
 1449SOL    HW2 4306   1.521   3.389   2.498
 1450SOL     OW 4307   1.139   2.567   2.549
 1450SOL    HW1 4308   1.185   2.650   2.538
 1450SOL    HW2 4309   1.090   2.577   2.631
 1451SOL     OW 4310   1.801   2.443   2.082
 1451SOL    HW1 4311   1.763   2.443   1.994
 1451SOL    HW2 4312   1.757   2.372   2.128
 1452SOL     OW 4313   0.728   2.992   2.919
 1452SOL    HW1 4314   0.666   3.032   2.980
 1452SOL    HW2 4315   0.771   3.066   2.876
 1453SOL     OW 4316   0.888   2.606   3.688
 1453SOL    HW1 4317   0.894   2.675   3.754
 1453SOL    HW2 4318   0.903   2.652   3.605
 1454SOL     OW 4319   0.687   2.845   2.510
 1454SOL    HW1 4320   0.757   2.844   2.575
 1454SOL    HW2 4321   0.624   2.908   2.544
 1455SOL     OW 4322   0.717   3.010   3.697
 1455SOL    HW1 4323   0.767   3.084   3.731
 1455SOL    HW2 4324   0.643   3.051   3.652
 1456SOL     OW 4325   0.334   3.287   2.925
 1456SOL    HW1 4326   0.258   3.271   2.870
 1456SOL    HW2 4327   0.393   3.340   2.870
 1457SOL     OW 4328   1.454   3.368   3.234
 1457SOL    HW1 4329   1.509   3.445   3.247
 1457SOL    HW2 4330   1.382   3.379   3.296
 1458SOL     OW 4331   0.479   2.247   3.312
 1458SOL    HW1 4332   0.550   2.186   3.329
 1458SOL    HW2 4333   0.400   2.203   3.343
 1459SOL     OW 4334   1.584   2.294   2.617
 1459SOL    HW1 4335   1.517   2.304   2.550
 1459SOL    HW2 4336   1.566   2.364   2.680
 1460SOL     OW 4337   0.222   3.521   2.289
 1460SOL    HW1 4338   0.182   3.587   2.346
 1460SOL    HW2 4339   0.304   3.561   2.260
 1461SOL     OW 4340   1.136   3.203   3.558
 1461SOL    HW1 4341   1.182   3.192   3.641
 1461SOL    HW2 4342   1.083   3.124   3.549
 1462SOL     OW 4343   0.287   3.264   2.364
 1462SOL    HW1 4344   0.256   3.355   2.360
 1462SOL    HW2 4345   0.231   3.224   2.431
 1463SOL     OW 4346   0.307   2.942   2.766
 1463SOL    HW1 4347   0.300   2.848   2.784
 1463SOL    HW2 4348   0.236   2.982   2.817
 1464SOL     OW 4349   0.585   3.672   3.271
 1464SOL    HW1 4350   0.507   3.651   3.323
 1464SOL    HW2 4351   0.618   3.753   3.309
 1465SOL     OW 4352   0.570   2.850   2.015
 1465SOL    HW1 4353   0.622   2.892   1.946
 1465SOL    HW2 4354   0.608   2.884   2.097
 1466SOL     OW 4355   1.592   1.994   3.322
 1466SOL    HW1 4356   1.630   2.070   3.278
 1466SOL    HW2 4357   1.560   2.028   3.406
 1467SOL     OW 4358   0.147   2.537   2.435
 1467SOL    HW1 4359   0.113   2.452   2.462
 1467SOL    HW2 4360   0.124   2.596   2.507
 1468SOL     OW 4361   1.846   3.605   2.179
 1468SOL    HW1 4362   1.918   3.590   2.241
 1468SOL    HW2 4363   1.853   3.698   2.157
 1469SOL     OW 4364   0.029   3.483   2.062
 1469SOL    HW1 4365   0.011   3.389   2.059
 1469SOL    HW2 4366   0.087   3.493   2.137
 1470SOL     OW 4367   1.698   2.788   2.514
 1470SOL    HW1 4368   1.779   2.743   2.491
 1470SOL    HW2 4369   1.676   2.840   2.437
 1471SOL     OW 4370   1.657   2.967   2.295
 1471SOL    HW1 4371   1.741   2.959   2.251
 1471SOL    HW2 4372   1.671   3.033   2.363
 1472SOL     OW 4373   0.177   2.617   3.430
 1472SOL    HW1 4374   0.273   2.615   3.435
 1472SOL    HW2 4375   0.154   2.707   3.452
 1473SOL     OW 4376   0.627   3.260   2.600
 1473SOL    HW1 4377   0.585   3.175   2.606
 1473SOL    HW2 4378   0.610   3.289   2.510
 1474SOL     OW 4379   1.271   3.087   3.279
 1474SOL    HW1 4380   1.298   3.018   3.219
 1474SOL    HW2 4381   1.333   3.082   3.352
 1475SOL     OW 4382   0.854   1.869   2.382
 1475SOL    HW1 4383   0.893   1.952   2.352
 1475SOL    HW2 4384   0.760   1.886   2.381
 1476SOL     OW 4385   0.164   2.801   3.138
 1476SOL    HW1 4386   0.253   2.767   3.129
 1476SOL    HW2 4387   0.134   2.814   3.048
 1477SOL     OW 4388   1.534   2.877   2.062
 1477SOL    HW1 4389   1.465   2.817   2.091
 1477SOL    HW2 4390   1.576   2.907   2.142
 1478SOL     OW 4391   1.177   3.685   3.499
 1478SOL    HW1 4392   1.180   3.747   3.427
 1478SOL    HW2 4393   1.195   3.600   3.459
 1479SOL     OW 4394   0.341   2.113   3.648
 1479SOL    HW1 4395   0.384   2.181   3.699
 1479SOL    HW2 4396   0.249   2.117   3.675
 1480SOL     OW 4397   1.472   3.280   2.793
 1480SOL    HW1 4398   1.408   3.299   2.862
 1480SOL    HW2 4399   1.454   3.189   2.768
 1481SOL     OW 4400   1.637   3.658   2.424
 1481SOL    HW1 4401   1.620   3.611   2.342
 1481SOL    HW2 4402   1.637   3.590   2.491
 1482SOL     OW 4403   0.616   2.583   2.143
 1482SOL    HW1 4404   0.619   2.667   2.098
 1482SOL    HW2 4405   0.545   2.592   2.206
 1483SOL     OW 4406   1.282   2.255   2.803
 1483SOL    HW1 4407   1.193   2.220   2.808
 1483SOL    HW2 4408   1.334   2.197   2.858
 1484SOL     OW 4409   1.579   3.535   2.181
 1484SOL    HW1 4410   1.673   3.550   2.170
 1484SOL    HW2 4411   1.546   3.522   2.092
 1485SOL     OW 4412   0.790   2.473   3.297
 1485SOL    HW1 4413   0.762   2.445   3.384
 1485SOL    HW2 4414   0.765   2.401   3.240
 1486SOL     OW 4415   1.391   2.339   3.535
 1486SOL    HW1 4416   1.397   2.382   3.620
 1486SOL    HW2 4417   1.442   2.258   3.546
 1487SOL     OW 4418   0.945   2.743   3.452
 1487SOL    HW1 4419   1.000   2.679   3.408
 1487SOL    HW2 4420   0.897   2.787   3.382
 1488SOL     OW 4421   1.009   2.259   3.071
 1488SOL    HW1 4422   0.917   2.273   3.093
 1488SOL    HW2 4423   1.007   2.215   2.986
 1489SOL     OW 4424   1.065   2.562   2.281
 1489SOL    HW1 4425   1.085   2.559   2.375
 1489SOL    HW2 4426   0.982   2.516   2.274
 1490SOL     OW 4427   0.074   2.699   2.665
 1490SOL    HW1 4428   0.159   2.690   2.708
 1490SOL    HW2 4429   0.015   2.730   2.734
 1491SOL     OW 4430   0.112   3.724   3.443
 1491SOL    HW1 4431   0.110   3.719   3.539
 1491SOL    HW2 4432   0.057   3.651   3.414
 1492SOL     OW 4433   0.896   2.210   2.061
 1492SOL    HW1 4434   0.943   2.267   2.000
 1492SOL    HW2 4435   0.877   2.131   2.010
 1493SOL     OW 4436   1.686   2.425   3.702
 1493SOL    HW1 4437   1.665   2.502   3.650
 1493SOL    HW2 4438   1.715   2.360   3.638
 1494SOL     OW 4439   1.393   3.012   2.405
 1494SOL    HW1 4440   1.473   3.000   2.353
 1494SOL    HW2 4441   1.339   3.072   2.354
 1495SOL     OW 4442   0.561   2.032   2.777
 1495SOL    HW1 4443   0.565   2.058   2.869
 1495SOL    HW2 4444   0.554   2.115   2.729
 1496SOL     OW 4445   0.996   3.313   2.327
 1496SOL    HW1 4446   0.974   3.388   2.272
 1496SOL    HW2 4447   0.967   3.338   2.415
 1497SOL     OW 4448   0.339   3.669   2.796
 1497SOL    HW1 4449   0.388   3.589   2.778
 1497SOL    HW2 4450   0.401   3.740   2.779
 1498SOL     OW 4451   1.804   2.906   2.751
 1498SOL    HW1 4452   1.756   2.890   2.669
 1498SOL    HW2 4453   1.735   2.915   2.817
 1499SOL     OW 4454   1.218   3.406   3.379
 1499SOL    HW1 4455   1.207   3.334   3.441
 1499SOL    HW2 4456   1.150   3.392   3.313
 1500SOL     OW 4457   0.314   2.801   2.139
 1500SOL    HW1 4458   0.391   2.816   2.084
 1500SOL    HW2 4459   0.328   2.714   2.177
 1501SOL     OW 4460   1.485   2.625   2.573
 1501SOL    HW1 4461   1.487   2.582   2.658
 1501SOL    HW2 4462   1.564   2.679   2.571
 1502SOL     OW 4463   0.485   3.137   3.597
 1502SOL    HW1 4464   0.462   3.144   3.504
 1502SOL    HW2 4465   0.401   3.128   3.642
 1503SOL     OW 4466   1.142   3.638   2.086
 1503SOL    HW1 4467   1.061   3.606   2.125
 1503SOL    HW2 4468   1.163   3.574   2.018
 1504SOL     OW 4469   0.221   2.144   3.358
 1504SOL    HW1 4470   0.131   2.172   3.345
 1504SOL    HW2 4471   0.215   2.075   3.425
 1505SOL     OW 4472   1.638   3.251   1.962
 1505SOL    HW1 4473   1.598   3.336   1.949
 1505SOL    HW2 4474   1.571   3.188   1.935
 1506SOL     OW 4475   0.471   3.611   2.181
 1506SOL    HW1 4476   0.520   3.659   2.247
 1506SOL    HW2 4477   0.539   3.566   2.130
 1507SOL     OW 4478   1.398   1.967   2.320
 1507SOL    HW1 4479   1.398   1.943   2.228
 1507SOL    HW2 4480   1.489   1.954   2.348
 1508SOL     OW 4481   0.254   3.652   3.079
 1508SOL    HW1 4482   0.300   3.575   3.112
 1508SOL    HW2 4483   0.261   3.645   2.984
 1509SOL     OW 4484   0.954   3.565   2.754
 1509SOL    HW1 4485   1.038   3.522   2.769
 1509SOL    HW2 4486   0.913   3.513   2.684
 1510SOL     OW 4487   0.395   2.565   2.315
 1510SOL    HW1 4488   0.415   2.472   2.324
 1510SOL    HW2 4489   0.309   2.576   2.356
 1511SOL     OW 4490   1.508   2.085   3.579
 1511SOL    HW1 4491   1.520   2.104   3.672
 1511SOL    HW2 4492   1.442   2.016   3.577
 1512SOL     OW 4493   0.658   1.965   1.961
 1512SOL    HW1 4494   0.708   1.887   1.985
 1512SOL    HW2 4495   0.599   1.937   1.891
 1513SOL     OW 4496   0.757   2.139   3.617
 1513SOL    HW1 4497   0.842   2.094   3.616
 1513SOL    HW2 4498   0.711   2.101   3.691
 1514SOL     OW 4499   0.871   3.388   3.060
 1514SOL    HW1 4500   0.853   3.347   2.976
 1514SOL    HW2 4501   0.938   3.333   3.100
 1515SOL     OW 4502   1.329   2.454   3.295
 1515SOL    HW1 4503   1.362   2.423   3.379
 1515SOL    HW2 4504   1.368   2.541   3.283
 1516SOL     OW 4505   0.819   3.238   2.820
 1516SOL    HW1 4506   0.906   3.234   2.780
 1516SOL    HW2 4507   0.760   3.253   2.746
 1517SOL     OW 4508   0.929   2.377   2.750
 1517SOL    HW1 4509   0.904   2.364   2.658
 1517SOL    HW2 4510   0.956   2.290   2.780
 1518SOL     OW 4511   0.592   1.922   2.354
 1518SOL    HW1 4512   0.523   1.928   2.420
 1518SOL    HW2 4513   0.577   1.997   2.297
 1519SOL     OW 4514   1.434   3.075   1.895
 1519SOL    HW1 4515   1.463   3.001   1.948
 1519SOL    HW2 4516   1.348   3.098   1.931
 1520SOL     OW 4517   0.308   1.902   2.023
 1520SOL    HW1 4518   0.338   1.992   2.037
 1520SOL    HW2 4519   0.369   1.848   2.073
 1521SOL     OW 4520   0.960   2.113   2.312
 1521SOL    HW1 4521   0.932   2.148   2.226
 1521SOL    HW2 4522   1.053   2.133   2.317
 1522SOL     OW 4523   1.074   2.555   3.306
 1522SOL    HW1 4524   1.011   2.483   3.312
 1522SOL    HW2 4525   1.160   2.512   3.303
 1523SOL     OW 4526   1.209   3.448   2.664
 1523SOL    HW1 4527   1.223   3.508   2.591
 1523SOL    HW2 4528   1.283   3.465   2.723
 1524SOL     OW 4529   0.490   3.022   2.584
 1524SOL    HW1 4530   0.430   2.999   2.655
 1524SOL    HW2 4531   0.440   3.005   2.504
 1525SOL     OW 4532   1.254   3.653   2.479
 1525SOL    HW1 4533   1.302   3.716   2.426
 1525SOL    HW2 4534   1.183   3.704   2.519
 1526SOL     OW 4535   1.032   2.379   1.890
 1526SOL    HW1 4536   0.989   2.462   1.871
 1526SOL    HW2 4537   1.096   2.400   1.959
 1527SOL     OW 4538   0.104   2.445   3.222
 1527SOL    HW1 4539   0.195   2.434   3.194
 1527SOL    HW2 4540   0.109   2.503   3.298
 1528SOL     OW 4541   0.564   2.084   3.047
 1528SOL    HW1 4542   0.599   2.014   3.102
 1528SOL    HW2 4543   0.470   2.084   3.066
 1529SOL     OW 4544   0.871   2.313   2.492
 1529SOL    HW1 4545   0.839   2.370   2.422
 1529SOL    HW2 4546   0.898   2.233   2.447
 1530SOL     OW 4547   1.028   1.920   2.605
 1530SOL    HW1 4548   0.969   1.911   2.530
 1530SOL    HW2 4549   1.004   1.847   2.663
 1531SOL     OW 4550   1.434   3.016   2.716
 1531SOL    HW1 4551   1.364   2.952   2.725
 1531SOL    HW2 4552   1.449   3.022   2.621
 1532SOL     OW 4553   1.463   2.478   2.811
 1532SOL    HW1 4554   1.399   2.408   2.821
 1532SOL    HW2 4555   1.518   2.472   2.888
 1533SOL     OW 4556   1.829   2.658   2.249
 1533SOL    HW1 4557   1.889   2.615   2.310
 1533SOL    HW2 4558   1.815   2.594   2.179
 1534SOL     OW 4559   0.493   3.291   1.996
 1534SOL    HW1 4560   0.409   3.269   2.035
 1534SOL    HW2 4561   0.499   3.236   1.918
 1535SOL     OW 4562   1.708   3.134   2.496
 1535SOL    HW1 4563   1.801   3.127   2.517
 1535SOL    HW2 4564   1.684   3.223   2.521
 1536SOL     OW 4565   1.394   2.438   1.927
 1536SOL    HW1 4566   1.337   2.411   1.999
 1536SOL    HW2 4567   1.482   2.413   1.954
 1537SOL     OW 4568   0.548   2.116   2.169
 1537SOL    HW1 4569   0.593   2.068   2.099
 1537SOL    HW2 4570   0.528   2.201   2.130
 1538SOL     OW 4571   1.735   3.106   3.394
 1538SOL    HW1 4572   1.823   3.072   3.380
 1538SOL    HW2 4573   1.749   3.194   3.431
 1539SOL     OW 4574   1.043   3.217   3.196
 1539SOL    HW1 4575   0.966   3.182   3.241
 1539SOL    HW2 4576   1.117   3.171   3.237
 1540SOL     OW 4577   1.608   3.497   3.534
 1540SOL    HW1 4578   1.597   3.533   3.446
 1540SOL    HW2 4579   1.686   3.441   3.527
 1541SOL     OW 4580   1.152   3.099   2.967
 1541SOL    HW1 4581   1.090   3.133   3.031
 1541SOL    HW2 4582   1.119   3.131   2.883
 1542SOL     OW 4583   1.609   2.953   2.939
 1542SOL    HW1 4584   1.601   3.020   3.007
 1542SOL    HW2 4585   1.540   2.975   2.876
 1543SOL     OW 4586   0.921   1.943   3.246
 1543SOL    HW1 4587   0.941   1.928   3.154
 1543SOL    HW2 4588   1.001   1.983   3.281
 1544SOL     OW 4589   0.981   2.977   3.584
 1544SOL    HW1 4590   0.890   2.993   3.613
 1544SOL    HW2 4591   0.976   2.897   3.532
 1545SOL     OW 4592   0.711   2.924   2.242
 1545SOL    HW1 4593   0.697   2.899   2.333
 1545SOL    HW2 4594   0.788   2.873   2.215
 1546SOL     OW 4595   0.420   2.697   3.122
 1546SOL    HW1 4596   0.489   2.708   3.188
 1546SOL    HW2 4597   0.397   2.604   3.128
 1547SOL     OW 4598   1.265   2.229   3.154
 1547SOL    HW1 4599   1.293   2.310   3.198
 1547SOL    HW2 4600   1.176   2.248   3.124
 1548SOL     OW 4601   0.075   3.442   3.193
 1548SOL    HW1 4602   0.073   3.523   3.141
 1548SOL    HW2 4603   0.168   3.425   3.207
 1549SOL     OW 4604   0.340   2.975   2.357
 1549SOL    HW1 4605   0.338   3.063   2.319
 1549SOL    HW2 4606   0.331   2.916   2.283
 1550SOL     OW 4607   0.535   2.378   2.716
 1550SOL    HW1 4608   0.546   2.442   2.645
 1550SOL    HW2 4609   0.601   2.404   2.781
 1551SOL     OW 4610   1.247   3.215   2.260
 1551SOL    HW1 4611   1.302   3.285   2.294
 1551SOL    HW2 4612   1.159   3.237   2.291
 1552SOL     OW 4613   1.309   3.331   3.005
 1552SOL    HW1 4614   1.357   3.337   3.088
 1552SOL    HW2 4615   1.258   3.250   3.013
 1553SOL     OW 4616   1.574   2.479   2.348
 1553SOL    HW1 4617   1.523   2.520   2.418
 1553SOL    HW2 4618   1.623   2.551   2.308
 1554SOL     OW 4619   0.348   3.395   3.170
 1554SOL    HW1 4620   0.335   3.351   3.086
 1554SOL    HW2 4621   0.442   3.411   3.175
 1555SOL     OW 4622   0.451   2.596   3.481
 1555SOL    HW1 4623   0.507   2.639   3.417
 1555SOL    HW2 4624   0.500   2.518   3.508
 1556SOL     OW 4625   1.627   2.648   3.560
 1556SOL    HW1 4626   1.540   2.686   3.551
 1556SOL    HW2 4627   1.678   2.686   3.488
 1557SOL     OW 4628   0.994   2.005   3.623
 1557SOL    HW1 4629   1.052   2.078   3.602
 1557SOL    HW2 4630   1.044   1.927   3.601
 1558SOL     OW 4631   0.504   1.895   3.609
 1558SOL    HW1 4632   0.456   1.843   3.544
 1558SOL    HW2 4633   0.450   1.973   3.621
 1559SOL     OW 4634   0.592   2.736   2.903
 1559SOL    HW1 4635   0.628   2.824   2.902
 1559SOL    HW2 4636   0.531   2.736   2.977
 1560SOL     OW 4637   1.309   2.715   2.865
 1560SOL    HW1 4638   1.221   2.687   2.840
 1560SOL    HW2 4639   1.364   2.639   2.846
 1561SOL     OW 4640   1.200   2.386   2.118
 1561SOL    HW1 4641   1.211   2.310   2.174
 1561SOL    HW2 4642   1.161   2.452   2.175
 1562SOL     OW 4643   0.297   2.057   3.103
 1562SOL    HW1 4644   0.270   2.088   3.189
 1562SOL    HW2 4645   0.278   1.963   3.103
 1563SOL     OW 4646   0.007   3.180   3.141
 1563SOL    HW1 4647   0.053   3.133   3.210
 1563SOL    HW2 4648   0.021   3.273   3.162
 1564SOL     OW 4649   0.709   2.483   2.901
 1564SOL    HW1 4650   0.787   2.478   2.846
 1564SOL    HW2 4651   0.681   2.574   2.894
 1565SOL     OW 4652   1.751   2.829   3.732
 1565SOL    HW1 4653   1.711   2.757   3.683
 1565SOL    HW2 4654   1.687   2.850   3.800
 1566SOL     OW 4655   0.375   1.952   2.511
 1566SOL    HW1 4656   0.349   2.032   2.557
 1566SOL    HW2 4657   0.303   1.891   2.527
 1567SOL     OW 4658   1.632   2.252   2.206
 1567SOL    HW1 4659   1.664   2.187   2.268
 1567SOL    HW2 4660   1.602   2.325   2.261
 1568SOL     OW 4661   1.035   2.619   2.818
 1568SOL    HW1 4662   1.013   2.634   2.910
 1568SOL    HW2 4663   1.004   2.530   2.800
 1569SOL     OW 4664   0.981   3.427   3.596
 1569SOL    HW1 4665   0.961   3.470   3.513
 1569SOL    HW2 4666   1.020   3.343   3.570
 1570SOL     OW 4667   1.838   3.357   3.464
 1570SOL    HW1 4668   1.865   3.385   3.377
 1570SOL    HW2 4669   1.917   3.368   3.518
 1571SOL     OW 4670   0.364   2.781   3.671
 1571SOL    HW1 4671   0.438   2.804   3.728
 1571SOL    HW2 4672   0.400   2.714   3.613
 1572SOL     OW 4673   1.521   2.132   1.981
 1572SOL    HW1 4674   1.470   2.060   2.018
 1572SOL    HW2 4675   1.561   2.175   2.056
 1573SOL     OW 4676   1.281   2.683   1.882
 1573SOL    HW1 4677   1.321   2.597   1.889
 1573SOL    HW2 4678   1.318   2.720   1.801
 1574SOL     OW 4679   1.072   3.215   2.728
 1574SOL    HW1 4680   1.083   3.142   2.666
 1574SOL    HW2 4681   1.124   3.286   2.690
 1575SOL     OW 4682   0.317   2.666   2.803
 1575SOL    HW1 4683   0.412   2.681   2.802
 1575SOL    HW2 4684   0.308   2.575   2.832
 1576SOL     OW 4685   0.314   2.388   2.872
 1576SOL    HW1 4686   0.271   2.303   2.864
 1576SOL    HW2 4687   0.389   2.383   2.812
 1577SOL     OW 4688   1.138   2.230   3.548
 1577SOL    HW1 4689   1.093   2.282   3.614
 1577SOL    HW2 4690   1.223   2.272   3.538
 1578SOL     OW 4691   1.158   2.052   3.337
 1578SOL    HW1 4692   1.146   2.114   3.408
 1578SOL    HW2 4693   1.204   2.101   3.269
 1579SOL     OW 4694   9.969   3.196   2.082
 1579SOL    HW1 4695   9.921   3.184   2.000
 1579SOL    HW2 4696   9.989   3.106   2.110
 1580SOL     OW 4697   0.083   3.547   2.812
 1580SOL    HW1 4698   0.115   3.462   2.781
 1580SOL    HW2 4699   0.154   3.608   2.792
 1581SOL     OW 4700   0.497   3.438   2.769
 1581SOL    HW1 4701   0.565   3.505   2.782
 1581SOL    HW2 4702   0.536   3.375   2.709
 1582SOL     OW 4703   0.949   2.642   3.075
 1582SOL    HW1 4704   1.010   2.630   3.148
 1582SOL    HW2 4705   0.869   2.596   3.103
 1583SOL     OW 4706   0.039   2.427   2.947
 1583SOL    HW1 4707   0.132   2.429   2.924
 1583SOL    HW2 4708   0.039   2.431   3.043
 1584SOL     OW 4709   0.171   2.379   3.561
 1584SOL    HW1 4710   0.227   2.327   3.503
 1584SOL    HW2 4711   0.159   2.462   3.515
 1585SOL     OW 4712   1.392   2.783   3.514
 1585SOL    HW1 4713   1.409   2.877   3.508
 1585SOL    HW2 4714   1.384   2.755   3.422
 1586SOL     OW 4715   0.829   2.429   2.237
 1586SOL    HW1 4716   0.832   2.356   2.175
 1586SOL    HW2 4717   0.757   2.484   2.206
 1587SOL     OW 4718   1.635   2.463   3.025
 1587SOL    HW1 4719   1.625   2.404   3.099
 1587SOL    HW2 4720   1.726   2.452   2.998
 1588SOL     OW 4721   0.257   3.422   3.585
 1588SOL    HW1 4722   0.262   3.461   3.673
 1588SOL    HW2 4723   0.265   3.328   3.600
 1589SOL     OW 4724   0.737   2.296   3.096
 1589SOL    HW1 4725   0.673   2.226   3.084
 1589SOL    HW2 4726   0.717   2.359   3.028
 1590SOL     OW 4727   0.906   3.541   3.351
 1590SOL    HW1 4728   0.882   3.493   3.271
 1590SOL    HW2 4729   0.909   3.633   3.324
 1591SOL     OW 4730   0.518   2.350   2.033
 1591SOL    HW1 4731   0.567   2.426   2.066
 1591SOL    HW2 4732   0.438   2.387   1.996
 1592SOL     OW 4733   0.156   3.016   3.305
 1592SOL    HW1 4734   0.149   2.974   3.391
 1592SOL    HW2 4735   0.165   2.943   3.243
 1593SOL     OW 4736   1.304   2.896   3.070
 1593SOL    HW1 4737   1.313   2.832   3.000
 1593SOL    HW2 4738   1.251   2.966   3.033
 1594SOL     OW 4739   1.324   2.723   2.154
 1594SOL    HW1 4740   1.254   2.687   2.207
 1594SOL    HW2 4741   1.296   2.707   2.063
 1595SOL     OW 4742   1.787   3.586   3.033
 1595SOL    HW1 4743   1.848   3.612   2.964
 1595SOL    HW2 4744   1.755   3.500   3.005
 1596SOL     OW 4745   1.241   3.596   2.953
 1596SOL    HW1 4746   1.325   3.625   2.919
 1596SOL    HW2 4747   1.255   3.504   2.977
 1597SOL     OW 4748   0.100   3.036   2.913
 1597SOL    HW1 4749   0.103   3.095   2.988
 1597SOL    HW2 4750   0.008   3.032   2.890
 1598SOL     OW 4751   0.692   3.545   3.611
 1598SOL    HW1 4752   0.631   3.618   3.597
 1598SOL    HW2 4753   0.767   3.565   3.555
 1599SOL     OW 4754   1.744   2.046   2.359
 1599SOL    HW1 4755   1.803   2.026   2.286
 1599SOL    HW2 4756   1.718   1.960   2.392
 1600SOL     OW 4757   1.397   3.431   2.365
 1600SOL    HW1 4758   1.452   3.466   2.294
 1600SOL    HW2 4759   1.342   3.505   2.391
 1601SOL     OW 4760   0.115   3.658   3.719
 1601SOL    HW1 4761   0.075   3.605   3.788
 1601SOL    HW2 4762   0.187   3.704   3.761
 1602SOL     OW 4763   1.279   2.798   2.526
 1602SOL    HW1 4764   1.353   2.739   2.540
 1602SOL    HW2 4765   1.315   2.870   2.474
 1603SOL     OW 4766   0.784   3.143   3.274
 1603SOL    HW1 4767   0.760   3.191   3.353
 1603SOL    HW2 4768   0.709   3.155   3.215
 1604SOL     OW 4769   0.673   3.495   2.020
 1604SOL    HW1 4770   0.689   3.511   1.927
 1604SOL    HW2 4771   0.617   3.417   2.022
 1605SOL     OW 4772   1.616   3.592   3.264
 1605SOL    HW1 4773   1.673   3.592   3.187
 1605SOL    HW2 4774   1.600   3.684   3.282
 1606SOL     OW 4775   1.845   2.022   2.827
 1606SOL    HW1 4776   1.873   1.933   2.806
 1606SOL    HW2 4777   1.758   2.029   2.789
 1607SOL     OW 4778   0.277   2.188   2.600
 1607SOL    HW1 4779   0.199   2.231   2.565
 1607SOL    HW2 4780   0.256   2.172   2.692
 1608SOL     OW 4781   1.211   3.450   1.898
 1608SOL    HW1 4782   1.201   3.359   1.926
 1608SOL    HW2 4783   1.142   3.464   1.834
 1609SOL     OW 4784   0.826   2.875   3.244
 1609SOL    HW1 4785   0.861   2.866   3.156
 1609SOL    HW2 4786   0.814   2.969   3.256
 1610SOL     OW 4787   0.921   2.776   2.164
 1610SOL    HW1 4788   0.973   2.804   2.089
 1610SOL    HW2 4789   0.974   2.708   2.206
 1611SOL     OW 4790   1.484   3.508   1.920
 1611SOL    HW1 4791   1.392   3.488   1.903
 1611SOL    HW2 4792   1.525   3.511   1.833
 1612SOL     OW 4793   0.372   3.182   3.356
 1612SOL    HW1 4794   0.362   3.257   3.299
 1612SOL    HW2 4795   0.298   3.125   3.334
 1613SOL     OW 4796   1.599   3.152   3.138
 1613SOL    HW1 4797   1.653   3.128   3.214
 1613SOL    HW2 4798   1.540   3.219   3.172
 1614SOL     OW 4799   1.077   2.981   2.591
 1614SOL    HW1 4800   1.002   2.932   2.623
 1614SOL    HW2 4801   1.139   2.915   2.561
 1615SOL     OW 4802   1.033   2.111   2.823
 1615SOL    HW1 4803   1.033   2.068   2.738
 1615SOL    HW2 4804   1.026   2.039   2.886
 1616SOL     OW 4805   0.606   3.349   2.345
 1616SOL    HW1 4806   0.657   3.302   2.280
 1616SOL    HW2 4807   0.518   3.353   2.308
 1617SOL     OW 4808   1.746   2.244   3.251
 1617SOL    HW1 4809   1.816   2.308   3.246
 1617SOL    HW2 4810   1.772   2.175   3.190
 1618SOL     OW 4811   0.244   3.223   2.104
 1618SOL    HW1 4812   0.149   3.210   2.105
 1618SOL    HW2 4813   0.267   3.242   2.195
 1619SOL     OW 4814   0.141   2.871   3.536
 1619SOL    HW1 4815   0.075   2.890   3.603
 1619SOL    HW2 4816   0.222   2.859   3.586
 1620SOL     OW 4817   0.685   2.054   3.359
 1620SOL    HW1 4818   0.769   2.028   3.321
 1620SOL    HW2 4819   0.707   2.086   3.446
 1621SOL     OW 4820   0.074   2.177   1.855
 1621SOL    HW1 4821   9.979   2.165   1.861
 1621SOL    HW2 4822   0.086   2.253   1.798
 1622SOL     OW 4823   1.415   2.716   3.250
 1622SOL    HW1 4824   1.362   2.774   3.195
 1622SOL    HW2 4825   1.503   2.720   3.213
 1623SOL     OW 4826   0.060   1.933   2.125
 1623SOL    HW1 4827   0.077   1.986   2.203
 1623SOL    HW2 4828   0.146   1.915   2.088
 1624SOL     OW 4829   1.181   3.184   1.984
 1624SOL    HW1 4830   1.088   3.161   1.982
 1624SOL    HW2 4831   1.203   3.187   2.077
 1625SOL     OW 4832   0.629   2.694   3.298
 1625SOL    HW1 4833   0.688   2.768   3.286
 1625SOL    HW2 4834   0.686   2.617   3.297
 1626SOL     OW 4835   1.487   3.665   2.855
 1626SOL    HW1 4836   1.513   3.739   2.800
 1626SOL    HW2 4837   1.570   3.621   2.877
 1627SOL     OW 4838   0.711   2.416   3.554
 1627SOL    HW1 4839   0.762   2.469   3.615
 1627SOL    HW2 4840   0.724   2.326   3.584
 1628SOL     OW 4841   1.469   3.046   3.481
 1628SOL    HW1 4842   1.461   3.069   3.574
 1628SOL    HW2 4843   1.558   3.070   3.458
 1629SOL     OW 4844   0.365   3.617   3.424
 1629SOL    HW1 4845   0.282   3.661   3.407
 1629SOL    HW2 4846   0.341   3.534   3.465
 1630SOL     OW 4847   1.655   2.737   3.115
 1630SOL    HW1 4848   1.653   2.654   3.068
 1630SOL    HW2 4849   1.643   2.803   3.046
 1631SOL     OW 4850   1.226   2.187   2.317
 1631SOL    HW1 4851   1.285   2.112   2.316
 1631SOL    HW2 4852   1.254   2.239   2.392
 1632SOL     OW 4853   0.569   2.591   2.541
 1632SOL    HW1 4854   0.617   2.673   2.532
 1632SOL    HW2 4855   0.511   2.588   2.465
 1633SOL     OW 4856   1.747   2.217   3.527
 1633SOL    HW1 4857   1.744   2.233   3.432
 1633SOL    HW2 4858   1.669   2.164   3.545
 1634SOL     OW 4859   1.760   2.786   3.366
 1634SOL    HW1 4860   1.743   2.880   3.378
 1634SOL    HW2 4861   1.733   2.769   3.275
 1635SOL     OW 4862   0.876   3.219   1.927
 1635SOL    HW1 4863   0.835   3.239   2.011
 1635SOL    HW2 4864   0.884   3.304   1.883
 1636SOL     OW 4865   0.674   3.638   2.780
 1636SOL    HW1 4866   0.649   3.731   2.773
 1636SOL    HW2 4867   0.769   3.639   2.781
 1637SOL     OW 4868   0.874   2.839   2.718
 1637SOL    HW1 4869   0.924   2.765   2.755
 1637SOL    HW2 4870   0.829   2.876   2.794
 1638SOL     OW 4871   1.062   2.834   1.944
 1638SOL    HW1 4872   1.047   2.894   1.871
 1638SOL    HW2 4873   1.141   2.785   1.918
 1639SOL     OW 4874   1.829   3.420   2.702
 1639SOL    HW1 4875   1.753   3.412   2.645
 1639SOL    HW2 4876   1.807   3.369   2.780
 1640SOL     OW 4877   0.239   3.164   3.700
 1640SOL    HW1 4878   0.148   3.167   3.671
 1640SOL    HW2 4879   0.234   3.173   3.796
 1641SOL     OW 4880   0.154   3.085   2.532
 1641SOL    HW1 4881   0.088   3.030   2.574
 1641SOL    HW2 4882   0.210   3.023   2.486
 1642SOL     OW 4883   0.699   3.282   3.495
 1642SOL    HW1 4884   0.621   3.240   3.533
 1642SOL    HW2 4885   0.699   3.370   3.532
 1643SOL     OW 4886   1.811   2.033   3.097
 1643SOL    HW1 4887   1.812   1.938   3.110
 1643SOL    HW2 4888   1.824   2.045   3.003
 1644SOL     OW 4889   0.434   2.305   2.382
 1644SOL    HW1 4890   0.493   2.238   2.349
 1644SOL    HW2 4891   0.410   2.274   2.469
 1645SOL     OW 4892   1.696   3.342   2.943
 1645SOL    HW1 4893   1.617   3.323   2.892
 1645SOL    HW2 4894   1.697   3.274   3.011
 1646SOL     OW 4895   0.365   2.432   3.146
 1646SOL    HW1 4896   0.415   2.369   3.199
 1646SOL    HW2 4897   0.369   2.397   3.057
 1647SOL     OW 4898   0.844   3.445   2.533
 1647SOL    HW1 4899   0.815   3.517   2.477
 1647SOL    HW2 4900   0.766   3.389   2.542
 1648SOL     OW 4901   1.421   2.094   2.976
 1648SOL    HW1 4902   1.428   2.004   3.008
 1648SOL    HW2 4903   1.376   2.141   3.046
 1649SOL     OW 4904   1.010   1.879   2.983
 1649SOL    HW1 4905   0.957   1.816   2.935
 1649SOL    HW2 4906   1.097   1.839   2.986
 1650SOL     OW 4907   0.776   3.194   2.191
 1650SOL    HW1 4908   0.753   3.102   2.204
 1650SOL    HW2 4909   0.856   3.207   2.242
 1651SOL     OW 4910   0.618   3.431   3.148
 1651SOL    HW1 4911   0.615   3.517   3.190
 1651SOL    HW2 4912   0.707   3.423   3.115
 1652SOL     OW 4913   1.383   1.901   2.053
 1652SOL    HW1 4914   1.423   1.829   2.005
 1652SOL    HW2 4915   1.291   1.874   2.064
 1653SOL     OW 4916   1.299   2.334   2.537
 1653SOL    HW1 4917   1.249   2.415   2.535
 1653SOL    HW2 4918   1.292   2.304   2.628
 1654SOL     OW 4919   1.583   2.050   2.755
 1654SOL    HW1 4920   1.530   2.079   2.829
 1654SOL    HW2 4921   1.583   2.124   2.695
 1655SOL     OW 4922   0.067   2.953   2.159
 1655SOL    HW1 4923   0.142   2.900   2.132
 1655SOL    HW2 4924   0.032   2.907   2.235
 1656SOL     OW 4925   0.902   3.533   2.189
 1656SOL    HW1 4926   0.822   3.520   2.138
 1656SOL    HW2 4927   0.880   3.601   2.252
 1657SOL     OW 4928   0.286   2.455   3.805
 1657SOL    HW1 4929   0.219   2.473   3.872
 1657SOL    HW2 4930   0.236   2.436   3.726
 1658SOL     OW 4931   0.198   2.142   4.722
 1658SOL    HW1 4932   0.235   2.106   4.803
 1658SOL    HW2 4933   0.106   2.116   4.724
 1659SOL     OW 4934   0.041   2.288   4.355
 1659SOL    HW1 4935   9.950   2.300   4.380
 1659SOL    HW2 4936   0.039   2.225   4.284
 1660SOL     OW 4937   0.569   3.170   4.926
 1660SOL    HW1 4938   0.486   3.172   4.879
 1660SOL    HW2 4939   0.586   3.261   4.949
 1661SOL     OW 4940   1.587   3.386   4.429
 1661SOL    HW1 4941   1.540   3.355   4.506
 1661SOL    HW2 4942   1.521   3.389   4.360
 1662SOL     OW 4943   1.139   2.567   4.411
 1662SOL    HW1 4944   1.185   2.650   4.400
 1662SOL    HW2 4945   1.090   2.577   4.493
 1663SOL     OW 4946   1.801   2.443   3.944
 1663SOL    HW1 4947   1.762   2.443   3.856
 1663SOL    HW2 4948   1.757   2.372   3.990
 1664SOL     OW 4949   0.728   2.992   4.781
 1664SOL    HW1 4950   0.666   3.032   4.842
 1664SOL    HW2 4951   0.771   3.066   4.738
 1665SOL     OW 4952   0.888   2.607   5.550
 1665SOL    HW1 4953   0.895   2.675   5.616
 1665SOL    HW2 4954   0.903   2.652   5.467
 1666SOL     OW 4955   0.687   2.845   4.372
 1666SOL    HW1 4956   0.757   2.844   4.437
 1666SOL    HW2 4957   0.624   2.908   4.406
 1667SOL     OW 4958   0.717   3.010   5.559
 1667SOL    HW1 4959   0.768   3.084   5.593
 1667SOL    HW2 4960   0.643   3.051   5.514
 1668SOL     OW 4961   0.335   3.287   4.787
 1668SOL    HW1 4962   0.258   3.271   4.732
 1668SOL    HW2 4963   0.393   3.340   4.732
 1669SOL     OW 4964   1.454   3.368   5.096
 1669SOL    HW1 4965   1.509   3.445   5.109
 1669SOL    HW2 4966   1.382   3.380   5.158
 1670SOL     OW 4967   0.479   2.247   5.174
 1670SOL    HW1 4968   0.550   2.186   5.191
 1670SOL    HW2 4969   0.400   2.203   5.205
 1671SOL     OW 4970   1.584   2.294   4.479
 1671SOL    HW1 4971   1.517   2.304   4.411
 1671SOL    HW2 4972   1.566   2.364   4.542
 1672SOL     OW 4973   0.223   3.521   4.153
 1672SOL    HW1 4974   0.183   3.587   4.209
 1672SOL    HW2 4975   0.305   3.561   4.123
 1673SOL     OW 4976   1.136   3.203   5.420
 1673SOL    HW1 4977   1.182   3.192   5.503
 1673SOL    HW2 4978   1.083   3.124   5.411
 1674SOL     OW 4979   0.286   3.264   4.226
 1674SOL    HW1 4980   0.257   3.355   4.222
 1674SOL    HW2 4981   0.231   3.223   4.293
 1675SOL     OW 4982   0.307   2.942   4.628
 1675SOL    HW1 4983   0.300   2.848   4.646
 1675SOL    HW2 4984   0.236   2.982   4.679
 1676SOL     OW 4985   0.585   3.672   5.133
 1676SOL    HW1 4986   0.507   3.651   5.185
 1676SOL    HW2 4987   0.618   3.753   5.171
 1677SOL     OW 4988   0.570   2.850   3.878
 1677SOL    HW1 4989   0.621   2.892   3.808
 1677SOL    HW2 4990   0.608   2.884   3.959
 1678SOL     OW 4991   1.592   1.994   5.184
 1678SOL    HW1 4992   1.630   2.071   5.141
 1678SOL    HW2 4993   1.560   2.028   5.268
 1679SOL     OW 4994   0.147   2.537   4.297
 1679SOL    HW1 4995   0.113   2.452   4.324
 1679SOL    HW2 4996   0.124   2.596   4.369
 1680SOL     OW 4997   1.846   3.605   4.042
 1680SOL    HW1 4998   1.919   3.590   4.103
 1680SOL    HW2 4999   1.854   3.698   4.019
 1681SOL     OW 5000   0.029   3.483   3.923
 1681SOL    HW1 5001   0.011   3.389   3.920
 1681SOL    HW2 5002   0.087   3.493   3.999
 1682SOL     OW 5003   1.698   2.788   4.376
 1682SOL    HW1 5004   1.779   2.743   4.353
 1682SOL    HW2 5005   1.676   2.840   4.299
 1683SOL     OW 5006   1.657   2.967   4.157
 1683SOL    HW1 5007   1.741   2.959   4.113
 1683SOL    HW2 5008   1.671   3.032   4.225
 1684SOL     OW 5009   0.177   2.617   5.292
 1684SOL    HW1 5010   0.273   2.615   5.297
 1684SOL    HW2 5011   0.154   2.707   5.314
 1685SOL     OW 5012   0.627   3.260   4.462
 1685SOL    HW1 5013   0.585   3.175   4.468
 1685SOL    HW2 5014   0.610   3.289   4.372
 1686SOL     OW 5015   1.271   3.087   5.141
 1686SOL    HW1 5016   1.298   3.018   5.081
 1686SOL    HW2 5017   1.333   3.082   5.214
 1687SOL     OW 5018   0.854   1.869   4.244
 1687SOL    HW1 5019   0.894   1.951   4.214
 1687SOL    HW2 5020   0.760   1.886   4.243
 1688SOL     OW 5021   0.164   2.801   5.000
 1688SOL    HW1 5022   0.253   2.767   4.991
 1688SOL    HW2 5023   0.134   2.814   4.910
 1689SOL     OW 5024   1.534   2.877   3.924
 1689SOL    HW1 5025   1.465   2.817   3.954
 1689SOL    HW2 5026   1.576   2.907   4.004
 1690SOL     OW 5027   1.176   3.685   5.361
 1690SOL    HW1 5028   1.179   3.747   5.289
 1690SOL    HW2 5029   1.195   3.600   5.321
 1691SOL     OW 5030   0.341   2.113   5.509
 1691SOL    HW1 5031   0.384   2.181   5.561
 1691SOL    HW2 5032   0.249   2.117   5.537
 1692SOL     OW 5033   1.472   3.280   4.655
 1692SOL    HW1 5034   1.408   3.299   4.724
 1692SOL    HW2 5035   1.454   3.189   4.630
 1693SOL     OW 5036   1.637   3.658   4.286
 1693SOL    HW1 5037   1.620   3.611   4.204
 1693SOL    HW2 5038   1.637   3.590   4.353
 1694SOL     OW 5039   0.616   2.582   4.005
 1694SOL    HW1 5040   0.620   2.667   3.961
 1694SOL    HW2 5041   0.545   2.591   4.068
 1695SOL     OW 5042   1.282   2.255   4.665
 1695SOL    HW1 5043   1.193   2.220   4.670
 1695SOL    HW2 5044   1.334   2.197   4.720
 1696SOL     OW 5045   1.579   3.535   4.043
 1696SOL    HW1 5046   1.673   3.550   4.032
 1696SOL    HW2 5047   1.546   3.522   3.954
 1697SOL     OW 5048   0.790   2.473   5.159
 1697SOL    HW1 5049   0.762   2.445   5.246
 1697SOL    HW2 5050   0.765   2.401   5.102
 1698SOL     OW 5051   1.391   2.339   5.397
 1698SOL    HW1 5052   1.397   2.382   5.482
 1698SOL    HW2 5053   1.442   2.258   5.408
 1699SOL     OW 5054   0.944   2.743   5.314
 1699SOL    HW1 5055   1.000   2.679   5.270
 1699SOL    HW2 5056   0.897   2.787   5.243
 1700SOL     OW 5057   1.009   2.259   4.933
 1700SOL    HW1 5058   0.917   2.273   4.955
 1700SOL    HW2 5059   1.007   2.215   4.848
 1701SOL     OW 5060   1.065   2.562   4.143
 1701SOL    HW1 5061   1.086   2.559   4.237
 1701SOL    HW2 5062   0.982   2.516   4.136
 1702SOL     OW 5063   0.074   2.699   4.527
 1702SOL    HW1 5064   0.159   2.690   4.570
 1702SOL    HW2 5065   0.015   2.731   4.596
 1703SOL     OW 5066   0.112   3.724   5.305
 1703SOL    HW1 5067   0.110   3.719   5.401
 1703SOL    HW2 5068   0.057   3.651   5.276
 1704SOL     OW 5069   0.896   2.210   3.923
 1704SOL    HW1 5070   0.943   2.267   3.862
 1704SOL    HW2 5071   0.878   2.131   3.873
 1705SOL     OW 5072   1.686   2.425   5.564
 1705SOL    HW1 5073   1.665   2.502   5.512
 1705SOL    HW2 5074   1.715   2.360   5.500
 1706SOL     OW 5075   1.393   3.011   4.266
 1706SOL    HW1 5076   1.473   3.000   4.215
 1706SOL    HW2 5077   1.339   3.072   4.215
 1707SOL     OW 5078   0.561   2.032   4.639
 1707SOL    HW1 5079   0.565   2.058   4.731
 1707SOL    HW2 5080   0.553   2.115   4.591
 1708SOL     OW 5081   0.995   3.313   4.189
 1708SOL    HW1 5082   0.974   3.388   4.134
 1708SOL    HW2 5083   0.967   3.338   4.277
 1709SOL     OW 5084   0.339   3.669   4.656
 1709SOL    HW1 5085   0.389   3.589   4.639
 1709SOL    HW2 5086   0.402   3.740   4.641
 1710SOL     OW 5087   1.804   2.905   4.614
 1710SOL    HW1 5088   1.756   2.890   4.532
 1710SOL    HW2 5089   1.735   2.914   4.680
 1711SOL     OW 5090   1.218   3.406   5.241
 1711SOL    HW1 5091   1.207   3.334   5.303
 1711SOL    HW2 5092   1.150   3.392   5.175
 1712SOL     OW 5093   0.313   2.800   4.000
 1712SOL    HW1 5094   0.390   2.816   3.946
 1712SOL    HW2 5095   0.328   2.714   4.039
 1713SOL     OW 5096   1.485   2.625   4.435
 1713SOL    HW1 5097   1.487   2.582   4.520
 1713SOL    HW2 5098   1.564   2.679   4.433
 1714SOL     OW 5099   0.485   3.137   5.459
 1714SOL    HW1 5100   0.462   3.144   5.366
 1714SOL    HW2 5101   0.401   3.128   5.504
 1715SOL     OW 5102   1.142   3.638   3.947
 1715SOL    HW1 5103   1.061   3.606   3.987
 1715SOL    HW2 5104   1.163   3.574   3.879
 1716SOL     OW 5105   0.221   2.144   5.220
 1716SOL    HW1 5106   0.131   2.172   5.207
 1716SOL    HW2 5107   0.215   2.075   5.287
 1717SOL     OW 5108   1.638   3.250   3.824
 1717SOL    HW1 5109   1.598   3.336   3.811
 1717SOL    HW2 5110   1.571   3.187   3.797
 1718SOL     OW 5111   0.471   3.611   4.043
 1718SOL    HW1 5112   0.520   3.659   4.110
 1718SOL    HW2 5113   0.539   3.566   3.992
 1719SOL     OW 5114   1.398   1.968   4.182
 1719SOL    HW1 5115   1.398   1.943   4.090
 1719SOL    HW2 5116   1.489   1.955   4.210
 1720SOL     OW 5117   0.254   3.652   4.941
 1720SOL    HW1 5118   0.300   3.575   4.974
 1720SOL    HW2 5119   0.259   3.644   4.846
 1721SOL     OW 5120   0.954   3.565   4.616
 1721SOL    HW1 5121   1.038   3.522   4.631
 1721SOL    HW2 5122   0.913   3.513   4.546
 1722SOL     OW 5123   0.394   2.566   4.176
 1722SOL    HW1 5124   0.415   2.473   4.186
 1722SOL    HW2 5125   0.309   2.576   4.219
 1723SOL     OW 5126   1.508   2.085   5.441
 1723SOL    HW1 5127   1.520   2.104   5.534
 1723SOL    HW2 5128   1.442   2.016   5.439
 1724SOL     OW 5129   0.658   1.965   3.823
 1724SOL    HW1 5130   0.707   1.887   3.847
 1724SOL    HW2 5131   0.599   1.937   3.753
 1725SOL     OW 5132   0.757   2.139   5.479
 1725SOL    HW1 5133   0.842   2.094   5.478
 1725SOL    HW2 5134   0.711   2.101   5.553
 1726SOL     OW 5135   0.871   3.388   4.922
 1726SOL    HW1 5136   0.853   3.347   4.838
 1726SOL    HW2 5137   0.938   3.333   4.962
 1727SOL     OW 5138   1.329   2.454   5.157
 1727SOL    HW1 5139   1.362   2.424   5.241
 1727SOL    HW2 5140   1.368   2.541   5.145
 1728SOL     OW 5141   0.819   3.238   4.682
 1728SOL    HW1 5142   0.906   3.234   4.641
 1728SOL    HW2 5143   0.760   3.254   4.608
 1729SOL     OW 5144   0.929   2.377   4.612
 1729SOL    HW1 5145   0.904   2.364   4.520
 1729SOL    HW2 5146   0.956   2.290   4.642
 1730SOL     OW 5147   0.592   1.922   4.216
 1730SOL    HW1 5148   0.523   1.929   4.282
 1730SOL    HW2 5149   0.578   1.997   4.158
 1731SOL     OW 5150   1.434   3.075   3.756
 1731SOL    HW1 5151   1.463   3.001   3.809
 1731SOL    HW2 5152   1.348   3.098   3.793
 1732SOL     OW 5153   0.309   1.903   3.885
 1732SOL    HW1 5154   0.338   1.993   3.900
 1732SOL    HW2 5155   0.370   1.849   3.935
 1733SOL     OW 5156   0.960   2.113   4.174
 1733SOL    HW1 5157   0.932   2.148   4.089
 1733SOL    HW2 5158   1.053   2.133   4.179
 1734SOL     OW 5159   1.074   2.555   5.168
 1734SOL    HW1 5160   1.011   2.483   5.174
 1734SOL    HW2 5161   1.160   2.512   5.165
 1735SOL     OW 5162   1.209   3.448   4.526
 1735SOL    HW1 5163   1.223   3.508   4.453
 1735SOL    HW2 5164   1.283   3.465   4.585
 1736SOL     OW 5165   0.490   3.021   4.446
 1736SOL    HW1 5166   0.430   2.999   4.517
 1736SOL    HW2 5167   0.440   3.004   4.366
 1737SOL     OW 5168   1.254   3.653   4.341
 1737SOL    HW1 5169   1.303   3.716   4.288
 1737SOL    HW2 5170   1.184   3.705   4.381
 1738SOL     OW 5171   1.032   2.379   3.752
 1738SOL    HW1 5172   0.989   2.462   3.733
 1738SOL    HW2 5173   1.096   2.400   3.821
 1739SOL     OW 5174   0.104   2.445   5.084
 1739SOL    HW1 5175   0.195   2.434   5.056
 1739SOL    HW2 5176   0.109   2.503   5.160
 1740SOL     OW 5177   0.564   2.084   4.909
 1740SOL    HW1 5178   0.600   2.015   4.964
 1740SOL    HW2 5179   0.470   2.084   4.928
 1741SOL     OW 5180   0.870   2.313   4.354
 1741SOL    HW1 5181   0.839   2.370   4.284
 1741SOL    HW2 5182   0.898   2.233   4.309
 1742SOL     OW 5183   1.028   1.920   4.467
 1742SOL    HW1 5184   0.969   1.910   4.392
 1742SOL    HW2 5185   1.004   1.847   4.525
 1743SOL     OW 5186   1.435   3.016   4.578
 1743SOL    HW1 5187   1.364   2.952   4.586
 1743SOL    HW2 5188   1.451   3.023   4.484
 1744SOL     OW 5189   1.463   2.478   4.672
 1744SOL    HW1 5190   1.399   2.408   4.683
 1744SOL    HW2 5191   1.518   2.472   4.750
 1745SOL     OW 5192   1.829   2.658   4.111
 1745SOL    HW1 5193   1.889   2.615   4.172
 1745SOL    HW2 5194   1.815   2.594   4.041
 1746SOL     OW 5195   0.493   3.291   3.858
 1746SOL    HW1 5196   0.409   3.269   3.897
 1746SOL    HW2 5197   0.499   3.236   3.780
 1747SOL     OW 5198   1.707   3.133   4.359
 1747SOL    HW1 5199   1.800   3.126   4.379
 1747SOL    HW2 5200   1.684   3.222   4.384
 1748SOL     OW 5201   1.393   2.438   3.788
 1748SOL    HW1 5202   1.338   2.411   3.861
 1748SOL    HW2 5203   1.482   2.414   3.816
 1749SOL     OW 5204   0.548   2.116   4.031
 1749SOL    HW1 5205   0.593   2.068   3.961
 1749SOL    HW2 5206   0.528   2.201   3.992
 1750SOL     OW 5207   1.735   3.106   5.256
 1750SOL    HW1 5208   1.823   3.072   5.242
 1750SOL    HW2 5209   1.749   3.194   5.293
 1751SOL     OW 5210   1.043   3.217   5.058
 1751SOL    HW1 5211   0.966   3.182   5.102
 1751SOL    HW2 5212   1.117   3.171   5.099
 1752SOL     OW 5213   1.608   3.497   5.396
 1752SOL    HW1 5214   1.597   3.533   5.308
 1752SOL    HW2 5215   1.686   3.441   5.389
 1753SOL     OW 5216   1.152   3.099   4.829
 1753SOL    HW1 5217   1.090   3.133   4.893
 1753SOL    HW2 5218   1.119   3.131   4.745
 1754SOL     OW 5219   1.609   2.953   4.801
 1754SOL    HW1 5220   1.601   3.020   4.869
 1754SOL    HW2 5221   1.540   2.974   4.738
 1755SOL     OW 5222   0.921   1.943   5.108
 1755SOL    HW1 5223   0.941   1.928   5.016
 1755SOL    HW2 5224   1.001   1.984   5.143
 1756SOL     OW 5225   0.981   2.978   5.446
 1756SOL    HW1 5226   0.891   2.993   5.475
 1756SOL    HW2 5227   0.976   2.897   5.394
 1757SOL     OW 5228   0.711   2.924   4.104
 1757SOL    HW1 5229   0.697   2.899   4.195
 1757SOL    HW2 5230   0.787   2.873   4.076
 1758SOL     OW 5231   0.420   2.697   4.984
 1758SOL    HW1 5232   0.489   2.708   5.050
 1758SOL    HW2 5233   0.397   2.604   4.990
 1759SOL     OW 5234   1.265   2.229   5.016
 1759SOL    HW1 5235   1.293   2.310   5.060
 1759SOL    HW2 5236   1.176   2.248   4.986
 1760SOL     OW 5237   0.075   3.442   5.055
 1760SOL    HW1 5238   0.073   3.523   5.003
 1760SOL    HW2 5239   0.168   3.425   5.070
 1761SOL     OW 5240   0.340   2.975   4.219
 1761SOL    HW1 5241   0.337   3.063   4.181
 1761SOL    HW2 5242   0.331   2.917   4.144
 1762SOL     OW 5243   0.535   2.378   4.578
 1762SOL    HW1 5244   0.546   2.442   4.507
 1762SOL    HW2 5245   0.601   2.404   4.643
 1763SOL     OW 5246   1.246   3.215   4.121
 1763SOL    HW1 5247   1.302   3.285   4.156
 1763SOL    HW2 5248   1.159   3.237   4.153
 1764SOL     OW 5249   1.309   3.330   4.867
 1764SOL    HW1 5250   1.357   3.337   4.950
 1764SOL    HW2 5251   1.258   3.250   4.875
 1765SOL     OW 5252   1.575   2.479   4.210
 1765SOL    HW1 5253   1.524   2.520   4.279
 1765SOL    HW2 5254   1.624   2.551   4.171
 1766SOL     OW 5255   0.348   3.395   5.032
 1766SOL    HW1 5256   0.335   3.351   4.948
 1766SOL    HW2 5257   0.442   3.411   5.037
 1767SOL     OW 5258   0.451   2.596   5.344
 1767SOL    HW1 5259   0.507   2.639   5.279
 1767SOL    HW2 5260   0.500   2.518   5.370
 1768SOL     OW 5261   1.627   2.648   5.422
 1768SOL    HW1 5262   1.540   2.686   5.413
 1768SOL    HW2 5263   1.677   2.686   5.350
 1769SOL     OW 5264   0.994   2.005   5.485
 1769SOL    HW1 5265   1.052   2.078   5.465
 1769SOL    HW2 5266   1.044   1.927   5.463
 1770SOL     OW 5267   0.504   1.895   5.471
 1770SOL    HW1 5268   0.456   1.843   5.406
 1770SOL    HW2 5269   0.450   1.973   5.483
 1771SOL     OW 5270   0.591   2.736   4.765
 1771SOL    HW1 5271   0.628   2.824   4.764
 1771SOL    HW2 5272   0.531   2.736   4.839
 1772SOL     OW 5273   1.309   2.714   4.727
 1772SOL    HW1 5274   1.221   2.687   4.702
 1772SOL    HW2 5275   1.364   2.638   4.708
 1773SOL     OW 5276   1.200   2.386   3.980
 1773SOL    HW1 5277   1.212   2.310   4.036
 1773SOL    HW2 5278   1.161   2.452   4.037
 1774SOL     OW 5279   0.297   2.057   4.964
 1774SOL    HW1 5280   0.270   2.088   5.051
 1774SOL    HW2 5281   0.278   1.963   4.965
 1775SOL     OW 5282   0.007   3.181   5.003
 1775SOL    HW1 5283   0.053   3.133   5.072
 1775SOL    HW2 5284   0.021   3.273   5.024
 1776SOL     OW 5285   0.709   2.483   4.763
 1776SOL    HW1 5286   0.787   2.478   4.708
 1776SOL    HW2 5287   0.681   2.574   4.756
 1777SOL     OW 5288   1.751   2.829   5.594
 1777SOL    HW1 5289   1.711   2.757   5.545
 1777SOL    HW2 5290   1.687   2.850   5.662
 1778SOL     OW 5291   0.375   1.953   4.373
 1778SOL    HW1 5292   0.350   2.033   4.418
 1778SOL    HW2 5293   0.305   1.891   4.392
 1779SOL     OW 5294   1.632   2.252   4.068
 1779SOL    HW1 5295   1.664   2.187   4.130
 1779SOL    HW2 5296   1.602   2.325   4.123
 1780SOL     OW 5297   1.035   2.619   4.680
 1780SOL    HW1 5298   1.013   2.634   4.772
 1780SOL    HW2 5299   1.004   2.530   4.662
 1781SOL     OW 5300   0.981   3.427   5.458
 1781SOL    HW1 5301   0.961   3.470   5.375
 1781SOL    HW2 5302   1.020   3.343   5.432
 1782SOL     OW 5303   1.838   3.357   5.326
 1782SOL    HW1 5304   1.865   3.385   5.238
 1782SOL    HW2 5305   1.917   3.368   5.379
 1783SOL     OW 5306   0.364   2.781   5.534
 1783SOL    HW1 5307   0.437   2.805   5.591
 1783SOL    HW2 5308   0.399   2.714   5.475
 1784SOL     OW 5309   1.521   2.131   3.843
 1784SOL    HW1 5310   1.470   2.060   3.880
 1784SOL    HW2 5311   1.561   2.175   3.918
 1785SOL     OW 5312   1.281   2.684   3.743
 1785SOL    HW1 5313   1.321   2.597   3.751
 1785SOL    HW2 5314   1.317   2.720   3.663
 1786SOL     OW 5315   1.072   3.215   4.590
 1786SOL    HW1 5316   1.083   3.142   4.528
 1786SOL    HW2 5317   1.124   3.286   4.552
 1787SOL     OW 5318   0.317   2.666   4.665
 1787SOL    HW1 5319   0.412   2.681   4.664
 1787SOL    HW2 5320   0.308   2.575   4.694
 1788SOL     OW 5321   0.314   2.388   4.734
 1788SOL    HW1 5322   0.271   2.303   4.726
 1788SOL    HW2 5323   0.389   2.383   4.674
 1789SOL     OW 5324   1.138   2.230   5.410
 1789SOL    HW1 5325   1.093   2.282   5.476
 1789SOL    HW2 5326   1.223   2.272   5.400
 1790SOL     OW 5327   1.158   2.052   5.199
 1790SOL    HW1 5328   1.146   2.114   5.270
 1790SOL    HW2 5329   1.204   2.101   5.131
 1791SOL     OW 5330   9.969   3.196   3.945
 1791SOL    HW1 5331   9.918   3.184   3.864
 1791SOL    HW2 5332   9.989   3.107   3.973
 1792SOL     OW 5333   0.084   3.547   4.675
 1792SOL    HW1 5334   0.116   3.462   4.643
 1792SOL    HW2 5335   0.154   3.608   4.654
 1793SOL     OW 5336   0.497   3.439   4.631
 1793SOL    HW1 5337   0.565   3.505   4.644
 1793SOL    HW2 5338   0.536   3.375   4.571
 1794SOL     OW 5339   0.949   2.641   4.937
 1794SOL    HW1 5340   1.010   2.630   5.010
 1794SOL    HW2 5341   0.870   2.596   4.966
 1795SOL     OW 5342   0.039   2.427   4.809
 1795SOL    HW1 5343   0.132   2.430   4.786
 1795SOL    HW2 5344   0.038   2.431   4.905
 1796SOL     OW 5345   0.171   2.379   5.423
 1796SOL    HW1 5346   0.227   2.327   5.365
 1796SOL    HW2 5347   0.159   2.462   5.377
 1797SOL     OW 5348   1.392   2.783   5.376
 1797SOL    HW1 5349   1.409   2.877   5.370
 1797SOL    HW2 5350   1.384   2.755   5.284
 1798SOL     OW 5351   0.829   2.429   4.099
 1798SOL    HW1 5352   0.832   2.356   4.037
 1798SOL    HW2 5353   0.757   2.484   4.068
 1799SOL     OW 5354   1.635   2.463   4.887
 1799SOL    HW1 5355   1.625   2.404   4.962
 1799SOL    HW2 5356   1.726   2.452   4.860
 1800SOL     OW 5357   0.257   3.422   5.447
 1800SOL    HW1 5358   0.262   3.461   5.535
 1800SOL    HW2 5359   0.265   3.328   5.462
 1801SOL     OW 5360   0.737   2.296   4.958
 1801SOL    HW1 5361   0.673   2.226   4.946
 1801SOL    HW2 5362   0.717   2.359   4.890
 1802SOL     OW 5363   0.906   3.541   5.212
 1802SOL    HW1 5364   0.883   3.493   5.132
 1802SOL    HW2 5365   0.909   3.633   5.185
 1803SOL     OW 5366   0.518   2.350   3.895
 1803SOL    HW1 5367   0.567   2.426   3.928
 1803SOL    HW2 5368   0.438   2.387   3.857
 1804SOL     OW 5369   0.156   3.016   5.167
 1804SOL    HW1 5370   0.149   2.974   5.252
 1804SOL    HW2 5371   0.165   2.943   5.105
 1805SOL     OW 5372   1.304   2.895   4.932
 1805SOL    HW1 5373   1.313   2.832   4.862
 1805SOL    HW2 5374   1.250   2.965   4.895
 1806SOL     OW 5375   1.324   2.723   4.015
 1806SOL    HW1 5376   1.254   2.687   4.069
 1806SOL    HW2 5377   1.296   2.707   3.925
 1807SOL     OW 5378   1.786   3.586   4.894
 1807SOL    HW1 5379   1.848   3.612   4.826
 1807SOL    HW2 5380   1.755   3.500   4.867
 1808SOL     OW 5381   1.241   3.596   4.815
 1808SOL    HW1 5382   1.326   3.625   4.781
 1808SOL    HW2 5383   1.256   3.504   4.839
 1809SOL     OW 5384   0.100   3.036   4.776
 1809SOL    HW1 5385   0.104   3.095   4.851
 1809SOL    HW2 5386   0.008   3.032   4.752
 1810SOL     OW 5387   0.692   3.545   5.473
 1810SOL    HW1 5388   0.631   3.618   5.459
 1810SOL    HW2 5389   0.767   3.565   5.417
 1811SOL     OW 5390   1.744   2.046   4.221
 1811SOL    HW1 5391   1.803   2.026   4.148
 1811SOL    HW2 5392   1.717   1.960   4.254
 1812SOL     OW 5393   1.396   3.431   4.226
 1812SOL    HW1 5394   1.452   3.466   4.156
 1812SOL    HW2 5395   1.342   3.505   4.253
 1813SOL     OW 5396   0.115   3.658   5.580
 1813SOL    HW1 5397   0.075   3.605   5.650
 1813SOL    HW2 5398   0.187   3.704   5.623
 1814SOL     OW 5399   1.280   2.798   4.388
 1814SOL    HW1 5400   1.353   2.739   4.401
 1814SOL    HW2 5401   1.315   2.870   4.336
 1815SOL     OW 5402   0.784   3.143   5.136
 1815SOL    HW1 5403   0.760   3.191   5.215
 1815SOL    HW2 5404   0.709   3.155   5.077
 1816SOL     OW 5405   0.673   3.495   3.882
 1816SOL    HW1 5406   0.689   3.510   3.789
 1816SOL    HW2 5407   0.617   3.417   3.885
 1817SOL     OW 5408   1.616   3.592   5.126
 1817SOL    HW1 5409   1.673   3.592   5.049
 1817SOL    HW2 5410   1.600   3.684   5.144
 1818SOL     OW 5411   1.845   2.022   4.689
 1818SOL    HW1 5412   1.873   1.933   4.668
 1818SOL    HW2 5413   1.758   2.029   4.651
 1819SOL     OW 5414   0.277   2.189   4.462
 1819SOL    HW1 5415   0.198   2.231   4.427
 1819SOL    HW2 5416   0.256   2.172   4.554
 1820SOL     OW 5417   1.211   3.450   3.760
 1820SOL    HW1 5418   1.201   3.359   3.788
 1820SOL    HW2 5419   1.142   3.464   3.696
 1821SOL     OW 5420   0.826   2.875   5.106
 1821SOL    HW1 5421   0.861   2.866   5.018
 1821SOL    HW2 5422   0.814   2.969   5.118
 1822SOL     OW 5423   0.920   2.775   4.026
 1822SOL    HW1 5424   0.973   2.804   3.951
 1822SOL    HW2 5425   0.973   2.708   4.068
 1823SOL     OW 5426   1.484   3.507   3.782
 1823SOL    HW1 5427   1.392   3.487   3.765
 1823SOL    HW2 5428   1.525   3.511   3.695
 1824SOL     OW 5429   0.372   3.182   5.218
 1824SOL    HW1 5430   0.362   3.257   5.161
 1824SOL    HW2 5431   0.298   3.125   5.196
 1825SOL     OW 5432   1.599   3.152   5.000
 1825SOL    HW1 5433   1.654   3.128   5.075
 1825SOL    HW2 5434   1.540   3.219   5.034
 1826SOL     OW 5435   1.077   2.982   4.453
 1826SOL    HW1 5436   1.002   2.932   4.485
 1826SOL    HW2 5437   1.139   2.915   4.423
 1827SOL     OW 5438   1.033   2.111   4.685
 1827SOL    HW1 5439   1.033   2.068   4.599
 1827SOL    HW2 5440   1.026   2.039   4.748
 1828SOL     OW 5441   0.606   3.349   4.207
 1828SOL    HW1 5442   0.657   3.302   4.142
 1828SOL    HW2 5443   0.518   3.354   4.170
 1829SOL     OW 5444   1.746   2.244   5.113
 1829SOL    HW1 5445   1.816   2.308   5.109
 1829SOL    HW2 5446   1.772   2.175   5.052
 1830SOL     OW 5447   0.243   3.223   3.965
 1830SOL    HW1 5448   0.149   3.210   3.967
 1830SOL    HW2 5449   0.267   3.242   4.056
 1831SOL     OW 5450   0.141   2.871   5.399
 1831SOL    HW1 5451   0.075   2.893   5.464
 1831SOL    HW2 5452   0.222   2.859   5.448
 1832SOL     OW 5453   0.685   2.054   5.220
 1832SOL    HW1 5454   0.769   2.028   5.183
 1832SOL    HW2 5455   0.707   2.086   5.308
 1833SOL     OW 5456   0.074   2.177   3.717
 1833SOL    HW1 5457   9.979   2.166   3.724
 1833SOL    HW2 5458   0.085   2.254   3.661
 1834SOL     OW 5459   1.415   2.716   5.112
 1834SOL    HW1 5460   1.362   2.774   5.057
 1834SOL    HW2 5461   1.503   2.720   5.075
 1835SOL     OW 5462   0.060   1.933   3.987
 1835SOL    HW1 5463   0.077   1.986   4.065
 1835SOL    HW2 5464   0.146   1.915   3.950
 1836SOL     OW 5465   1.181   3.185   3.846
 1836SOL    HW1 5466   1.088   3.161   3.845
 1836SOL    HW2 5467   1.204   3.187   3.939
 1837SOL     OW 5468   0.629   2.694   5.160
 1837SOL    HW1 5469   0.688   2.768   5.148
 1837SOL    HW2 5470   0.686   2.617   5.159
 1838SOL     OW 5471   1.488   3.664   4.717
 1838SOL    HW1 5472   1.513   3.739   4.662
 1838SOL    HW2 5473   1.570   3.622   4.739
 1839SOL     OW 5474   0.711   2.416   5.416
 1839SOL    HW1 5475   0.762   2.470   5.477
 1839SOL    HW2 5476   0.724   2.326   5.446
 1840SOL     OW 5477   1.469   3.046   5.343
 1840SOL    HW1 5478   1.461   3.069   5.436
 1840SOL    HW2 5479   1.558   3.070   5.320
 1841SOL     OW 5480   0.365   3.617   5.286
 1841SOL    HW1 5481   0.282   3.661   5.269
 1841SOL    HW2 5482   0.341   3.534   5.327
 1842SOL     OW 5483   1.655   2.737   4.977
 1842SOL    HW1 5484   1.653   2.654   4.930
 1842SOL    HW2 5485   1.643   2.803   4.909
 1843SOL     OW 5486   1.226   2.187   4.179
 1843SOL    HW1 5487   1.285   2.112   4.178
 1843SOL    HW2 5488   1.254   2.239   4.254
 1844SOL     OW 5489   0.569   2.591   4.403
 1844SOL    HW1 5490   0.617   2.673   4.394
 1844SOL    HW2 5491   0.511   2.588   4.327
 1845SOL     OW 5492   1.747   2.217   5.389
 1845SOL    HW1 5493   1.744   2.233   5.294
 1845SOL    HW2 5494   1.669   2.164   5.407
 1846SOL     OW 5495   1.760   2.786   5.228
 1846SOL    HW1 5496   1.743   2.880   5.240
 1846SOL    HW2 5497   1.733   2.769   5.137
 1847SOL     OW 5498   0.875   3.219   3.789
 1847SOL    HW1 5499   0.835   3.239   3.873
 1847SOL    HW2 5500   0.884   3.304   3.746
 1848SOL     OW 5501   0.674   3.638   4.642
 1848SOL    HW1 5502   0.649   3.731   4.635
 1848SOL    HW2 5503   0.770   3.639   4.643
 1849SOL     OW 5504   0.875   2.839   4.580
 1849SOL    HW1 5505   0.924   2.765   4.617
 1849SOL    HW2 5506   0.829   2.876   4.656
 1850SOL     OW 5507   1.062   2.833   3.805
 1850SOL    HW1 5508   1.047   2.894   3.733
 1850SOL    HW2 5509   1.140   2.784   3.780
 1851SOL     OW 5510   1.829   3.420   4.564
 1851SOL    HW1 5511   1.753   3.412   4.507
 1851SOL    HW2 5512   1.806   3.370   4.642
 1852SOL     OW 5513   0.239   3.163   5.563
 1852SOL    HW1 5514   0.148   3.167   5.533
 1852SOL    HW2 5515   0.234   3.173   5.658
 1853SOL     OW 5516   0.154   3.085   4.394
 1853SOL    HW1 5517   0.086   3.031   4.436
 1853SOL    HW2 5518   0.210   3.022   4.349
 1854SOL     OW 5519   0.699   3.282   5.357
 1854SOL    HW1 5520   0.621   3.240   5.395
 1854SOL    HW2 5521   0.700   3.370   5.394
 1855SOL     OW 5522   1.811   2.033   4.959
 1855SOL    HW1 5523   1.812   1.938   4.972
 1855SOL    HW2 5524   1.825   2.045   4.865
 1856SOL     OW 5525   0.434   2.305   4.244
 1856SOL    HW1 5526   0.493   2.238   4.211
 1856SOL    HW2 5527   0.409   2.275   4.331
 1857SOL     OW 5528   1.696   3.342   4.805
 1857SOL    HW1 5529   1.617   3.323   4.753
 1857SOL    HW2 5530   1.697   3.274   4.872
 1858SOL     OW 5531   0.365   2.432   5.008
 1858SOL    HW1 5532   0.415   2.369   5.061
 1858SOL    HW2 5533   0.369   2.397   4.919
 1859SOL     OW 5534   0.844   3.446   4.395
 1859SOL    HW1 5535   0.816   3.518   4.339
 1859SOL    HW2 5536   0.766   3.390   4.403
 1860SOL     OW 5537   1.421   2.094   4.838
 1860SOL    HW1 5538   1.428   2.005   4.871
 1860SOL    HW2 5539   1.376   2.141   4.908
 1861SOL     OW 5540   1.010   1.880   4.845
 1861SOL    HW1 5541   0.956   1.816   4.797
 1861SOL    HW2 5542   1.097   1.839   4.848
 1862SOL     OW 5543   0.776   3.194   4.053
 1862SOL    HW1 5544   0.753   3.102   4.066
 1862SOL    HW2 5545   0.856   3.207   4.104
 1863SOL     OW 5546   0.618   3.430   5.010
 1863SOL    HW1 5547   0.615   3.517   5.052
 1863SOL    HW2 5548   0.707   3.423   4.977
 1864SOL     OW 5549   1.382   1.901   3.915
 1864SOL    HW1 5550   1.423   1.829   3.868
 1864SOL    HW2 5551   1.291   1.874   3.926
 1865SOL     OW 5552   1.299   2.334   4.399
 1865SOL    HW1 5553   1.248   2.415   4.397
 1865SOL    HW2 5554   1.292   2.304   4.490
 1866SOL     OW 5555   1.583   2.050   4.617
 1866SOL    HW1 5556   1.530   2.079   4.692
 1866SOL    HW2 5557   1.583   2.124   4.557
 1867SOL     OW 5558   0.067   2.953   4.022
 1867SOL    HW1 5559   0.142   2.900   3.995
 1867SOL    HW2 5560   0.031   2.907   4.097
 1868SOL     OW 5561   0.902   3.532   4.051
 1868SOL    HW1 5562   0.822   3.520   4.000
 1868SOL    HW2 5563   0.880   3.601   4.114
 1869SOL     OW 5564   0.286   2.455   5.667
 1869SOL    HW1 5565   0.219   2.473   5.734
 1869SOL    HW2 5566   0.236   2.437   5.588
 1870SOL     OW 5567   0.198   2.142   6.584
 1870SOL    HW1 5568   0.235   2.107   6.665
 1870SOL    HW2 5569   0.106   2.116   6.586
 1871SOL     OW 5570   0.041   2.288   6.217
 1871SOL    HW1 5571   9.949   2.300   6.240
 1871SOL    HW2 5572   0.040   2.225   6.145
 1872SOL     OW 5573   0.569   3.170   6.788
 1872SOL    HW1 5574   0.486   3.172   6.741
 1872SOL    HW2 5575   0.586   3.261   6.811
 1873SOL     OW 5576   1.588   3.386   6.290
 1873SOL    HW1 5577   1.541   3.355   6.368
 1873SOL    HW2 5578   1.521   3.389   6.222
 1874SOL     OW 5579   1.139   2.567   6.273
 1874SOL    HW1 5580   1.185   2.650   6.262
 1874SOL    HW2 5581   1.090   2.577   6.355
 1875SOL     OW 5582   1.801   2.443   5.806
 1875SOL    HW1 5583   1.762   2.443   5.718
 1875SOL    HW2 5584   1.757   2.372   5.852
 1876SOL     OW 5585   0.728   2.992   6.643
 1876SOL    HW1 5586   0.666   3.032   6.704
 1876SOL    HW2 5587   0.771   3.066   6.600
 1877SOL     OW 5588   0.888   2.607   7.411
 1877SOL    HW1 5589   0.895   2.675   7.478
 1877SOL    HW2 5590   0.903   2.652   7.329
 1878SOL     OW 5591   0.687   2.845   6.234
 1878SOL    HW1 5592   0.757   2.844   6.299
 1878SOL    HW2 5593   0.624   2.908   6.268
 1879SOL     OW 5594   0.717   3.010   7.421
 1879SOL    HW1 5595   0.768   3.084   7.455
 1879SOL    HW2 5596   0.643   3.051   7.376
 1880SOL     OW 5597   0.335   3.287   6.649
 1880SOL    HW1 5598   0.258   3.271   6.593
 1880SOL    HW2 5599   0.393   3.339   6.594
 1881SOL     OW 5600   1.454   3.368   6.958
 1881SOL    HW1 5601   1.509   3.445   6.971
 1881SOL    HW2 5602   1.382   3.380   7.020
 1882SOL     OW 5603   0.478   2.247   7.036
 1882SOL    HW1 5604   0.550   2.186   7.053
 1882SOL    HW2 5605   0.400   2.202   7.067
 1883SOL     OW 5606   1.584   2.294   6.341
 1883SOL    HW1 5607   1.517   2.304   6.274
 1883SOL    HW2 5608   1.566   2.364   6.404
 1884SOL     OW 5609   0.222   3.522   6.013
 1884SOL    HW1 5610   0.183   3.588   6.070
 1884SOL    HW2 5611   0.304   3.561   5.983
 1885SOL     OW 5612   1.136   3.203   7.282
 1885SOL    HW1 5613   1.182   3.192   7.365
 1885SOL    HW2 5614   1.083   3.124   7.273
 1886SOL     OW 5615   0.286   3.265   6.088
 1886SOL    HW1 5616   0.256   3.355   6.084
 1886SOL    HW2 5617   0.231   3.224   6.155
 1887SOL     OW 5618   0.307   2.942   6.490
 1887SOL    HW1 5619   0.300   2.848   6.508
 1887SOL    HW2 5620   0.236   2.981   6.541
 1888SOL     OW 5621   0.585   3.672   6.995
 1888SOL    HW1 5622   0.507   3.651   7.047
 1888SOL    HW2 5623   0.618   3.753   7.033
 1889SOL     OW 5624   0.570   2.851   5.740
 1889SOL    HW1 5625   0.621   2.892   5.670
 1889SOL    HW2 5626   0.608   2.884   5.821
 1890SOL     OW 5627   1.592   1.994   7.046
 1890SOL    HW1 5628   1.630   2.070   7.002
 1890SOL    HW2 5629   1.560   2.028   7.130
 1891SOL     OW 5630   0.147   2.537   6.159
 1891SOL    HW1 5631   0.113   2.452   6.186
 1891SOL    HW2 5632   0.124   2.596   6.231
 1892SOL     OW 5633   1.846   3.605   5.904
 1892SOL    HW1 5634   1.919   3.590   5.965
 1892SOL    HW2 5635   1.854   3.698   5.881
 1893SOL     OW 5636   0.029   3.483   5.785
 1893SOL    HW1 5637   0.011   3.389   5.782
 1893SOL    HW2 5638   0.087   3.493   5.861
 1894SOL     OW 5639   1.698   2.788   6.238
 1894SOL    HW1 5640   1.779   2.743   6.215
 1894SOL    HW2 5641   1.676   2.840   6.161
 1895SOL     OW 5642   1.656   2.967   6.019
 1895SOL    HW1 5643   1.741   2.959   5.975
 1895SOL    HW2 5644   1.671   3.032   6.087
 1896SOL     OW 5645   0.178   2.617   7.155
 1896SOL    HW1 5646   0.273   2.615   7.160
 1896SOL    HW2 5647   0.154   2.707   7.176
 1897SOL     OW 5648   0.627   3.260   6.324
 1897SOL    HW1 5649   0.584   3.174   6.331
 1897SOL    HW2 5650   0.610   3.288   6.234
 1898SOL     OW 5651   1.271   3.087   7.003
 1898SOL    HW1 5652   1.298   3.018   6.943
 1898SOL    HW2 5653   1.333   3.082   7.076
 1899SOL     OW 5654   0.854   1.869   6.106
 1899SOL    HW1 5655   0.893   1.951   6.076
 1899SOL    HW2 5656   0.760   1.886   6.106
 1900SOL     OW 5657   0.164   2.801   6.862
 1900SOL    HW1 5658   0.253   2.767   6.853
 1900SOL    HW2 5659   0.134   2.815   6.772
 1901SOL     OW 5660   1.534   2.877   5.786
 1901SOL    HW1 5661   1.465   2.817   5.816
 1901SOL    HW2 5662   1.576   2.907   5.866
 1902SOL     OW 5663   1.176   3.685   7.223
 1902SOL    HW1 5664   1.179   3.747   7.151
 1902SOL    HW2 5665   1.195   3.600   7.183
 1903SOL     OW 5666   0.341   2.113   7.372
 1903SOL    HW1 5667   0.384   2.181   7.423
 1903SOL    HW2 5668   0.250   2.117   7.399
 1904SOL     OW 5669   1.472   3.280   6.517
 1904SOL    HW1 5670   1.408   3.299   6.586
 1904SOL    HW2 5671   1.455   3.189   6.492
 1905SOL     OW 5672   1.637   3.658   6.148
 1905SOL    HW1 5673   1.621   3.611   6.066
 1905SOL    HW2 5674   1.637   3.589   6.215
 1906SOL     OW 5675   0.616   2.582   5.867
 1906SOL    HW1 5676   0.620   2.667   5.823
 1906SOL    HW2 5677   0.545   2.591   5.930
 1907SOL     OW 5678   1.282   2.255   6.527
 1907SOL    HW1 5679   1.193   2.220   6.532
 1907SOL    HW2 5680   1.334   2.197   6.582
 1908SOL     OW 5681   1.579   3.535   5.905
 1908SOL    HW1 5682   1.673   3.550   5.894
 1908SOL    HW2 5683   1.546   3.522   5.816
 1909SOL     OW 5684   0.790   2.473   7.021
 1909SOL    HW1 5685   0.762   2.445   7.108
 1909SOL    HW2 5686   0.765   2.401   6.964
 1910SOL     OW 5687   1.391   2.339   7.259
 1910SOL    HW1 5688   1.397   2.382   7.344
 1910SOL    HW2 5689   1.442   2.258   7.270
 1911SOL     OW 5690   0.945   2.743   7.176
 1911SOL    HW1 5691   1.000   2.679   7.132
 1911SOL    HW2 5692   0.897   2.787   7.105
 1912SOL     OW 5693   1.009   2.259   6.795
 1912SOL    HW1 5694   0.917   2.273   6.817
 1912SOL    HW2 5695   1.007   2.215   6.710
 1913SOL     OW 5696   1.065   2.562   6.005
 1913SOL    HW1 5697   1.086   2.559   6.099
 1913SOL    HW2 5698   0.982   2.516   5.998
 1914SOL     OW 5699   0.074   2.699   6.389
 1914SOL    HW1 5700   0.159   2.690   6.432
 1914SOL    HW2 5701   0.015   2.731   6.458
 1915SOL     OW 5702   0.112   3.725   7.167
 1915SOL    HW1 5703   0.110   3.719   7.262
 1915SOL    HW2 5704   0.058   3.652   7.137
 1916SOL     OW 5705   0.896   2.210   5.785
 1916SOL    HW1 5706   0.943   2.267   5.724
 1916SOL    HW2 5707   0.878   2.131   5.735
 1917SOL     OW 5708   1.686   2.425   7.426
 1917SOL    HW1 5709   1.665   2.502   7.374
 1917SOL    HW2 5710   1.715   2.360   7.362
 1918SOL     OW 5711   1.393   3.011   6.128
 1918SOL    HW1 5712   1.472   3.000   6.076
 1918SOL    HW2 5713   1.339   3.072   6.077
 1919SOL     OW 5714   0.562   2.032   6.501
 1919SOL    HW1 5715   0.566   2.058   6.593
 1919SOL    HW2 5716   0.554   2.115   6.453
 1920SOL     OW 5717   0.995   3.313   6.051
 1920SOL    HW1 5718   0.974   3.388   5.996
 1920SOL    HW2 5719   0.967   3.338   6.139
 1921SOL     OW 5720   0.339   3.666   6.531
 1921SOL    HW1 5721   0.387   3.587   6.508
 1921SOL    HW2 5722   0.397   3.738   6.505
 1922SOL     OW 5723   1.804   2.905   6.476
 1922SOL    HW1 5724   1.756   2.890   6.394
 1922SOL    HW2 5725   1.735   2.914   6.542
 1923SOL     OW 5726   1.218   3.406   7.103
 1923SOL    HW1 5727   1.207   3.334   7.165
 1923SOL    HW2 5728   1.150   3.391   7.037
 1924SOL     OW 5729   0.313   2.800   5.862
 1924SOL    HW1 5730   0.391   2.816   5.808
 1924SOL    HW2 5731   0.328   2.714   5.901
 1925SOL     OW 5732   1.485   2.625   6.297
 1925SOL    HW1 5733   1.487   2.582   6.382
 1925SOL    HW2 5734   1.564   2.679   6.295
 1926SOL     OW 5735   0.485   3.137   7.321
 1926SOL    HW1 5736   0.462   3.144   7.229
 1926SOL    HW2 5737   0.401   3.128   7.366
 1927SOL     OW 5738   1.142   3.638   5.809
 1927SOL    HW1 5739   1.061   3.606   5.849
 1927SOL    HW2 5740   1.163   3.574   5.741
 1928SOL     OW 5741   0.221   2.143   7.083
 1928SOL    HW1 5742   0.130   2.172   7.069
 1928SOL    HW2 5743   0.214   2.074   7.148
 1929SOL     OW 5744   1.638   3.250   5.687
 1929SOL    HW1 5745   1.598   3.336   5.673
 1929SOL    HW2 5746   1.571   3.187   5.659
 1930SOL     OW 5747   0.471   3.610   5.905
 1930SOL    HW1 5748   0.520   3.659   5.972
 1930SOL    HW2 5749   0.539   3.566   5.854
 1931SOL     OW 5750   1.398   1.968   6.044
 1931SOL    HW1 5751   1.398   1.943   5.952
 1931SOL    HW2 5752   1.489   1.955   6.072
 1932SOL     OW 5753   0.258   3.653   6.802
 1932SOL    HW1 5754   0.302   3.574   6.836
 1932SOL    HW2 5755   0.274   3.650   6.708
 1933SOL     OW 5756   0.954   3.565   6.478
 1933SOL    HW1 5757   1.038   3.522   6.492
 1933SOL    HW2 5758   0.912   3.513   6.408
 1934SOL     OW 5759   0.394   2.566   6.039
 1934SOL    HW1 5760   0.414   2.472   6.048
 1934SOL    HW2 5761   0.309   2.576   6.081
 1935SOL     OW 5762   1.508   2.085   7.303
 1935SOL    HW1 5763   1.521   2.104   7.396
 1935SOL    HW2 5764   1.442   2.015   7.301
 1936SOL     OW 5765   0.658   1.965   5.685
 1936SOL    HW1 5766   0.707   1.887   5.709
 1936SOL    HW2 5767   0.599   1.937   5.615
 1937SOL     OW 5768   0.757   2.139   7.341
 1937SOL    HW1 5769   0.842   2.094   7.340
 1937SOL    HW2 5770   0.711   2.101   7.416
 1938SOL     OW 5771   0.870   3.388   6.784
 1938SOL    HW1 5772   0.853   3.346   6.700
 1938SOL    HW2 5773   0.938   3.333   6.824
 1939SOL     OW 5774   1.329   2.454   7.019
 1939SOL    HW1 5775   1.362   2.423   7.103
 1939SOL    HW2 5776   1.368   2.541   7.008
 1940SOL     OW 5777   0.819   3.238   6.543
 1940SOL    HW1 5778   0.906   3.234   6.503
 1940SOL    HW2 5779   0.760   3.254   6.470
 1941SOL     OW 5780   0.929   2.377   6.474
 1941SOL    HW1 5781   0.904   2.364   6.382
 1941SOL    HW2 5782   0.956   2.290   6.504
 1942SOL     OW 5783   0.592   1.922   6.079
 1942SOL    HW1 5784   0.522   1.928   6.145
 1942SOL    HW2 5785   0.577   1.997   6.021
 1943SOL     OW 5786   1.434   3.075   5.618
 1943SOL    HW1 5787   1.463   3.001   5.671
 1943SOL    HW2 5788   1.348   3.098   5.655
 1944SOL     OW 5789   0.309   1.903   5.747
 1944SOL    HW1 5790   0.338   1.993   5.762
 1944SOL    HW2 5791   0.370   1.849   5.797
 1945SOL     OW 5792   0.959   2.113   6.036
 1945SOL    HW1 5793   0.932   2.148   5.951
 1945SOL    HW2 5794   1.053   2.133   6.041
 1946SOL     OW 5795   1.075   2.555   7.030
 1946SOL    HW1 5796   1.011   2.483   7.036
 1946SOL    HW2 5797   1.160   2.512   7.027
 1947SOL     OW 5798   1.209   3.448   6.388
 1947SOL    HW1 5799   1.223   3.509   6.315
 1947SOL    HW2 5800   1.283   3.465   6.447
 1948SOL     OW 5801   0.490   3.021   6.308
 1948SOL    HW1 5802   0.430   2.999   6.379
 1948SOL    HW2 5803   0.440   3.004   6.228
 1949SOL     OW 5804   1.254   3.653   6.203
 1949SOL    HW1 5805   1.303   3.716   6.150
 1949SOL    HW2 5806   1.184   3.705   6.243
 1950SOL     OW 5807   1.032   2.379   5.614
 1950SOL    HW1 5808   0.989   2.462   5.595
 1950SOL    HW2 5809   1.096   2.400   5.683
 1951SOL     OW 5810   0.104   2.446   6.947
 1951SOL    HW1 5811   0.195   2.435   6.918
 1951SOL    HW2 5812   0.110   2.504   7.023
 1952SOL     OW 5813   0.564   2.084   6.771
 1952SOL    HW1 5814   0.599   2.014   6.826
 1952SOL    HW2 5815   0.470   2.084   6.790
 1953SOL     OW 5816   0.870   2.313   6.216
 1953SOL    HW1 5817   0.839   2.370   6.146
 1953SOL    HW2 5818   0.898   2.233   6.171
 1954SOL     OW 5819   1.028   1.920   6.329
 1954SOL    HW1 5820   0.969   1.910   6.254
 1954SOL    HW2 5821   1.004   1.847   6.387
 1955SOL     OW 5822   1.435   3.016   6.440
 1955SOL    HW1 5823   1.364   2.952   6.448
 1955SOL    HW2 5824   1.451   3.023   6.346
 1956SOL     OW 5825   1.463   2.478   6.535
 1956SOL    HW1 5826   1.399   2.408   6.545
 1956SOL    HW2 5827   1.518   2.472   6.612
 1957SOL     OW 5828   1.828   2.658   5.973
 1957SOL    HW1 5829   1.889   2.615   6.034
 1957SOL    HW2 5830   1.815   2.594   5.903
 1958SOL     OW 5831   0.493   3.291   5.720
 1958SOL    HW1 5832   0.409   3.269   5.759
 1958SOL    HW2 5833   0.499   3.236   5.642
 1959SOL     OW 5834   1.707   3.133   6.221
 1959SOL    HW1 5835   1.800   3.126   6.241
 1959SOL    HW2 5836   1.683   3.222   6.246
 1960SOL     OW 5837   1.393   2.438   5.650
 1960SOL    HW1 5838   1.338   2.411   5.723
 1960SOL    HW2 5839   1.482   2.414   5.678
 1961SOL     OW 5840   0.548   2.116   5.893
 1961SOL    HW1 5841   0.593   2.067   5.823
 1961SOL    HW2 5842   0.528   2.201   5.855
 1962SOL     OW 5843   1.735   3.106   7.118
 1962SOL    HW1 5844   1.823   3.072   7.104
 1962SOL    HW2 5845   1.749   3.194   7.155
 1963SOL     OW 5846   1.043   3.217   6.921
 1963SOL    HW1 5847   0.966   3.182   6.965
 1963SOL    HW2 5848   1.117   3.171   6.961
 1964SOL     OW 5849   1.608   3.497   7.258
 1964SOL    HW1 5850   1.597   3.533   7.170
 1964SOL    HW2 5851   1.686   3.441   7.251
 1965SOL     OW 5852   1.152   3.099   6.691
 1965SOL    HW1 5853   1.090   3.133   6.755
 1965SOL    HW2 5854   1.119   3.131   6.607
 1966SOL     OW 5855   1.609   2.953   6.663
 1966SOL    HW1 5856   1.601   3.020   6.731
 1966SOL    HW2 5857   1.540   2.974   6.600
 1967SOL     OW 5858   0.921   1.943   6.970
 1967SOL    HW1 5859   0.941   1.928   6.878
 1967SOL    HW2 5860   1.001   1.984   7.005
 1968SOL     OW 5861   0.981   2.978   7.308
 1968SOL    HW1 5862   0.890   2.993   7.337
 1968SOL    HW2 5863   0.976   2.897   7.256
 1969SOL     OW 5864   0.711   2.924   5.966
 1969SOL    HW1 5865   0.697   2.899   6.057
 1969SOL    HW2 5866   0.787   2.873   5.939
 1970SOL     OW 5867   0.420   2.697   6.846
 1970SOL    HW1 5868   0.489   2.708   6.912
 1970SOL    HW2 5869   0.396   2.604   6.852
 1971SOL     OW 5870   1.265   2.230   6.878
 1971SOL    HW1 5871   1.293   2.310   6.922
 1971SOL    HW2 5872   1.176   2.248   6.848
 1972SOL     OW 5873   0.075   3.444   6.916
 1972SOL    HW1 5874   0.075   3.523   6.861
 1972SOL    HW2 5875   0.168   3.426   6.931
 1973SOL     OW 5876   0.340   2.975   6.081
 1973SOL    HW1 5877   0.338   3.063   6.043
 1973SOL    HW2 5878   0.331   2.916   6.006
 1974SOL     OW 5879   0.535   2.378   6.440
 1974SOL    HW1 5880   0.546   2.442   6.369
 1974SOL    HW2 5881   0.601   2.404   6.505
 1975SOL     OW 5882   1.246   3.215   5.983
 1975SOL    HW1 5883   1.302   3.285   6.017
 1975SOL    HW2 5884   1.159   3.237   6.015
 1976SOL     OW 5885   1.309   3.331   6.729
 1976SOL    HW1 5886   1.357   3.337   6.812
 1976SOL    HW2 5887   1.258   3.250   6.737
 1977SOL     OW 5888   1.575   2.479   6.072
 1977SOL    HW1 5889   1.524   2.521   6.141
 1977SOL    HW2 5890   1.625   2.551   6.033
 1978SOL     OW 5891   0.348   3.395   6.894
 1978SOL    HW1 5892   0.335   3.351   6.810
 1978SOL    HW2 5893   0.442   3.411   6.899
 1979SOL     OW 5894   0.451   2.596   7.206
 1979SOL    HW1 5895   0.507   2.639   7.142
 1979SOL    HW2 5896   0.500   2.519   7.233
 1980SOL     OW 5897   1.627   2.648   7.284
 1980SOL    HW1 5898   1.540   2.686   7.275
 1980SOL    HW2 5899   1.678   2.686   7.212
 1981SOL     OW 5900   0.994   2.005   7.347
 1981SOL    HW1 5901   1.052   2.078   7.327
 1981SOL    HW2 5902   1.044   1.927   7.325
 1982SOL     OW 5903   0.504   1.895   7.333
 1982SOL    HW1 5904   0.456   1.843   7.268
 1982SOL    HW2 5905   0.450   1.973   7.345
 1983SOL     OW 5906   0.591   2.736   6.627
 1983SOL    HW1 5907   0.628   2.824   6.626
 1983SOL    HW2 5908   0.531   2.736   6.701
 1984SOL     OW 5909   1.309   2.714   6.590
 1984SOL    HW1 5910   1.221   2.687   6.564
 1984SOL    HW2 5911   1.364   2.639   6.570
 1985SOL     OW 5912   1.200   2.386   5.842
 1985SOL    HW1 5913   1.212   2.310   5.898
 1985SOL    HW2 5914   1.161   2.452   5.899
 1986SOL     OW 5915   0.296   2.058   6.826
 1986SOL    HW1 5916   0.270   2.088   6.913
 1986SOL    HW2 5917   0.278   1.964   6.827
 1987SOL     OW 5918   0.007   3.181   6.865
 1987SOL    HW1 5919   0.053   3.134   6.934
 1987SOL    HW2 5920   0.021   3.274   6.886
 1988SOL     OW 5921   0.709   2.483   6.625
 1988SOL    HW1 5922   0.787   2.478   6.570
 1988SOL    HW2 5923   0.681   2.574   6.618
 1989SOL     OW 5924   1.751   2.830   7.456
 1989SOL    HW1 5925   1.711   2.757   7.407
 1989SOL    HW2 5926   1.687   2.850   7.524
 1990SOL     OW 5927   0.375   1.951   6.236
 1990SOL    HW1 5928   0.349   2.032   6.281
 1990SOL    HW2 5929   0.301   1.891   6.250
 1991SOL     OW 5930   1.632   2.252   5.930
 1991SOL    HW1 5931   1.664   2.187   5.992
 1991SOL    HW2 5932   1.602   2.325   5.985
 1992SOL     OW 5933   1.035   2.619   6.542
 1992SOL    HW1 5934   1.013   2.634   6.634
 1992SOL    HW2 5935   1.004   2.530   6.524
 1993SOL     OW 5936   0.981   3.426   7.320
 1993SOL    HW1 5937   0.961   3.470   7.238
 1993SOL    HW2 5938   1.020   3.343   7.294
 1994SOL     OW 5939   1.838   3.357   7.188
 1994SOL    HW1 5940   1.865   3.385   7.101
 1994SOL    HW2 5941   1.917   3.368   7.242
 1995SOL     OW 5942   0.363   2.780   7.397
 1995SOL    HW1 5943   0.437   2.805   7.454
 1995SOL    HW2 5944   0.399   2.714   7.338
 1996SOL     OW 5945   1.522   2.131   5.705
 1996SOL    HW1 5946   1.470   2.060   5.742
 1996SOL    HW2 5947   1.561   2.175   5.780
 1997SOL     OW 5948   1.281   2.684   5.605
 1997SOL    HW1 5949   1.321   2.597   5.613
 1997SOL    HW2 5950   1.317   2.720   5.525
 1998SOL     OW 5951   1.073   3.215   6.452
 1998SOL    HW1 5952   1.083   3.142   6.390
 1998SOL    HW2 5953   1.124   3.286   6.414
 1999SOL     OW 5954   0.317   2.666   6.527
 1999SOL    HW1 5955   0.412   2.681   6.526
 1999SOL    HW2 5956   0.308   2.575   6.557
 2000SOL     OW 5957   0.314   2.388   6.596
 2000SOL    HW1 5958   0.271   2.303   6.588
 2000SOL    HW2 5959   0.389   2.383   6.536
 2001SOL     OW 5960   1.138   2.230   7.272
 2001SOL    HW1 5961   1.093   2.282   7.338
 2001SOL    HW2 5962   1.223   2.272   7.262
 2002SOL     OW 5963   1.158   2.052   7.061
 2002SOL    HW1 5964   1.146   2.114   7.132
 2002SOL    HW2 5965   1.204   2.101   6.993
 2003SOL     OW 5966   9.969   3.196   5.807
 2003SOL    HW1 5967   9.918   3.184   5.726
 2003SOL    HW2 5968   9.989   3.106   5.835
 2004SOL     OW 5969   0.079   3.547   6.534
 2004SOL    HW1 5970   0.113   3.463   6.503
 2004SOL    HW2 5971   0.152   3.608   6.522
 2005SOL     OW 5972   0.497   3.438   6.493
 2005SOL    HW1 5973   0.565   3.505   6.505
 2005SOL    HW2 5974   0.536   3.375   6.433
 2006SOL     OW 5975   0.949   2.641   6.799
 2006SOL    HW1 5976   1.011   2.630   6.872
 2006SOL    HW2 5977   0.869   2.596   6.828
 2007SOL     OW 5978   0.040   2.428   6.672
 2007SOL    HW1 5979   0.132   2.430   6.648
 2007SOL    HW2 5980   0.039   2.432   6.767
 2008SOL     OW 5981   0.171   2.378   7.285
 2008SOL    HW1 5982   0.227   2.326   7.227
 2008SOL    HW2 5983   0.160   2.461   7.239
 2009SOL     OW 5984   1.392   2.783   7.238
 2009SOL    HW1 5985   1.409   2.877   7.232
 2009SOL    HW2 5986   1.384   2.755   7.146
 2010SOL     OW 5987   0.829   2.429   5.961
 2010SOL    HW1 5988   0.832   2.356   5.899
 2010SOL    HW2 5989   0.757   2.484   5.930
 2011SOL     OW 5990   1.635   2.463   6.749
 2011SOL    HW1 5991   1.625   2.404   6.824
 2011SOL    HW2 5992   1.726   2.452   6.722
 2012SOL     OW 5993   0.257   3.422   7.309
 2012SOL    HW1 5994   0.263   3.460   7.397
 2012SOL    HW2 5995   0.265   3.328   7.324
 2013SOL     OW 5996   0.737   2.296   6.821
 2013SOL    HW1 5997   0.673   2.226   6.808
 2013SOL    HW2 5998   0.717   2.359   6.752
 2014SOL     OW 5999   0.905   3.541   7.075
 2014SOL    HW1 6000   0.882   3.494   6.996
 2014SOL    HW2 6001   0.908   3.633   7.048
 2015SOL     OW 6002   0.518   2.350   5.757
 2015SOL    HW1 6003   0.567   2.426   5.790
 2015SOL    HW2 6004   0.438   2.387   5.720
 2016SOL     OW 6005   0.156   3.016   7.028
 2016SOL    HW1 6006   0.149   2.975   7.114
 2016SOL    HW2 6007   0.165   2.943   6.967
 2017SOL     OW 6008   1.304   2.896   6.795
 2017SOL    HW1 6009   1.313   2.832   6.724
 2017SOL    HW2 6010   1.250   2.966   6.757
 2018SOL     OW 6011   1.324   2.723   5.877
 2018SOL    HW1 6012   1.254   2.686   5.931
 2018SOL    HW2 6013   1.296   2.707   5.787
 2019SOL     OW 6014   1.787   3.586   6.757
 2019SOL    HW1 6015   1.849   3.612   6.688
 2019SOL    HW2 6016   1.755   3.500   6.729
 2020SOL     OW 6017   1.241   3.596   6.678
 2020SOL    HW1 6018   1.325   3.625   6.643
 2020SOL    HW2 6019   1.256   3.505   6.702
 2021SOL     OW 6020   0.100   3.035   6.638
 2021SOL    HW1 6021   0.104   3.095   6.713
 2021SOL    HW2 6022   0.008   3.031   6.615
 2022SOL     OW 6023   0.692   3.545   7.335
 2022SOL    HW1 6024   0.632   3.618   7.321
 2022SOL    HW2 6025   0.767   3.565   7.278
 2023SOL     OW 6026   1.744   2.046   6.083
 2023SOL    HW1 6027   1.803   2.026   6.010
 2023SOL    HW2 6028   1.717   1.960   6.116
 2024SOL     OW 6029   1.397   3.431   6.088
 2024SOL    HW1 6030   1.452   3.466   6.018
 2024SOL    HW2 6031   1.342   3.505   6.115
 2025SOL     OW 6032   0.114   3.658   7.442
 2025SOL    HW1 6033   0.075   3.605   7.512
 2025SOL    HW2 6034   0.186   3.704   7.485
 2026SOL     OW 6035   1.280   2.798   6.251
 2026SOL    HW1 6036   1.353   2.739   6.264
 2026SOL    HW2 6037   1.315   2.870   6.198
 2027SOL     OW 6038   0.784   3.143   6.998
 2027SOL    HW1 6039   0.760   3.191   7.077
 2027SOL    HW2 6040   0.710   3.155   6.939
 2028SOL     OW 6041   0.673   3.495   5.744
 2028SOL    HW1 6042   0.689   3.510   5.651
 2028SOL    HW2 6043   0.617   3.417   5.747
 2029SOL     OW 6044   1.616   3.592   6.988
 2029SOL    HW1 6045   1.673   3.592   6.911
 2029SOL    HW2 6046   1.600   3.684   7.006
 2030SOL     OW 6047   1.845   2.022   6.551
 2030SOL    HW1 6048   1.873   1.933   6.530
 2030SOL    HW2 6049   1.758   2.029   6.513
 2031SOL     OW 6050   0.276   2.188   6.324
 2031SOL    HW1 6051   0.198   2.231   6.289
 2031SOL    HW2 6052   0.256   2.172   6.416
 2032SOL     OW 6053   1.211   3.450   5.622
 2032SOL    HW1 6054   1.201   3.359   5.650
 2032SOL    HW2 6055   1.142   3.464   5.558
 2033SOL     OW 6056   0.826   2.875   6.968
 2033SOL    HW1 6057   0.861   2.866   6.880
 2033SOL    HW2 6058   0.814   2.969   6.980
 2034SOL     OW 6059   0.920   2.775   5.888
 2034SOL    HW1 6060   0.972   2.803   5.813
 2034SOL    HW2 6061   0.974   2.708   5.931
 2035SOL     OW 6062   1.485   3.507   5.644
 2035SOL    HW1 6063   1.392   3.487   5.627
 2035SOL    HW2 6064   1.525   3.511   5.557
 2036SOL     OW 6065   0.372   3.182   7.081
 2036SOL    HW1 6066   0.362   3.257   7.023
 2036SOL    HW2 6067   0.298   3.125   7.058
 2037SOL     OW 6068   1.599   3.152   6.862
 2037SOL    HW1 6069   1.654   3.128   6.937
 2037SOL    HW2 6070   1.540   3.219   6.897
 2038SOL     OW 6071   1.077   2.982   6.314
 2038SOL    HW1 6072   1.002   2.932   6.347
 2038SOL    HW2 6073   1.139   2.915   6.285
 2039SOL     OW 6074   1.033   2.111   6.547
 2039SOL    HW1 6075   1.033   2.068   6.462
 2039SOL    HW2 6076   1.026   2.039   6.610
 2040SOL     OW 6077   0.606   3.349   6.070
 2040SOL    HW1 6078   0.658   3.301   6.004
 2040SOL    HW2 6079   0.518   3.354   6.032
 2041SOL     OW 6080   1.745   2.244   6.975
 2041SOL    HW1 6081   1.816   2.308   6.970
 2041SOL    HW2 6082   1.772   2.175   6.914
 2042SOL     OW 6083   0.243   3.223   5.828
 2042SOL    HW1 6084   0.149   3.210   5.829
 2042SOL    HW2 6085   0.267   3.242   5.918
 2043SOL     OW 6086   0.141   2.871   7.260
 2043SOL    HW1 6087   0.075   2.893   7.326
 2043SOL    HW2 6088   0.222   2.860   7.310
 2044SOL     OW 6089   0.685   2.054   7.083
 2044SOL    HW1 6090   0.769   2.028   7.045
 2044SOL    HW2 6091   0.707   2.086   7.170
 2045SOL     OW 6092   0.073   2.177   5.579
 2045SOL    HW1 6093   9.979   2.166   5.585
 2045SOL    HW2 6094   0.085   2.254   5.523
 2046SOL     OW 6095   1.415   2.716   6.974
 2046SOL    HW1 6096   1.362   2.774   6.919
 2046SOL    HW2 6097   1.503   2.720   6.937
 2047SOL     OW 6098   0.060   1.933   5.849
 2047SOL    HW1 6099   0.077   1.986   5.927
 2047SOL    HW2 6100   0.147   1.915   5.812
 2048SOL     OW 6101   1.181   3.185   5.708
 2048SOL    HW1 6102   1.088   3.161   5.707
 2048SOL    HW2 6103   1.204   3.187   5.801
 2049SOL     OW 6104   0.629   2.694   7.022
 2049SOL    HW1 6105   0.687   2.768   7.010
 2049SOL    HW2 6106   0.686   2.618   7.021
 2050SOL     OW 6107   1.487   3.665   6.578
 2050SOL    HW1 6108   1.513   3.739   6.523
 2050SOL    HW2 6109   1.570   3.621   6.599
 2051SOL     OW 6110   0.711   2.416   7.278
 2051SOL    HW1 6111   0.762   2.470   7.339
 2051SOL    HW2 6112   0.723   2.326   7.308
 2052SOL     OW 6113   1.469   3.046   7.205
 2052SOL    HW1 6114   1.462   3.069   7.298
 2052SOL    HW2 6115   1.558   3.070   7.182
 2053SOL     OW 6116   0.365   3.617   7.148
 2053SOL    HW1 6117   0.282   3.661   7.131
 2053SOL    HW2 6118   0.341   3.534   7.189
 2054SOL     OW 6119   1.655   2.737   6.839
 2054SOL    HW1 6120   1.653   2.654   6.792
 2054SOL    HW2 6121   1.643   2.803   6.771
 2055SOL     OW 6122   1.226   2.187   6.041
 2055SOL    HW1 6123   1.285   2.112   6.040
 2055SOL    HW2 6124   1.254   2.239   6.116
 2056SOL     OW 6125   0.569   2.591   6.265
 2056SOL    HW1 6126   0.617   2.673   6.256
 2056SOL    HW2 6127   0.511   2.588   6.189
 2057SOL     OW 6128   1.747   2.217   7.251
 2057SOL    HW1 6129   1.744   2.233   7.156
 2057SOL    HW2 6130   1.670   2.164   7.269
 2058SOL     OW 6131   1.760   2.786   7.090
 2058SOL    HW1 6132   1.743   2.880   7.102
 2058SOL    HW2 6133   1.733   2.769   6.999
 2059SOL     OW 6134   0.875   3.219   5.651
 2059SOL    HW1 6135   0.835   3.239   5.735
 2059SOL    HW2 6136   0.884   3.304   5.607
 2060SOL     OW 6137   0.673   3.639   6.504
 2060SOL    HW1 6138   0.648   3.731   6.496
 2060SOL    HW2 6139   0.769   3.640   6.505
 2061SOL     OW 6140   0.874   2.839   6.442
 2061SOL    HW1 6141   0.924   2.765   6.479
 2061SOL    HW2 6142   0.829   2.876   6.518
 2062SOL     OW 6143   1.061   2.833   5.667
 2062SOL    HW1 6144   1.047   2.894   5.595
 2062SOL    HW2 6145   1.140   2.784   5.642
 2063SOL     OW 6146   1.829   3.420   6.426
 2063SOL    HW1 6147   1.753   3.412   6.369
 2063SOL    HW2 6148   1.807   3.369   6.504
 2064SOL     OW 6149   0.239   3.163   7.425
 2064SOL    HW1 6150   0.147   3.167   7.396
 2064SOL    HW2 6151   0.234   3.173   7.520
 2065SOL     OW 6152   0.154   3.085   6.256
 2065SOL    HW1 6153   0.088   3.030   6.299
 2065SOL    HW2 6154   0.210   3.023   6.210
 2066SOL     OW 6155   0.699   3.281   7.219
 2066SOL    HW1 6156   0.621   3.240   7.257
 2066SOL    HW2 6157   0.700   3.370   7.256
 2067SOL     OW 6158   1.810   2.033   6.821
 2067SOL    HW1 6159   1.812   1.938   6.834
 2067SOL    HW2 6160   1.824   2.045   6.727
 2068SOL     OW 6161   0.433   2.305   6.106
 2068SOL    HW1 6162   0.494   2.238   6.073
 2068SOL    HW2 6163   0.410   2.275   6.194
 2069SOL     OW 6164   1.696   3.342   6.667
 2069SOL    HW1 6165   1.617   3.323   6.616
 2069SOL    HW2 6166   1.697   3.274   6.735
 2070SOL     OW 6167   0.365   2.432   6.870
 2070SOL    HW1 6168   0.415   2.369   6.923
 2070SOL    HW2 6169   0.368   2.397   6.781
 2071SOL     OW 6170   0.844   3.446   6.257
 2071SOL    HW1 6171   0.817   3.519   6.201
 2071SOL    HW2 6172   0.766   3.391   6.264
 2072SOL     OW 6173   1.421   2.095   6.701
 2072SOL    HW1 6174   1.429   2.005   6.733
 2072SOL    HW2 6175   1.376   2.141   6.770
 2073SOL     OW 6176   1.011   1.880   6.707
 2073SOL    HW1 6177   0.956   1.816   6.659
 2073SOL    HW2 6178   1.097   1.839   6.710
 2074SOL     OW 6179   0.776   3.194   5.915
 2074SOL    HW1 6180   0.753   3.102   5.928
 2074SOL    HW2 6181   0.856   3.207   5.966
 2075SOL     OW 6182   0.618   3.430   6.873
 2075SOL    HW1 6183   0.615   3.517   6.914
 2075SOL    HW2 6184   0.707   3.423   6.839
 2076SOL     OW 6185   1.382   1.901   5.777
 2076SOL    HW1 6186   1.423   1.828   5.730
 2076SOL    HW2 6187   1.291   1.874   5.788
 2077SOL     OW 6188   1.299   2.334   6.261
 2077SOL    HW1 6189   1.248   2.415   6.259
 2077SOL    HW2 6190   1.292   2.304   6.352
 2078SOL     OW 6191   1.582   2.050   6.479
 2078SOL    HW1 6192   1.530   2.079   6.553
 2078SOL    HW2 6193   1.583   2.124   6.419
 2079SOL     OW 6194   0.067   2.953   5.883
 2079SOL    HW1 6195   0.142   2.900   5.856
 2079SOL    HW2 6196   0.031   2.907   5.959
 2080SOL     OW 6197   0.902   3.532   5.913
 2080SOL    HW1 6198   0.821   3.519   5.862
 2080SOL    HW2 6199   0.880   3.601   5.976
 2081SOL     OW 6200   0.286   2.454   7.529
 2081SOL    HW1 6201   0.219   2.474   7.595
 2081SOL    HW2 6202   0.236   2.436   7.450
 2082SOL     OW 6203   0.198   2.143   8.446
 2082SOL    HW1 6204   0.234   2.106   8.527
 2082SOL    HW2 6205   0.106   2.117   8.448
 2083SOL     OW 6206   0.041   2.288   8.076
 2083SOL    HW1 6207   9.947   2.299   8.093
 2083SOL    HW2 6208   0.045   2.223   8.005
 2084SOL     OW 6209   0.569   3.170   8.650
 2084SOL    HW1 6210   0.486   3.173   8.603
 2084SOL    HW2 6211   0.586   3.262   8.673
 2085SOL     OW 6212   1.588   3.386   8.153
 2085SOL    HW1 6213   1.541   3.355   8.230
 2085SOL    HW2 6214   1.521   3.389   8.084
 2086SOL     OW 6215   1.138   2.567   8.136
 2086SOL    HW1 6216   1.185   2.650   8.124
 2086SOL    HW2 6217   1.090   2.578   8.218
 2087SOL     OW 6218   1.801   2.443   7.667
 2087SOL    HW1 6219   1.762   2.443   7.580
 2087SOL    HW2 6220   1.757   2.371   7.714
 2088SOL     OW 6221   0.727   2.992   8.504
 2088SOL    HW1 6222   0.665   3.032   8.566
 2088SOL    HW2 6223   0.770   3.066   8.462
 2089SOL     OW 6224   0.888   2.610   9.273
 2089SOL    HW1 6225   0.909   2.677   9.338
 2089SOL    HW2 6226   0.901   2.653   9.188
 2090SOL     OW 6227   0.687   2.845   8.096
 2090SOL    HW1 6228   0.757   2.844   8.161
 2090SOL    HW2 6229   0.623   2.908   8.130
 2091SOL     OW 6230   0.715   3.013   9.275
 2091SOL    HW1 6231   0.767   3.086   9.309
 2091SOL    HW2 6232   0.639   3.054   9.234
 2092SOL     OW 6233   0.334   3.287   8.511
 2092SOL    HW1 6234   0.258   3.271   8.456
 2092SOL    HW2 6235   0.393   3.340   8.457
 2093SOL     OW 6236   1.454   3.369   8.819
 2093SOL    HW1 6237   1.509   3.446   8.830
 2093SOL    HW2 6238   1.383   3.380   8.882
 2094SOL     OW 6239   0.471   2.242   8.904
 2094SOL    HW1 6240   0.546   2.185   8.917
 2094SOL    HW2 6241   0.395   2.189   8.930
 2095SOL     OW 6242   1.585   2.294   8.203
 2095SOL    HW1 6243   1.518   2.305   8.135
 2095SOL    HW2 6244   1.567   2.364   8.266
 2096SOL     OW 6245   0.221   3.522   7.874
 2096SOL    HW1 6246   0.183   3.589   7.931
 2096SOL    HW2 6247   0.304   3.560   7.844
 2097SOL     OW 6248   1.135   3.204   9.141
 2097SOL    HW1 6249   1.179   3.194   9.226
 2097SOL    HW2 6250   1.083   3.125   9.132
 2098SOL     OW 6251   0.286   3.266   7.950
 2098SOL    HW1 6252   0.255   3.356   7.946
 2098SOL    HW2 6253   0.231   3.225   8.017
 2099SOL     OW 6254   0.307   2.942   8.352
 2099SOL    HW1 6255   0.300   2.848   8.370
 2099SOL    HW2 6256   0.236   2.981   8.404
 2100SOL     OW 6257   0.581   3.676   8.853
 2100SOL    HW1 6258   0.505   3.653   8.907
 2100SOL    HW2 6259   0.616   3.755   8.893
 2101SOL     OW 6260   0.570   2.851   7.601
 2101SOL    HW1 6261   0.622   2.892   7.532
 2101SOL    HW2 6262   0.608   2.884   7.683
 2102SOL     OW 6263   1.589   1.996   8.904
 2102SOL    HW1 6264   1.629   2.072   8.862
 2102SOL    HW2 6265   1.558   2.028   8.988
 2103SOL     OW 6266   0.147   2.537   8.021
 2103SOL    HW1 6267   0.112   2.452   8.048
 2103SOL    HW2 6268   0.124   2.596   8.094
 2104SOL     OW 6269   1.846   3.605   7.766
 2104SOL    HW1 6270   1.918   3.590   7.827
 2104SOL    HW2 6271   1.853   3.698   7.743
 2105SOL     OW 6272   0.029   3.483   7.647
 2105SOL    HW1 6273   0.011   3.389   7.644
 2105SOL    HW2 6274   0.087   3.494   7.723
 2106SOL     OW 6275   1.698   2.787   8.101
 2106SOL    HW1 6276   1.780   2.743   8.079
 2106SOL    HW2 6277   1.677   2.839   8.023
 2107SOL     OW 6278   1.657   2.967   7.881
 2107SOL    HW1 6279   1.741   2.959   7.837
 2107SOL    HW2 6280   1.671   3.032   7.949
 2108SOL     OW 6281   0.176   2.620   9.016
 2108SOL    HW1 6282   0.271   2.623   9.025
 2108SOL    HW2 6283   0.146   2.705   9.048
 2109SOL     OW 6284   0.626   3.260   8.186
 2109SOL    HW1 6285   0.584   3.174   8.192
 2109SOL    HW2 6286   0.610   3.289   8.096
 2110SOL     OW 6287   1.272   3.088   8.865
 2110SOL    HW1 6288   1.300   3.019   8.805
 2110SOL    HW2 6289   1.333   3.083   8.939
 2111SOL     OW 6290   0.854   1.869   7.968
 2111SOL    HW1 6291   0.893   1.951   7.938
 2111SOL    HW2 6292   0.760   1.886   7.968
 2112SOL     OW 6293   0.162   2.798   8.720
 2112SOL    HW1 6294   0.252   2.764   8.711
 2112SOL    HW2 6295   0.133   2.812   8.630
 2113SOL     OW 6296   1.534   2.877   7.648
 2113SOL    HW1 6297   1.465   2.818   7.678
 2113SOL    HW2 6298   1.576   2.907   7.728
 2114SOL     OW 6299   1.170   3.685   9.085
 2114SOL    HW1 6300   1.176   3.748   9.013
 2114SOL    HW2 6301   1.191   3.601   9.045
 2115SOL     OW 6302   0.355   2.104   9.269
 2115SOL    HW1 6303   0.389   2.192   9.283
 2115SOL    HW2 6304   0.260   2.115   9.268
 2116SOL     OW 6305   1.472   3.280   8.379
 2116SOL    HW1 6306   1.408   3.299   8.448
 2116SOL    HW2 6307   1.454   3.189   8.355
 2117SOL     OW 6308   1.637   3.658   8.010
 2117SOL    HW1 6309   1.620   3.611   7.928
 2117SOL    HW2 6310   1.637   3.590   8.077
 2118SOL     OW 6311   0.616   2.582   7.729
 2118SOL    HW1 6312   0.620   2.667   7.685
 2118SOL    HW2 6313   0.545   2.591   7.793
 2119SOL     OW 6314   1.282   2.255   8.389
 2119SOL    HW1 6315   1.193   2.220   8.394
 2119SOL    HW2 6316   1.334   2.197   8.444
 2120SOL     OW 6317   1.579   3.534   7.767
 2120SOL    HW1 6318   1.673   3.550   7.756
 2120SOL    HW2 6319   1.546   3.522   7.678
 2121SOL     OW 6320   0.786   2.475   8.884
 2121SOL    HW1 6321   0.759   2.447   8.972
 2121SOL    HW2 6322   0.763   2.402   8.827
 2122SOL     OW 6323   1.391   2.336   9.118
 2122SOL    HW1 6324   1.396   2.380   9.203
 2122SOL    HW2 6325   1.442   2.256   9.131
 2123SOL     OW 6326   0.944   2.743   9.036
 2123SOL    HW1 6327   1.000   2.679   8.992
 2123SOL    HW2 6328   0.897   2.786   8.965
 2124SOL     OW 6329   1.008   2.260   8.657
 2124SOL    HW1 6330   0.916   2.274   8.680
 2124SOL    HW2 6331   1.006   2.216   8.573
 2125SOL     OW 6332   1.065   2.562   7.867
 2125SOL    HW1 6333   1.085   2.559   7.961
 2125SOL    HW2 6334   0.982   2.516   7.860
 2126SOL     OW 6335   0.074   2.699   8.251
 2126SOL    HW1 6336   0.159   2.690   8.294
 2126SOL    HW2 6337   0.015   2.730   8.320
 2127SOL     OW 6338   0.113   3.728   9.035
 2127SOL    HW1 6339   0.107   3.724   9.131
 2127SOL    HW2 6340   0.061   3.654   9.004
 2128SOL     OW 6341   0.897   2.210   7.647
 2128SOL    HW1 6342   0.944   2.267   7.586
 2128SOL    HW2 6343   0.880   2.130   7.597
 2129SOL     OW 6344   1.681   2.422   9.285
 2129SOL    HW1 6345   1.662   2.501   9.234
 2129SOL    HW2 6346   1.712   2.359   9.219
 2130SOL     OW 6347   1.393   3.011   7.991
 2130SOL    HW1 6348   1.473   3.000   7.939
 2130SOL    HW2 6349   1.340   3.072   7.939
 2131SOL     OW 6350   0.562   2.033   8.363
 2131SOL    HW1 6351   0.566   2.058   8.455
 2131SOL    HW2 6352   0.554   2.115   8.315
 2132SOL     OW 6353   0.996   3.313   7.913
 2132SOL    HW1 6354   0.974   3.388   7.858
 2132SOL    HW2 6355   0.967   3.338   8.001
 2133SOL     OW 6356   0.339   3.665   8.396
 2133SOL    HW1 6357   0.387   3.586   8.373
 2133SOL    HW2 6358   0.395   3.737   8.367
 2134SOL     OW 6359   1.804   2.906   8.337
 2134SOL    HW1 6360   1.756   2.891   8.256
 2134SOL    HW2 6361   1.736   2.915   8.404
 2135SOL     OW 6362   1.217   3.406   8.964
 2135SOL    HW1 6363   1.207   3.335   9.027
 2135SOL    HW2 6364   1.152   3.389   8.896
 2136SOL     OW 6365   0.314   2.801   7.725
 2136SOL    HW1 6366   0.392   2.816   7.671
 2136SOL    HW2 6367   0.328   2.714   7.763
 2137SOL     OW 6368   1.484   2.625   8.159
 2137SOL    HW1 6369   1.487   2.582   8.244
 2137SOL    HW2 6370   1.564   2.679   8.157
 2138SOL     OW 6371   0.476   3.142   9.191
 2138SOL    HW1 6372   0.452   3.149   9.099
 2138SOL    HW2 6373   0.393   3.131   9.237
 2139SOL     OW 6374   1.142   3.638   7.671
 2139SOL    HW1 6375   1.061   3.606   7.711
 2139SOL    HW2 6376   1.163   3.574   7.603
 2140SOL     OW 6377   0.217   2.127   8.946
 2140SOL    HW1 6378   0.131   2.165   8.931
 2140SOL    HW2 6379   0.200   2.048   8.998
 2141SOL     OW 6380   1.638   3.250   7.548
 2141SOL    HW1 6381   1.598   3.336   7.535
 2141SOL    HW2 6382   1.571   3.187   7.521
 2142SOL     OW 6383   0.471   3.610   7.768
 2142SOL    HW1 6384   0.519   3.658   7.835
 2142SOL    HW2 6385   0.539   3.566   7.716
 2143SOL     OW 6386   1.399   1.967   7.907
 2143SOL    HW1 6387   1.398   1.943   7.814
 2143SOL    HW2 6388   1.489   1.954   7.935
 2144SOL     OW 6389   0.261   3.651   8.665
 2144SOL    HW1 6390   0.304   3.573   8.699
 2144SOL    HW2 6391   0.278   3.650   8.571
 2145SOL     OW 6392   0.954   3.565   8.340
 2145SOL    HW1 6393   1.038   3.522   8.354
 2145SOL    HW2 6394   0.912   3.513   8.270
 2146SOL     OW 6395   0.394   2.565   7.901
 2146SOL    HW1 6396   0.414   2.472   7.910
 2146SOL    HW2 6397   0.309   2.576   7.943
 2147SOL     OW 6398   1.509   2.082   9.163
 2147SOL    HW1 6399   1.521   2.104   9.255
 2147SOL    HW2 6400   1.447   2.009   9.163
 2148SOL     OW 6401   0.658   1.965   7.548
 2148SOL    HW1 6402   0.707   1.887   7.571
 2148SOL    HW2 6403   0.599   1.937   7.477
 2149SOL     OW 6404   0.755   2.140   9.205
 2149SOL    HW1 6405   0.840   2.096   9.204
 2149SOL    HW2 6406   0.711   2.106   9.283
 2150SOL     OW 6407   0.870   3.388   8.647
 2150SOL    HW1 6408   0.853   3.347   8.562
 2150SOL    HW2 6409   0.938   3.333   8.687
 2151SOL     OW 6410   1.330   2.455   8.880
 2151SOL    HW1 6411   1.363   2.423   8.964
 2151SOL    HW2 6412   1.369   2.541   8.869
 2152SOL     OW 6413   0.819   3.238   8.406
 2152SOL    HW1 6414   0.906   3.234   8.366
 2152SOL    HW2 6415   0.759   3.254   8.332
 2153SOL     OW 6416   0.929   2.376   8.336
 2153SOL    HW1 6417   0.904   2.364   8.245
 2153SOL    HW2 6418   0.957   2.289   8.366
 2154SOL     OW 6419   0.591   1.922   7.941
 2154SOL    HW1 6420   0.522   1.928   8.007
 2154SOL    HW2 6421   0.577   1.997   7.883
 2155SOL     OW 6422   1.434   3.075   7.480
 2155SOL    HW1 6423   1.463   3.001   7.533
 2155SOL    HW2 6424   1.349   3.098   7.517
 2156SOL     OW 6425   0.309   1.902   7.609
 2156SOL    HW1 6426   0.339   1.992   7.624
 2156SOL    HW2 6427   0.370   1.848   7.659
 2157SOL     OW 6428   0.959   2.113   7.898
 2157SOL    HW1 6429   0.932   2.148   7.813
 2157SOL    HW2 6430   1.053   2.132   7.903
 2158SOL     OW 6431   1.075   2.554   8.891
 2158SOL    HW1 6432   1.014   2.480   8.898
 2158SOL    HW2 6433   1.162   2.513   8.888
 2159SOL     OW 6434   1.209   3.448   8.251
 2159SOL    HW1 6435   1.223   3.509   8.177
 2159SOL    HW2 6436   1.283   3.464   8.309
 2160SOL     OW 6437   0.490   3.021   8.170
 2160SOL    HW1 6438   0.429   2.999   8.241
 2160SOL    HW2 6439   0.440   3.005   8.090
 2161SOL     OW 6440   1.254   3.653   8.065
 2161SOL    HW1 6441   1.303   3.716   8.012
 2161SOL    HW2 6442   1.184   3.705   8.105
 2162SOL     OW 6443   1.032   2.379   7.476
 2162SOL    HW1 6444   0.989   2.462   7.457
 2162SOL    HW2 6445   1.096   2.400   7.545
 2163SOL     OW 6446   0.107   2.441   8.812
 2163SOL    HW1 6447   0.198   2.434   8.782
 2163SOL    HW2 6448   0.111   2.503   8.885
 2164SOL     OW 6449   0.564   2.083   8.633
 2164SOL    HW1 6450   0.599   2.011   8.685
 2164SOL    HW2 6451   0.470   2.082   8.652
 2165SOL     OW 6452   0.870   2.312   8.078
 2165SOL    HW1 6453   0.839   2.369   8.008
 2165SOL    HW2 6454   0.898   2.233   8.033
 2166SOL     OW 6455   1.027   1.920   8.191
 2166SOL    HW1 6456   0.969   1.910   8.116
 2166SOL    HW2 6457   1.004   1.847   8.249
 2167SOL     OW 6458   1.435   3.016   8.302
 2167SOL    HW1 6459   1.365   2.951   8.311
 2167SOL    HW2 6460   1.450   3.022   8.208
 2168SOL     OW 6461   1.463   2.478   8.397
 2168SOL    HW1 6462   1.399   2.408   8.407
 2168SOL    HW2 6463   1.519   2.472   8.474
 2169SOL     OW 6464   1.828   2.658   7.835
 2169SOL    HW1 6465   1.888   2.615   7.896
 2169SOL    HW2 6466   1.815   2.594   7.765
 2170SOL     OW 6467   0.493   3.291   7.582
 2170SOL    HW1 6468   0.409   3.269   7.621
 2170SOL    HW2 6469   0.499   3.236   7.504
 2171SOL     OW 6470   1.707   3.133   8.082
 2171SOL    HW1 6471   1.801   3.126   8.103
 2171SOL    HW2 6472   1.684   3.223   8.107
 2172SOL     OW 6473   1.393   2.438   7.512
 2172SOL    HW1 6474   1.338   2.411   7.585
 2172SOL    HW2 6475   1.482   2.414   7.540
 2173SOL     OW 6476   0.548   2.115   7.756
 2173SOL    HW1 6477   0.593   2.067   7.686
 2173SOL    HW2 6478   0.528   2.201   7.717
 2174SOL     OW 6479   1.735   3.105   8.979
 2174SOL    HW1 6480   1.823   3.071   8.966
 2174SOL    HW2 6481   1.748   3.192   9.017
 2175SOL     OW 6482   1.044   3.218   8.783
 2175SOL    HW1 6483   0.966   3.183   8.828
 2175SOL    HW2 6484   1.117   3.172   8.824
 2176SOL     OW 6485   1.607   3.497   9.112
 2176SOL    HW1 6486   1.599   3.533   9.024
 2176SOL    HW2 6487   1.685   3.441   9.108
 2177SOL     OW 6488   1.151   3.099   8.553
 2177SOL    HW1 6489   1.089   3.134   8.618
 2177SOL    HW2 6490   1.119   3.131   8.469
 2178SOL     OW 6491   1.610   2.954   8.525
 2178SOL    HW1 6492   1.602   3.020   8.594
 2178SOL    HW2 6493   1.540   2.975   8.463
 2179SOL     OW 6494   0.919   1.944   8.832
 2179SOL    HW1 6495   0.940   1.928   8.739
 2179SOL    HW2 6496   0.999   1.984   8.867
 2180SOL     OW 6497   0.981   2.977   9.169
 2180SOL    HW1 6498   0.891   2.993   9.196
 2180SOL    HW2 6499   0.977   2.896   9.118
 2181SOL     OW 6500   0.711   2.924   7.828
 2181SOL    HW1 6501   0.697   2.899   7.919
 2181SOL    HW2 6502   0.787   2.873   7.801
 2182SOL     OW 6503   0.420   2.696   8.708
 2182SOL    HW1 6504   0.489   2.709   8.774
 2182SOL    HW2 6505   0.397   2.603   8.715
 2183SOL     OW 6506   1.265   2.230   8.740
 2183SOL    HW1 6507   1.293   2.311   8.783
 2183SOL    HW2 6508   1.176   2.249   8.710
 2184SOL     OW 6509   0.076   3.442   8.777
 2184SOL    HW1 6510   0.075   3.520   8.721
 2184SOL    HW2 6511   0.169   3.425   8.792
 2185SOL     OW 6512   0.340   2.976   7.943
 2185SOL    HW1 6513   0.338   3.063   7.903
 2185SOL    HW2 6514   0.331   2.916   7.868
 2186SOL     OW 6515   0.535   2.379   8.302
 2186SOL    HW1 6516   0.545   2.443   8.232
 2186SOL    HW2 6517   0.601   2.404   8.367
 2187SOL     OW 6518   1.247   3.215   7.845
 2187SOL    HW1 6519   1.302   3.285   7.880
 2187SOL    HW2 6520   1.159   3.237   7.877
 2188SOL     OW 6521   1.309   3.331   8.591
 2188SOL    HW1 6522   1.357   3.338   8.673
 2188SOL    HW2 6523   1.258   3.250   8.599
 2189SOL     OW 6524   1.575   2.479   7.934
 2189SOL    HW1 6525   1.524   2.521   8.004
 2189SOL    HW2 6526   1.625   2.551   7.895
 2190SOL     OW 6527   0.348   3.393   8.758
 2190SOL    HW1 6528   0.336   3.350   8.673
 2190SOL    HW2 6529   0.443   3.409   8.763
 2191SOL     OW 6530   0.450   2.608   9.074
 2191SOL    HW1 6531   0.506   2.649   9.008
 2191SOL    HW2 6532   0.499   2.530   9.101
 2192SOL     OW 6533   1.626   2.650   9.148
 2192SOL    HW1 6534   1.539   2.688   9.139
 2192SOL    HW2 6535   1.677   2.688   9.077
 2193SOL     OW 6536   0.993   2.008   9.214
 2193SOL    HW1 6537   1.052   2.080   9.190
 2193SOL    HW2 6538   1.041   1.929   9.190
 2194SOL     OW 6539   0.512   1.892   9.197
 2194SOL    HW1 6540   0.462   1.842   9.133
 2194SOL    HW2 6541   0.459   1.970   9.213
 2195SOL     OW 6542   0.592   2.736   8.489
 2195SOL    HW1 6543   0.629   2.824   8.488
 2195SOL    HW2 6544   0.531   2.736   8.563
 2196SOL     OW 6545   1.309   2.715   8.451
 2196SOL    HW1 6546   1.221   2.687   8.425
 2196SOL    HW2 6547   1.364   2.639   8.432
 2197SOL     OW 6548   1.200   2.386   7.704
 2197SOL    HW1 6549   1.212   2.309   7.760
 2197SOL    HW2 6550   1.161   2.452   7.761
 2198SOL     OW 6551   0.296   2.055   8.688
 2198SOL    HW1 6552   0.269   2.083   8.775
 2198SOL    HW2 6553   0.280   1.961   8.686
 2199SOL     OW 6554   0.007   3.179   8.729
 2199SOL    HW1 6555   0.053   3.132   8.799
 2199SOL    HW2 6556   0.021   3.272   8.750
 2200SOL     OW 6557   0.709   2.482   8.487
 2200SOL    HW1 6558   0.788   2.476   8.433
 2200SOL    HW2 6559   0.682   2.574   8.480
 2201SOL     OW 6560   1.755   2.833   9.316
 2201SOL    HW1 6561   1.710   2.761   9.272
 2201SOL    HW2 6562   1.698   2.856   9.389
 2202SOL     OW 6563   0.374   1.951   8.098
 2202SOL    HW1 6564   0.349   2.031   8.143
 2202SOL    HW2 6565   0.299   1.893   8.109
 2203SOL     OW 6566   1.632   2.252   7.792
 2203SOL    HW1 6567   1.664   2.187   7.854
 2203SOL    HW2 6568   1.602   2.325   7.847
 2204SOL     OW 6569   1.035   2.619   8.404
 2204SOL    HW1 6570   1.013   2.634   8.496
 2204SOL    HW2 6571   1.004   2.530   8.386
 2205SOL     OW 6572   0.981   3.428   9.180
 2205SOL    HW1 6573   0.962   3.471   9.097
 2205SOL    HW2 6574   1.021   3.345   9.155
 2206SOL     OW 6575   1.838   3.356   9.048
 2206SOL    HW1 6576   1.865   3.385   8.961
 2206SOL    HW2 6577   1.916   3.367   9.102
 2207SOL     OW 6578   0.360   2.792   9.265
 2207SOL    HW1 6579   0.433   2.817   9.323
 2207SOL    HW2 6580   0.399   2.730   9.204
 2208SOL     OW 6581   1.521   2.132   7.567
 2208SOL    HW1 6582   1.470   2.060   7.604
 2208SOL    HW2 6583   1.561   2.175   7.642
 2209SOL     OW 6584   1.281   2.684   7.467
 2209SOL    HW1 6585   1.321   2.597   7.475
 2209SOL    HW2 6586   1.317   2.720   7.387
 2210SOL     OW 6587   1.072   3.215   8.314
 2210SOL    HW1 6588   1.082   3.142   8.252
 2210SOL    HW2 6589   1.124   3.286   8.277
 2211SOL     OW 6590   0.317   2.666   8.390
 2211SOL    HW1 6591   0.412   2.681   8.387
 2211SOL    HW2 6592   0.308   2.576   8.419
 2212SOL     OW 6593   0.315   2.388   8.460
 2212SOL    HW1 6594   0.272   2.303   8.451
 2212SOL    HW2 6595   0.389   2.383   8.400
 2213SOL     OW 6596   1.137   2.231   9.133
 2213SOL    HW1 6597   1.092   2.284   9.199
 2213SOL    HW2 6598   1.223   2.272   9.123
 2214SOL     OW 6599   1.156   2.053   8.922
 2214SOL    HW1 6600   1.145   2.115   8.994
 2214SOL    HW2 6601   1.203   2.101   8.855
 2215SOL     OW 6602   9.969   3.195   7.668
 2215SOL    HW1 6603   9.919   3.184   7.587
 2215SOL    HW2 6604   9.990   3.106   7.696
 2216SOL     OW 6605   0.079   3.546   8.397
 2216SOL    HW1 6606   0.113   3.463   8.365
 2216SOL    HW2 6607   0.151   3.608   8.386
 2217SOL     OW 6608   0.497   3.438   8.356
 2217SOL    HW1 6609   0.565   3.505   8.368
 2217SOL    HW2 6610   0.536   3.375   8.295
 2218SOL     OW 6611   0.949   2.641   8.661
 2218SOL    HW1 6612   1.011   2.629   8.733
 2218SOL    HW2 6613   0.869   2.597   8.690
 2219SOL     OW 6614   0.040   2.427   8.536
 2219SOL    HW1 6615   0.133   2.430   8.513
 2219SOL    HW2 6616   0.039   2.429   8.631
 2220SOL     OW 6617   0.192   2.368   9.126
 2220SOL    HW1 6618   0.236   2.322   9.054
 2220SOL    HW2 6619   0.173   2.455   9.090
 2221SOL     OW 6620   1.391   2.783   9.099
 2221SOL    HW1 6621   1.408   2.877   9.094
 2221SOL    HW2 6622   1.384   2.756   9.008
 2222SOL     OW 6623   0.829   2.429   7.824
 2222SOL    HW1 6624   0.832   2.356   7.761
 2222SOL    HW2 6625   0.758   2.484   7.792
 2223SOL     OW 6626   1.636   2.463   8.611
 2223SOL    HW1 6627   1.626   2.404   8.685
 2223SOL    HW2 6628   1.727   2.452   8.583
 2224SOL     OW 6629   0.260   3.424   9.180
 2224SOL    HW1 6630   0.266   3.462   9.268
 2224SOL    HW2 6631   0.269   3.330   9.193
 2225SOL     OW 6632   0.735   2.296   8.685
 2225SOL    HW1 6633   0.673   2.225   8.670
 2225SOL    HW2 6634   0.715   2.359   8.615
 2226SOL     OW 6635   0.902   3.542   8.937
 2226SOL    HW1 6636   0.881   3.494   8.857
 2226SOL    HW2 6637   0.906   3.634   8.909
 2227SOL     OW 6638   0.518   2.350   7.619
 2227SOL    HW1 6639   0.567   2.426   7.652
 2227SOL    HW2 6640   0.438   2.387   7.582
 2228SOL     OW 6641   0.157   3.010   8.888
 2228SOL    HW1 6642   0.146   2.966   8.973
 2228SOL    HW2 6643   0.165   2.938   8.825
 2229SOL     OW 6644   1.304   2.896   8.656
 2229SOL    HW1 6645   1.314   2.832   8.585
 2229SOL    HW2 6646   1.251   2.966   8.619
 2230SOL     OW 6647   1.324   2.724   7.739
 2230SOL    HW1 6648   1.254   2.686   7.793
 2230SOL    HW2 6649   1.296   2.707   7.649
 2231SOL     OW 6650   1.787   3.586   8.617
 2231SOL    HW1 6651   1.849   3.612   8.548
 2231SOL    HW2 6652   1.755   3.500   8.590
 2232SOL     OW 6653   1.241   3.596   8.540
 2232SOL    HW1 6654   1.325   3.626   8.505
 2232SOL    HW2 6655   1.255   3.505   8.563
 2233SOL     OW 6656   0.101   3.035   8.501
 2233SOL    HW1 6657   0.104   3.094   8.577
 2233SOL    HW2 6658   0.008   3.031   8.477
 2234SOL     OW 6659   0.695   3.540   9.199
 2234SOL    HW1 6660   0.637   3.614   9.185
 2234SOL    HW2 6661   0.772   3.558   9.145
 2235SOL     OW 6662   1.744   2.046   7.944
 2235SOL    HW1 6663   1.803   2.026   7.872
 2235SOL    HW2 6664   1.717   1.960   7.978
 2236SOL     OW 6665   1.397   3.431   7.951
 2236SOL    HW1 6666   1.452   3.465   7.881
 2236SOL    HW2 6667   1.342   3.505   7.977
 2237SOL     OW 6668   0.099   3.651   9.311
 2237SOL    HW1 6669   0.063   3.593   9.377
 2237SOL    HW2 6670   0.174   3.693   9.354
 2238SOL     OW 6671   1.279   2.798   8.113
 2238SOL    HW1 6672   1.353   2.739   8.126
 2238SOL    HW2 6673   1.315   2.870   8.060
 2239SOL     OW 6674   0.783   3.143   8.859
 2239SOL    HW1 6675   0.758   3.190   8.938
 2239SOL    HW2 6676   0.710   3.155   8.799
 2240SOL     OW 6677   0.673   3.495   7.606
 2240SOL    HW1 6678   0.689   3.511   7.513
 2240SOL    HW2 6679   0.617   3.417   7.609
 2241SOL     OW 6680   1.615   3.593   8.846
 2241SOL    HW1 6681   1.673   3.593   8.769
 2241SOL    HW2 6682   1.600   3.686   8.864
 2242SOL     OW 6683   1.845   2.022   8.412
 2242SOL    HW1 6684   1.873   1.933   8.391
 2242SOL    HW2 6685   1.757   2.029   8.374
 2243SOL     OW 6686   0.276   2.188   8.186
 2243SOL    HW1 6687   0.197   2.231   8.151
 2243SOL    HW2 6688   0.255   2.172   8.278
 2244SOL     OW 6689   1.211   3.450   7.484
 2244SOL    HW1 6690   1.201   3.359   7.512
 2244SOL    HW2 6691   1.142   3.464   7.420
 2245SOL     OW 6692   0.826   2.875   8.829
 2245SOL    HW1 6693   0.863   2.867   8.741
 2245SOL    HW2 6694   0.814   2.969   8.841
 2246SOL     OW 6695   0.920   2.775   7.750
 2246SOL    HW1 6696   0.972   2.803   7.675
 2246SOL    HW2 6697   0.974   2.708   7.793
 2247SOL     OW 6698   1.484   3.507   7.506
 2247SOL    HW1 6699   1.392   3.487   7.489
 2247SOL    HW2 6700   1.525   3.511   7.419
 2248SOL     OW 6701   0.364   3.183   8.950
 2248SOL    HW1 6702   0.358   3.257   8.889
 2248SOL    HW2 6703   0.294   3.124   8.922
 2249SOL     OW 6704   1.599   3.152   8.725
 2249SOL    HW1 6705   1.653   3.127   8.800
 2249SOL    HW2 6706   1.540   3.219   8.759
 2250SOL     OW 6707   1.077   2.982   8.177
 2250SOL    HW1 6708   1.002   2.932   8.209
 2250SOL    HW2 6709   1.140   2.915   8.147
 2251SOL     OW 6710   1.033   2.111   8.410
 2251SOL    HW1 6711   1.033   2.068   8.324
 2251SOL    HW2 6712   1.026   2.039   8.472
 2252SOL     OW 6713   0.606   3.349   7.932
 2252SOL    HW1 6714   0.658   3.302   7.866
 2252SOL    HW2 6715   0.518   3.354   7.894
 2253SOL     OW 6716   1.745   2.244   8.835
 2253SOL    HW1 6717   1.816   2.309   8.831
 2253SOL    HW2 6718   1.772   2.175   8.774
 2254SOL     OW 6719   0.244   3.223   7.690
 2254SOL    HW1 6720   0.149   3.210   7.691
 2254SOL    HW2 6721   0.267   3.242   7.781
 2255SOL     OW 6722   0.133   2.877   9.131
 2255SOL    HW1 6723   0.088   2.951   9.173
 2255SOL    HW2 6724   0.215   2.869   9.179
 2256SOL     OW 6725   0.684   2.055   8.946
 2256SOL    HW1 6726   0.767   2.030   8.908
 2256SOL    HW2 6727   0.706   2.086   9.034
 2257SOL     OW 6728   0.074   2.177   7.441
 2257SOL    HW1 6729   9.979   2.165   7.447
 2257SOL    HW2 6730   0.085   2.253   7.384
 2258SOL     OW 6731   1.416   2.717   8.836
 2258SOL    HW1 6732   1.364   2.775   8.781
 2258SOL    HW2 6733   1.504   2.721   8.798
 2259SOL     OW 6734   0.060   1.933   7.711
 2259SOL    HW1 6735   0.077   1.987   7.789
 2259SOL    HW2 6736   0.147   1.915   7.675
 2260SOL     OW 6737   1.181   3.184   7.570
 2260SOL    HW1 6738   1.089   3.161   7.569
 2260SOL    HW2 6739   1.204   3.187   7.663
 2261SOL     OW 6740   0.627   2.697   8.885
 2261SOL    HW1 6741   0.687   2.771   8.872
 2261SOL    HW2 6742   0.684   2.620   8.884
 2262SOL     OW 6743   1.487   3.664   8.440
 2262SOL    HW1 6744   1.513   3.739   8.386
 2262SOL    HW2 6745   1.569   3.621   8.463
 2263SOL     OW 6746   0.710   2.418   9.142
 2263SOL    HW1 6747   0.761   2.472   9.202
 2263SOL    HW2 6748   0.724   2.328   9.172
 2264SOL     OW 6749   1.469   3.046   9.069
 2264SOL    HW1 6750   1.463   3.066   9.163
 2264SOL    HW2 6751   1.558   3.070   9.045
 2265SOL     OW 6752   0.366   3.618   9.014
 2265SOL    HW1 6753   0.282   3.661   8.998
 2265SOL    HW2 6754   0.344   3.535   9.056
 2266SOL     OW 6755   1.656   2.737   8.701
 2266SOL    HW1 6756   1.654   2.654   8.654
 2266SOL    HW2 6757   1.645   2.804   8.633
 2267SOL     OW 6758   1.226   2.187   7.903
 2267SOL    HW1 6759   1.285   2.112   7.902
 2267SOL    HW2 6760   1.254   2.239   7.979
 2268SOL     OW 6761   0.568   2.591   8.127
 2268SOL    HW1 6762   0.616   2.674   8.118
 2268SOL    HW2 6763   0.511   2.588   8.051
 2269SOL     OW 6764   1.748   2.215   9.110
 2269SOL    HW1 6765   1.744   2.232   9.016
 2269SOL    HW2 6766   1.670   2.161   9.128
 2270SOL     OW 6767   1.760   2.786   8.953
 2270SOL    HW1 6768   1.743   2.880   8.966
 2270SOL    HW2 6769   1.733   2.769   8.862
 2271SOL     OW 6770   0.875   3.219   7.512
 2271SOL    HW1 6771   0.835   3.240   7.597
 2271SOL    HW2 6772   0.884   3.304   7.469
 2272SOL     OW 6773   0.673   3.639   8.367
 2272SOL    HW1 6774   0.649   3.731   8.358
 2272SOL    HW2 6775   0.769   3.639   8.367
 2273SOL     OW 6776   0.874   2.838   8.304
 2273SOL    HW1 6777   0.924   2.765   8.340
 2273SOL    HW2 6778   0.829   2.876   8.379
 2274SOL     OW 6779   1.061   2.832   7.529
 2274SOL    HW1 6780   1.047   2.894   7.457
 2274SOL    HW2 6781   1.140   2.784   7.504
 2275SOL     OW 6782   1.830   3.420   8.287
 2275SOL    HW1 6783   1.753   3.411   8.231
 2275SOL    HW2 6784   1.808   3.368   8.365
 2276SOL     OW 6785   0.223   3.161   9.287
 2276SOL    HW1 6786   0.145   3.170   9.232
 2276SOL    HW2 6787   0.189   3.154   9.376
 2277SOL     OW 6788   0.155   3.085   8.118
 2277SOL    HW1 6789   0.090   3.030   8.161
 2277SOL    HW2 6790   0.211   3.024   8.071
 2278SOL     OW 6791   0.691   3.280   9.078
 2278SOL    HW1 6792   0.614   3.241   9.119
 2278SOL    HW2 6793   0.697   3.367   9.117
 2279SOL     OW 6794   1.811   2.033   8.682
 2279SOL    HW1 6795   1.814   1.939   8.695
 2279SOL    HW2 6796   1.825   2.045   8.588
 2280SOL     OW 6797   0.433   2.304   7.968
 2280SOL    HW1 6798   0.494   2.238   7.935
 2280SOL    HW2 6799   0.410   2.274   8.056
 2281SOL     OW 6800   1.696   3.342   8.529
 2281SOL    HW1 6801   1.617   3.323   8.478
 2281SOL    HW2 6802   1.697   3.274   8.597
 2282SOL     OW 6803   0.367   2.431   8.735
 2282SOL    HW1 6804   0.415   2.367   8.787
 2282SOL    HW2 6805   0.371   2.396   8.646
 2283SOL     OW 6806   0.844   3.446   8.119
 2283SOL    HW1 6807   0.817   3.519   8.063
 2283SOL    HW2 6808   0.766   3.391   8.126
 2284SOL     OW 6809   1.422   2.095   8.563
 2284SOL    HW1 6810   1.431   2.006   8.596
 2284SOL    HW2 6811   1.376   2.142   8.633
 2285SOL     OW 6812   1.010   1.879   8.569
 2285SOL    HW1 6813   0.956   1.816   8.521
 2285SOL    HW2 6814   1.097   1.840   8.572
 2286SOL     OW 6815   0.776   3.194   7.777
 2286SOL    HW1 6816   0.754   3.102   7.790
 2286SOL    HW2 6817   0.856   3.207   7.828
 2287SOL     OW 6818   0.617   3.432   8.733
 2287SOL    HW1 6819   0.614   3.519   8.773
 2287SOL    HW2 6820   0.707   3.424   8.701
 2288SOL     OW 6821   1.383   1.901   7.640
 2288SOL    HW1 6822   1.423   1.828   7.592
 2288SOL    HW2 6823   1.291   1.874   7.650
 2289SOL     OW 6824   1.299   2.334   8.123
 2289SOL    HW1 6825   1.248   2.415   8.121
 2289SOL    HW2 6826   1.292   2.304   8.214
 2290SOL     OW 6827   1.582   2.050   8.341
 2290SOL    HW1 6828   1.530   2.079   8.416
 2290SOL    HW2 6829   1.583   2.124   8.281
 2291SOL     OW 6830   0.067   2.953   7.745
 2291SOL    HW1 6831   0.142   2.900   7.717
 2291SOL    HW2 6832   0.031   2.906   7.820
 2292SOL     OW 6833   0.902   3.532   7.775
 2292SOL    HW1 6834   0.821   3.519   7.724
 2292SOL    HW2 6835   0.879   3.601   7.838
 2293SOL     OW 6836   0.269   2.438   9.379
 2293SOL    HW1 6837   0.220   2.518   9.397
 2293SOL    HW2 6838   0.247   2.417   9.288
 2294SOL     OW 6839   1.806   2.431   9.520
 2294SOL    HW1 6840   1.764   2.433   9.434
 2294SOL    HW2 6841   1.757   2.365   9.570
 2295SOL     OW 6842   0.270   3.543   9.801
 2295SOL    HW1 6843   0.211   3.614   9.825
 2295SOL    HW2 6844   0.330   3.581   9.737
 2296SOL     OW 6845   0.235   3.284   9.855
 2296SOL    HW1 6846   0.252   3.378   9.847
 2296SOL    HW2 6847   0.143   3.280   9.883
 2297SOL     OW 6848   0.571   2.851   9.452
 2297SOL    HW1 6849   0.624   2.893   9.384
 2297SOL    HW2 6850   0.607   2.885   9.534
 2298SOL     OW 6851   0.121   2.486   9.917
 2298SOL    HW1 6852   0.113   2.463   9.825
 2298SOL    HW2 6853   0.039   2.531   9.938
 2299SOL     OW 6854   1.830   3.615   9.642
 2299SOL    HW1 6855   1.907   3.596   9.695
 2299SOL    HW2 6856   1.845   3.704   9.609
 2300SOL     OW 6857   0.014   3.459   9.497
 2300SOL    HW1 6858   0.012   3.370   9.462
 2300SOL    HW2 6859   0.017   3.447   9.592
 2301SOL     OW 6860   1.673   2.733   9.919
 2301SOL    HW1 6861   1.745   2.753   9.978
 2301SOL    HW2 6862   1.667   2.810   9.862
 2302SOL     OW 6863   1.694   2.962   9.757
 2302SOL    HW1 6864   1.777   2.958   9.710
 2302SOL    HW2 6865   1.703   3.038   9.814
 2303SOL     OW 6866   0.639   3.204   9.999
 2303SOL    HW1 6867   0.581   3.127   9.997
 2303SOL    HW2 6868   0.619   3.251   9.919
 2304SOL     OW 6869   0.853   1.879   9.829
 2304SOL    HW1 6870   0.893   1.961   9.800
 2304SOL    HW2 6871   0.758   1.895   9.824
 2305SOL     OW 6872   1.558   2.887   9.520
 2305SOL    HW1 6873   1.498   2.818   9.547
 2305SOL    HW2 6874   1.597   2.918   9.602
 2306SOL     OW 6875   0.625   2.592   9.595
 2306SOL    HW1 6876   0.631   2.666   9.534
 2306SOL    HW2 6877   0.615   2.632   9.681
 2307SOL     OW 6878   1.563   3.536   9.627
 2307SOL    HW1 6879   1.655   3.558   9.634
 2307SOL    HW2 6880   1.548   3.523   9.533
 2308SOL     OW 6881   1.049   2.554   9.736
 2308SOL    HW1 6882   1.078   2.531   9.825
 2308SOL    HW2 6883   0.966   2.506   9.725
 2309SOL     OW 6884   0.058   2.813   0.072
 2309SOL    HW1 6885   0.127   2.747   0.079
 2309SOL    HW2 6886   0.053   2.853   0.158
 2310SOL     OW 6887   0.901   2.203   9.500
 2310SOL    HW1 6888   0.945   2.266   9.442
 2310SOL    HW2 6889   0.902   2.121   9.451
 2311SOL     OW 6890   1.315   2.957   9.793
 2311SOL    HW1 6891   1.366   2.986   9.869
 2311SOL    HW2 6892   1.290   3.038   9.749
 2312SOL     OW 6893   0.991   3.289   9.783
 2312SOL    HW1 6894   0.965   3.375   9.750
 2312SOL    HW2 6895   0.964   3.289   9.875
 2313SOL     OW 6896   0.329   3.628   0.180
 2313SOL    HW1 6897   0.337   3.533   0.170
 2313SOL    HW2 6898   0.392   3.651   0.248
 2314SOL     OW 6899   0.326   2.793   9.608
 2314SOL    HW1 6900   0.398   2.800   9.546
 2314SOL    HW2 6901   0.339   2.709   9.652
 2315SOL     OW 6902   1.138   3.639   9.540
 2315SOL    HW1 6903   1.062   3.601   9.584
 2315SOL    HW2 6904   1.161   3.575   9.472
 2316SOL     OW 6905   1.638   3.254   9.403
 2316SOL    HW1 6906   1.594   3.339   9.391
 2316SOL    HW2 6907   1.571   3.190   9.380
 2317SOL     OW 6908   0.481   3.621   9.624
 2317SOL    HW1 6909   0.529   3.666   9.694
 2317SOL    HW2 6910   0.549   3.574   9.575
 2318SOL     OW 6911   1.424   2.012   9.738
 2318SOL    HW1 6912   1.414   1.970   9.653
 2318SOL    HW2 6913   1.519   2.015   9.752
 2319SOL     OW 6914   0.368   2.574   9.783
 2319SOL    HW1 6915   0.409   2.488   9.792
 2319SOL    HW2 6916   0.278   2.560   9.814
 2320SOL     OW 6917   0.653   1.968   9.418
 2320SOL    HW1 6918   0.706   1.894   9.446
 2320SOL    HW2 6919   0.604   1.936   9.343
 2321SOL     OW 6920   0.589   1.932   9.808
 2321SOL    HW1 6921   0.517   1.935   9.870
 2321SOL    HW2 6922   0.573   2.005   9.748
 2322SOL     OW 6923   1.439   3.070   9.345
 2322SOL    HW1 6924   1.474   3.003   9.403
 2322SOL    HW2 6925   1.353   3.091   9.381
 2323SOL     OW 6926   0.307   1.888   9.459
 2323SOL    HW1 6927   0.356   1.961   9.423
 2323SOL    HW2 6928   0.369   1.843   9.516
 2324SOL     OW 6929   0.959   2.120   9.757
 2324SOL    HW1 6930   0.933   2.150   9.669
 2324SOL    HW2 6931   1.051   2.143   9.763
 2325SOL     OW 6932   0.442   3.013   0.034
 2325SOL    HW1 6933   0.371   3.042   0.092
 2325SOL    HW2 6934   0.400   3.000   9.949
 2326SOL     OW 6935   1.299   3.696   9.899
 2326SOL    HW1 6936   1.342   3.762   9.845
 2326SOL    HW2 6937   1.206   3.721   9.900
 2327SOL     OW 6938   1.031   2.382   9.337
 2327SOL    HW1 6939   0.988   2.465   9.318
 2327SOL    HW2 6940   1.094   2.403   9.406
 2328SOL     OW 6941   0.846   2.297   9.939
 2328SOL    HW1 6942   0.814   2.359   9.873
 2328SOL    HW2 6943   0.881   2.224   9.888
 2329SOL     OW 6944   1.881   2.668   9.637
 2329SOL    HW1 6945   1.913   2.629   9.718
 2329SOL    HW2 6946   1.846   2.594   9.587
 2330SOL     OW 6947   0.489   3.293   9.458
 2330SOL    HW1 6948   0.412   3.263   9.506
 2330SOL    HW2 6949   0.493   3.236   9.381
 2331SOL     OW 6950   1.389   2.440   9.370
 2331SOL    HW1 6951   1.334   2.416   9.445
 2331SOL    HW2 6952   1.478   2.415   9.397
 2332SOL     OW 6953   0.539   2.125   9.625
 2332SOL    HW1 6954   0.582   2.075   9.555
 2332SOL    HW2 6955   0.520   2.210   9.586
 2333SOL     OW 6956   0.702   2.917   9.685
 2333SOL    HW1 6957   0.664   2.868   9.757
 2333SOL    HW2 6958   0.784   2.872   9.665
 2334SOL     OW 6959   0.313   2.990   9.796
 2334SOL    HW1 6960   0.318   3.068   9.741
 2334SOL    HW2 6961   0.321   2.917   9.735
 2335SOL     OW 6962   1.237   3.215   9.690
 2335SOL    HW1 6963   1.292   3.287   9.721
 2335SOL    HW2 6964   1.151   3.233   9.727
 2336SOL     OW 6965   1.636   2.500   9.789
 2336SOL    HW1 6966   1.638   2.574   9.850
 2336SOL    HW2 6967   1.588   2.533   9.713
 2337SOL     OW 6968   1.196   2.396   9.564
 2337SOL    HW1 6969   1.206   2.320   9.622
 2337SOL    HW2 6970   1.159   2.464   9.619
 2338SOL     OW 6971   0.388   1.953   9.983
 2338SOL    HW1 6972   0.311   2.008   9.972
 2338SOL    HW2 6973   0.360   1.883   0.042
 2339SOL     OW 6974   1.631   2.257   9.655
 2339SOL    HW1 6975   1.654   2.181   9.709
 2339SOL    HW2 6976   1.622   2.329   9.718
 2340SOL     OW 6977   1.520   2.137   9.425
 2340SOL    HW1 6978   1.468   2.064   9.459
 2340SOL    HW2 6979   1.557   2.178   9.503
 2341SOL     OW 6980   1.279   2.688   9.331
 2341SOL    HW1 6981   1.318   2.601   9.338
 2341SOL    HW2 6982   1.315   2.724   9.250
 2342SOL     OW 6983   0.012   3.162   9.484
 2342SOL    HW1 6984   9.922   3.161   9.452
 2342SOL    HW2 6985   0.025   3.076   9.523
 2343SOL     OW 6986   0.817   2.413   9.683
 2343SOL    HW1 6987   0.827   2.345   9.616
 2343SOL    HW2 6988   0.751   2.472   9.647
 2344SOL     OW 6989   0.500   2.362   9.502
 2344SOL    HW1 6990   0.545   2.440   9.535
 2344SOL    HW2 6991   0.421   2.395   9.460
 2345SOL     OW 6992   1.370   2.709   9.606
 2345SOL    HW1 6993   1.318   2.761   9.668
 2345SOL    HW2 6994   1.314   2.702   9.529
 2346SOL     OW 6995   1.707   2.019   9.771
 2346SOL    HW1 6996   1.778   2.021   9.707
 2346SOL    HW2 6997   1.724   1.941   9.823
 2347SOL     OW 6998   1.362   3.450   9.792
 2347SOL    HW1 6999   1.434   3.467   9.731
 2347SOL    HW2 7000   1.335   3.537   9.822
 2348SOL     OW 7001   0.676   3.493   9.472
 2348SOL    HW1 7002   0.693   3.507   9.379
 2348SOL    HW2 7003   0.618   3.417   9.474
 2349SOL     OW 7004   1.210   3.455   9.347
 2349SOL    HW1 7005   1.201   3.363   9.372
 2349SOL    HW2 7006   1.140   3.469   9.282
 2350SOL     OW 7007   0.920   2.774   9.620
 2350SOL    HW1 7008   0.971   2.798   9.543
 2350SOL    HW2 7009   0.972   2.707   9.664
 2351SOL     OW 7010   1.486   3.507   9.359
 2351SOL    HW1 7011   1.394   3.489   9.344
 2351SOL    HW2 7012   1.525   3.510   9.272
 2352SOL     OW 7013   0.594   3.339   9.768
 2352SOL    HW1 7014   0.648   3.295   9.703
 2352SOL    HW2 7015   0.516   3.366   9.719
 2353SOL     OW 7016   0.264   3.212   9.598
 2353SOL    HW1 7017   0.173   3.203   9.570
 2353SOL    HW2 7018   0.259   3.247   9.687
 2354SOL     OW 7019   0.081   2.161   9.272
 2354SOL    HW1 7020   9.987   2.146   9.272
 2354SOL    HW2 7021   0.093   2.240   9.219
 2355SOL     OW 7022   0.066   1.946   9.571
 2355SOL    HW1 7023   0.091   2.007   9.641
 2355SOL    HW2 7024   0.150   1.915   9.535
 2356SOL     OW 7025   1.180   3.185   9.422
 2356SOL    HW1 7026   1.087   3.161   9.422
 2356SOL    HW2 7027   1.203   3.190   9.515
 2357SOL     OW 7028   1.222   2.201   9.767
 2357SOL    HW1 7029   1.295   2.140   9.759
 2357SOL    HW2 7030   1.242   2.254   9.845
 2358SOL     OW 7031   0.592   2.721   9.856
 2358SOL    HW1 7032   0.611   2.725   9.949
 2358SOL    HW2 7033   0.508   2.676   9.850
 2359SOL     OW 7034   0.874   3.219   9.367
 2359SOL    HW1 7035   0.837   3.234   9.453
 2359SOL    HW2 7036   0.883   3.306   9.329
 2360SOL     OW 7037   1.053   2.824   9.390
 2360SOL    HW1 7038   1.042   2.889   9.321
 2360SOL    HW2 7039   1.135   2.779   9.369
 2361SOL     OW 7040   0.051   3.029   9.882
 2361SOL    HW1 7041   0.035   2.963   9.950
 2361SOL    HW2 7042   0.145   3.028   9.869
 2362SOL     OW 7043   0.476   2.329   9.847
 2362SOL    HW1 7044   0.527   2.263   9.800
 2362SOL    HW2 7045   0.492   2.310   9.940
 2363SOL     OW 7046   0.779   3.187   9.628
 2363SOL    HW1 7047   0.753   3.097   9.647
 2363SOL    HW2 7048   0.855   3.202   9.684
 2364SOL     OW 7049   1.379   1.904   9.491
 2364SOL    HW1 7050   1.422   1.827   9.455
 2364SOL    HW2 7051   1.289   1.876   9.506
 2365SOL     OW 7052   0.066   2.926   9.601
 2365SOL    HW1 7053   0.142   2.868   9.595
 2365SOL    HW2 7054   0.050   2.936   9.694
 2366SOL     OW 7055   0.905   3.525   9.660
 2366SOL    HW1 7056   0.826   3.512   9.607
 2366SOL    HW2 7057   0.882   3.594   9.722
 2367SOL     OW 7058   0.266   4.410   0.136
 2367SOL    HW1 7059   0.212   4.369   0.203
 2367SOL    HW2 7060   0.223   4.388   0.054
 2368SOL     OW 7061   0.196   4.005   1.000
 2368SOL    HW1 7062   0.234   3.969   1.080
 2368SOL    HW2 7063   0.104   3.978   1.002
 2369SOL     OW 7064   0.045   4.146   0.635
 2369SOL    HW1 7065   9.951   4.150   0.656
 2369SOL    HW2 7066   0.051   4.084   0.562
 2370SOL     OW 7067   0.569   5.032   1.203
 2370SOL    HW1 7068   0.487   5.035   1.154
 2370SOL    HW2 7069   0.587   5.123   1.226
 2371SOL     OW 7070   1.589   5.247   0.706
 2371SOL    HW1 7071   1.542   5.215   0.783
 2371SOL    HW2 7072   1.523   5.251   0.637
 2372SOL     OW 7073   1.142   4.424   0.686
 2372SOL    HW1 7074   1.187   4.508   0.678
 2372SOL    HW2 7075   1.091   4.433   0.767
 2373SOL     OW 7076   1.776   4.306   0.200
 2373SOL    HW1 7077   1.701   4.337   0.148
 2373SOL    HW2 7078   1.740   4.235   0.252
 2374SOL     OW 7079   0.729   4.854   1.060
 2374SOL    HW1 7080   0.667   4.895   1.120
 2374SOL    HW2 7081   0.772   4.928   1.016
 2375SOL     OW 7082   0.888   4.468   1.826
 2375SOL    HW1 7083   0.893   4.537   1.892
 2375SOL    HW2 7084   0.903   4.514   1.743
 2376SOL     OW 7085   0.692   4.707   0.647
 2376SOL    HW1 7086   0.760   4.708   0.715
 2376SOL    HW2 7087   0.625   4.768   0.679
 2377SOL     OW 7088   0.717   4.872   1.835
 2377SOL    HW1 7089   0.768   4.946   1.869
 2377SOL    HW2 7090   0.643   4.913   1.790
 2378SOL     OW 7091   0.337   5.143   1.061
 2378SOL    HW1 7092   0.264   5.124   1.003
 2378SOL    HW2 7093   0.395   5.200   1.010
 2379SOL     OW 7094   1.453   5.230   1.372
 2379SOL    HW1 7095   1.508   5.308   1.385
 2379SOL    HW2 7096   1.381   5.241   1.434
 2380SOL     OW 7097   0.478   4.110   1.451
 2380SOL    HW1 7098   0.549   4.048   1.466
 2380SOL    HW2 7099   0.399   4.064   1.481
 2381SOL     OW 7100   1.580   4.156   0.753
 2381SOL    HW1 7101   1.505   4.163   0.694
 2381SOL    HW2 7102   1.567   4.226   0.817
 2382SOL     OW 7103   0.266   5.385   0.477
 2382SOL    HW1 7104   0.212   5.461   0.498
 2382SOL    HW2 7105   0.351   5.422   0.450
 2383SOL     OW 7106   1.136   5.065   1.696
 2383SOL    HW1 7107   1.181   5.054   1.780
 2383SOL    HW2 7108   1.083   4.986   1.687
 2384SOL     OW 7109   0.196   5.142   0.556
 2384SOL    HW1 7110   0.227   5.231   0.536
 2384SOL    HW2 7111   0.101   5.147   0.544
 2385SOL     OW 7112   0.279   4.805   0.875
 2385SOL    HW1 7113   0.284   4.714   0.904
 2385SOL    HW2 7114   0.218   4.846   0.937
 2386SOL     OW 7115   0.586   5.533   1.411
 2386SOL    HW1 7116   0.508   5.513   1.462
 2386SOL    HW2 7117   0.618   5.615   1.448
 2387SOL     OW 7118   0.585   4.676   0.160
 2387SOL    HW1 7119   0.553   4.749   0.108
 2387SOL    HW2 7120   0.640   4.717   0.227
 2388SOL     OW 7121   1.593   3.856   1.460
 2388SOL    HW1 7122   1.629   3.933   1.417
 2388SOL    HW2 7123   1.560   3.889   1.544
 2389SOL     OW 7124   0.146   4.397   0.583
 2389SOL    HW1 7125   0.115   4.312   0.614
 2389SOL    HW2 7126   0.124   4.458   0.652
 2390SOL     OW 7127   1.862   5.461   0.306
 2390SOL    HW1 7128   1.932   5.440   0.368
 2390SOL    HW2 7129   1.876   5.554   0.285
 2391SOL     OW 7130   9.982   5.331   0.192
 2391SOL    HW1 7131   0.018   5.242   0.191
 2391SOL    HW2 7132   0.053   5.386   0.160
 2392SOL     OW 7133   1.698   4.645   0.663
 2392SOL    HW1 7134   1.781   4.601   0.644
 2392SOL    HW2 7135   1.678   4.694   0.584
 2393SOL     OW 7136   1.662   4.815   0.442
 2393SOL    HW1 7137   1.743   4.811   0.392
 2393SOL    HW2 7138   1.676   4.885   0.506
 2394SOL     OW 7139   0.178   4.478   1.570
 2394SOL    HW1 7140   0.273   4.477   1.574
 2394SOL    HW2 7141   0.154   4.569   1.590
 2395SOL     OW 7142   0.622   5.112   0.759
 2395SOL    HW1 7143   0.579   5.026   0.757
 2395SOL    HW2 7144   0.613   5.145   0.670
 2396SOL     OW 7145   1.271   4.949   1.418
 2396SOL    HW1 7146   1.298   4.880   1.357
 2396SOL    HW2 7147   1.333   4.943   1.490
 2397SOL     OW 7148   0.861   3.734   0.526
 2397SOL    HW1 7149   0.902   3.813   0.493
 2397SOL    HW2 7150   0.768   3.756   0.534
 2398SOL     OW 7151   0.164   4.664   1.276
 2398SOL    HW1 7152   0.253   4.629   1.267
 2398SOL    HW2 7153   0.136   4.681   1.185
 2399SOL     OW 7154   1.490   4.753   0.235
 2399SOL    HW1 7155   1.436   4.680   0.267
 2399SOL    HW2 7156   1.552   4.769   0.306
 2400SOL     OW 7157   1.179   5.547   1.637
 2400SOL    HW1 7158   1.180   5.609   1.564
 2400SOL    HW2 7159   1.195   5.462   1.596
 2401SOL     OW 7160   0.342   3.975   1.787
 2401SOL    HW1 7161   0.385   4.044   1.837
 2401SOL    HW2 7162   0.250   3.979   1.814
 2402SOL     OW 7163   1.473   5.140   0.931
 2402SOL    HW1 7164   1.409   5.160   0.999
 2402SOL    HW2 7165   1.454   5.049   0.906
 2403SOL     OW 7166   1.644   5.521   0.564
 2403SOL    HW1 7167   1.627   5.475   0.482
 2403SOL    HW2 7168   1.641   5.452   0.631
 2404SOL     OW 7169   0.610   4.418   0.283
 2404SOL    HW1 7170   0.614   4.503   0.238
 2404SOL    HW2 7171   0.541   4.430   0.349
 2405SOL     OW 7172   1.282   4.115   0.941
 2405SOL    HW1 7173   1.193   4.081   0.947
 2405SOL    HW2 7174   1.333   4.056   0.997
 2406SOL     OW 7175   1.591   5.401   0.324
 2406SOL    HW1 7176   1.685   5.412   0.309
 2406SOL    HW2 7177   1.555   5.383   0.237
 2407SOL     OW 7178   0.792   4.334   1.437
 2407SOL    HW1 7179   0.762   4.306   1.523
 2407SOL    HW2 7180   0.766   4.263   1.378
 2408SOL     OW 7181   1.392   4.201   1.673
 2408SOL    HW1 7182   1.397   4.244   1.759
 2408SOL    HW2 7183   1.442   4.120   1.684
 2409SOL     OW 7184   0.944   4.606   1.590
 2409SOL    HW1 7185   1.000   4.541   1.546
 2409SOL    HW2 7186   0.897   4.649   1.520
 2410SOL     OW 7187   1.009   4.121   1.210
 2410SOL    HW1 7188   0.917   4.135   1.232
 2410SOL    HW2 7189   1.007   4.076   1.125
 2411SOL     OW 7190   1.071   4.423   0.417
 2411SOL    HW1 7191   1.091   4.419   0.511
 2411SOL    HW2 7192   0.987   4.378   0.409
 2412SOL     OW 7193   0.066   4.556   0.812
 2412SOL    HW1 7194   0.152   4.551   0.853
 2412SOL    HW2 7195   0.009   4.591   0.881
 2413SOL     OW 7196   0.112   5.587   1.581
 2413SOL    HW1 7197   0.110   5.581   1.676
 2413SOL    HW2 7198   0.058   5.513   1.551
 2414SOL     OW 7199   0.861   4.064   0.199
 2414SOL    HW1 7200   0.848   4.110   0.117
 2414SOL    HW2 7201   0.865   3.971   0.174
 2415SOL     OW 7202   1.687   4.287   1.840
 2415SOL    HW1 7203   1.665   4.364   1.788
 2415SOL    HW2 7204   1.715   4.222   1.775
 2416SOL     OW 7205   1.396   4.873   0.556
 2416SOL    HW1 7206   1.474   4.864   0.502
 2416SOL    HW2 7207   1.340   4.934   0.508
 2417SOL     OW 7208   0.567   3.898   0.913
 2417SOL    HW1 7209   0.568   3.924   1.005
 2417SOL    HW2 7210   0.553   3.980   0.865
 2418SOL     OW 7211   0.998   5.172   0.470
 2418SOL    HW1 7212   0.976   5.248   0.416
 2418SOL    HW2 7213   0.965   5.194   0.557
 2419SOL     OW 7214   0.337   5.528   0.947
 2419SOL    HW1 7215   0.386   5.449   0.926
 2419SOL    HW2 7216   0.391   5.600   0.913
 2420SOL     OW 7217   1.803   4.768   0.894
 2420SOL    HW1 7218   1.755   4.750   0.814
 2420SOL    HW2 7219   1.736   4.778   0.961
 2421SOL     OW 7220   1.218   5.267   1.516
 2421SOL    HW1 7221   1.207   5.196   1.579
 2421SOL    HW2 7222   1.149   5.253   1.451
 2422SOL     OW 7223   0.329   4.660   0.271
 2422SOL    HW1 7224   0.415   4.670   0.230
 2422SOL    HW2 7225   0.310   4.566   0.263
 2423SOL     OW 7226   1.486   4.481   0.712
 2423SOL    HW1 7227   1.486   4.440   0.799
 2423SOL    HW2 7228   1.564   4.536   0.712
 2424SOL     OW 7229   0.485   4.999   1.735
 2424SOL    HW1 7230   0.462   5.007   1.642
 2424SOL    HW2 7231   0.401   4.989   1.780
 2425SOL     OW 7232   1.108   5.508   0.178
 2425SOL    HW1 7233   1.051   5.467   0.243
 2425SOL    HW2 7234   1.148   5.435   0.131
 2426SOL     OW 7235   0.221   4.005   1.497
 2426SOL    HW1 7236   0.130   4.033   1.483
 2426SOL    HW2 7237   0.214   3.934   1.562
 2427SOL     OW 7238   1.630   5.094   0.111
 2427SOL    HW1 7239   1.589   5.180   0.104
 2427SOL    HW2 7240   1.563   5.034   0.077
 2428SOL     OW 7241   0.521   5.458   0.378
 2428SOL    HW1 7242   0.557   5.531   0.429
 2428SOL    HW2 7243   0.584   5.444   0.308
 2429SOL     OW 7244   1.397   3.828   0.448
 2429SOL    HW1 7245   1.394   3.807   0.354
 2429SOL    HW2 7246   1.489   3.814   0.472
 2430SOL     OW 7247   0.257   5.514   1.217
 2430SOL    HW1 7248   0.301   5.436   1.250
 2430SOL    HW2 7249   0.273   5.513   1.123
 2431SOL     OW 7250   0.952   5.426   0.892
 2431SOL    HW1 7251   1.035   5.380   0.907
 2431SOL    HW2 7252   0.908   5.375   0.824
 2432SOL     OW 7253   0.401   4.421   0.467
 2432SOL    HW1 7254   0.419   4.330   0.489
 2432SOL    HW2 7255   0.312   4.437   0.500
 2433SOL     OW 7256   1.508   3.947   1.717
 2433SOL    HW1 7257   1.520   3.965   1.810
 2433SOL    HW2 7258   1.441   3.878   1.715
 2434SOL     OW 7259   0.613   3.817   0.170
 2434SOL    HW1 7260   0.704   3.804   0.141
 2434SOL    HW2 7261   0.562   3.812   0.089
 2435SOL     OW 7262   0.758   4.001   1.755
 2435SOL    HW1 7263   0.842   3.956   1.754
 2435SOL    HW2 7264   0.711   3.962   1.829
 2436SOL     OW 7265   0.871   5.251   1.200
 2436SOL    HW1 7266   0.853   5.210   1.115
 2436SOL    HW2 7267   0.939   5.196   1.239
 2437SOL     OW 7268   1.329   4.315   1.433
 2437SOL    HW1 7269   1.362   4.285   1.517
 2437SOL    HW2 7270   1.367   4.403   1.422
 2438SOL     OW 7271   0.820   5.101   0.962
 2438SOL    HW1 7272   0.905   5.097   0.918
 2438SOL    HW2 7273   0.757   5.114   0.891
 2439SOL     OW 7274   0.932   4.239   0.890
 2439SOL    HW1 7275   0.907   4.226   0.799
 2439SOL    HW2 7276   0.957   4.152   0.922
 2440SOL     OW 7277   0.605   3.809   0.522
 2440SOL    HW1 7278   0.531   3.805   0.583
 2440SOL    HW2 7279   0.585   3.884   0.466
 2441SOL     OW 7280   1.423   4.922   0.034
 2441SOL    HW1 7281   1.449   4.857   0.100
 2441SOL    HW2 7282   1.342   4.960   0.069
 2442SOL     OW 7283   0.962   3.975   0.446
 2442SOL    HW1 7284   0.928   4.012   0.365
 2442SOL    HW2 7285   1.055   4.001   0.446
 2443SOL     OW 7286   1.074   4.417   1.444
 2443SOL    HW1 7287   1.009   4.347   1.450
 2443SOL    HW2 7288   1.158   4.373   1.441
 2444SOL     OW 7289   1.210   5.311   0.800
 2444SOL    HW1 7290   1.224   5.370   0.727
 2444SOL    HW2 7291   1.281   5.330   0.861
 2445SOL     OW 7292   0.489   4.877   0.722
 2445SOL    HW1 7293   0.418   4.856   0.783
 2445SOL    HW2 7294   0.449   4.870   0.635
 2446SOL     OW 7295   1.256   5.517   0.613
 2446SOL    HW1 7296   1.303   5.581   0.560
 2446SOL    HW2 7297   1.188   5.567   0.657
 2447SOL     OW 7298   1.093   4.286   9.981
 2447SOL    HW1 7299   1.006   4.246   9.988
 2447SOL    HW2 7300   1.129   4.279   0.069
 2448SOL     OW 7301   0.104   4.310   1.360
 2448SOL    HW1 7302   0.194   4.298   1.332
 2448SOL    HW2 7303   0.110   4.366   1.437
 2449SOL     OW 7304   0.563   3.947   1.184
 2449SOL    HW1 7305   0.599   3.876   1.237
 2449SOL    HW2 7306   0.469   3.947   1.203
 2450SOL     OW 7307   0.877   4.173   0.633
 2450SOL    HW1 7308   0.844   4.230   0.564
 2450SOL    HW2 7309   0.902   4.092   0.588
 2451SOL     OW 7310   1.034   3.781   0.746
 2451SOL    HW1 7311   0.973   3.774   0.673
 2451SOL    HW2 7312   1.009   3.709   0.805
 2452SOL     OW 7313   1.431   4.877   0.854
 2452SOL    HW1 7314   1.362   4.812   0.867
 2452SOL    HW2 7315   1.440   4.883   0.759
 2453SOL     OW 7316   1.462   4.339   0.951
 2453SOL    HW1 7317   1.398   4.269   0.962
 2453SOL    HW2 7318   1.517   4.332   1.029
 2454SOL     OW 7319   1.861   4.513   0.369
 2454SOL    HW1 7320   1.902   4.464   0.439
 2454SOL    HW2 7321   1.821   4.446   0.313
 2455SOL     OW 7322   0.481   5.191   0.196
 2455SOL    HW1 7323   0.412   5.139   0.236
 2455SOL    HW2 7324   0.529   5.130   0.140
 2456SOL     OW 7325   1.711   4.997   0.629
 2456SOL    HW1 7326   1.803   4.990   0.654
 2456SOL    HW2 7327   1.685   5.085   0.657
 2457SOL     OW 7328   1.417   4.289   0.092
 2457SOL    HW1 7329   1.341   4.278   0.149
 2457SOL    HW2 7330   1.455   4.201   0.085
 2458SOL     OW 7331   0.519   4.000   0.343
 2458SOL    HW1 7332   0.552   3.933   0.282
 2458SOL    HW2 7333   0.496   4.074   0.286
 2459SOL     OW 7334   1.735   4.968   1.533
 2459SOL    HW1 7335   1.823   4.934   1.519
 2459SOL    HW2 7336   1.749   5.055   1.570
 2460SOL     OW 7337   1.043   5.080   1.335
 2460SOL    HW1 7338   0.966   5.045   1.379
 2460SOL    HW2 7339   1.117   5.033   1.376
 2461SOL     OW 7340   1.608   5.359   1.672
 2461SOL    HW1 7341   1.597   5.395   1.585
 2461SOL    HW2 7342   1.686   5.303   1.665
 2462SOL     OW 7343   1.152   4.962   1.105
 2462SOL    HW1 7344   1.089   4.995   1.169
 2462SOL    HW2 7345   1.119   4.994   1.020
 2463SOL     OW 7346   1.607   4.816   1.078
 2463SOL    HW1 7347   1.600   4.882   1.147
 2463SOL    HW2 7348   1.538   4.837   1.016
 2464SOL     OW 7349   0.921   3.805   1.385
 2464SOL    HW1 7350   0.941   3.790   1.292
 2464SOL    HW2 7351   1.001   3.846   1.419
 2465SOL     OW 7352   0.981   4.839   1.723
 2465SOL    HW1 7353   0.891   4.855   1.751
 2465SOL    HW2 7354   0.976   4.759   1.670
 2466SOL     OW 7355   0.725   4.779   0.376
 2466SOL    HW1 7356   0.709   4.753   0.467
 2466SOL    HW2 7357   0.805   4.732   0.352
 2467SOL     OW 7358   0.420   4.559   1.261
 2467SOL    HW1 7359   0.490   4.569   1.326
 2467SOL    HW2 7360   0.396   4.467   1.266
 2468SOL     OW 7361   1.266   4.092   1.292
 2468SOL    HW1 7362   1.293   4.172   1.336
 2468SOL    HW2 7363   1.177   4.109   1.262
 2469SOL     OW 7364   0.076   5.306   1.331
 2469SOL    HW1 7365   0.075   5.385   1.277
 2469SOL    HW2 7366   0.169   5.287   1.344
 2470SOL     OW 7367   0.372   4.846   0.480
 2470SOL    HW1 7368   0.353   4.918   0.418
 2470SOL    HW2 7369   0.369   4.767   0.426
 2471SOL     OW 7370   0.535   4.239   0.861
 2471SOL    HW1 7371   0.546   4.299   0.788
 2471SOL    HW2 7372   0.602   4.267   0.925
 2472SOL     OW 7373   1.249   5.071   0.419
 2472SOL    HW1 7374   1.303   5.145   0.447
 2472SOL    HW2 7375   1.160   5.096   0.445
 2473SOL     OW 7376   1.309   5.193   1.142
 2473SOL    HW1 7377   1.356   5.199   1.225
 2473SOL    HW2 7378   1.258   5.113   1.149
 2474SOL     OW 7379   1.539   4.347   0.471
 2474SOL    HW1 7380   1.519   4.384   0.557
 2474SOL    HW2 7381   1.492   4.404   0.409
 2475SOL     OW 7382   0.348   5.256   1.306
 2475SOL    HW1 7383   0.335   5.211   1.222
 2475SOL    HW2 7384   0.442   5.272   1.311
 2476SOL     OW 7385   0.451   4.458   1.620
 2476SOL    HW1 7386   0.508   4.501   1.555
 2476SOL    HW2 7387   0.500   4.380   1.646
 2477SOL     OW 7388   1.627   4.510   1.698
 2477SOL    HW1 7389   1.540   4.548   1.689
 2477SOL    HW2 7390   1.678   4.548   1.626
 2478SOL     OW 7391   0.994   3.867   1.761
 2478SOL    HW1 7392   1.053   3.940   1.740
 2478SOL    HW2 7393   1.045   3.788   1.739
 2479SOL     OW 7394   0.504   3.757   1.747
 2479SOL    HW1 7395   0.456   3.705   1.682
 2479SOL    HW2 7396   0.450   3.835   1.759
 2480SOL     OW 7397   0.593   4.599   1.043
 2480SOL    HW1 7398   0.630   4.688   1.043
 2480SOL    HW2 7399   0.531   4.599   1.116
 2481SOL     OW 7400   1.309   4.577   1.004
 2481SOL    HW1 7401   1.220   4.551   0.978
 2481SOL    HW2 7402   1.363   4.500   0.986
 2482SOL     OW 7403   1.192   4.244   0.245
 2482SOL    HW1 7404   1.207   4.170   0.303
 2482SOL    HW2 7405   1.152   4.311   0.301
 2483SOL     OW 7406   0.296   3.919   1.241
 2483SOL    HW1 7407   0.270   3.949   1.328
 2483SOL    HW2 7408   0.278   3.825   1.242
 2484SOL     OW 7409   0.004   5.044   1.281
 2484SOL    HW1 7410   0.051   4.996   1.350
 2484SOL    HW2 7411   0.019   5.136   1.302
 2485SOL     OW 7412   0.712   4.348   1.041
 2485SOL    HW1 7413   0.789   4.342   0.985
 2485SOL    HW2 7414   0.682   4.438   1.033
 2486SOL     OW 7415   1.751   4.692   1.869
 2486SOL    HW1 7416   1.711   4.619   1.821
 2486SOL    HW2 7417   1.687   4.712   1.938
 2487SOL     OW 7418   0.371   3.812   0.655
 2487SOL    HW1 7419   0.343   3.894   0.694
 2487SOL    HW2 7420   0.291   3.759   0.651
 2488SOL     OW 7421   1.637   4.118   0.351
 2488SOL    HW1 7422   1.670   4.054   0.415
 2488SOL    HW2 7423   1.601   4.188   0.405
 2489SOL     OW 7424   1.037   4.482   0.957
 2489SOL    HW1 7425   1.015   4.497   1.049
 2489SOL    HW2 7426   1.006   4.393   0.939
 2490SOL     OW 7427   0.982   5.289   1.734
 2490SOL    HW1 7428   0.961   5.332   1.651
 2490SOL    HW2 7429   1.020   5.206   1.708
 2491SOL     OW 7430   1.838   5.218   1.603
 2491SOL    HW1 7431   1.865   5.248   1.515
 2491SOL    HW2 7432   1.917   5.229   1.656
 2492SOL     OW 7433   0.364   4.643   1.810
 2492SOL    HW1 7434   0.438   4.666   1.867
 2492SOL    HW2 7435   0.400   4.576   1.751
 2493SOL     OW 7436   1.500   4.029   0.128
 2493SOL    HW1 7437   1.452   3.949   0.150
 2493SOL    HW2 7438   1.548   4.051   0.208
 2494SOL     OW 7439   1.323   4.542   0.038
 2494SOL    HW1 7440   1.357   4.452   0.039
 2494SOL    HW2 7441   1.383   4.589   9.981
 2495SOL     OW 7442   1.073   5.077   0.865
 2495SOL    HW1 7443   1.083   5.004   0.804
 2495SOL    HW2 7444   1.124   5.148   0.827
 2496SOL     OW 7445   0.315   4.533   0.941
 2496SOL    HW1 7446   0.410   4.548   0.936
 2496SOL    HW2 7447   0.307   4.442   0.970
 2497SOL     OW 7448   0.311   4.252   1.011
 2497SOL    HW1 7449   0.269   4.167   1.003
 2497SOL    HW2 7450   0.387   4.247   0.952
 2498SOL     OW 7451   1.138   4.092   1.685
 2498SOL    HW1 7452   1.093   4.144   1.752
 2498SOL    HW2 7453   1.224   4.135   1.676
 2499SOL     OW 7454   1.158   3.914   1.474
 2499SOL    HW1 7455   1.146   3.976   1.546
 2499SOL    HW2 7456   1.204   3.963   1.407
 2500SOL     OW 7457   9.991   5.031   0.239
 2500SOL    HW1 7458   9.914   5.022   0.184
 2500SOL    HW2 7459   0.011   4.942   0.268
 2501SOL     OW 7460   0.080   5.409   0.949
 2501SOL    HW1 7461   0.115   5.326   0.916
 2501SOL    HW2 7462   0.153   5.471   0.939
 2502SOL     OW 7463   0.498   5.302   0.913
 2502SOL    HW1 7464   0.565   5.370   0.922
 2502SOL    HW2 7465   0.537   5.236   0.857
 2503SOL     OW 7466   0.950   4.505   1.213
 2503SOL    HW1 7467   1.009   4.492   1.287
 2503SOL    HW2 7468   0.870   4.459   1.239
 2504SOL     OW 7469   0.037   4.288   1.086
 2504SOL    HW1 7470   0.129   4.292   1.061
 2504SOL    HW2 7471   0.037   4.293   1.181
 2505SOL     OW 7472   0.171   4.239   1.699
 2505SOL    HW1 7473   0.227   4.187   1.641
 2505SOL    HW2 7474   0.160   4.323   1.653
 2506SOL     OW 7475   1.392   4.644   1.652
 2506SOL    HW1 7476   1.409   4.739   1.646
 2506SOL    HW2 7477   1.384   4.617   1.561
 2507SOL     OW 7478   0.836   4.287   0.376
 2507SOL    HW1 7479   0.838   4.212   0.316
 2507SOL    HW2 7480   0.759   4.337   0.348
 2508SOL     OW 7481   1.636   4.325   1.164
 2508SOL    HW1 7482   1.626   4.266   1.239
 2508SOL    HW2 7483   1.727   4.314   1.136
 2509SOL     OW 7484   0.257   5.284   1.723
 2509SOL    HW1 7485   0.263   5.322   1.811
 2509SOL    HW2 7486   0.265   5.190   1.737
 2510SOL     OW 7487   0.737   4.158   1.235
 2510SOL    HW1 7488   0.673   4.088   1.222
 2510SOL    HW2 7489   0.718   4.222   1.167
 2511SOL     OW 7490   0.906   5.403   1.489
 2511SOL    HW1 7491   0.882   5.355   1.409
 2511SOL    HW2 7492   0.908   5.495   1.461
 2512SOL     OW 7493   0.461   4.216   0.159
 2512SOL    HW1 7494   0.536   4.264   0.196
 2512SOL    HW2 7495   0.394   4.283   0.145
 2513SOL     OW 7496   0.156   4.879   1.443
 2513SOL    HW1 7497   0.149   4.837   1.528
 2513SOL    HW2 7498   0.165   4.806   1.381
 2514SOL     OW 7499   1.304   4.758   1.208
 2514SOL    HW1 7500   1.313   4.694   1.138
 2514SOL    HW2 7501   1.251   4.828   1.171
 2515SOL     OW 7502   1.328   4.542   0.318
 2515SOL    HW1 7503   1.243   4.520   0.357
 2515SOL    HW2 7504   1.313   4.538   0.224
 2516SOL     OW 7505   1.787   5.447   1.171
 2516SOL    HW1 7506   1.849   5.473   1.102
 2516SOL    HW2 7507   1.755   5.362   1.144
 2517SOL     OW 7508   1.241   5.458   1.091
 2517SOL    HW1 7509   1.326   5.487   1.057
 2517SOL    HW2 7510   1.255   5.367   1.115
 2518SOL     OW 7511   0.099   4.899   1.054
 2518SOL    HW1 7512   0.103   4.959   1.129
 2518SOL    HW2 7513   0.006   4.896   1.031
 2519SOL     OW 7514   0.692   5.407   1.748
 2519SOL    HW1 7515   0.631   5.480   1.735
 2519SOL    HW2 7516   0.766   5.427   1.691
 2520SOL     OW 7517   0.886   3.801   0.099
 2520SOL    HW1 7518   0.882   3.774   0.007
 2520SOL    HW2 7519   0.964   3.758   0.134
 2521SOL     OW 7520   1.754   3.906   0.496
 2521SOL    HW1 7521   1.814   3.883   0.425
 2521SOL    HW2 7522   1.724   3.822   0.530
 2522SOL     OW 7523   1.400   5.295   0.503
 2522SOL    HW1 7524   1.457   5.330   0.435
 2522SOL    HW2 7525   1.347   5.370   0.531
 2523SOL     OW 7526   0.113   5.520   1.856
 2523SOL    HW1 7527   0.074   5.467   1.926
 2523SOL    HW2 7528   0.186   5.566   1.899
 2524SOL     OW 7529   1.281   4.656   0.669
 2524SOL    HW1 7530   1.354   4.596   0.681
 2524SOL    HW2 7531   1.317   4.729   0.619
 2525SOL     OW 7532   0.784   5.005   1.412
 2525SOL    HW1 7533   0.760   5.053   1.491
 2525SOL    HW2 7534   0.709   5.017   1.353
 2526SOL     OW 7535   0.692   5.360   0.177
 2526SOL    HW1 7536   0.702   5.367   0.082
 2526SOL    HW2 7537   0.624   5.294   0.189
 2527SOL     OW 7538   1.616   5.454   1.402
 2527SOL    HW1 7539   1.673   5.454   1.325
 2527SOL    HW2 7540   1.600   5.546   1.421
 2528SOL     OW 7541   1.845   3.884   0.964
 2528SOL    HW1 7542   1.873   3.794   0.944
 2528SOL    HW2 7543   1.757   3.890   0.927
 2529SOL     OW 7544   0.281   4.050   0.743
 2529SOL    HW1 7545   0.203   4.089   0.704
 2529SOL    HW2 7546   0.256   4.034   0.834
 2530SOL     OW 7547   1.219   5.290   0.051
 2530SOL    HW1 7548   1.205   5.201   0.083
 2530SOL    HW2 7549   1.231   5.280   9.957
 2531SOL     OW 7550   0.825   4.737   1.382
 2531SOL    HW1 7551   0.860   4.728   1.293
 2531SOL    HW2 7552   0.813   4.831   1.394
 2532SOL     OW 7553   0.943   4.645   0.296
 2532SOL    HW1 7554   0.992   4.664   0.215
 2532SOL    HW2 7555   0.991   4.573   0.336
 2533SOL     OW 7556   1.490   5.336   0.074
 2533SOL    HW1 7557   1.395   5.327   0.081
 2533SOL    HW2 7558   1.507   5.345   9.980
 2534SOL     OW 7559   0.371   5.045   1.495
 2534SOL    HW1 7560   0.363   5.119   1.436
 2534SOL    HW2 7561   0.298   4.987   1.472
 2535SOL     OW 7562   1.599   5.015   1.278
 2535SOL    HW1 7563   1.653   4.990   1.353
 2535SOL    HW2 7564   1.540   5.081   1.311
 2536SOL     OW 7565   1.079   4.842   0.730
 2536SOL    HW1 7566   1.003   4.795   0.762
 2536SOL    HW2 7567   1.139   4.774   0.701
 2537SOL     OW 7568   1.034   3.972   0.964
 2537SOL    HW1 7569   1.034   3.930   0.878
 2537SOL    HW2 7570   1.025   3.900   1.026
 2538SOL     OW 7571   0.624   5.218   0.509
 2538SOL    HW1 7572   0.661   5.161   0.441
 2538SOL    HW2 7573   0.565   5.277   0.462
 2539SOL     OW 7574   1.745   4.106   1.388
 2539SOL    HW1 7575   1.816   4.170   1.384
 2539SOL    HW2 7576   1.772   4.037   1.327
 2540SOL     OW 7577   0.271   5.048   0.308
 2540SOL    HW1 7578   0.183   5.042   0.270
 2540SOL    HW2 7579   0.257   5.084   0.396
 2541SOL     OW 7580   0.141   4.733   1.674
 2541SOL    HW1 7581   0.075   4.750   1.741
 2541SOL    HW2 7582   0.223   4.722   1.724
 2542SOL     OW 7583   0.685   3.916   1.497
 2542SOL    HW1 7584   0.769   3.890   1.459
 2542SOL    HW2 7585   0.707   3.948   1.584
 2543SOL     OW 7586   0.026   4.114   0.035
 2543SOL    HW1 7587   9.944   4.145   0.074
 2543SOL    HW2 7588   0.059   4.189   9.985
 2544SOL     OW 7589   1.414   4.578   1.388
 2544SOL    HW1 7590   1.362   4.636   1.333
 2544SOL    HW2 7591   1.502   4.582   1.351
 2545SOL     OW 7592   0.104   3.785   0.210
 2545SOL    HW1 7593   0.145   3.872   0.210
 2545SOL    HW2 7594   0.178   3.724   0.207
 2546SOL     OW 7595   1.194   5.035   0.146
 2546SOL    HW1 7596   1.103   5.007   0.138
 2546SOL    HW2 7597   1.212   5.033   0.240
 2547SOL     OW 7598   0.629   4.555   1.436
 2547SOL    HW1 7599   0.688   4.630   1.424
 2547SOL    HW2 7600   0.687   4.479   1.435
 2548SOL     OW 7601   1.487   5.526   0.992
 2548SOL    HW1 7602   1.514   5.601   0.938
 2548SOL    HW2 7603   1.569   5.481   1.013
 2549SOL     OW 7604   0.711   4.278   1.692
 2549SOL    HW1 7605   0.762   4.331   1.753
 2549SOL    HW2 7606   0.724   4.188   1.723
 2550SOL     OW 7607   1.469   4.908   1.620
 2550SOL    HW1 7608   1.461   4.930   1.712
 2550SOL    HW2 7609   1.558   4.932   1.596
 2551SOL     OW 7610   0.365   5.479   1.562
 2551SOL    HW1 7611   0.282   5.523   1.544
 2551SOL    HW2 7612   0.341   5.396   1.603
 2552SOL     OW 7613   1.655   4.599   1.253
 2552SOL    HW1 7614   1.653   4.516   1.207
 2552SOL    HW2 7615   1.642   4.665   1.185
 2553SOL     OW 7616   1.228   4.052   0.449
 2553SOL    HW1 7617   1.286   3.976   0.448
 2553SOL    HW2 7618   1.255   4.102   0.525
 2554SOL     OW 7619   0.573   4.456   0.688
 2554SOL    HW1 7620   0.620   4.538   0.675
 2554SOL    HW2 7621   0.515   4.448   0.613
 2555SOL     OW 7622   1.747   4.079   1.664
 2555SOL    HW1 7623   1.743   4.095   1.570
 2555SOL    HW2 7624   1.670   4.026   1.682
 2556SOL     OW 7625   1.760   4.649   1.504
 2556SOL    HW1 7626   1.743   4.742   1.517
 2556SOL    HW2 7627   1.733   4.631   1.414
 2557SOL     OW 7628   0.899   5.140   0.046
 2557SOL    HW1 7629   0.813   5.100   0.031
 2557SOL    HW2 7630   0.892   5.180   0.132
 2558SOL     OW 7631   0.673   5.503   0.921
 2558SOL    HW1 7632   0.648   5.595   0.912
 2558SOL    HW2 7633   0.769   5.504   0.920
 2559SOL     OW 7634   0.876   4.702   0.859
 2559SOL    HW1 7635   0.925   4.628   0.895
 2559SOL    HW2 7636   0.829   4.738   0.934
 2560SOL     OW 7637   1.095   4.693   0.072
 2560SOL    HW1 7638   1.095   4.749   9.995
 2560SOL    HW2 7639   1.169   4.634   0.059
 2561SOL     OW 7640   1.829   5.282   0.842
 2561SOL    HW1 7641   1.753   5.273   0.784
 2561SOL    HW2 7642   1.807   5.231   0.919
 2562SOL     OW 7643   0.239   5.025   1.839
 2562SOL    HW1 7644   0.148   5.029   1.810
 2562SOL    HW2 7645   0.234   5.035   1.934
 2563SOL     OW 7646   0.101   4.832   0.584
 2563SOL    HW1 7647   0.074   4.821   0.675
 2563SOL    HW2 7648   0.194   4.856   0.589
 2564SOL     OW 7649   0.699   5.143   1.633
 2564SOL    HW1 7650   0.622   5.102   1.671
 2564SOL    HW2 7651   0.699   5.232   1.670
 2565SOL     OW 7652   1.811   3.896   1.234
 2565SOL    HW1 7653   1.812   3.801   1.248
 2565SOL    HW2 7654   1.825   3.907   1.140
 2566SOL     OW 7655   0.446   4.173   0.547
 2566SOL    HW1 7656   0.484   4.102   0.496
 2566SOL    HW2 7657   0.409   4.131   0.624
 2567SOL     OW 7658   1.696   5.204   1.082
 2567SOL    HW1 7659   1.617   5.184   1.030
 2567SOL    HW2 7660   1.696   5.136   1.150
 2568SOL     OW 7661   0.364   4.294   1.285
 2568SOL    HW1 7662   0.414   4.231   1.337
 2568SOL    HW2 7663   0.367   4.259   1.196
 2569SOL     OW 7664   0.844   5.319   0.664
 2569SOL    HW1 7665   0.836   5.402   0.617
 2569SOL    HW2 7666   0.764   5.271   0.642
 2570SOL     OW 7667   1.421   3.955   1.115
 2570SOL    HW1 7668   1.427   3.865   1.147
 2570SOL    HW2 7669   1.376   4.003   1.185
 2571SOL     OW 7670   1.010   3.741   1.121
 2571SOL    HW1 7671   0.955   3.677   1.075
 2571SOL    HW2 7672   1.097   3.700   1.124
 2572SOL     OW 7673   0.768   5.053   0.343
 2572SOL    HW1 7674   0.749   4.959   0.347
 2572SOL    HW2 7675   0.854   5.062   0.385
 2573SOL     OW 7676   0.618   5.292   1.287
 2573SOL    HW1 7677   0.615   5.378   1.329
 2573SOL    HW2 7678   0.707   5.286   1.253
 2574SOL     OW 7679   1.355   3.782   0.177
 2574SOL    HW1 7680   1.380   3.742   0.093
 2574SOL    HW2 7681   1.265   3.753   0.191
 2575SOL     OW 7682   1.302   4.192   0.676
 2575SOL    HW1 7683   1.252   4.274   0.671
 2575SOL    HW2 7684   1.291   4.162   0.766
 2576SOL     OW 7685   1.583   3.912   0.894
 2576SOL    HW1 7686   1.530   3.941   0.968
 2576SOL    HW2 7687   1.581   3.986   0.833
 2577SOL     OW 7688   0.083   4.782   0.321
 2577SOL    HW1 7689   0.171   4.746   0.313
 2577SOL    HW2 7690   0.072   4.797   0.415
 2578SOL     OW 7691   0.913   5.398   0.337
 2578SOL    HW1 7692   0.833   5.386   0.285
 2578SOL    HW2 7693   0.891   5.467   0.400
 2579SOL     OW 7694   0.286   4.318   1.943
 2579SOL    HW1 7695   0.219   4.335   2.009
 2579SOL    HW2 7696   0.236   4.298   1.863
 2580SOL     OW 7697   0.198   4.004   2.860
 2580SOL    HW1 7698   0.235   3.968   2.941
 2580SOL    HW2 7699   0.106   3.978   2.862
 2581SOL     OW 7700   0.042   4.150   2.494
 2581SOL    HW1 7701   9.950   4.162   2.520
 2581SOL    HW2 7702   0.039   4.087   2.423
 2582SOL     OW 7703   0.570   5.032   3.064
 2582SOL    HW1 7704   0.486   5.034   3.017
 2582SOL    HW2 7705   0.586   5.123   3.087
 2583SOL     OW 7706   1.588   5.248   2.567
 2583SOL    HW1 7707   1.541   5.217   2.644
 2583SOL    HW2 7708   1.521   5.251   2.498
 2584SOL     OW 7709   1.139   4.429   2.549
 2584SOL    HW1 7710   1.185   4.512   2.538
 2584SOL    HW2 7711   1.090   4.439   2.631
 2585SOL     OW 7712   1.801   4.305   2.082
 2585SOL    HW1 7713   1.763   4.305   1.994
 2585SOL    HW2 7714   1.757   4.234   2.128
 2586SOL     OW 7715   0.728   4.854   2.919
 2586SOL    HW1 7716   0.666   4.894   2.980
 2586SOL    HW2 7717   0.771   4.928   2.876
 2587SOL     OW 7718   0.888   4.468   3.688
 2587SOL    HW1 7719   0.894   4.537   3.755
 2587SOL    HW2 7720   0.903   4.514   3.605
 2588SOL     OW 7721   0.687   4.707   2.510
 2588SOL    HW1 7722   0.757   4.706   2.575
 2588SOL    HW2 7723   0.624   4.770   2.544
 2589SOL     OW 7724   0.716   4.872   3.697
 2589SOL    HW1 7725   0.767   4.946   3.731
 2589SOL    HW2 7726   0.643   4.913   3.652
 2590SOL     OW 7727   0.334   5.149   2.925
 2590SOL    HW1 7728   0.258   5.132   2.870
 2590SOL    HW2 7729   0.392   5.202   2.870
 2591SOL     OW 7730   1.454   5.230   3.234
 2591SOL    HW1 7731   1.509   5.307   3.247
 2591SOL    HW2 7732   1.382   5.241   3.296
 2592SOL     OW 7733   0.479   4.109   3.311
 2592SOL    HW1 7734   0.550   4.047   3.329
 2592SOL    HW2 7735   0.400   4.065   3.342
 2593SOL     OW 7736   1.584   4.156   2.617
 2593SOL    HW1 7737   1.517   4.166   2.550
 2593SOL    HW2 7738   1.566   4.226   2.680
 2594SOL     OW 7739   0.223   5.383   2.290
 2594SOL    HW1 7740   0.183   5.449   2.346
 2594SOL    HW2 7741   0.304   5.423   2.260
 2595SOL     OW 7742   1.136   5.066   3.558
 2595SOL    HW1 7743   1.181   5.054   3.641
 2595SOL    HW2 7744   1.082   4.986   3.549
 2596SOL     OW 7745   0.287   5.126   2.364
 2596SOL    HW1 7746   0.257   5.217   2.360
 2596SOL    HW2 7747   0.232   5.086   2.431
 2597SOL     OW 7748   0.308   4.804   2.767
 2597SOL    HW1 7749   0.301   4.711   2.784
 2597SOL    HW2 7750   0.237   4.844   2.817
 2598SOL     OW 7751   0.585   5.534   3.271
 2598SOL    HW1 7752   0.507   5.513   3.323
 2598SOL    HW2 7753   0.618   5.615   3.309
 2599SOL     OW 7754   0.570   4.712   2.016
 2599SOL    HW1 7755   0.622   4.754   1.946
 2599SOL    HW2 7756   0.608   4.746   2.097
 2600SOL     OW 7757   1.592   3.856   3.322
 2600SOL    HW1 7758   1.630   3.932   3.278
 2600SOL    HW2 7759   1.560   3.890   3.405
 2601SOL     OW 7760   0.147   4.399   2.435
 2601SOL    HW1 7761   0.113   4.314   2.462
 2601SOL    HW2 7762   0.124   4.458   2.507
 2602SOL     OW 7763   1.846   5.467   2.179
 2602SOL    HW1 7764   1.918   5.452   2.240
 2602SOL    HW2 7765   1.853   5.560   2.156
 2603SOL     OW 7766   0.029   5.345   2.062
 2603SOL    HW1 7767   0.010   5.251   2.058
 2603SOL    HW2 7768   0.087   5.355   2.137
 2604SOL     OW 7769   1.698   4.650   2.515
 2604SOL    HW1 7770   1.779   4.605   2.491
 2604SOL    HW2 7771   1.676   4.702   2.437
 2605SOL     OW 7772   1.657   4.829   2.295
 2605SOL    HW1 7773   1.741   4.821   2.251
 2605SOL    HW2 7774   1.671   4.895   2.363
 2606SOL     OW 7775   0.177   4.479   3.429
 2606SOL    HW1 7776   0.272   4.477   3.434
 2606SOL    HW2 7777   0.154   4.569   3.453
 2607SOL     OW 7778   0.627   5.122   2.600
 2607SOL    HW1 7779   0.585   5.037   2.606
 2607SOL    HW2 7780   0.610   5.151   2.510
 2608SOL     OW 7781   1.271   4.949   3.279
 2608SOL    HW1 7782   1.298   4.880   3.219
 2608SOL    HW2 7783   1.333   4.944   3.352
 2609SOL     OW 7784   0.855   3.731   2.382
 2609SOL    HW1 7785   0.894   3.813   2.352
 2609SOL    HW2 7786   0.760   3.748   2.381
 2610SOL     OW 7787   0.164   4.663   3.138
 2610SOL    HW1 7788   0.253   4.629   3.129
 2610SOL    HW2 7789   0.134   4.675   3.048
 2611SOL     OW 7790   1.534   4.739   2.062
 2611SOL    HW1 7791   1.465   4.679   2.091
 2611SOL    HW2 7792   1.576   4.769   2.142
 2612SOL     OW 7793   1.178   5.547   3.499
 2612SOL    HW1 7794   1.180   5.609   3.426
 2612SOL    HW2 7795   1.195   5.462   3.459
 2613SOL     OW 7796   0.340   3.975   3.648
 2613SOL    HW1 7797   0.384   4.043   3.699
 2613SOL    HW2 7798   0.249   3.979   3.675
 2614SOL     OW 7799   1.472   5.142   2.792
 2614SOL    HW1 7800   1.409   5.161   2.862
 2614SOL    HW2 7801   1.455   5.051   2.768
 2615SOL     OW 7802   1.637   5.520   2.424
 2615SOL    HW1 7803   1.620   5.473   2.342
 2615SOL    HW2 7804   1.637   5.452   2.491
 2616SOL     OW 7805   0.616   4.445   2.143
 2616SOL    HW1 7806   0.619   4.529   2.098
 2616SOL    HW2 7807   0.545   4.454   2.206
 2617SOL     OW 7808   1.282   4.117   2.803
 2617SOL    HW1 7809   1.193   4.082   2.808
 2617SOL    HW2 7810   1.334   4.059   2.858
 2618SOL     OW 7811   1.579   5.397   2.181
 2618SOL    HW1 7812   1.673   5.412   2.170
 2618SOL    HW2 7813   1.546   5.385   2.092
 2619SOL     OW 7814   0.790   4.335   3.297
 2619SOL    HW1 7815   0.762   4.307   3.384
 2619SOL    HW2 7816   0.765   4.263   3.240
 2620SOL     OW 7817   1.391   4.201   3.535
 2620SOL    HW1 7818   1.397   4.244   3.621
 2620SOL    HW2 7819   1.442   4.120   3.546
 2621SOL     OW 7820   0.945   4.605   3.453
 2621SOL    HW1 7821   1.000   4.541   3.408
 2621SOL    HW2 7822   0.897   4.649   3.382
 2622SOL     OW 7823   1.009   4.121   3.071
 2622SOL    HW1 7824   0.917   4.135   3.093
 2622SOL    HW2 7825   1.007   4.077   2.986
 2623SOL     OW 7826   1.065   4.424   2.281
 2623SOL    HW1 7827   1.085   4.421   2.375
 2623SOL    HW2 7828   0.981   4.378   2.274
 2624SOL     OW 7829   0.073   4.561   2.665
 2624SOL    HW1 7830   0.158   4.552   2.708
 2624SOL    HW2 7831   0.015   4.593   2.734
 2625SOL     OW 7832   0.112   5.586   3.443
 2625SOL    HW1 7833   0.111   5.580   3.539
 2625SOL    HW2 7834   0.057   5.513   3.414
 2626SOL     OW 7835   0.896   4.072   2.061
 2626SOL    HW1 7836   0.943   4.129   2.000
 2626SOL    HW2 7837   0.876   3.994   2.011
 2627SOL     OW 7838   1.686   4.286   3.702
 2627SOL    HW1 7839   1.665   4.364   3.650
 2627SOL    HW2 7840   1.715   4.222   3.638
 2628SOL     OW 7841   1.393   4.874   2.406
 2628SOL    HW1 7842   1.473   4.862   2.354
 2628SOL    HW2 7843   1.339   4.934   2.355
 2629SOL     OW 7844   0.560   3.893   2.777
 2629SOL    HW1 7845   0.565   3.919   2.869
 2629SOL    HW2 7846   0.553   3.976   2.729
 2630SOL     OW 7847   0.996   5.175   2.327
 2630SOL    HW1 7848   0.974   5.250   2.272
 2630SOL    HW2 7849   0.966   5.200   2.415
 2631SOL     OW 7850   0.339   5.531   2.795
 2631SOL    HW1 7851   0.388   5.451   2.777
 2631SOL    HW2 7852   0.401   5.602   2.779
 2632SOL     OW 7853   1.804   4.769   2.751
 2632SOL    HW1 7854   1.756   4.753   2.669
 2632SOL    HW2 7855   1.736   4.777   2.817
 2633SOL     OW 7856   1.218   5.268   3.379
 2633SOL    HW1 7857   1.207   5.196   3.441
 2633SOL    HW2 7858   1.149   5.254   3.314
 2634SOL     OW 7859   0.313   4.662   2.139
 2634SOL    HW1 7860   0.390   4.678   2.084
 2634SOL    HW2 7861   0.328   4.576   2.177
 2635SOL     OW 7862   1.485   4.487   2.573
 2635SOL    HW1 7863   1.487   4.444   2.658
 2635SOL    HW2 7864   1.564   4.541   2.571
 2636SOL     OW 7865   0.485   4.999   3.597
 2636SOL    HW1 7866   0.462   5.006   3.504
 2636SOL    HW2 7867   0.401   4.990   3.642
 2637SOL     OW 7868   1.142   5.500   2.086
 2637SOL    HW1 7869   1.061   5.468   2.125
 2637SOL    HW2 7870   1.163   5.436   2.018
 2638SOL     OW 7871   0.221   4.006   3.359
 2638SOL    HW1 7872   0.131   4.034   3.345
 2638SOL    HW2 7873   0.215   3.938   3.425
 2639SOL     OW 7874   1.639   5.113   1.962
 2639SOL    HW1 7875   1.598   5.198   1.949
 2639SOL    HW2 7876   1.572   5.050   1.935
 2640SOL     OW 7877   0.471   5.473   2.181
 2640SOL    HW1 7878   0.520   5.521   2.247
 2640SOL    HW2 7879   0.539   5.428   2.130
 2641SOL     OW 7880   1.398   3.829   2.320
 2641SOL    HW1 7881   1.398   3.805   2.228
 2641SOL    HW2 7882   1.489   3.816   2.348
 2642SOL     OW 7883   0.254   5.514   3.079
 2642SOL    HW1 7884   0.300   5.437   3.112
 2642SOL    HW2 7885   0.260   5.507   2.984
 2643SOL     OW 7886   0.954   5.427   2.754
 2643SOL    HW1 7887   1.038   5.384   2.769
 2643SOL    HW2 7888   0.912   5.375   2.684
 2644SOL     OW 7889   0.394   4.428   2.315
 2644SOL    HW1 7890   0.415   4.335   2.324
 2644SOL    HW2 7891   0.309   4.438   2.356
 2645SOL     OW 7892   1.508   3.947   3.579
 2645SOL    HW1 7893   1.521   3.966   3.672
 2645SOL    HW2 7894   1.442   3.877   3.577
 2646SOL     OW 7895   0.658   3.827   1.961
 2646SOL    HW1 7896   0.707   3.749   1.985
 2646SOL    HW2 7897   0.599   3.799   1.891
 2647SOL     OW 7898   0.757   4.001   3.617
 2647SOL    HW1 7899   0.842   3.956   3.616
 2647SOL    HW2 7900   0.711   3.963   3.691
 2648SOL     OW 7901   0.871   5.250   3.060
 2648SOL    HW1 7902   0.853   5.209   2.976
 2648SOL    HW2 7903   0.938   5.195   3.100
 2649SOL     OW 7904   1.329   4.316   3.295
 2649SOL    HW1 7905   1.362   4.285   3.379
 2649SOL    HW2 7906   1.368   4.403   3.284
 2650SOL     OW 7907   0.819   5.100   2.820
 2650SOL    HW1 7908   0.906   5.096   2.780
 2650SOL    HW2 7909   0.759   5.115   2.747
 2651SOL     OW 7910   0.929   4.239   2.750
 2651SOL    HW1 7911   0.904   4.226   2.658
 2651SOL    HW2 7912   0.956   4.152   2.780
 2652SOL     OW 7913   0.592   3.785   2.354
 2652SOL    HW1 7914   0.523   3.791   2.419
 2652SOL    HW2 7915   0.578   3.859   2.296
 2653SOL     OW 7916   1.434   4.937   1.895
 2653SOL    HW1 7917   1.463   4.863   1.948
 2653SOL    HW2 7918   1.348   4.960   1.931
 2654SOL     OW 7919   0.308   3.765   2.023
 2654SOL    HW1 7920   0.338   3.855   2.038
 2654SOL    HW2 7921   0.369   3.711   2.073
 2655SOL     OW 7922   0.960   3.975   2.312
 2655SOL    HW1 7923   0.933   4.010   2.226
 2655SOL    HW2 7924   1.053   3.995   2.317
 2656SOL     OW 7925   1.074   4.417   3.306
 2656SOL    HW1 7926   1.011   4.346   3.312
 2656SOL    HW2 7927   1.160   4.374   3.303
 2657SOL     OW 7928   1.209   5.310   2.664
 2657SOL    HW1 7929   1.223   5.370   2.591
 2657SOL    HW2 7930   1.283   5.326   2.723
 2658SOL     OW 7931   0.491   4.884   2.584
 2658SOL    HW1 7932   0.431   4.861   2.655
 2658SOL    HW2 7933   0.441   4.867   2.504
 2659SOL     OW 7934   1.254   5.515   2.479
 2659SOL    HW1 7935   1.302   5.578   2.426
 2659SOL    HW2 7936   1.183   5.566   2.519
 2660SOL     OW 7937   1.032   4.241   1.890
 2660SOL    HW1 7938   0.989   4.324   1.871
 2660SOL    HW2 7939   1.096   4.262   1.959
 2661SOL     OW 7940   0.105   4.307   3.222
 2661SOL    HW1 7941   0.195   4.296   3.194
 2661SOL    HW2 7942   0.109   4.365   3.298
 2662SOL     OW 7943   0.564   3.946   3.047
 2662SOL    HW1 7944   0.600   3.877   3.103
 2662SOL    HW2 7945   0.470   3.946   3.066
 2663SOL     OW 7946   0.871   4.175   2.492
 2663SOL    HW1 7947   0.839   4.232   2.422
 2663SOL    HW2 7948   0.898   4.095   2.447
 2664SOL     OW 7949   1.028   3.782   2.605
 2664SOL    HW1 7950   0.969   3.772   2.530
 2664SOL    HW2 7951   1.004   3.709   2.663
 2665SOL     OW 7952   1.434   4.878   2.716
 2665SOL    HW1 7953   1.364   4.813   2.726
 2665SOL    HW2 7954   1.448   4.884   2.621
 2666SOL     OW 7955   1.463   4.340   2.811
 2666SOL    HW1 7956   1.399   4.270   2.821
 2666SOL    HW2 7957   1.518   4.334   2.888
 2667SOL     OW 7958   1.829   4.520   2.249
 2667SOL    HW1 7959   1.889   4.477   2.310
 2667SOL    HW2 7960   1.815   4.456   2.179
 2668SOL     OW 7961   0.493   5.153   1.996
 2668SOL    HW1 7962   0.409   5.131   2.035
 2668SOL    HW2 7963   0.499   5.099   1.918
 2669SOL     OW 7964   1.708   4.996   2.495
 2669SOL    HW1 7965   1.801   4.990   2.516
 2669SOL    HW2 7966   1.684   5.085   2.520
 2670SOL     OW 7967   1.394   4.300   1.927
 2670SOL    HW1 7968   1.337   4.273   1.999
 2670SOL    HW2 7969   1.482   4.275   1.955
 2671SOL     OW 7970   0.548   3.978   2.169
 2671SOL    HW1 7971   0.593   3.930   2.099
 2671SOL    HW2 7972   0.528   4.063   2.130
 2672SOL     OW 7973   1.735   4.968   3.394
 2672SOL    HW1 7974   1.823   4.934   3.380
 2672SOL    HW2 7975   1.749   5.055   3.431
 2673SOL     OW 7976   1.043   5.079   3.196
 2673SOL    HW1 7977   0.965   5.044   3.240
 2673SOL    HW2 7978   1.116   5.033   3.237
 2674SOL     OW 7979   1.608   5.359   3.534
 2674SOL    HW1 7980   1.597   5.395   3.446
 2674SOL    HW2 7981   1.686   5.303   3.527
 2675SOL     OW 7982   1.152   4.961   2.967
 2675SOL    HW1 7983   1.090   4.995   3.031
 2675SOL    HW2 7984   1.119   4.993   2.883
 2676SOL     OW 7985   1.610   4.816   2.939
 2676SOL    HW1 7986   1.602   4.882   3.007
 2676SOL    HW2 7987   1.540   4.837   2.877
 2677SOL     OW 7988   0.922   3.805   3.246
 2677SOL    HW1 7989   0.941   3.790   3.154
 2677SOL    HW2 7990   1.001   3.845   3.281
 2678SOL     OW 7991   0.981   4.840   3.584
 2678SOL    HW1 7992   0.890   4.855   3.613
 2678SOL    HW2 7993   0.976   4.759   3.532
 2679SOL     OW 7994   0.711   4.786   2.242
 2679SOL    HW1 7995   0.697   4.761   2.333
 2679SOL    HW2 7996   0.788   4.735   2.214
 2680SOL     OW 7997   0.421   4.559   3.122
 2680SOL    HW1 7998   0.489   4.570   3.188
 2680SOL    HW2 7999   0.397   4.466   3.128
 2681SOL     OW 8000   1.265   4.092   3.154
 2681SOL    HW1 8001   1.293   4.172   3.198
 2681SOL    HW2 8002   1.176   4.110   3.124
 2682SOL     OW 8003   0.075   5.304   3.193
 2682SOL    HW1 8004   0.073   5.385   3.141
 2682SOL    HW2 8005   0.168   5.287   3.207
 2683SOL     OW 8006   0.340   4.837   2.358
 2683SOL    HW1 8007   0.337   4.925   2.319
 2683SOL    HW2 8008   0.331   4.778   2.283
 2684SOL     OW 8009   0.535   4.240   2.716
 2684SOL    HW1 8010   0.546   4.304   2.645
 2684SOL    HW2 8011   0.601   4.266   2.781
 2685SOL     OW 8012   1.247   5.077   2.260
 2685SOL    HW1 8013   1.302   5.147   2.294
 2685SOL    HW2 8014   1.159   5.099   2.291
 2686SOL     OW 8015   1.309   5.193   3.005
 2686SOL    HW1 8016   1.357   5.199   3.088
 2686SOL    HW2 8017   1.258   5.112   3.012
 2687SOL     OW 8018   1.574   4.342   2.348
 2687SOL    HW1 8019   1.524   4.382   2.418
 2687SOL    HW2 8020   1.623   4.414   2.308
 2688SOL     OW 8021   0.348   5.258   3.170
 2688SOL    HW1 8022   0.335   5.214   3.086
 2688SOL    HW2 8023   0.442   5.273   3.175
 2689SOL     OW 8024   0.451   4.457   3.481
 2689SOL    HW1 8025   0.507   4.500   3.417
 2689SOL    HW2 8026   0.500   4.380   3.508
 2690SOL     OW 8027   1.627   4.510   3.560
 2690SOL    HW1 8028   1.540   4.548   3.551
 2690SOL    HW2 8029   1.678   4.548   3.488
 2691SOL     OW 8030   0.994   3.867   3.623
 2691SOL    HW1 8031   1.052   3.940   3.602
 2691SOL    HW2 8032   1.044   3.789   3.601
 2692SOL     OW 8033   0.504   3.757   3.609
 2692SOL    HW1 8034   0.456   3.705   3.544
 2692SOL    HW2 8035   0.449   3.835   3.621
 2693SOL     OW 8036   0.592   4.598   2.903
 2693SOL    HW1 8037   0.628   4.686   2.902
 2693SOL    HW2 8038   0.531   4.598   2.977
 2694SOL     OW 8039   1.309   4.577   2.865
 2694SOL    HW1 8040   1.221   4.549   2.840
 2694SOL    HW2 8041   1.364   4.501   2.846
 2695SOL     OW 8042   1.200   4.248   2.118
 2695SOL    HW1 8043   1.211   4.172   2.174
 2695SOL    HW2 8044   1.160   4.314   2.175
 2696SOL     OW 8045   0.297   3.919   3.103
 2696SOL    HW1 8046   0.270   3.950   3.189
 2696SOL    HW2 8047   0.278   3.825   3.103
 2697SOL     OW 8048   0.008   5.042   3.140
 2697SOL    HW1 8049   0.053   4.995   3.210
 2697SOL    HW2 8050   0.021   5.135   3.162
 2698SOL     OW 8051   0.709   4.345   2.901
 2698SOL    HW1 8052   0.787   4.340   2.846
 2698SOL    HW2 8053   0.681   4.436   2.894
 2699SOL     OW 8054   1.751   4.692   3.731
 2699SOL    HW1 8055   1.711   4.619   3.683
 2699SOL    HW2 8056   1.687   4.712   3.800
 2700SOL     OW 8057   0.376   3.816   2.510
 2700SOL    HW1 8058   0.350   3.896   2.556
 2700SOL    HW2 8059   0.308   3.752   2.533
 2701SOL     OW 8060   1.632   4.114   2.206
 2701SOL    HW1 8061   1.664   4.049   2.268
 2701SOL    HW2 8062   1.602   4.187   2.261
 2702SOL     OW 8063   1.035   4.481   2.818
 2702SOL    HW1 8064   1.014   4.496   2.910
 2702SOL    HW2 8065   1.005   4.392   2.800
 2703SOL     OW 8066   0.981   5.289   3.596
 2703SOL    HW1 8067   0.961   5.332   3.513
 2703SOL    HW2 8068   1.020   5.205   3.570
 2704SOL     OW 8069   1.838   5.219   3.465
 2704SOL    HW1 8070   1.865   5.247   3.377
 2704SOL    HW2 8071   1.917   5.230   3.519
 2705SOL     OW 8072   0.365   4.644   3.670
 2705SOL    HW1 8073   0.438   4.666   3.728
 2705SOL    HW2 8074   0.401   4.577   3.612
 2706SOL     OW 8075   1.522   3.993   1.981
 2706SOL    HW1 8076   1.470   3.922   2.018
 2706SOL    HW2 8077   1.561   4.037   2.056
 2707SOL     OW 8078   1.281   4.545   1.882
 2707SOL    HW1 8079   1.321   4.459   1.889
 2707SOL    HW2 8080   1.318   4.582   1.801
 2708SOL     OW 8081   1.072   5.076   2.728
 2708SOL    HW1 8082   1.082   5.004   2.666
 2708SOL    HW2 8083   1.124   5.148   2.690
 2709SOL     OW 8084   0.317   4.528   2.803
 2709SOL    HW1 8085   0.412   4.543   2.802
 2709SOL    HW2 8086   0.308   4.437   2.832
 2710SOL     OW 8087   0.314   4.250   2.872
 2710SOL    HW1 8088   0.271   4.165   2.864
 2710SOL    HW2 8089   0.389   4.245   2.812
 2711SOL     OW 8090   1.138   4.092   3.548
 2711SOL    HW1 8091   1.093   4.144   3.614
 2711SOL    HW2 8092   1.224   4.134   3.538
 2712SOL     OW 8093   1.158   3.914   3.337
 2712SOL    HW1 8094   1.146   3.976   3.408
 2712SOL    HW2 8095   1.204   3.963   3.269
 2713SOL     OW 8096   9.969   5.057   2.082
 2713SOL    HW1 8097   9.920   5.046   2.000
 2713SOL    HW2 8098   9.989   4.968   2.110
 2714SOL     OW 8099   0.084   5.409   2.813
 2714SOL    HW1 8100   0.115   5.324   2.781
 2714SOL    HW2 8101   0.154   5.470   2.792
 2715SOL     OW 8102   0.497   5.301   2.769
 2715SOL    HW1 8103   0.565   5.367   2.782
 2715SOL    HW2 8104   0.536   5.237   2.709
 2716SOL     OW 8105   0.949   4.504   3.075
 2716SOL    HW1 8106   1.010   4.492   3.148
 2716SOL    HW2 8107   0.869   4.458   3.103
 2717SOL     OW 8108   0.039   4.289   2.947
 2717SOL    HW1 8109   0.132   4.291   2.924
 2717SOL    HW2 8110   0.038   4.293   3.043
 2718SOL     OW 8111   0.170   4.241   3.561
 2718SOL    HW1 8112   0.226   4.189   3.503
 2718SOL    HW2 8113   0.158   4.324   3.515
 2719SOL     OW 8114   1.392   4.645   3.514
 2719SOL    HW1 8115   1.409   4.739   3.508
 2719SOL    HW2 8116   1.384   4.617   3.422
 2720SOL     OW 8117   0.829   4.291   2.237
 2720SOL    HW1 8118   0.832   4.218   2.175
 2720SOL    HW2 8119   0.757   4.346   2.206
 2721SOL     OW 8120   1.636   4.326   3.025
 2721SOL    HW1 8121   1.626   4.266   3.099
 2721SOL    HW2 8122   1.727   4.314   2.997
 2722SOL     OW 8123   0.257   5.284   3.586
 2722SOL    HW1 8124   0.262   5.323   3.673
 2722SOL    HW2 8125   0.265   5.190   3.600
 2723SOL     OW 8126   0.737   4.158   3.096
 2723SOL    HW1 8127   0.673   4.088   3.084
 2723SOL    HW2 8128   0.717   4.221   3.028
 2724SOL     OW 8129   0.907   5.403   3.350
 2724SOL    HW1 8130   0.883   5.355   3.271
 2724SOL    HW2 8131   0.909   5.495   3.323
 2725SOL     OW 8132   0.518   4.212   2.033
 2725SOL    HW1 8133   0.566   4.288   2.065
 2725SOL    HW2 8134   0.438   4.249   1.995
 2726SOL     OW 8135   0.156   4.878   3.305
 2726SOL    HW1 8136   0.149   4.837   3.391
 2726SOL    HW2 8137   0.165   4.805   3.244
 2727SOL     OW 8138   1.304   4.758   3.070
 2727SOL    HW1 8139   1.313   4.694   2.999
 2727SOL    HW2 8140   1.251   4.828   3.033
 2728SOL     OW 8141   1.324   4.585   2.154
 2728SOL    HW1 8142   1.254   4.549   2.207
 2728SOL    HW2 8143   1.296   4.569   2.063
 2729SOL     OW 8144   1.788   5.448   3.034
 2729SOL    HW1 8145   1.849   5.473   2.965
 2729SOL    HW2 8146   1.755   5.362   3.006
 2730SOL     OW 8147   1.241   5.458   2.954
 2730SOL    HW1 8148   1.325   5.487   2.919
 2730SOL    HW2 8149   1.255   5.366   2.978
 2731SOL     OW 8150   0.100   4.899   2.913
 2731SOL    HW1 8151   0.104   4.958   2.988
 2731SOL    HW2 8152   0.008   4.894   2.889
 2732SOL     OW 8153   0.692   5.407   3.611
 2732SOL    HW1 8154   0.631   5.480   3.597
 2732SOL    HW2 8155   0.767   5.427   3.555
 2733SOL     OW 8156   1.744   3.908   2.358
 2733SOL    HW1 8157   1.803   3.888   2.286
 2733SOL    HW2 8158   1.717   3.822   2.392
 2734SOL     OW 8159   1.397   5.293   2.365
 2734SOL    HW1 8160   1.452   5.328   2.295
 2734SOL    HW2 8161   1.342   5.367   2.391
 2735SOL     OW 8162   0.115   5.520   3.718
 2735SOL    HW1 8163   0.075   5.467   3.788
 2735SOL    HW2 8164   0.187   5.566   3.761
 2736SOL     OW 8165   1.279   4.660   2.526
 2736SOL    HW1 8166   1.353   4.601   2.540
 2736SOL    HW2 8167   1.315   4.732   2.474
 2737SOL     OW 8168   0.784   5.005   3.274
 2737SOL    HW1 8169   0.760   5.053   3.353
 2737SOL    HW2 8170   0.709   5.017   3.215
 2738SOL     OW 8171   0.673   5.357   2.020
 2738SOL    HW1 8172   0.689   5.373   1.927
 2738SOL    HW2 8173   0.617   5.279   2.022
 2739SOL     OW 8174   1.616   5.454   3.264
 2739SOL    HW1 8175   1.673   5.454   3.187
 2739SOL    HW2 8176   1.600   5.547   3.282
 2740SOL     OW 8177   1.845   3.884   2.827
 2740SOL    HW1 8178   1.873   3.795   2.806
 2740SOL    HW2 8179   1.757   3.891   2.788
 2741SOL     OW 8180   0.277   4.051   2.601
 2741SOL    HW1 8181   0.199   4.093   2.565
 2741SOL    HW2 8182   0.256   4.034   2.692
 2742SOL     OW 8183   1.211   5.312   1.898
 2742SOL    HW1 8184   1.201   5.221   1.926
 2742SOL    HW2 8185   1.142   5.326   1.834
 2743SOL     OW 8186   0.826   4.737   3.245
 2743SOL    HW1 8187   0.861   4.728   3.156
 2743SOL    HW2 8188   0.813   4.831   3.256
 2744SOL     OW 8189   0.921   4.638   2.164
 2744SOL    HW1 8190   0.973   4.666   2.089
 2744SOL    HW2 8191   0.974   4.570   2.206
 2745SOL     OW 8192   1.484   5.370   1.920
 2745SOL    HW1 8193   1.392   5.350   1.903
 2745SOL    HW2 8194   1.525   5.373   1.833
 2746SOL     OW 8195   0.372   5.044   3.356
 2746SOL    HW1 8196   0.362   5.120   3.299
 2746SOL    HW2 8197   0.299   4.987   3.334
 2747SOL     OW 8198   1.599   5.014   3.139
 2747SOL    HW1 8199   1.653   4.989   3.214
 2747SOL    HW2 8200   1.540   5.081   3.173
 2748SOL     OW 8201   1.077   4.843   2.591
 2748SOL    HW1 8202   1.002   4.794   2.623
 2748SOL    HW2 8203   1.139   4.776   2.561
 2749SOL     OW 8204   1.033   3.973   2.823
 2749SOL    HW1 8205   1.033   3.930   2.738
 2749SOL    HW2 8206   1.026   3.901   2.886
 2750SOL     OW 8207   0.605   5.211   2.345
 2750SOL    HW1 8208   0.657   5.164   2.280
 2750SOL    HW2 8209   0.517   5.214   2.308
 2751SOL     OW 8210   1.745   4.106   3.250
 2751SOL    HW1 8211   1.816   4.171   3.246
 2751SOL    HW2 8212   1.772   4.038   3.189
 2752SOL     OW 8213   0.244   5.085   2.104
 2752SOL    HW1 8214   0.149   5.072   2.105
 2752SOL    HW2 8215   0.267   5.104   2.195
 2753SOL     OW 8216   0.141   4.732   3.536
 2753SOL    HW1 8217   0.074   4.749   3.603
 2753SOL    HW2 8218   0.222   4.722   3.586
 2754SOL     OW 8219   0.685   3.915   3.358
 2754SOL    HW1 8220   0.769   3.890   3.321
 2754SOL    HW2 8221   0.707   3.947   3.446
 2755SOL     OW 8222   0.074   4.039   1.856
 2755SOL    HW1 8223   9.979   4.027   1.862
 2755SOL    HW2 8224   0.085   4.115   1.799
 2756SOL     OW 8225   1.415   4.578   3.250
 2756SOL    HW1 8226   1.363   4.636   3.195
 2756SOL    HW2 8227   1.503   4.582   3.213
 2757SOL     OW 8228   0.059   3.795   2.125
 2757SOL    HW1 8229   0.077   3.848   2.203
 2757SOL    HW2 8230   0.146   3.778   2.088
 2758SOL     OW 8231   1.181   5.046   1.984
 2758SOL    HW1 8232   1.088   5.023   1.982
 2758SOL    HW2 8233   1.203   5.049   2.077
 2759SOL     OW 8234   0.629   4.556   3.298
 2759SOL    HW1 8235   0.688   4.630   3.286
 2759SOL    HW2 8236   0.686   4.479   3.297
 2760SOL     OW 8237   1.487   5.527   2.854
 2760SOL    HW1 8238   1.513   5.601   2.800
 2760SOL    HW2 8239   1.569   5.482   2.874
 2761SOL     OW 8240   0.712   4.278   3.554
 2761SOL    HW1 8241   0.762   4.331   3.615
 2761SOL    HW2 8242   0.724   4.188   3.584
 2762SOL     OW 8243   1.469   4.908   3.481
 2762SOL    HW1 8244   1.461   4.930   3.574
 2762SOL    HW2 8245   1.558   4.932   3.458
 2763SOL     OW 8246   0.365   5.479   3.424
 2763SOL    HW1 8247   0.282   5.523   3.407
 2763SOL    HW2 8248   0.341   5.396   3.465
 2764SOL     OW 8249   1.655   4.599   3.115
 2764SOL    HW1 8250   1.653   4.516   3.068
 2764SOL    HW2 8251   1.643   4.665   3.046
 2765SOL     OW 8252   1.226   4.049   2.317
 2765SOL    HW1 8253   1.285   3.974   2.316
 2765SOL    HW2 8254   1.254   4.101   2.392
 2766SOL     OW 8255   0.569   4.453   2.541
 2766SOL    HW1 8256   0.617   4.535   2.532
 2766SOL    HW2 8257   0.511   4.450   2.465
 2767SOL     OW 8258   1.747   4.079   3.526
 2767SOL    HW1 8259   1.744   4.095   3.432
 2767SOL    HW2 8260   1.670   4.026   3.544
 2768SOL     OW 8261   1.760   4.649   3.366
 2768SOL    HW1 8262   1.743   4.742   3.378
 2768SOL    HW2 8263   1.733   4.631   3.275
 2769SOL     OW 8264   0.876   5.081   1.927
 2769SOL    HW1 8265   0.835   5.101   2.011
 2769SOL    HW2 8266   0.884   5.166   1.884
 2770SOL     OW 8267   0.674   5.500   2.780
 2770SOL    HW1 8268   0.649   5.593   2.773
 2770SOL    HW2 8269   0.769   5.501   2.781
 2771SOL     OW 8270   0.874   4.701   2.718
 2771SOL    HW1 8271   0.924   4.627   2.755
 2771SOL    HW2 8272   0.829   4.738   2.794
 2772SOL     OW 8273   1.063   4.696   1.944
 2772SOL    HW1 8274   1.047   4.756   1.871
 2772SOL    HW2 8275   1.141   4.647   1.918
 2773SOL     OW 8276   1.830   5.283   2.702
 2773SOL    HW1 8277   1.753   5.274   2.645
 2773SOL    HW2 8278   1.809   5.229   2.779
 2774SOL     OW 8279   0.239   5.026   3.700
 2774SOL    HW1 8280   0.148   5.029   3.671
 2774SOL    HW2 8281   0.234   5.035   3.795
 2775SOL     OW 8282   0.154   4.947   2.533
 2775SOL    HW1 8283   0.085   4.894   2.573
 2775SOL    HW2 8284   0.210   4.884   2.487
 2776SOL     OW 8285   0.699   5.144   3.494
 2776SOL    HW1 8286   0.622   5.102   3.533
 2776SOL    HW2 8287   0.699   5.232   3.532
 2777SOL     OW 8288   1.810   3.895   3.097
 2777SOL    HW1 8289   1.812   3.800   3.110
 2777SOL    HW2 8290   1.824   3.907   3.003
 2778SOL     OW 8291   0.434   4.167   2.382
 2778SOL    HW1 8292   0.493   4.100   2.349
 2778SOL    HW2 8293   0.409   4.136   2.469
 2779SOL     OW 8294   1.695   5.205   2.944
 2779SOL    HW1 8295   1.617   5.185   2.892
 2779SOL    HW2 8296   1.696   5.137   3.012
 2780SOL     OW 8297   0.365   4.294   3.146
 2780SOL    HW1 8298   0.415   4.231   3.198
 2780SOL    HW2 8299   0.369   4.259   3.057
 2781SOL     OW 8300   0.844   5.306   2.534
 2781SOL    HW1 8301   0.814   5.378   2.477
 2781SOL    HW2 8302   0.767   5.250   2.543
 2782SOL     OW 8303   1.422   3.957   2.977
 2782SOL    HW1 8304   1.430   3.867   3.009
 2782SOL    HW2 8305   1.376   4.004   3.046
 2783SOL     OW 8306   1.011   3.741   2.982
 2783SOL    HW1 8307   0.957   3.678   2.935
 2783SOL    HW2 8308   1.097   3.701   2.986
 2784SOL     OW 8309   0.776   5.056   2.191
 2784SOL    HW1 8310   0.753   4.964   2.204
 2784SOL    HW2 8311   0.856   5.069   2.242
 2785SOL     OW 8312   0.618   5.293   3.148
 2785SOL    HW1 8313   0.615   5.379   3.190
 2785SOL    HW2 8314   0.707   5.285   3.115
 2786SOL     OW 8315   1.383   3.763   2.053
 2786SOL    HW1 8316   1.423   3.691   2.005
 2786SOL    HW2 8317   1.291   3.736   2.064
 2787SOL     OW 8318   1.300   4.196   2.537
 2787SOL    HW1 8319   1.249   4.277   2.535
 2787SOL    HW2 8320   1.292   4.166   2.628
 2788SOL     OW 8321   1.582   3.912   2.755
 2788SOL    HW1 8322   1.530   3.941   2.829
 2788SOL    HW2 8323   1.583   3.986   2.695
 2789SOL     OW 8324   0.068   4.815   2.160
 2789SOL    HW1 8325   0.142   4.762   2.132
 2789SOL    HW2 8326   0.031   4.768   2.235
 2790SOL     OW 8327   0.902   5.395   2.189
 2790SOL    HW1 8328   0.822   5.382   2.138
 2790SOL    HW2 8329   0.880   5.464   2.252
 2791SOL     OW 8330   0.286   4.318   3.805
 2791SOL    HW1 8331   0.219   4.335   3.871
 2791SOL    HW2 8332   0.236   4.298   3.726
 2792SOL     OW 8333   0.198   4.005   4.722
 2792SOL    HW1 8334   0.235   3.968   4.803
 2792SOL    HW2 8335   0.106   3.979   4.724
 2793SOL     OW 8336   0.041   4.150   4.355
 2793SOL    HW1 8337   9.950   4.162   4.380
 2793SOL    HW2 8338   0.039   4.086   4.284
 2794SOL     OW 8339   0.569   5.032   4.926
 2794SOL    HW1 8340   0.486   5.034   4.879
 2794SOL    HW2 8341   0.586   5.123   4.949
 2795SOL     OW 8342   1.588   5.248   4.429
 2795SOL    HW1 8343   1.541   5.217   4.506
 2795SOL    HW2 8344   1.522   5.251   4.360
 2796SOL     OW 8345   1.139   4.429   4.411
 2796SOL    HW1 8346   1.185   4.512   4.400
 2796SOL    HW2 8347   1.090   4.439   4.493
 2797SOL     OW 8348   1.801   4.305   3.943
 2797SOL    HW1 8349   1.762   4.304   3.856
 2797SOL    HW2 8350   1.757   4.233   3.989
 2798SOL     OW 8351   0.728   4.854   4.781
 2798SOL    HW1 8352   0.666   4.894   4.842
 2798SOL    HW2 8353   0.771   4.928   4.738
 2799SOL     OW 8354   0.888   4.469   5.550
 2799SOL    HW1 8355   0.895   4.537   5.616
 2799SOL    HW2 8356   0.903   4.514   5.467
 2800SOL     OW 8357   0.687   4.707   4.372
 2800SOL    HW1 8358   0.757   4.706   4.437
 2800SOL    HW2 8359   0.624   4.770   4.406
 2801SOL     OW 8360   0.716   4.872   5.559
 2801SOL    HW1 8361   0.767   4.946   5.593
 2801SOL    HW2 8362   0.643   4.913   5.513
 2802SOL     OW 8363   0.334   5.149   4.787
 2802SOL    HW1 8364   0.258   5.133   4.732
 2802SOL    HW2 8365   0.392   5.202   4.732
 2803SOL     OW 8366   1.454   5.230   5.096
 2803SOL    HW1 8367   1.509   5.307   5.109
 2803SOL    HW2 8368   1.382   5.242   5.158
 2804SOL     OW 8369   0.478   4.109   5.173
 2804SOL    HW1 8370   0.550   4.047   5.191
 2804SOL    HW2 8371   0.400   4.064   5.205
 2805SOL     OW 8372   1.584   4.156   4.479
 2805SOL    HW1 8373   1.517   4.167   4.411
 2805SOL    HW2 8374   1.567   4.226   4.542
 2806SOL     OW 8375   0.225   5.382   4.154
 2806SOL    HW1 8376   0.183   5.448   4.210
 2806SOL    HW2 8377   0.305   5.424   4.124
 2807SOL     OW 8378   1.136   5.065   5.420
 2807SOL    HW1 8379   1.182   5.054   5.503
 2807SOL    HW2 8380   1.083   4.986   5.411
 2808SOL     OW 8381   0.287   5.125   4.226
 2808SOL    HW1 8382   0.258   5.216   4.222
 2808SOL    HW2 8383   0.232   5.085   4.293
 2809SOL     OW 8384   0.308   4.805   4.629
 2809SOL    HW1 8385   0.301   4.711   4.646
 2809SOL    HW2 8386   0.237   4.844   4.679
 2810SOL     OW 8387   0.585   5.534   5.133
 2810SOL    HW1 8388   0.507   5.513   5.185
 2810SOL    HW2 8389   0.618   5.615   5.171
 2811SOL     OW 8390   0.570   4.712   3.878
 2811SOL    HW1 8391   0.621   4.754   3.808
 2811SOL    HW2 8392   0.608   4.746   3.959
 2812SOL     OW 8393   1.591   3.856   5.184
 2812SOL    HW1 8394   1.631   3.932   5.140
 2812SOL    HW2 8395   1.560   3.890   5.267
 2813SOL     OW 8396   0.147   4.399   4.297
 2813SOL    HW1 8397   0.113   4.314   4.324
 2813SOL    HW2 8398   0.124   4.458   4.369
 2814SOL     OW 8399   1.846   5.467   4.041
 2814SOL    HW1 8400   1.918   5.451   4.103
 2814SOL    HW2 8401   1.853   5.559   4.019
 2815SOL     OW 8402   0.029   5.345   3.923
 2815SOL    HW1 8403   0.010   5.251   3.919
 2815SOL    HW2 8404   0.086   5.355   3.999
 2816SOL     OW 8405   1.698   4.650   4.377
 2816SOL    HW1 8406   1.780   4.606   4.356
 2816SOL    HW2 8407   1.677   4.701   4.299
 2817SOL     OW 8408   1.657   4.829   4.157
 2817SOL    HW1 8409   1.742   4.821   4.113
 2817SOL    HW2 8410   1.671   4.894   4.225
 2818SOL     OW 8411   0.177   4.479   5.292
 2818SOL    HW1 8412   0.273   4.477   5.297
 2818SOL    HW2 8413   0.154   4.569   5.314
 2819SOL     OW 8414   0.627   5.123   4.462
 2819SOL    HW1 8415   0.585   5.037   4.468
 2819SOL    HW2 8416   0.610   5.151   4.372
 2820SOL     OW 8417   1.271   4.949   5.141
 2820SOL    HW1 8418   1.298   4.880   5.081
 2820SOL    HW2 8419   1.333   4.944   5.214
 2821SOL     OW 8420   0.854   3.731   4.244
 2821SOL    HW1 8421   0.894   3.813   4.215
 2821SOL    HW2 8422   0.760   3.748   4.243
 2822SOL     OW 8423   0.164   4.663   5.000
 2822SOL    HW1 8424   0.253   4.629   4.991
 2822SOL    HW2 8425   0.134   4.675   4.910
 2823SOL     OW 8426   1.534   4.739   3.924
 2823SOL    HW1 8427   1.465   4.680   3.954
 2823SOL    HW2 8428   1.576   4.769   4.004
 2824SOL     OW 8429   1.176   5.547   5.361
 2824SOL    HW1 8430   1.179   5.609   5.289
 2824SOL    HW2 8431   1.195   5.462   5.321
 2825SOL     OW 8432   0.341   3.975   5.510
 2825SOL    HW1 8433   0.384   4.043   5.561
 2825SOL    HW2 8434   0.249   3.979   5.537
 2826SOL     OW 8435   1.472   5.142   4.654
 2826SOL    HW1 8436   1.409   5.161   4.724
 2826SOL    HW2 8437   1.454   5.051   4.630
 2827SOL     OW 8438   1.636   5.520   4.286
 2827SOL    HW1 8439   1.620   5.473   4.204
 2827SOL    HW2 8440   1.637   5.452   4.353
 2828SOL     OW 8441   0.616   4.444   4.005
 2828SOL    HW1 8442   0.620   4.529   3.961
 2828SOL    HW2 8443   0.545   4.453   4.068
 2829SOL     OW 8444   1.282   4.117   4.665
 2829SOL    HW1 8445   1.193   4.082   4.670
 2829SOL    HW2 8446   1.334   4.059   4.720
 2830SOL     OW 8447   1.579   5.397   4.043
 2830SOL    HW1 8448   1.673   5.411   4.032
 2830SOL    HW2 8449   1.546   5.384   3.954
 2831SOL     OW 8450   0.790   4.335   5.159
 2831SOL    HW1 8451   0.762   4.307   5.246
 2831SOL    HW2 8452   0.765   4.263   5.101
 2832SOL     OW 8453   1.391   4.201   5.397
 2832SOL    HW1 8454   1.397   4.244   5.482
 2832SOL    HW2 8455   1.442   4.120   5.408
 2833SOL     OW 8456   0.944   4.605   5.314
 2833SOL    HW1 8457   1.000   4.541   5.270
 2833SOL    HW2 8458   0.897   4.648   5.243
 2834SOL     OW 8459   1.009   4.121   4.933
 2834SOL    HW1 8460   0.917   4.135   4.955
 2834SOL    HW2 8461   1.007   4.078   4.848
 2835SOL     OW 8462   1.065   4.424   4.143
 2835SOL    HW1 8463   1.085   4.422   4.237
 2835SOL    HW2 8464   0.982   4.378   4.136
 2836SOL     OW 8465   0.074   4.561   4.527
 2836SOL    HW1 8466   0.159   4.552   4.570
 2836SOL    HW2 8467   0.015   4.593   4.596
 2837SOL     OW 8468   0.112   5.586   5.305
 2837SOL    HW1 8469   0.110   5.581   5.401
 2837SOL    HW2 8470   0.057   5.513   5.276
 2838SOL     OW 8471   0.896   4.072   3.923
 2838SOL    HW1 8472   0.943   4.129   3.862
 2838SOL    HW2 8473   0.878   3.993   3.873
 2839SOL     OW 8474   1.685   4.286   5.564
 2839SOL    HW1 8475   1.664   4.364   5.512
 2839SOL    HW2 8476   1.715   4.222   5.500
 2840SOL     OW 8477   1.393   4.874   4.267
 2840SOL    HW1 8478   1.473   4.862   4.215
 2840SOL    HW2 8479   1.340   4.934   4.216
 2841SOL     OW 8480   0.560   3.893   4.639
 2841SOL    HW1 8481   0.565   3.919   4.731
 2841SOL    HW2 8482   0.553   3.976   4.591
 2842SOL     OW 8483   0.996   5.175   4.189
 2842SOL    HW1 8484   0.974   5.250   4.134
 2842SOL    HW2 8485   0.967   5.200   4.277
 2843SOL     OW 8486   0.340   5.534   4.646
 2843SOL    HW1 8487   0.390   5.453   4.634
 2843SOL    HW2 8488   0.405   5.603   4.639
 2844SOL     OW 8489   1.804   4.768   4.614
 2844SOL    HW1 8490   1.756   4.753   4.532
 2844SOL    HW2 8491   1.735   4.777   4.680
 2845SOL     OW 8492   1.218   5.268   5.241
 2845SOL    HW1 8493   1.207   5.196   5.303
 2845SOL    HW2 8494   1.150   5.253   5.175
 2846SOL     OW 8495   0.312   4.661   3.999
 2846SOL    HW1 8496   0.390   4.677   3.946
 2846SOL    HW2 8497   0.328   4.576   4.039
 2847SOL     OW 8498   1.485   4.487   4.435
 2847SOL    HW1 8499   1.487   4.444   4.520
 2847SOL    HW2 8500   1.564   4.541   4.433
 2848SOL     OW 8501   0.485   4.999   5.459
 2848SOL    HW1 8502   0.462   5.006   5.366
 2848SOL    HW2 8503   0.401   4.990   5.504
 2849SOL     OW 8504   1.142   5.500   3.947
 2849SOL    HW1 8505   1.061   5.468   3.987
 2849SOL    HW2 8506   1.163   5.436   3.879
 2850SOL     OW 8507   0.221   4.006   5.220
 2850SOL    HW1 8508   0.131   4.034   5.207
 2850SOL    HW2 8509   0.215   3.937   5.287
 2851SOL     OW 8510   1.638   5.113   3.824
 2851SOL    HW1 8511   1.597   5.198   3.811
 2851SOL    HW2 8512   1.571   5.050   3.797
 2852SOL     OW 8513   0.472   5.473   4.043
 2852SOL    HW1 8514   0.520   5.522   4.109
 2852SOL    HW2 8515   0.539   5.428   3.992
 2853SOL     OW 8516   1.399   3.830   4.183
 2853SOL    HW1 8517   1.398   3.805   4.090
 2853SOL    HW2 8518   1.489   3.817   4.211
 2854SOL     OW 8519   0.251   5.514   4.942
 2854SOL    HW1 8520   0.299   5.438   4.974
 2854SOL    HW2 8521   0.247   5.502   4.847
 2855SOL     OW 8522   0.954   5.426   4.616
 2855SOL    HW1 8523   1.038   5.384   4.631
 2855SOL    HW2 8524   0.913   5.375   4.546
 2856SOL     OW 8525   0.394   4.428   4.176
 2856SOL    HW1 8526   0.415   4.335   4.186
 2856SOL    HW2 8527   0.309   4.438   4.219
 2857SOL     OW 8528   1.508   3.947   5.441
 2857SOL    HW1 8529   1.520   3.966   5.534
 2857SOL    HW2 8530   1.442   3.877   5.439
 2858SOL     OW 8531   0.658   3.827   3.823
 2858SOL    HW1 8532   0.707   3.749   3.847
 2858SOL    HW2 8533   0.599   3.799   3.753
 2859SOL     OW 8534   0.757   4.001   5.479
 2859SOL    HW1 8535   0.841   3.956   5.478
 2859SOL    HW2 8536   0.710   3.963   5.553
 2860SOL     OW 8537   0.871   5.250   4.922
 2860SOL    HW1 8538   0.853   5.209   4.838
 2860SOL    HW2 8539   0.938   5.195   4.962
 2861SOL     OW 8540   1.329   4.316   5.157
 2861SOL    HW1 8541   1.362   4.286   5.241
 2861SOL    HW2 8542   1.368   4.403   5.146
 2862SOL     OW 8543   0.819   5.100   4.682
 2862SOL    HW1 8544   0.906   5.096   4.642
 2862SOL    HW2 8545   0.760   5.115   4.609
 2863SOL     OW 8546   0.929   4.239   4.612
 2863SOL    HW1 8547   0.904   4.226   4.520
 2863SOL    HW2 8548   0.956   4.152   4.642
 2864SOL     OW 8549   0.592   3.785   4.216
 2864SOL    HW1 8550   0.523   3.792   4.281
 2864SOL    HW2 8551   0.578   3.859   4.158
 2865SOL     OW 8552   1.434   4.937   3.756
 2865SOL    HW1 8553   1.463   4.863   3.810
 2865SOL    HW2 8554   1.348   4.960   3.793
 2866SOL     OW 8555   0.309   3.765   3.886
 2866SOL    HW1 8556   0.338   3.855   3.901
 2866SOL    HW2 8557   0.370   3.711   3.936
 2867SOL     OW 8558   0.960   3.975   4.174
 2867SOL    HW1 8559   0.932   4.009   4.089
 2867SOL    HW2 8560   1.053   3.994   4.179
 2868SOL     OW 8561   1.075   4.417   5.168
 2868SOL    HW1 8562   1.012   4.345   5.174
 2868SOL    HW2 8563   1.160   4.374   5.165
 2869SOL     OW 8564   1.209   5.310   4.526
 2869SOL    HW1 8565   1.223   5.370   4.453
 2869SOL    HW2 8566   1.283   5.325   4.585
 2870SOL     OW 8567   0.491   4.884   4.446
 2870SOL    HW1 8568   0.431   4.861   4.517
 2870SOL    HW2 8569   0.441   4.866   4.366
 2871SOL     OW 8570   1.254   5.515   4.341
 2871SOL    HW1 8571   1.302   5.578   4.288
 2871SOL    HW2 8572   1.184   5.566   4.381
 2872SOL     OW 8573   1.032   4.241   3.752
 2872SOL    HW1 8574   0.989   4.324   3.734
 2872SOL    HW2 8575   1.096   4.262   3.821
 2873SOL     OW 8576   0.104   4.307   5.084
 2873SOL    HW1 8577   0.195   4.297   5.056
 2873SOL    HW2 8578   0.109   4.365   5.160
 2874SOL     OW 8579   0.564   3.946   4.909
 2874SOL    HW1 8580   0.600   3.877   4.965
 2874SOL    HW2 8581   0.470   3.946   4.928
 2875SOL     OW 8582   0.871   4.174   4.354
 2875SOL    HW1 8583   0.839   4.231   4.284
 2875SOL    HW2 8584   0.898   4.095   4.309
 2876SOL     OW 8585   1.028   3.782   4.467
 2876SOL    HW1 8586   0.969   3.772   4.392
 2876SOL    HW2 8587   1.004   3.709   4.525
 2877SOL     OW 8588   1.434   4.878   4.578
 2877SOL    HW1 8589   1.364   4.813   4.587
 2877SOL    HW2 8590   1.449   4.884   4.484
 2878SOL     OW 8591   1.463   4.340   4.673
 2878SOL    HW1 8592   1.399   4.270   4.683
 2878SOL    HW2 8593   1.519   4.334   4.750
 2879SOL     OW 8594   1.827   4.520   4.111
 2879SOL    HW1 8595   1.888   4.477   4.171
 2879SOL    HW2 8596   1.814   4.456   4.041
 2880SOL     OW 8597   0.493   5.153   3.858
 2880SOL    HW1 8598   0.409   5.131   3.897
 2880SOL    HW2 8599   0.499   5.098   3.780
 2881SOL     OW 8600   1.708   4.995   4.358
 2881SOL    HW1 8601   1.802   4.989   4.379
 2881SOL    HW2 8602   1.685   5.085   4.383
 2882SOL     OW 8603   1.393   4.300   3.789
 2882SOL    HW1 8604   1.338   4.273   3.861
 2882SOL    HW2 8605   1.482   4.276   3.816
 2883SOL     OW 8606   0.548   3.978   4.030
 2883SOL    HW1 8607   0.593   3.930   3.961
 2883SOL    HW2 8608   0.528   4.063   3.992
 2884SOL     OW 8609   1.735   4.969   5.256
 2884SOL    HW1 8610   1.823   4.934   5.242
 2884SOL    HW2 8611   1.749   5.056   5.293
 2885SOL     OW 8612   1.043   5.079   5.059
 2885SOL    HW1 8613   0.966   5.045   5.103
 2885SOL    HW2 8614   1.117   5.034   5.099
 2886SOL     OW 8615   1.608   5.359   5.396
 2886SOL    HW1 8616   1.597   5.395   5.308
 2886SOL    HW2 8617   1.686   5.303   5.389
 2887SOL     OW 8618   1.151   4.961   4.829
 2887SOL    HW1 8619   1.090   4.995   4.893
 2887SOL    HW2 8620   1.119   4.993   4.745
 2888SOL     OW 8621   1.609   4.815   4.801
 2888SOL    HW1 8622   1.601   4.882   4.869
 2888SOL    HW2 8623   1.539   4.837   4.739
 2889SOL     OW 8624   0.922   3.805   5.108
 2889SOL    HW1 8625   0.941   3.790   5.016
 2889SOL    HW2 8626   1.001   3.845   5.143
 2890SOL     OW 8627   0.981   4.840   5.446
 2890SOL    HW1 8628   0.890   4.855   5.475
 2890SOL    HW2 8629   0.976   4.759   5.394
 2891SOL     OW 8630   0.711   4.786   4.104
 2891SOL    HW1 8631   0.697   4.761   4.195
 2891SOL    HW2 8632   0.787   4.735   4.076
 2892SOL     OW 8633   0.420   4.559   4.984
 2892SOL    HW1 8634   0.489   4.570   5.050
 2892SOL    HW2 8635   0.397   4.466   4.990
 2893SOL     OW 8636   1.265   4.092   5.016
 2893SOL    HW1 8637   1.293   4.172   5.060
 2893SOL    HW2 8638   1.176   4.110   4.986
 2894SOL     OW 8639   0.074   5.304   5.056
 2894SOL    HW1 8640   0.073   5.385   5.005
 2894SOL    HW2 8641   0.168   5.287   5.070
 2895SOL     OW 8642   0.340   4.837   4.219
 2895SOL    HW1 8643   0.337   4.925   4.182
 2895SOL    HW2 8644   0.331   4.778   4.144
 2896SOL     OW 8645   0.535   4.240   4.578
 2896SOL    HW1 8646   0.546   4.304   4.507
 2896SOL    HW2 8647   0.601   4.266   4.643
 2897SOL     OW 8648   1.247   5.077   4.121
 2897SOL    HW1 8649   1.302   5.147   4.156
 2897SOL    HW2 8650   1.159   5.099   4.153
 2898SOL     OW 8651   1.309   5.192   4.867
 2898SOL    HW1 8652   1.357   5.199   4.950
 2898SOL    HW2 8653   1.258   5.112   4.875
 2899SOL     OW 8654   1.575   4.342   4.210
 2899SOL    HW1 8655   1.524   4.383   4.280
 2899SOL    HW2 8656   1.626   4.413   4.171
 2900SOL     OW 8657   0.348   5.258   5.032
 2900SOL    HW1 8658   0.335   5.214   4.948
 2900SOL    HW2 8659   0.442   5.274   5.037
 2901SOL     OW 8660   0.451   4.458   5.344
 2901SOL    HW1 8661   0.507   4.501   5.279
 2901SOL    HW2 8662   0.500   4.380   5.371
 2902SOL     OW 8663   1.627   4.510   5.422
 2902SOL    HW1 8664   1.540   4.549   5.413
 2902SOL    HW2 8665   1.678   4.548   5.350
 2903SOL     OW 8666   0.994   3.867   5.485
 2903SOL    HW1 8667   1.052   3.940   5.465
 2903SOL    HW2 8668   1.044   3.789   5.463
 2904SOL     OW 8669   0.504   3.757   5.471
 2904SOL    HW1 8670   0.456   3.705   5.406
 2904SOL    HW2 8671   0.450   3.835   5.483
 2905SOL     OW 8672   0.591   4.598   4.765
 2905SOL    HW1 8673   0.628   4.686   4.764
 2905SOL    HW2 8674   0.531   4.598   4.839
 2906SOL     OW 8675   1.309   4.577   4.727
 2906SOL    HW1 8676   1.221   4.549   4.702
 2906SOL    HW2 8677   1.364   4.501   4.708
 2907SOL     OW 8678   1.200   4.248   3.980
 2907SOL    HW1 8679   1.212   4.172   4.036
 2907SOL    HW2 8680   1.161   4.314   4.037
 2908SOL     OW 8681   0.297   3.919   4.964
 2908SOL    HW1 8682   0.270   3.949   5.051
 2908SOL    HW2 8683   0.278   3.825   4.965
 2909SOL     OW 8684   0.008   5.042   5.002
 2909SOL    HW1 8685   0.053   4.995   5.072
 2909SOL    HW2 8686   0.020   5.135   5.024
 2910SOL     OW 8687   0.709   4.345   4.763
 2910SOL    HW1 8688   0.787   4.340   4.708
 2910SOL    HW2 8689   0.681   4.436   4.756
 2911SOL     OW 8690   1.751   4.692   5.594
 2911SOL    HW1 8691   1.711   4.619   5.545
 2911SOL    HW2 8692   1.687   4.712   5.662
 2912SOL     OW 8693   0.376   3.817   4.372
 2912SOL    HW1 8694   0.350   3.896   4.418
 2912SOL    HW2 8695   0.309   3.752   4.397
 2913SOL     OW 8696   1.632   4.114   4.068
 2913SOL    HW1 8697   1.664   4.049   4.130
 2913SOL    HW2 8698   1.602   4.187   4.123
 2914SOL     OW 8699   1.035   4.481   4.680
 2914SOL    HW1 8700   1.013   4.496   4.772
 2914SOL    HW2 8701   1.004   4.392   4.662
 2915SOL     OW 8702   0.981   5.288   5.458
 2915SOL    HW1 8703   0.961   5.332   5.376
 2915SOL    HW2 8704   1.020   5.205   5.432
 2916SOL     OW 8705   1.838   5.219   5.326
 2916SOL    HW1 8706   1.865   5.248   5.239
 2916SOL    HW2 8707   1.916   5.230   5.380
 2917SOL     OW 8708   0.364   4.643   5.534
 2917SOL    HW1 8709   0.437   4.667   5.591
 2917SOL    HW2 8710   0.400   4.576   5.475
 2918SOL     OW 8711   1.521   3.994   3.843
 2918SOL    HW1 8712   1.470   3.922   3.880
 2918SOL    HW2 8713   1.561   4.037   3.918
 2919SOL     OW 8714   1.281   4.546   3.743
 2919SOL    HW1 8715   1.321   4.459   3.751
 2919SOL    HW2 8716   1.317   4.582   3.663
 2920SOL     OW 8717   1.072   5.076   4.590
 2920SOL    HW1 8718   1.082   5.004   4.528
 2920SOL    HW2 8719   1.124   5.148   4.552
 2921SOL     OW 8720   0.317   4.528   4.665
 2921SOL    HW1 8721   0.412   4.543   4.664
 2921SOL    HW2 8722   0.308   4.437   4.694
 2922SOL     OW 8723   0.314   4.250   4.734
 2922SOL    HW1 8724   0.271   4.165   4.726
 2922SOL    HW2 8725   0.389   4.245   4.674
 2923SOL     OW 8726   1.138   4.092   5.410
 2923SOL    HW1 8727   1.093   4.144   5.476
 2923SOL    HW2 8728   1.223   4.134   5.400
 2924SOL     OW 8729   1.158   3.914   5.199
 2924SOL    HW1 8730   1.146   3.976   5.271
 2924SOL    HW2 8731   1.204   3.963   5.131
 2925SOL     OW 8732   9.968   5.057   3.944
 2925SOL    HW1 8733   9.918   5.046   3.864
 2925SOL    HW2 8734   9.989   4.968   3.973
 2926SOL     OW 8735   0.088   5.409   4.678
 2926SOL    HW1 8736   0.117   5.324   4.645
 2926SOL    HW2 8737   0.156   5.470   4.651
 2927SOL     OW 8738   0.497   5.301   4.631
 2927SOL    HW1 8739   0.565   5.367   4.644
 2927SOL    HW2 8740   0.536   5.237   4.571
 2928SOL     OW 8741   0.949   4.504   4.937
 2928SOL    HW1 8742   1.010   4.492   5.010
 2928SOL    HW2 8743   0.869   4.458   4.966
 2929SOL     OW 8744   0.040   4.289   4.809
 2929SOL    HW1 8745   0.132   4.292   4.786
 2929SOL    HW2 8746   0.038   4.293   4.905
 2930SOL     OW 8747   0.171   4.241   5.423
 2930SOL    HW1 8748   0.227   4.189   5.365
 2930SOL    HW2 8749   0.159   4.324   5.377
 2931SOL     OW 8750   1.392   4.645   5.376
 2931SOL    HW1 8751   1.409   4.739   5.370
 2931SOL    HW2 8752   1.384   4.617   5.284
 2932SOL     OW 8753   0.829   4.291   4.099
 2932SOL    HW1 8754   0.832   4.218   4.037
 2932SOL    HW2 8755   0.757   4.346   4.068
 2933SOL     OW 8756   1.636   4.325   4.887
 2933SOL    HW1 8757   1.626   4.266   4.962
 2933SOL    HW2 8758   1.727   4.314   4.859
 2934SOL     OW 8759   0.258   5.284   5.448
 2934SOL    HW1 8760   0.263   5.322   5.535
 2934SOL    HW2 8761   0.265   5.190   5.462
 2935SOL     OW 8762   0.737   4.158   4.958
 2935SOL    HW1 8763   0.673   4.088   4.946
 2935SOL    HW2 8764   0.717   4.222   4.890
 2936SOL     OW 8765   0.905   5.404   5.213
 2936SOL    HW1 8766   0.882   5.356   5.134
 2936SOL    HW2 8767   0.908   5.495   5.186
 2937SOL     OW 8768   0.518   4.212   3.894
 2937SOL    HW1 8769   0.566   4.288   3.927
 2937SOL    HW2 8770   0.438   4.250   3.857
 2938SOL     OW 8771   0.156   4.878   5.167
 2938SOL    HW1 8772   0.149   4.836   5.252
 2938SOL    HW2 8773   0.165   4.805   5.105
 2939SOL     OW 8774   1.303   4.758   4.932
 2939SOL    HW1 8775   1.313   4.694   4.862
 2939SOL    HW2 8776   1.250   4.828   4.895
 2940SOL     OW 8777   1.324   4.586   4.015
 2940SOL    HW1 8778   1.254   4.548   4.069
 2940SOL    HW2 8779   1.296   4.569   3.925
 2941SOL     OW 8780   1.787   5.448   4.894
 2941SOL    HW1 8781   1.849   5.474   4.826
 2941SOL    HW2 8782   1.755   5.362   4.867
 2942SOL     OW 8783   1.241   5.458   4.816
 2942SOL    HW1 8784   1.325   5.487   4.781
 2942SOL    HW2 8785   1.255   5.366   4.839
 2943SOL     OW 8786   0.101   4.898   4.775
 2943SOL    HW1 8787   0.104   4.958   4.850
 2943SOL    HW2 8788   0.008   4.894   4.752
 2944SOL     OW 8789   0.692   5.407   5.473
 2944SOL    HW1 8790   0.632   5.480   5.459
 2944SOL    HW2 8791   0.767   5.427   5.417
 2945SOL     OW 8792   1.744   3.908   4.220
 2945SOL    HW1 8793   1.803   3.888   4.148
 2945SOL    HW2 8794   1.718   3.822   4.254
 2946SOL     OW 8795   1.397   5.293   4.227
 2946SOL    HW1 8796   1.452   5.327   4.157
 2946SOL    HW2 8797   1.342   5.367   4.254
 2947SOL     OW 8798   0.115   5.520   5.580
 2947SOL    HW1 8799   0.075   5.467   5.650
 2947SOL    HW2 8800   0.187   5.566   5.623
 2948SOL     OW 8801   1.280   4.660   4.388
 2948SOL    HW1 8802   1.353   4.601   4.402
 2948SOL    HW2 8803   1.316   4.732   4.336
 2949SOL     OW 8804   0.784   5.005   5.135
 2949SOL    HW1 8805   0.760   5.053   5.215
 2949SOL    HW2 8806   0.709   5.017   5.077
 2950SOL     OW 8807   0.673   5.357   3.882
 2950SOL    HW1 8808   0.689   5.372   3.789
 2950SOL    HW2 8809   0.617   5.279   3.885
 2951SOL     OW 8810   1.616   5.454   5.126
 2951SOL    HW1 8811   1.673   5.454   5.049
 2951SOL    HW2 8812   1.600   5.547   5.144
 2952SOL     OW 8813   1.845   3.884   4.689
 2952SOL    HW1 8814   1.873   3.795   4.668
 2952SOL    HW2 8815   1.757   3.891   4.650
 2953SOL     OW 8816   0.277   4.051   4.462
 2953SOL    HW1 8817   0.198   4.093   4.427
 2953SOL    HW2 8818   0.256   4.035   4.554
 2954SOL     OW 8819   1.211   5.312   3.760
 2954SOL    HW1 8820   1.201   5.221   3.788
 2954SOL    HW2 8821   1.141   5.326   3.696
 2955SOL     OW 8822   0.826   4.737   5.106
 2955SOL    HW1 8823   0.862   4.728   5.018
 2955SOL    HW2 8824   0.814   4.831   5.118
 2956SOL     OW 8825   0.920   4.637   4.025
 2956SOL    HW1 8826   0.973   4.666   3.951
 2956SOL    HW2 8827   0.973   4.570   4.068
 2957SOL     OW 8828   1.484   5.370   3.782
 2957SOL    HW1 8829   1.392   5.350   3.765
 2957SOL    HW2 8830   1.524   5.373   3.695
 2958SOL     OW 8831   0.372   5.044   5.219
 2958SOL    HW1 8832   0.362   5.120   5.161
 2958SOL    HW2 8833   0.298   4.987   5.196
 2959SOL     OW 8834   1.598   5.014   5.000
 2959SOL    HW1 8835   1.653   4.990   5.075
 2959SOL    HW2 8836   1.539   5.081   5.035
 2960SOL     OW 8837   1.077   4.843   4.452
 2960SOL    HW1 8838   1.002   4.794   4.485
 2960SOL    HW2 8839   1.139   4.777   4.423
 2961SOL     OW 8840   1.033   3.973   4.685
 2961SOL    HW1 8841   1.033   3.930   4.600
 2961SOL    HW2 8842   1.026   3.901   4.748
 2962SOL     OW 8843   0.605   5.211   4.207
 2962SOL    HW1 8844   0.657   5.164   4.142
 2962SOL    HW2 8845   0.517   5.214   4.170
 2963SOL     OW 8846   1.746   4.106   5.113
 2963SOL    HW1 8847   1.817   4.170   5.109
 2963SOL    HW2 8848   1.772   4.037   5.052
 2964SOL     OW 8849   0.243   5.085   3.965
 2964SOL    HW1 8850   0.148   5.073   3.967
 2964SOL    HW2 8851   0.267   5.104   4.056
 2965SOL     OW 8852   0.141   4.733   5.398
 2965SOL    HW1 8853   0.075   4.753   5.464
 2965SOL    HW2 8854   0.222   4.722   5.448
 2966SOL     OW 8855   0.685   3.915   5.220
 2966SOL    HW1 8856   0.769   3.890   5.183
 2966SOL    HW2 8857   0.707   3.947   5.308
 2967SOL     OW 8858   0.074   4.039   3.718
 2967SOL    HW1 8859   9.979   4.028   3.725
 2967SOL    HW2 8860   0.084   4.116   3.661
 2968SOL     OW 8861   1.415   4.578   5.112
 2968SOL    HW1 8862   1.363   4.636   5.057
 2968SOL    HW2 8863   1.503   4.582   5.075
 2969SOL     OW 8864   0.060   3.795   3.987
 2969SOL    HW1 8865   0.077   3.847   4.065
 2969SOL    HW2 8866   0.147   3.778   3.950
 2970SOL     OW 8867   1.181   5.046   3.846
 2970SOL    HW1 8868   1.088   5.022   3.845
 2970SOL    HW2 8869   1.204   5.049   3.939
 2971SOL     OW 8870   0.629   4.556   5.160
 2971SOL    HW1 8871   0.687   4.631   5.148
 2971SOL    HW2 8872   0.686   4.480   5.159
 2972SOL     OW 8873   1.487   5.526   4.717
 2972SOL    HW1 8874   1.514   5.601   4.662
 2972SOL    HW2 8875   1.570   5.483   4.739
 2973SOL     OW 8876   0.711   4.278   5.416
 2973SOL    HW1 8877   0.762   4.332   5.477
 2973SOL    HW2 8878   0.724   4.188   5.446
 2974SOL     OW 8879   1.469   4.908   5.343
 2974SOL    HW1 8880   1.462   4.931   5.436
 2974SOL    HW2 8881   1.558   4.932   5.320
 2975SOL     OW 8882   0.365   5.479   5.286
 2975SOL    HW1 8883   0.282   5.523   5.269
 2975SOL    HW2 8884   0.341   5.396   5.327
 2976SOL     OW 8885   1.654   4.599   4.977
 2976SOL    HW1 8886   1.653   4.516   4.930
 2976SOL    HW2 8887   1.643   4.665   4.909
 2977SOL     OW 8888   1.226   4.049   4.179
 2977SOL    HW1 8889   1.285   3.974   4.178
 2977SOL    HW2 8890   1.254   4.101   4.255
 2978SOL     OW 8891   0.569   4.453   4.403
 2978SOL    HW1 8892   0.617   4.535   4.394
 2978SOL    HW2 8893   0.511   4.450   4.327
 2979SOL     OW 8894   1.747   4.079   5.389
 2979SOL    HW1 8895   1.745   4.095   5.295
 2979SOL    HW2 8896   1.670   4.026   5.407
 2980SOL     OW 8897   1.760   4.649   5.228
 2980SOL    HW1 8898   1.743   4.742   5.240
 2980SOL    HW2 8899   1.733   4.631   5.138
 2981SOL     OW 8900   0.875   5.081   3.789
 2981SOL    HW1 8901   0.835   5.101   3.874
 2981SOL    HW2 8902   0.883   5.166   3.746
 2982SOL     OW 8903   0.674   5.500   4.642
 2982SOL    HW1 8904   0.650   5.593   4.635
 2982SOL    HW2 8905   0.770   5.500   4.643
 2983SOL     OW 8906   0.874   4.700   4.580
 2983SOL    HW1 8907   0.924   4.627   4.617
 2983SOL    HW2 8908   0.829   4.738   4.656
 2984SOL     OW 8909   1.062   4.696   3.806
 2984SOL    HW1 8910   1.047   4.756   3.733
 2984SOL    HW2 8911   1.140   4.647   3.780
 2985SOL     OW 8912   1.831   5.282   4.563
 2985SOL    HW1 8913   1.754   5.273   4.507
 2985SOL    HW2 8914   1.810   5.229   4.640
 2986SOL     OW 8915   0.239   5.025   5.562
 2986SOL    HW1 8916   0.148   5.029   5.533
 2986SOL    HW2 8917   0.234   5.035   5.658
 2987SOL     OW 8918   0.153   4.947   4.395
 2987SOL    HW1 8919   0.084   4.895   4.434
 2987SOL    HW2 8920   0.209   4.884   4.350
 2988SOL     OW 8921   0.699   5.144   5.356
 2988SOL    HW1 8922   0.622   5.102   5.395
 2988SOL    HW2 8923   0.700   5.232   5.393
 2989SOL     OW 8924   1.809   3.895   4.959
 2989SOL    HW1 8925   1.812   3.800   4.972
 2989SOL    HW2 8926   1.823   3.907   4.865
 2990SOL     OW 8927   0.434   4.168   4.244
 2990SOL    HW1 8928   0.493   4.100   4.211
 2990SOL    HW2 8929   0.408   4.137   4.331
 2991SOL     OW 8930   1.696   5.204   4.806
 2991SOL    HW1 8931   1.617   5.185   4.754
 2991SOL    HW2 8932   1.697   5.137   4.873
 2992SOL     OW 8933   0.365   4.294   5.008
 2992SOL    HW1 8934   0.415   4.231   5.061
 2992SOL    HW2 8935   0.369   4.259   4.919
 2993SOL     OW 8936   0.844   5.306   4.396
 2993SOL    HW1 8937   0.814   5.378   4.339
 2993SOL    HW2 8938   0.767   5.250   4.405
 2994SOL     OW 8939   1.422   3.957   4.839
 2994SOL    HW1 8940   1.431   3.868   4.872
 2994SOL    HW2 8941   1.376   4.004   4.909
 2995SOL     OW 8942   1.011   3.741   4.844
 2995SOL    HW1 8943   0.957   3.678   4.797
 2995SOL    HW2 8944   1.098   3.701   4.848
 2996SOL     OW 8945   0.776   5.056   4.053
 2996SOL    HW1 8946   0.753   4.964   4.066
 2996SOL    HW2 8947   0.856   5.069   4.104
 2997SOL     OW 8948   0.618   5.293   5.010
 2997SOL    HW1 8949   0.615   5.379   5.051
 2997SOL    HW2 8950   0.707   5.285   4.977
 2998SOL     OW 8951   1.383   3.763   3.916
 2998SOL    HW1 8952   1.423   3.690   3.868
 2998SOL    HW2 8953   1.291   3.736   3.926
 2999SOL     OW 8954   1.299   4.196   4.399
 2999SOL    HW1 8955   1.248   4.277   4.397
 2999SOL    HW2 8956   1.292   4.166   4.490
 3000SOL     OW 8957   1.582   3.912   4.617
 3000SOL    HW1 8958   1.530   3.941   4.691
 3000SOL    HW2 8959   1.583   3.986   4.557
 3001SOL     OW 8960   0.068   4.815   4.022
 3001SOL    HW1 8961   0.143   4.762   3.995
 3001SOL    HW2 8962   0.030   4.768   4.097
 3002SOL     OW 8963   0.902   5.395   4.051
 3002SOL    HW1 8964   0.822   5.382   4.001
 3002SOL    HW2 8965   0.880   5.464   4.114
 3003SOL     OW 8966   0.286   4.317   5.667
 3003SOL    HW1 8967   0.219   4.336   5.733
 3003SOL    HW2 8968   0.236   4.298   5.588
 3004SOL     OW 8969   0.198   4.004   6.584
 3004SOL    HW1 8970   0.235   3.969   6.665
 3004SOL    HW2 8971   0.106   3.979   6.585
 3005SOL     OW 8972   0.041   4.150   6.216
 3005SOL    HW1 8973   9.949   4.162   6.239
 3005SOL    HW2 8974   0.040   4.086   6.145
 3006SOL     OW 8975   0.569   5.032   6.788
 3006SOL    HW1 8976   0.486   5.034   6.741
 3006SOL    HW2 8977   0.586   5.123   6.811
 3007SOL     OW 8978   1.588   5.248   6.290
 3007SOL    HW1 8979   1.541   5.217   6.368
 3007SOL    HW2 8980   1.522   5.251   6.222
 3008SOL     OW 8981   1.139   4.429   6.273
 3008SOL    HW1 8982   1.185   4.512   6.262
 3008SOL    HW2 8983   1.090   4.440   6.355
 3009SOL     OW 8984   1.800   4.305   5.805
 3009SOL    HW1 8985   1.762   4.305   5.718
 3009SOL    HW2 8986   1.756   4.233   5.851
 3010SOL     OW 8987   0.728   4.854   6.643
 3010SOL    HW1 8988   0.666   4.894   6.704
 3010SOL    HW2 8989   0.771   4.928   6.600
 3011SOL     OW 8990   0.888   4.469   7.411
 3011SOL    HW1 8991   0.896   4.537   7.478
 3011SOL    HW2 8992   0.903   4.514   7.329
 3012SOL     OW 8993   0.687   4.707   6.234
 3012SOL    HW1 8994   0.757   4.706   6.299
 3012SOL    HW2 8995   0.624   4.770   6.268
 3013SOL     OW 8996   0.717   4.872   7.421
 3013SOL    HW1 8997   0.768   4.946   7.455
 3013SOL    HW2 8998   0.643   4.913   7.375
 3014SOL     OW 8999   0.334   5.149   6.649
 3014SOL    HW1 9000   0.258   5.133   6.593
 3014SOL    HW2 9001   0.393   5.202   6.594
 3015SOL     OW 9002   1.454   5.230   6.958
 3015SOL    HW1 9003   1.509   5.307   6.971
 3015SOL    HW2 9004   1.382   5.242   7.020
 3016SOL     OW 9005   0.478   4.109   7.036
 3016SOL    HW1 9006   0.549   4.047   7.053
 3016SOL    HW2 9007   0.399   4.064   7.067
 3017SOL     OW 9008   1.585   4.156   6.341
 3017SOL    HW1 9009   1.518   4.167   6.273
 3017SOL    HW2 9010   1.567   4.226   6.403
 3018SOL     OW 9011   0.223   5.383   6.014
 3018SOL    HW1 9012   0.183   5.450   6.070
 3018SOL    HW2 9013   0.305   5.423   5.984
 3019SOL     OW 9014   1.136   5.065   7.282
 3019SOL    HW1 9015   1.182   5.054   7.365
 3019SOL    HW2 9016   1.083   4.986   7.273
 3020SOL     OW 9017   0.287   5.126   6.088
 3020SOL    HW1 9018   0.257   5.217   6.084
 3020SOL    HW2 9019   0.232   5.086   6.155
 3021SOL     OW 9020   0.308   4.804   6.491
 3021SOL    HW1 9021   0.301   4.711   6.508
 3021SOL    HW2 9022   0.237   4.844   6.542
 3022SOL     OW 9023   0.585   5.534   6.995
 3022SOL    HW1 9024   0.507   5.513   7.046
 3022SOL    HW2 9025   0.618   5.616   7.033
 3023SOL     OW 9026   0.570   4.712   5.740
 3023SOL    HW1 9027   0.621   4.754   5.670
 3023SOL    HW2 9028   0.608   4.746   5.821
 3024SOL     OW 9029   1.592   3.856   7.046
 3024SOL    HW1 9030   1.630   3.932   7.002
 3024SOL    HW2 9031   1.560   3.890   7.130
 3025SOL     OW 9032   0.147   4.399   6.159
 3025SOL    HW1 9033   0.113   4.314   6.186
 3025SOL    HW2 9034   0.124   4.458   6.231
 3026SOL     OW 9035   1.846   5.467   5.904
 3026SOL    HW1 9036   1.919   5.452   5.965
 3026SOL    HW2 9037   1.854   5.560   5.881
 3027SOL     OW 9038   0.029   5.345   5.785
 3027SOL    HW1 9039   0.010   5.251   5.782
 3027SOL    HW2 9040   0.087   5.355   5.861
 3028SOL     OW 9041   1.698   4.650   6.239
 3028SOL    HW1 9042   1.780   4.605   6.217
 3028SOL    HW2 9043   1.677   4.701   6.161
 3029SOL     OW 9044   1.657   4.829   6.019
 3029SOL    HW1 9045   1.741   4.821   5.975
 3029SOL    HW2 9046   1.671   4.894   6.088
 3030SOL     OW 9047   0.178   4.479   7.156
 3030SOL    HW1 9048   0.273   4.477   7.161
 3030SOL    HW2 9049   0.154   4.569   7.176
 3031SOL     OW 9050   0.627   5.122   6.324
 3031SOL    HW1 9051   0.585   5.036   6.331
 3031SOL    HW2 9052   0.610   5.151   6.234
 3032SOL     OW 9053   1.271   4.949   7.003
 3032SOL    HW1 9054   1.298   4.880   6.943
 3032SOL    HW2 9055   1.333   4.944   7.076
 3033SOL     OW 9056   0.854   3.731   6.106
 3033SOL    HW1 9057   0.893   3.813   6.077
 3033SOL    HW2 9058   0.760   3.748   6.106
 3034SOL     OW 9059   0.164   4.663   6.862
 3034SOL    HW1 9060   0.253   4.629   6.853
 3034SOL    HW2 9061   0.134   4.677   6.772
 3035SOL     OW 9062   1.534   4.739   5.786
 3035SOL    HW1 9063   1.465   4.679   5.816
 3035SOL    HW2 9064   1.576   4.769   5.866
 3036SOL     OW 9065   1.176   5.546   7.223
 3036SOL    HW1 9066   1.179   5.609   7.151
 3036SOL    HW2 9067   1.194   5.462   7.182
 3037SOL     OW 9068   0.342   3.975   7.373
 3037SOL    HW1 9069   0.385   4.044   7.424
 3037SOL    HW2 9070   0.250   3.979   7.399
 3038SOL     OW 9071   1.472   5.143   6.516
 3038SOL    HW1 9072   1.408   5.161   6.586
 3038SOL    HW2 9073   1.455   5.052   6.492
 3039SOL     OW 9074   1.637   5.521   6.148
 3039SOL    HW1 9075   1.620   5.474   6.066
 3039SOL    HW2 9076   1.637   5.452   6.215
 3040SOL     OW 9077   0.616   4.444   5.867
 3040SOL    HW1 9078   0.620   4.529   5.823
 3040SOL    HW2 9079   0.545   4.453   5.931
 3041SOL     OW 9080   1.282   4.117   6.527
 3041SOL    HW1 9081   1.193   4.082   6.532
 3041SOL    HW2 9082   1.334   4.059   6.582
 3042SOL     OW 9083   1.579   5.397   5.905
 3042SOL    HW1 9084   1.673   5.411   5.894
 3042SOL    HW2 9085   1.546   5.384   5.816
 3043SOL     OW 9086   0.790   4.335   7.021
 3043SOL    HW1 9087   0.762   4.307   7.108
 3043SOL    HW2 9088   0.765   4.263   6.964
 3044SOL     OW 9089   1.391   4.201   7.259
 3044SOL    HW1 9090   1.397   4.244   7.344
 3044SOL    HW2 9091   1.442   4.120   7.270
 3045SOL     OW 9092   0.944   4.605   7.176
 3045SOL    HW1 9093   1.000   4.541   7.132
 3045SOL    HW2 9094   0.897   4.649   7.105
 3046SOL     OW 9095   1.009   4.121   6.795
 3046SOL    HW1 9096   0.917   4.135   6.817
 3046SOL    HW2 9097   1.007   4.078   6.710
 3047SOL     OW 9098   1.065   4.424   6.005
 3047SOL    HW1 9099   1.086   4.422   6.099
 3047SOL    HW2 9100   0.982   4.378   5.998
 3048SOL     OW 9101   0.074   4.561   6.389
 3048SOL    HW1 9102   0.159   4.552   6.432
 3048SOL    HW2 9103   0.015   4.593   6.458
 3049SOL     OW 9104   0.112   5.587   7.167
 3049SOL    HW1 9105   0.110   5.581   7.262
 3049SOL    HW2 9106   0.058   5.513   7.137
 3050SOL     OW 9107   0.897   4.072   5.785
 3050SOL    HW1 9108   0.944   4.129   5.724
 3050SOL    HW2 9109   0.879   3.992   5.735
 3051SOL     OW 9110   1.685   4.287   7.426
 3051SOL    HW1 9111   1.664   4.364   7.374
 3051SOL    HW2 9112   1.715   4.222   7.362
 3052SOL     OW 9113   1.393   4.873   6.128
 3052SOL    HW1 9114   1.473   4.862   6.076
 3052SOL    HW2 9115   1.340   4.934   6.077
 3053SOL     OW 9116   0.562   3.895   6.501
 3053SOL    HW1 9117   0.566   3.920   6.593
 3053SOL    HW2 9118   0.555   3.978   6.453
 3054SOL     OW 9119   0.996   5.175   6.051
 3054SOL    HW1 9120   0.974   5.250   5.996
 3054SOL    HW2 9121   0.967   5.200   6.139
 3055SOL     OW 9122   0.339   5.529   6.529
 3055SOL    HW1 9123   0.387   5.449   6.507
 3055SOL    HW2 9124   0.398   5.600   6.505
 3056SOL     OW 9125   1.804   4.767   6.476
 3056SOL    HW1 9126   1.756   4.753   6.394
 3056SOL    HW2 9127   1.735   4.776   6.542
 3057SOL     OW 9128   1.218   5.267   7.103
 3057SOL    HW1 9129   1.207   5.196   7.165
 3057SOL    HW2 9130   1.151   5.251   7.036
 3058SOL     OW 9131   0.313   4.662   5.862
 3058SOL    HW1 9132   0.391   4.678   5.808
 3058SOL    HW2 9133   0.328   4.576   5.901
 3059SOL     OW 9134   1.485   4.487   6.297
 3059SOL    HW1 9135   1.487   4.444   6.382
 3059SOL    HW2 9136   1.564   4.541   6.295
 3060SOL     OW 9137   0.485   4.999   7.321
 3060SOL    HW1 9138   0.462   5.007   7.229
 3060SOL    HW2 9139   0.401   4.990   7.366
 3061SOL     OW 9140   1.142   5.500   5.809
 3061SOL    HW1 9141   1.061   5.468   5.849
 3061SOL    HW2 9142   1.163   5.436   5.741
 3062SOL     OW 9143   0.220   4.005   7.083
 3062SOL    HW1 9144   0.130   4.034   7.069
 3062SOL    HW2 9145   0.213   3.934   7.147
 3063SOL     OW 9146   1.638   5.112   5.687
 3063SOL    HW1 9147   1.597   5.198   5.673
 3063SOL    HW2 9148   1.571   5.050   5.659
 3064SOL     OW 9149   0.471   5.473   5.905
 3064SOL    HW1 9150   0.520   5.521   5.972
 3064SOL    HW2 9151   0.539   5.428   5.854
 3065SOL     OW 9152   1.399   3.830   6.045
 3065SOL    HW1 9153   1.398   3.805   5.952
 3065SOL    HW2 9154   1.489   3.817   6.073
 3066SOL     OW 9155   0.258   5.515   6.802
 3066SOL    HW1 9156   0.302   5.437   6.836
 3066SOL    HW2 9157   0.273   5.512   6.707
 3067SOL     OW 9158   0.954   5.427   6.478
 3067SOL    HW1 9159   1.038   5.384   6.492
 3067SOL    HW2 9160   0.913   5.375   6.408
 3068SOL     OW 9161   0.394   4.427   6.039
 3068SOL    HW1 9162   0.414   4.334   6.048
 3068SOL    HW2 9163   0.309   4.438   6.081
 3069SOL     OW 9164   1.508   3.947   7.303
 3069SOL    HW1 9165   1.520   3.966   7.396
 3069SOL    HW2 9166   1.442   3.877   7.301
 3070SOL     OW 9167   0.658   3.827   5.685
 3070SOL    HW1 9168   0.707   3.749   5.709
 3070SOL    HW2 9169   0.599   3.799   5.615
 3071SOL     OW 9170   0.757   4.001   7.341
 3071SOL    HW1 9171   0.841   3.956   7.340
 3071SOL    HW2 9172   0.710   3.963   7.416
 3072SOL     OW 9173   0.870   5.250   6.784
 3072SOL    HW1 9174   0.853   5.209   6.700
 3072SOL    HW2 9175   0.939   5.195   6.824
 3073SOL     OW 9176   1.329   4.316   7.019
 3073SOL    HW1 9177   1.362   4.286   7.103
 3073SOL    HW2 9178   1.368   4.403   7.007
 3074SOL     OW 9179   0.819   5.100   6.544
 3074SOL    HW1 9180   0.906   5.096   6.504
 3074SOL    HW2 9181   0.760   5.116   6.470
 3075SOL     OW 9182   0.929   4.239   6.474
 3075SOL    HW1 9183   0.904   4.226   6.382
 3075SOL    HW2 9184   0.956   4.152   6.504
 3076SOL     OW 9185   0.592   3.784   6.079
 3076SOL    HW1 9186   0.522   3.790   6.145
 3076SOL    HW2 9187   0.576   3.859   6.021
 3077SOL     OW 9188   1.434   4.937   5.618
 3077SOL    HW1 9189   1.463   4.863   5.671
 3077SOL    HW2 9190   1.348   4.960   5.655
 3078SOL     OW 9191   0.309   3.765   5.748
 3078SOL    HW1 9192   0.339   3.855   5.762
 3078SOL    HW2 9193   0.370   3.711   5.798
 3079SOL     OW 9194   0.959   3.975   6.036
 3079SOL    HW1 9195   0.932   4.009   5.951
 3079SOL    HW2 9196   1.053   3.994   6.041
 3080SOL     OW 9197   1.074   4.417   7.030
 3080SOL    HW1 9198   1.012   4.345   7.036
 3080SOL    HW2 9199   1.160   4.374   7.027
 3081SOL     OW 9200   1.209   5.310   6.388
 3081SOL    HW1 9201   1.223   5.371   6.315
 3081SOL    HW2 9202   1.284   5.325   6.447
 3082SOL     OW 9203   0.490   4.883   6.308
 3082SOL    HW1 9204   0.430   4.861   6.379
 3082SOL    HW2 9205   0.440   4.866   6.228
 3083SOL     OW 9206   1.254   5.515   6.203
 3083SOL    HW1 9207   1.302   5.578   6.150
 3083SOL    HW2 9208   1.184   5.567   6.243
 3084SOL     OW 9209   1.032   4.241   5.615
 3084SOL    HW1 9210   0.989   4.324   5.595
 3084SOL    HW2 9211   1.096   4.262   5.683
 3085SOL     OW 9212   0.104   4.309   6.947
 3085SOL    HW1 9213   0.195   4.298   6.919
 3085SOL    HW2 9214   0.110   4.366   7.023
 3086SOL     OW 9215   0.564   3.946   6.771
 3086SOL    HW1 9216   0.599   3.876   6.826
 3086SOL    HW2 9217   0.470   3.946   6.790
 3087SOL     OW 9218   0.870   4.174   6.216
 3087SOL    HW1 9219   0.839   4.231   6.146
 3087SOL    HW2 9220   0.898   4.094   6.171
 3088SOL     OW 9221   1.028   3.782   6.329
 3088SOL    HW1 9222   0.969   3.773   6.254
 3088SOL    HW2 9223   1.004   3.709   6.387
 3089SOL     OW 9224   1.435   4.878   6.440
 3089SOL    HW1 9225   1.365   4.814   6.447
 3089SOL    HW2 9226   1.452   4.885   6.346
 3090SOL     OW 9227   1.463   4.340   6.535
 3090SOL    HW1 9228   1.399   4.270   6.545
 3090SOL    HW2 9229   1.519   4.334   6.612
 3091SOL     OW 9230   1.827   4.520   5.973
 3091SOL    HW1 9231   1.888   4.477   6.034
 3091SOL    HW2 9232   1.814   4.456   5.903
 3092SOL     OW 9233   0.493   5.153   5.720
 3092SOL    HW1 9234   0.409   5.131   5.759
 3092SOL    HW2 9235   0.499   5.098   5.642
 3093SOL     OW 9236   1.707   4.994   6.221
 3093SOL    HW1 9237   1.801   4.987   6.241
 3093SOL    HW2 9238   1.684   5.084   6.246
 3094SOL     OW 9239   1.393   4.300   5.650
 3094SOL    HW1 9240   1.338   4.273   5.723
 3094SOL    HW2 9241   1.482   4.276   5.677
 3095SOL     OW 9242   0.548   3.977   5.893
 3095SOL    HW1 9243   0.593   3.929   5.824
 3095SOL    HW2 9244   0.528   4.063   5.855
 3096SOL     OW 9245   1.735   4.969   7.118
 3096SOL    HW1 9246   1.823   4.934   7.104
 3096SOL    HW2 9247   1.749   5.056   7.155
 3097SOL     OW 9248   1.043   5.080   6.921
 3097SOL    HW1 9249   0.966   5.045   6.965
 3097SOL    HW2 9250   1.117   5.033   6.962
 3098SOL     OW 9251   1.608   5.359   7.258
 3098SOL    HW1 9252   1.597   5.395   7.170
 3098SOL    HW2 9253   1.686   5.303   7.251
 3099SOL     OW 9254   1.151   4.961   6.691
 3099SOL    HW1 9255   1.089   4.996   6.755
 3099SOL    HW2 9256   1.119   4.993   6.607
 3100SOL     OW 9257   1.609   4.815   6.663
 3100SOL    HW1 9258   1.601   4.881   6.731
 3100SOL    HW2 9259   1.539   4.836   6.600
 3101SOL     OW 9260   0.921   3.805   6.970
 3101SOL    HW1 9261   0.941   3.790   6.878
 3101SOL    HW2 9262   1.001   3.845   7.005
 3102SOL     OW 9263   0.981   4.840   7.308
 3102SOL    HW1 9264   0.891   4.855   7.337
 3102SOL    HW2 9265   0.976   4.759   7.256
 3103SOL     OW 9266   0.711   4.786   5.966
 3103SOL    HW1 9267   0.697   4.761   6.057
 3103SOL    HW2 9268   0.787   4.735   5.939
 3104SOL     OW 9269   0.420   4.559   6.847
 3104SOL    HW1 9270   0.489   4.570   6.912
 3104SOL    HW2 9271   0.396   4.466   6.852
 3105SOL     OW 9272   1.265   4.091   6.878
 3105SOL    HW1 9273   1.293   4.172   6.922
 3105SOL    HW2 9274   1.176   4.110   6.848
 3106SOL     OW 9275   0.076   5.306   6.916
 3106SOL    HW1 9276   0.075   5.385   6.862
 3106SOL    HW2 9277   0.168   5.288   6.931
 3107SOL     OW 9278   0.339   4.837   6.081
 3107SOL    HW1 9279   0.337   4.925   6.043
 3107SOL    HW2 9280   0.331   4.778   6.006
 3108SOL     OW 9281   0.535   4.240   6.440
 3108SOL    HW1 9282   0.546   4.304   6.369
 3108SOL    HW2 9283   0.601   4.265   6.505
 3109SOL     OW 9284   1.247   5.077   5.983
 3109SOL    HW1 9285   1.302   5.147   6.018
 3109SOL    HW2 9286   1.159   5.099   6.015
 3110SOL     OW 9287   1.309   5.193   6.729
 3110SOL    HW1 9288   1.357   5.199   6.812
 3110SOL    HW2 9289   1.258   5.112   6.737
 3111SOL     OW 9290   1.575   4.341   6.072
 3111SOL    HW1 9291   1.524   4.383   6.142
 3111SOL    HW2 9292   1.626   4.413   6.034
 3112SOL     OW 9293   0.348   5.257   6.894
 3112SOL    HW1 9294   0.335   5.213   6.810
 3112SOL    HW2 9295   0.442   5.273   6.899
 3113SOL     OW 9296   0.451   4.459   7.207
 3113SOL    HW1 9297   0.507   4.502   7.142
 3113SOL    HW2 9298   0.500   4.381   7.233
 3114SOL     OW 9299   1.627   4.510   7.284
 3114SOL    HW1 9300   1.540   4.549   7.275
 3114SOL    HW2 9301   1.678   4.548   7.212
 3115SOL     OW 9302   0.993   3.867   7.348
 3115SOL    HW1 9303   1.052   3.940   7.327
 3115SOL    HW2 9304   1.044   3.789   7.325
 3116SOL     OW 9305   0.504   3.757   7.333
 3116SOL    HW1 9306   0.456   3.705   7.268
 3116SOL    HW2 9307   0.450   3.835   7.345
 3117SOL     OW 9308   0.591   4.598   6.627
 3117SOL    HW1 9309   0.628   4.686   6.626
 3117SOL    HW2 9310   0.531   4.598   6.701
 3118SOL     OW 9311   1.309   4.576   6.590
 3118SOL    HW1 9312   1.221   4.549   6.564
 3118SOL    HW2 9313   1.364   4.501   6.570
 3119SOL     OW 9314   1.200   4.248   5.842
 3119SOL    HW1 9315   1.212   4.171   5.898
 3119SOL    HW2 9316   1.161   4.314   5.899
 3120SOL     OW 9317   0.296   3.920   6.827
 3120SOL    HW1 9318   0.269   3.950   6.913
 3120SOL    HW2 9319   0.278   3.826   6.827
 3121SOL     OW 9320   0.007   5.043   6.865
 3121SOL    HW1 9321   0.053   4.996   6.934
 3121SOL    HW2 9322   0.021   5.136   6.886
 3122SOL     OW 9323   0.709   4.345   6.625
 3122SOL    HW1 9324   0.787   4.340   6.570
 3122SOL    HW2 9325   0.681   4.436   6.618
 3123SOL     OW 9326   1.751   4.692   7.456
 3123SOL    HW1 9327   1.711   4.619   7.407
 3123SOL    HW2 9328   1.687   4.712   7.524
 3124SOL     OW 9329   0.375   3.812   6.237
 3124SOL    HW1 9330   0.349   3.893   6.281
 3124SOL    HW2 9331   0.299   3.754   6.247
 3125SOL     OW 9332   1.631   4.114   5.930
 3125SOL    HW1 9333   1.664   4.049   5.992
 3125SOL    HW2 9334   1.602   4.187   5.985
 3126SOL     OW 9335   1.035   4.481   6.541
 3126SOL    HW1 9336   1.013   4.496   6.634
 3126SOL    HW2 9337   1.004   4.392   6.524
 3127SOL     OW 9338   0.981   5.288   7.321
 3127SOL    HW1 9339   0.960   5.332   7.238
 3127SOL    HW2 9340   1.021   5.205   7.294
 3128SOL     OW 9341   1.838   5.219   7.188
 3128SOL    HW1 9342   1.865   5.247   7.101
 3128SOL    HW2 9343   1.917   5.230   7.242
 3129SOL     OW 9344   0.363   4.642   7.398
 3129SOL    HW1 9345   0.436   4.667   7.454
 3129SOL    HW2 9346   0.399   4.576   7.339
 3130SOL     OW 9347   1.521   3.993   5.705
 3130SOL    HW1 9348   1.469   3.922   5.742
 3130SOL    HW2 9349   1.561   4.037   5.780
 3131SOL     OW 9350   1.281   4.546   5.605
 3131SOL    HW1 9351   1.321   4.459   5.613
 3131SOL    HW2 9352   1.317   4.583   5.525
 3132SOL     OW 9353   1.072   5.077   6.452
 3132SOL    HW1 9354   1.082   5.004   6.390
 3132SOL    HW2 9355   1.124   5.148   6.414
 3133SOL     OW 9356   0.317   4.528   6.527
 3133SOL    HW1 9357   0.412   4.543   6.526
 3133SOL    HW2 9358   0.308   4.437   6.557
 3134SOL     OW 9359   0.314   4.250   6.596
 3134SOL    HW1 9360   0.271   4.165   6.588
 3134SOL    HW2 9361   0.389   4.245   6.536
 3135SOL     OW 9362   1.138   4.092   7.272
 3135SOL    HW1 9363   1.093   4.144   7.338
 3135SOL    HW2 9364   1.223   4.134   7.262
 3136SOL     OW 9365   1.157   3.914   7.061
 3136SOL    HW1 9366   1.146   3.976   7.133
 3136SOL    HW2 9367   1.204   3.963   6.993
 3137SOL     OW 9368   9.968   5.057   5.807
 3137SOL    HW1 9369   9.917   5.046   5.727
 3137SOL    HW2 9370   9.990   4.968   5.835
 3138SOL     OW 9371   0.080   5.409   6.534
 3138SOL    HW1 9372   0.114   5.325   6.503
 3138SOL    HW2 9373   0.152   5.470   6.521
 3139SOL     OW 9374   0.497   5.300   6.493
 3139SOL    HW1 9375   0.565   5.367   6.505
 3139SOL    HW2 9376   0.536   5.237   6.433
 3140SOL     OW 9377   0.949   4.503   6.799
 3140SOL    HW1 9378   1.011   4.492   6.871
 3140SOL    HW2 9379   0.869   4.458   6.828
 3141SOL     OW 9380   0.040   4.290   6.672
 3141SOL    HW1 9381   0.133   4.292   6.649
 3141SOL    HW2 9382   0.039   4.294   6.767
 3142SOL     OW 9383   0.171   4.240   7.285
 3142SOL    HW1 9384   0.227   4.188   7.227
 3142SOL    HW2 9385   0.160   4.323   7.239
 3143SOL     OW 9386   1.392   4.645   7.238
 3143SOL    HW1 9387   1.409   4.739   7.232
 3143SOL    HW2 9388   1.384   4.617   7.146
 3144SOL     OW 9389   0.829   4.291   5.961
 3144SOL    HW1 9390   0.832   4.218   5.899
 3144SOL    HW2 9391   0.758   4.346   5.930
 3145SOL     OW 9392   1.635   4.325   6.749
 3145SOL    HW1 9393   1.625   4.266   6.824
 3145SOL    HW2 9394   1.727   4.314   6.722
 3146SOL     OW 9395   0.258   5.284   7.310
 3146SOL    HW1 9396   0.263   5.321   7.398
 3146SOL    HW2 9397   0.265   5.189   7.323
 3147SOL     OW 9398   0.737   4.158   6.821
 3147SOL    HW1 9399   0.673   4.088   6.808
 3147SOL    HW2 9400   0.717   4.221   6.752
 3148SOL     OW 9401   0.903   5.404   7.077
 3148SOL    HW1 9402   0.881   5.356   6.997
 3148SOL    HW2 9403   0.907   5.496   7.049
 3149SOL     OW 9404   0.518   4.212   5.757
 3149SOL    HW1 9405   0.567   4.288   5.790
 3149SOL    HW2 9406   0.438   4.249   5.720
 3150SOL     OW 9407   0.156   4.878   7.028
 3150SOL    HW1 9408   0.149   4.837   7.114
 3150SOL    HW2 9409   0.165   4.806   6.967
 3151SOL     OW 9410   1.303   4.758   6.795
 3151SOL    HW1 9411   1.313   4.694   6.724
 3151SOL    HW2 9412   1.250   4.828   6.757
 3152SOL     OW 9413   1.323   4.585   5.877
 3152SOL    HW1 9414   1.253   4.548   5.931
 3152SOL    HW2 9415   1.296   4.569   5.787
 3153SOL     OW 9416   1.787   5.448   6.757
 3153SOL    HW1 9417   1.849   5.474   6.688
 3153SOL    HW2 9418   1.755   5.362   6.729
 3154SOL     OW 9419   1.241   5.458   6.679
 3154SOL    HW1 9420   1.326   5.488   6.644
 3154SOL    HW2 9421   1.256   5.367   6.702
 3155SOL     OW 9422   0.101   4.897   6.638
 3155SOL    HW1 9423   0.104   4.958   6.713
 3155SOL    HW2 9424   0.008   4.893   6.615
 3156SOL     OW 9425   0.692   5.407   7.334
 3156SOL    HW1 9426   0.632   5.480   7.321
 3156SOL    HW2 9427   0.767   5.426   7.277
 3157SOL     OW 9428   1.744   3.908   6.082
 3157SOL    HW1 9429   1.803   3.888   6.009
 3157SOL    HW2 9430   1.718   3.822   6.116
 3158SOL     OW 9431   1.397   5.293   6.089
 3158SOL    HW1 9432   1.452   5.327   6.019
 3158SOL    HW2 9433   1.342   5.367   6.115
 3159SOL     OW 9434   0.114   5.521   7.442
 3159SOL    HW1 9435   0.075   5.467   7.511
 3159SOL    HW2 9436   0.186   5.566   7.485
 3160SOL     OW 9437   1.280   4.661   6.251
 3160SOL    HW1 9438   1.353   4.601   6.264
 3160SOL    HW2 9439   1.315   4.732   6.198
 3161SOL     OW 9440   0.784   5.005   6.998
 3161SOL    HW1 9441   0.760   5.053   7.077
 3161SOL    HW2 9442   0.710   5.017   6.939
 3162SOL     OW 9443   0.673   5.357   5.744
 3162SOL    HW1 9444   0.689   5.372   5.651
 3162SOL    HW2 9445   0.617   5.279   5.747
 3163SOL     OW 9446   1.616   5.454   6.988
 3163SOL    HW1 9447   1.673   5.454   6.911
 3163SOL    HW2 9448   1.600   5.546   7.006
 3164SOL     OW 9449   1.845   3.884   6.551
 3164SOL    HW1 9450   1.873   3.795   6.530
 3164SOL    HW2 9451   1.757   3.891   6.513
 3165SOL     OW 9452   0.276   4.050   6.323
 3165SOL    HW1 9453   0.198   4.092   6.289
 3165SOL    HW2 9454   0.256   4.033   6.416
 3166SOL     OW 9455   1.211   5.312   5.622
 3166SOL    HW1 9456   1.201   5.221   5.650
 3166SOL    HW2 9457   1.141   5.326   5.558
 3167SOL     OW 9458   0.826   4.737   6.968
 3167SOL    HW1 9459   0.862   4.728   6.880
 3167SOL    HW2 9460   0.814   4.831   6.980
 3168SOL     OW 9461   0.920   4.638   5.888
 3168SOL    HW1 9462   0.972   4.666   5.813
 3168SOL    HW2 9463   0.974   4.570   5.931
 3169SOL     OW 9464   1.484   5.370   5.644
 3169SOL    HW1 9465   1.392   5.350   5.627
 3169SOL    HW2 9466   1.525   5.373   5.557
 3170SOL     OW 9467   0.371   5.044   7.081
 3170SOL    HW1 9468   0.362   5.120   7.023
 3170SOL    HW2 9469   0.298   4.987   7.058
 3171SOL     OW 9470   1.599   5.014   6.862
 3171SOL    HW1 9471   1.654   4.990   6.937
 3171SOL    HW2 9472   1.540   5.081   6.897
 3172SOL     OW 9473   1.077   4.844   6.314
 3172SOL    HW1 9474   1.002   4.794   6.346
 3172SOL    HW2 9475   1.139   4.777   6.285
 3173SOL     OW 9476   1.034   3.973   6.547
 3173SOL    HW1 9477   1.033   3.930   6.462
 3173SOL    HW2 9478   1.026   3.901   6.610
 3174SOL     OW 9479   0.606   5.211   6.070
 3174SOL    HW1 9480   0.657   5.163   6.004
 3174SOL    HW2 9481   0.518   5.215   6.032
 3175SOL     OW 9482   1.746   4.106   6.975
 3175SOL    HW1 9483   1.816   4.170   6.971
 3175SOL    HW2 9484   1.772   4.037   6.914
 3176SOL     OW 9485   0.243   5.085   5.827
 3176SOL    HW1 9486   0.148   5.072   5.829
 3176SOL    HW2 9487   0.267   5.104   5.918
 3177SOL     OW 9488   0.141   4.734   7.260
 3177SOL    HW1 9489   0.075   4.756   7.326
 3177SOL    HW2 9490   0.222   4.722   7.311
 3178SOL     OW 9491   0.685   3.915   7.082
 3178SOL    HW1 9492   0.769   3.890   7.045
 3178SOL    HW2 9493   0.707   3.947   7.170
 3179SOL     OW 9494   0.073   4.039   5.579
 3179SOL    HW1 9495   9.978   4.028   5.585
 3179SOL    HW2 9496   0.085   4.116   5.522
 3180SOL     OW 9497   1.415   4.578   6.974
 3180SOL    HW1 9498   1.362   4.636   6.919
 3180SOL    HW2 9499   1.503   4.582   6.937
 3181SOL     OW 9500   0.060   3.795   5.849
 3181SOL    HW1 9501   0.077   3.848   5.927
 3181SOL    HW2 9502   0.147   3.777   5.813
 3182SOL     OW 9503   1.181   5.046   5.708
 3182SOL    HW1 9504   1.089   5.022   5.707
 3182SOL    HW2 9505   1.204   5.049   5.801
 3183SOL     OW 9506   0.629   4.556   7.022
 3183SOL    HW1 9507   0.687   4.631   7.010
 3183SOL    HW2 9508   0.686   4.480   7.021
 3184SOL     OW 9509   1.487   5.527   6.578
 3184SOL    HW1 9510   1.513   5.601   6.524
 3184SOL    HW2 9511   1.569   5.482   6.599
 3185SOL     OW 9512   0.711   4.278   7.278
 3185SOL    HW1 9513   0.762   4.332   7.339
 3185SOL    HW2 9514   0.724   4.188   7.308
 3186SOL     OW 9515   1.469   4.908   7.205
 3186SOL    HW1 9516   1.462   4.931   7.298
 3186SOL    HW2 9517   1.558   4.932   7.182
 3187SOL     OW 9518   0.365   5.479   7.148
 3187SOL    HW1 9519   0.282   5.523   7.131
 3187SOL    HW2 9520   0.341   5.396   7.189
 3188SOL     OW 9521   1.654   4.599   6.839
 3188SOL    HW1 9522   1.653   4.516   6.792
 3188SOL    HW2 9523   1.643   4.665   6.771
 3189SOL     OW 9524   1.226   4.049   6.041
 3189SOL    HW1 9525   1.285   3.974   6.040
 3189SOL    HW2 9526   1.253   4.101   6.117
 3190SOL     OW 9527   0.569   4.453   6.265
 3190SOL    HW1 9528   0.617   4.535   6.256
 3190SOL    HW2 9529   0.511   4.450   6.189
 3191SOL     OW 9530   1.747   4.079   7.251
 3191SOL    HW1 9531   1.744   4.095   7.157
 3191SOL    HW2 9532   1.670   4.026   7.269
 3192SOL     OW 9533   1.760   4.648   7.090
 3192SOL    HW1 9534   1.743   4.742   7.102
 3192SOL    HW2 9535   1.733   4.631   6.999
 3193SOL     OW 9536   0.875   5.081   5.650
 3193SOL    HW1 9537   0.835   5.102   5.735
 3193SOL    HW2 9538   0.884   5.166   5.607
 3194SOL     OW 9539   0.674   5.501   6.504
 3194SOL    HW1 9540   0.649   5.593   6.497
 3194SOL    HW2 9541   0.769   5.501   6.505
 3195SOL     OW 9542   0.874   4.700   6.442
 3195SOL    HW1 9543   0.924   4.627   6.479
 3195SOL    HW2 9544   0.829   4.738   6.518
 3196SOL     OW 9545   1.061   4.695   5.667
 3196SOL    HW1 9546   1.047   4.756   5.595
 3196SOL    HW2 9547   1.140   4.646   5.642
 3197SOL     OW 9548   1.830   5.282   6.425
 3197SOL    HW1 9549   1.754   5.274   6.368
 3197SOL    HW2 9550   1.809   5.229   6.502
 3198SOL     OW 9551   0.238   5.025   7.425
 3198SOL    HW1 9552   0.147   5.029   7.396
 3198SOL    HW2 9553   0.234   5.034   7.520
 3199SOL     OW 9554   0.154   4.947   6.257
 3199SOL    HW1 9555   0.087   4.893   6.297
 3199SOL    HW2 9556   0.210   4.884   6.211
 3200SOL     OW 9557   0.699   5.143   7.218
 3200SOL    HW1 9558   0.621   5.102   7.257
 3200SOL    HW2 9559   0.700   5.231   7.256
 3201SOL     OW 9560   1.810   3.895   6.821
 3201SOL    HW1 9561   1.812   3.800   6.834
 3201SOL    HW2 9562   1.824   3.907   6.727
 3202SOL     OW 9563   0.433   4.166   6.106
 3202SOL    HW1 9564   0.494   4.100   6.073
 3202SOL    HW2 9565   0.410   4.137   6.194
 3203SOL     OW 9566   1.695   5.205   6.668
 3203SOL    HW1 9567   1.617   5.186   6.616
 3203SOL    HW2 9568   1.696   5.137   6.735
 3204SOL     OW 9569   0.365   4.294   6.871
 3204SOL    HW1 9570   0.415   4.231   6.923
 3204SOL    HW2 9571   0.368   4.259   6.782
 3205SOL     OW 9572   0.844   5.308   6.257
 3205SOL    HW1 9573   0.816   5.380   6.201
 3205SOL    HW2 9574   0.766   5.252   6.265
 3206SOL     OW 9575   1.421   3.957   6.701
 3206SOL    HW1 9576   1.430   3.867   6.733
 3206SOL    HW2 9577   1.376   4.004   6.771
 3207SOL     OW 9578   1.011   3.741   6.706
 3207SOL    HW1 9579   0.957   3.678   6.659
 3207SOL    HW2 9580   1.098   3.701   6.710
 3208SOL     OW 9581   0.776   5.056   5.915
 3208SOL    HW1 9582   0.753   4.964   5.928
 3208SOL    HW2 9583   0.856   5.069   5.966
 3209SOL     OW 9584   0.618   5.293   6.872
 3209SOL    HW1 9585   0.615   5.379   6.913
 3209SOL    HW2 9586   0.707   5.285   6.839
 3210SOL     OW 9587   1.382   3.763   5.778
 3210SOL    HW1 9588   1.423   3.690   5.730
 3210SOL    HW2 9589   1.291   3.736   5.788
 3211SOL     OW 9590   1.299   4.196   6.261
 3211SOL    HW1 9591   1.248   4.278   6.259
 3211SOL    HW2 9592   1.292   4.166   6.352
 3212SOL     OW 9593   1.582   3.912   6.479
 3212SOL    HW1 9594   1.530   3.941   6.553
 3212SOL    HW2 9595   1.583   3.986   6.419
 3213SOL     OW 9596   0.067   4.815   5.883
 3213SOL    HW1 9597   0.142   4.762   5.856
 3213SOL    HW2 9598   0.030   4.767   5.958
 3214SOL     OW 9599   0.902   5.395   5.913
 3214SOL    HW1 9600   0.822   5.382   5.862
 3214SOL    HW2 9601   0.880   5.463   5.976
 3215SOL     OW 9602   0.286   4.316   7.529
 3215SOL    HW1 9603   0.220   4.336   7.595
 3215SOL    HW2 9604   0.237   4.299   7.449
 3216SOL     OW 9605   0.198   4.005   8.446
 3216SOL    HW1 9606   0.234   3.968   8.526
 3216SOL    HW2 9607   0.105   3.980   8.447
 3217SOL     OW 9608   0.040   4.149   8.075
 3217SOL    HW1 9609   9.947   4.160   8.091
 3217SOL    HW2 9610   0.045   4.084   8.004
 3218SOL     OW 9611   0.569   5.032   8.650
 3218SOL    HW1 9612   0.486   5.035   8.602
 3218SOL    HW2 9613   0.586   5.124   8.673
 3219SOL     OW 9614   1.588   5.248   8.153
 3219SOL    HW1 9615   1.541   5.217   8.230
 3219SOL    HW2 9616   1.522   5.251   8.084
 3220SOL     OW 9617   1.138   4.429   8.136
 3220SOL    HW1 9618   1.185   4.512   8.124
 3220SOL    HW2 9619   1.090   4.440   8.218
 3221SOL     OW 9620   1.801   4.305   7.668
 3221SOL    HW1 9621   1.762   4.305   7.580
 3221SOL    HW2 9622   1.757   4.233   7.713
 3222SOL     OW 9623   0.727   4.854   8.505
 3222SOL    HW1 9624   0.665   4.894   8.566
 3222SOL    HW2 9625   0.770   4.928   8.462
 3223SOL     OW 9626   0.888   4.472   9.273
 3223SOL    HW1 9627   0.909   4.539   9.337
 3223SOL    HW2 9628   0.901   4.515   9.188
 3224SOL     OW 9629   0.687   4.707   8.096
 3224SOL    HW1 9630   0.757   4.706   8.161
 3224SOL    HW2 9631   0.623   4.770   8.130
 3225SOL     OW 9632   0.715   4.875   9.275
 3225SOL    HW1 9633   0.767   4.948   9.309
 3225SOL    HW2 9634   0.639   4.917   9.234
 3226SOL     OW 9635   0.334   5.149   8.511
 3226SOL    HW1 9636   0.258   5.133   8.456
 3226SOL    HW2 9637   0.393   5.202   8.457
 3227SOL     OW 9638   1.454   5.231   8.819
 3227SOL    HW1 9639   1.509   5.308   8.830
 3227SOL    HW2 9640   1.383   5.242   8.882
 3228SOL     OW 9641   0.471   4.104   8.904
 3228SOL    HW1 9642   0.546   4.046   8.917
 3228SOL    HW2 9643   0.395   4.051   8.930
 3229SOL     OW 9644   1.585   4.156   8.203
 3229SOL    HW1 9645   1.518   4.167   8.135
 3229SOL    HW2 9646   1.567   4.226   8.266
 3230SOL     OW 9647   0.221   5.384   7.874
 3230SOL    HW1 9648   0.183   5.451   7.931
 3230SOL    HW2 9649   0.304   5.422   7.844
 3231SOL     OW 9650   1.135   5.066   9.141
 3231SOL    HW1 9651   1.179   5.056   9.226
 3231SOL    HW2 9652   1.083   4.987   9.132
 3232SOL     OW 9653   0.287   5.128   7.950
 3232SOL    HW1 9654   0.256   5.218   7.946
 3232SOL    HW2 9655   0.232   5.087   8.017
 3233SOL     OW 9656   0.307   4.804   8.353
 3233SOL    HW1 9657   0.300   4.711   8.370
 3233SOL    HW2 9658   0.237   4.844   8.404
 3234SOL     OW 9659   0.581   5.538   8.853
 3234SOL    HW1 9660   0.505   5.515   8.907
 3234SOL    HW2 9661   0.616   5.617   8.893
 3235SOL     OW 9662   0.570   4.712   7.601
 3235SOL    HW1 9663   0.622   4.754   7.532
 3235SOL    HW2 9664   0.608   4.746   7.683
 3236SOL     OW 9665   1.589   3.858   8.904
 3236SOL    HW1 9666   1.629   3.934   8.862
 3236SOL    HW2 9667   1.558   3.890   8.988
 3237SOL     OW 9668   0.147   4.399   8.021
 3237SOL    HW1 9669   0.112   4.314   8.048
 3237SOL    HW2 9670   0.124   4.457   8.094
 3238SOL     OW 9671   1.846   5.467   7.766
 3238SOL    HW1 9672   1.919   5.452   7.827
 3238SOL    HW2 9673   1.854   5.560   7.743
 3239SOL     OW 9674   0.029   5.345   7.647
 3239SOL    HW1 9675   0.011   5.251   7.644
 3239SOL    HW2 9676   0.087   5.356   7.722
 3240SOL     OW 9677   1.698   4.649   8.101
 3240SOL    HW1 9678   1.780   4.605   8.078
 3240SOL    HW2 9679   1.677   4.701   8.023
 3241SOL     OW 9680   1.657   4.829   7.881
 3241SOL    HW1 9681   1.741   4.821   7.837
 3241SOL    HW2 9682   1.671   4.894   7.949
 3242SOL     OW 9683   0.176   4.481   9.016
 3242SOL    HW1 9684   0.271   4.485   9.025
 3242SOL    HW2 9685   0.146   4.566   9.048
 3243SOL     OW 9686   0.626   5.122   8.186
 3243SOL    HW1 9687   0.584   5.036   8.192
 3243SOL    HW2 9688   0.610   5.151   8.097
 3244SOL     OW 9689   1.271   4.950   8.865
 3244SOL    HW1 9690   1.300   4.881   8.806
 3244SOL    HW2 9691   1.333   4.945   8.939
 3245SOL     OW 9692   0.854   3.731   7.968
 3245SOL    HW1 9693   0.893   3.813   7.939
 3245SOL    HW2 9694   0.759   3.748   7.968
 3246SOL     OW 9695   0.162   4.659   8.720
 3246SOL    HW1 9696   0.252   4.626   8.711
 3246SOL    HW2 9697   0.133   4.674   8.630
 3247SOL     OW 9698   1.534   4.739   7.648
 3247SOL    HW1 9699   1.465   4.679   7.678
 3247SOL    HW2 9700   1.576   4.769   7.728
 3248SOL     OW 9701   1.170   5.547   9.085
 3248SOL    HW1 9702   1.176   5.610   9.013
 3248SOL    HW2 9703   1.191   5.463   9.044
 3249SOL     OW 9704   0.355   3.966   9.269
 3249SOL    HW1 9705   0.389   4.054   9.283
 3249SOL    HW2 9706   0.260   3.977   9.268
 3250SOL     OW 9707   1.471   5.142   8.378
 3250SOL    HW1 9708   1.408   5.161   8.448
 3250SOL    HW2 9709   1.454   5.051   8.354
 3251SOL     OW 9710   1.637   5.520   8.010
 3251SOL    HW1 9711   1.620   5.473   7.928
 3251SOL    HW2 9712   1.637   5.452   8.077
 3252SOL     OW 9713   0.616   4.444   7.730
 3252SOL    HW1 9714   0.620   4.529   7.685
 3252SOL    HW2 9715   0.545   4.453   7.793
 3253SOL     OW 9716   1.282   4.117   8.389
 3253SOL    HW1 9717   1.193   4.082   8.394
 3253SOL    HW2 9718   1.334   4.059   8.444
 3254SOL     OW 9719   1.579   5.397   7.767
 3254SOL    HW1 9720   1.673   5.412   7.756
 3254SOL    HW2 9721   1.546   5.384   7.678
 3255SOL     OW 9722   0.786   4.337   8.884
 3255SOL    HW1 9723   0.759   4.309   8.972
 3255SOL    HW2 9724   0.763   4.264   8.827
 3256SOL     OW 9725   1.391   4.198   9.118
 3256SOL    HW1 9726   1.396   4.243   9.203
 3256SOL    HW2 9727   1.441   4.118   9.131
 3257SOL     OW 9728   0.944   4.605   9.036
 3257SOL    HW1 9729   1.000   4.541   8.992
 3257SOL    HW2 9730   0.897   4.648   8.965
 3258SOL     OW 9731   1.008   4.122   8.658
 3258SOL    HW1 9732   0.916   4.135   8.680
 3258SOL    HW2 9733   1.006   4.078   8.573
 3259SOL     OW 9734   1.065   4.424   7.867
 3259SOL    HW1 9735   1.085   4.421   7.961
 3259SOL    HW2 9736   0.982   4.378   7.860
 3260SOL     OW 9737   0.074   4.561   8.251
 3260SOL    HW1 9738   0.159   4.552   8.294
 3260SOL    HW2 9739   0.015   4.592   8.320
 3261SOL     OW 9740   0.113   5.590   9.035
 3261SOL    HW1 9741   0.106   5.586   9.130
 3261SOL    HW2 9742   0.061   5.515   9.004
 3262SOL     OW 9743   0.897   4.072   7.647
 3262SOL    HW1 9744   0.944   4.129   7.586
 3262SOL    HW2 9745   0.880   3.992   7.597
 3263SOL     OW 9746   1.681   4.284   9.285
 3263SOL    HW1 9747   1.662   4.363   9.234
 3263SOL    HW2 9748   1.711   4.221   9.219
 3264SOL     OW 9749   1.393   4.873   7.990
 3264SOL    HW1 9750   1.473   4.862   7.939
 3264SOL    HW2 9751   1.340   4.934   7.939
 3265SOL     OW 9752   0.564   3.896   8.362
 3265SOL    HW1 9753   0.567   3.922   8.454
 3265SOL    HW2 9754   0.556   3.979   8.314
 3266SOL     OW 9755   0.996   5.175   7.913
 3266SOL    HW1 9756   0.974   5.250   7.858
 3266SOL    HW2 9757   0.967   5.200   8.001
 3267SOL     OW 9758   0.339   5.527   8.397
 3267SOL    HW1 9759   0.387   5.448   8.373
 3267SOL    HW2 9760   0.395   5.599   8.367
 3268SOL     OW 9761   1.804   4.768   8.338
 3268SOL    HW1 9762   1.756   4.753   8.256
 3268SOL    HW2 9763   1.735   4.777   8.404
 3269SOL     OW 9764   1.217   5.268   8.964
 3269SOL    HW1 9765   1.207   5.197   9.027
 3269SOL    HW2 9766   1.152   5.250   8.896
 3270SOL     OW 9767   0.315   4.663   7.726
 3270SOL    HW1 9768   0.392   4.678   7.671
 3270SOL    HW2 9769   0.328   4.576   7.762
 3271SOL     OW 9770   1.484   4.487   8.159
 3271SOL    HW1 9771   1.487   4.444   8.244
 3271SOL    HW2 9772   1.564   4.541   8.157
 3272SOL     OW 9773   0.476   5.004   9.191
 3272SOL    HW1 9774   0.452   5.011   9.099
 3272SOL    HW2 9775   0.393   4.993   9.237
 3273SOL     OW 9776   1.142   5.500   7.671
 3273SOL    HW1 9777   1.061   5.468   7.711
 3273SOL    HW2 9778   1.163   5.436   7.603
 3274SOL     OW 9779   0.217   3.988   8.946
 3274SOL    HW1 9780   0.131   4.027   8.931
 3274SOL    HW2 9781   0.199   3.909   8.997
 3275SOL     OW 9782   1.638   5.112   7.549
 3275SOL    HW1 9783   1.598   5.198   7.535
 3275SOL    HW2 9784   1.571   5.050   7.522
 3276SOL     OW 9785   0.471   5.472   7.768
 3276SOL    HW1 9786   0.520   5.520   7.835
 3276SOL    HW2 9787   0.539   5.428   7.716
 3277SOL     OW 9788   1.399   3.829   7.907
 3277SOL    HW1 9789   1.398   3.805   7.814
 3277SOL    HW2 9790   1.489   3.816   7.935
 3278SOL     OW 9791   0.261   5.514   8.665
 3278SOL    HW1 9792   0.304   5.435   8.699
 3278SOL    HW2 9793   0.279   5.512   8.571
 3279SOL     OW 9794   0.954   5.427   8.340
 3279SOL    HW1 9795   1.038   5.384   8.354
 3279SOL    HW2 9796   0.912   5.375   8.270
 3280SOL     OW 9797   0.395   4.427   7.901
 3280SOL    HW1 9798   0.414   4.334   7.910
 3280SOL    HW2 9799   0.309   4.437   7.943
 3281SOL     OW 9800   1.509   3.945   9.163
 3281SOL    HW1 9801   1.521   3.966   9.255
 3281SOL    HW2 9802   1.447   3.872   9.163
 3282SOL     OW 9803   0.658   3.827   7.548
 3282SOL    HW1 9804   0.707   3.749   7.571
 3282SOL    HW2 9805   0.599   3.799   7.478
 3283SOL     OW 9806   0.755   4.002   9.205
 3283SOL    HW1 9807   0.840   3.958   9.204
 3283SOL    HW2 9808   0.711   3.969   9.283
 3284SOL     OW 9809   0.870   5.250   8.647
 3284SOL    HW1 9810   0.853   5.209   8.562
 3284SOL    HW2 9811   0.938   5.195   8.687
 3285SOL     OW 9812   1.330   4.317   8.879
 3285SOL    HW1 9813   1.363   4.285   8.964
 3285SOL    HW2 9814   1.369   4.403   8.869
 3286SOL     OW 9815   0.819   5.100   8.406
 3286SOL    HW1 9816   0.906   5.096   8.366
 3286SOL    HW2 9817   0.759   5.116   8.332
 3287SOL     OW 9818   0.929   4.238   8.336
 3287SOL    HW1 9819   0.904   4.226   8.245
 3287SOL    HW2 9820   0.957   4.151   8.366
 3288SOL     OW 9821   0.591   3.783   7.942
 3288SOL    HW1 9822   0.522   3.789   8.008
 3288SOL    HW2 9823   0.575   3.858   7.885
 3289SOL     OW 9824   1.434   4.937   7.480
 3289SOL    HW1 9825   1.463   4.863   7.533
 3289SOL    HW2 9826   1.349   4.960   7.517
 3290SOL     OW 9827   0.309   3.764   7.609
 3290SOL    HW1 9828   0.339   3.854   7.623
 3290SOL    HW2 9829   0.370   3.710   7.660
 3291SOL     OW 9830   0.959   3.975   7.898
 3291SOL    HW1 9831   0.932   4.009   7.813
 3291SOL    HW2 9832   1.053   3.994   7.903
 3292SOL     OW 9833   1.075   4.416   8.891
 3292SOL    HW1 9834   1.014   4.343   8.898
 3292SOL    HW2 9835   1.161   4.375   8.888
 3293SOL     OW 9836   1.209   5.310   8.251
 3293SOL    HW1 9837   1.223   5.371   8.178
 3293SOL    HW2 9838   1.283   5.325   8.309
 3294SOL     OW 9839   0.490   4.883   8.170
 3294SOL    HW1 9840   0.430   4.861   8.241
 3294SOL    HW2 9841   0.440   4.867   8.090
 3295SOL     OW 9842   1.254   5.515   8.065
 3295SOL    HW1 9843   1.302   5.578   8.012
 3295SOL    HW2 9844   1.184   5.567   8.105
 3296SOL     OW 9845   1.032   4.241   7.477
 3296SOL    HW1 9846   0.989   4.325   7.457
 3296SOL    HW2 9847   1.096   4.262   7.545
 3297SOL     OW 9848   0.108   4.303   8.813
 3297SOL    HW1 9849   0.198   4.296   8.783
 3297SOL    HW2 9850   0.111   4.365   8.885
 3298SOL     OW 9851   0.564   3.945   8.633
 3298SOL    HW1 9852   0.598   3.873   8.684
 3298SOL    HW2 9853   0.470   3.945   8.651
 3299SOL     OW 9854   0.870   4.174   8.078
 3299SOL    HW1 9855   0.839   4.231   8.008
 3299SOL    HW2 9856   0.898   4.094   8.033
 3300SOL     OW 9857   1.027   3.782   8.191
 3300SOL    HW1 9858   0.969   3.773   8.116
 3300SOL    HW2 9859   1.004   3.710   8.249
 3301SOL     OW 9860   1.435   4.878   8.302
 3301SOL    HW1 9861   1.365   4.813   8.310
 3301SOL    HW2 9862   1.451   4.885   8.208
 3302SOL     OW 9863   1.463   4.340   8.397
 3302SOL    HW1 9864   1.399   4.270   8.407
 3302SOL    HW2 9865   1.519   4.334   8.474
 3303SOL     OW 9866   1.828   4.520   7.835
 3303SOL    HW1 9867   1.888   4.477   7.896
 3303SOL    HW2 9868   1.815   4.456   7.765
 3304SOL     OW 9869   0.493   5.154   7.582
 3304SOL    HW1 9870   0.409   5.131   7.621
 3304SOL    HW2 9871   0.499   5.098   7.504
 3305SOL     OW 9872   1.707   4.995   8.083
 3305SOL    HW1 9873   1.800   4.988   8.103
 3305SOL    HW2 9874   1.684   5.084   8.107
 3306SOL     OW 9875   1.393   4.300   7.512
 3306SOL    HW1 9876   1.338   4.273   7.585
 3306SOL    HW2 9877   1.482   4.276   7.539
 3307SOL     OW 9878   0.548   3.977   7.756
 3307SOL    HW1 9879   0.593   3.929   7.686
 3307SOL    HW2 9880   0.528   4.062   7.717
 3308SOL     OW 9881   1.735   4.968   8.980
 3308SOL    HW1 9882   1.823   4.933   8.966
 3308SOL    HW2 9883   1.748   5.055   9.017
 3309SOL     OW 9884   1.044   5.080   8.784
 3309SOL    HW1 9885   0.966   5.045   8.828
 3309SOL    HW2 9886   1.117   5.034   8.824
 3310SOL     OW 9887   1.607   5.359   9.112
 3310SOL    HW1 9888   1.599   5.395   9.024
 3310SOL    HW2 9889   1.685   5.303   9.108
 3311SOL     OW 9890   1.151   4.961   8.553
 3311SOL    HW1 9891   1.089   4.996   8.618
 3311SOL    HW2 9892   1.119   4.993   8.469
 3312SOL     OW 9893   1.609   4.815   8.525
 3312SOL    HW1 9894   1.602   4.882   8.594
 3312SOL    HW2 9895   1.540   4.837   8.463
 3313SOL     OW 9896   0.919   3.806   8.832
 3313SOL    HW1 9897   0.940   3.790   8.739
 3313SOL    HW2 9898   0.999   3.846   8.867
 3314SOL     OW 9899   0.981   4.839   9.169
 3314SOL    HW1 9900   0.891   4.855   9.196
 3314SOL    HW2 9901   0.977   4.758   9.118
 3315SOL     OW 9902   0.711   4.786   7.828
 3315SOL    HW1 9903   0.697   4.761   7.919
 3315SOL    HW2 9904   0.788   4.735   7.801
 3316SOL     OW 9905   0.420   4.558   8.708
 3316SOL    HW1 9906   0.489   4.571   8.774
 3316SOL    HW2 9907   0.397   4.465   8.715
 3317SOL     OW 9908   1.264   4.092   8.740
 3317SOL    HW1 9909   1.292   4.173   8.783
 3317SOL    HW2 9910   1.175   4.111   8.710
 3318SOL     OW 9911   0.076   5.304   8.777
 3318SOL    HW1 9912   0.075   5.382   8.721
 3318SOL    HW2 9913   0.169   5.287   8.792
 3319SOL     OW 9914   0.339   4.838   7.943
 3319SOL    HW1 9915   0.338   4.925   7.903
 3319SOL    HW2 9916   0.331   4.778   7.869
 3320SOL     OW 9917   0.535   4.241   8.302
 3320SOL    HW1 9918   0.545   4.305   8.232
 3320SOL    HW2 9919   0.601   4.266   8.367
 3321SOL     OW 9920   1.247   5.077   7.845
 3321SOL    HW1 9921   1.302   5.147   7.880
 3321SOL    HW2 9922   1.159   5.099   7.877
 3322SOL     OW 9923   1.309   5.193   8.590
 3322SOL    HW1 9924   1.357   5.200   8.673
 3322SOL    HW2 9925   1.258   5.112   8.599
 3323SOL     OW 9926   1.575   4.341   7.934
 3323SOL    HW1 9927   1.524   4.383   8.004
 3323SOL    HW2 9928   1.625   4.413   7.895
 3324SOL     OW 9929   0.348   5.255   8.758
 3324SOL    HW1 9930   0.336   5.212   8.673
 3324SOL    HW2 9931   0.443   5.271   8.762
 3325SOL     OW 9932   0.451   4.470   9.074
 3325SOL    HW1 9933   0.506   4.511   9.008
 3325SOL    HW2 9934   0.499   4.392   9.101
 3326SOL     OW 9935   1.626   4.512   9.148
 3326SOL    HW1 9936   1.539   4.550   9.139
 3326SOL    HW2 9937   1.677   4.550   9.077
 3327SOL     OW 9938   0.993   3.870   9.215
 3327SOL    HW1 9939   1.052   3.942   9.190
 3327SOL    HW2 9940   1.041   3.791   9.191
 3328SOL     OW 9941   0.512   3.754   9.198
 3328SOL    HW1 9942   0.462   3.704   9.133
 3328SOL    HW2 9943   0.459   3.832   9.213
 3329SOL     OW 9944   0.592   4.598   8.489
 3329SOL    HW1 9945   0.629   4.686   8.488
 3329SOL    HW2 9946   0.531   4.598   8.563
 3330SOL     OW 9947   1.309   4.577   8.451
 3330SOL    HW1 9948   1.221   4.549   8.425
 3330SOL    HW2 9949   1.364   4.501   8.432
 3331SOL     OW 9950   1.200   4.248   7.704
 3331SOL    HW1 9951   1.212   4.171   7.760
 3331SOL    HW2 9952   1.161   4.314   7.761
 3332SOL     OW 9953   0.296   3.918   8.688
 3332SOL    HW1 9954   0.269   3.946   8.775
 3332SOL    HW2 9955   0.280   3.823   8.686
 3333SOL     OW 9956   0.008   5.042   8.729
 3333SOL    HW1 9957   0.053   4.994   8.798
 3333SOL    HW2 9958   0.021   5.134   8.750
 3334SOL     OW 9959   0.709   4.344   8.487
 3334SOL    HW1 9960   0.788   4.338   8.433
 3334SOL    HW2 9961   0.682   4.436   8.480
 3335SOL     OW 9962   1.755   4.695   9.316
 3335SOL    HW1 9963   1.710   4.623   9.272
 3335SOL    HW2 9964   1.698   4.718   9.389
 3336SOL     OW 9965   0.374   3.810   8.100
 3336SOL    HW1 9966   0.348   3.891   8.144
 3336SOL    HW2 9967   0.295   3.755   8.104
 3337SOL     OW 9968   1.632   4.114   7.792
 3337SOL    HW1 9969   1.664   4.049   7.854
 3337SOL    HW2 9970   1.602   4.187   7.847
 3338SOL     OW 9971   1.035   4.481   8.403
 3338SOL    HW1 9972   1.013   4.496   8.495
 3338SOL    HW2 9973   1.004   4.392   8.386
 3339SOL     OW 9974   0.981   5.290   9.180
 3339SOL    HW1 9975   0.962   5.333   9.097
 3339SOL    HW2 9976   1.021   5.207   9.155
 3340SOL     OW 9977   1.838   5.218   9.048
 3340SOL    HW1 9978   1.866   5.247   8.961
 3340SOL    HW2 9979   1.916   5.229   9.102
 3341SOL     OW 9980   0.360   4.654   9.265
 3341SOL    HW1 9981   0.432   4.679   9.323
 3341SOL    HW2 9982   0.399   4.592   9.204
 3342SOL     OW 9983   1.521   3.994   7.567
 3342SOL    HW1 9984   1.469   3.922   7.604
 3342SOL    HW2 9985   1.561   4.037   7.642
 3343SOL     OW 9986   1.281   4.546   7.467
 3343SOL    HW1 9987   1.321   4.459   7.475
 3343SOL    HW2 9988   1.317   4.583   7.387
 3344SOL     OW 9989   1.072   5.077   8.314
 3344SOL    HW1 9990   1.082   5.004   8.252
 3344SOL    HW2 9991   1.124   5.148   8.277
 3345SOL     OW 9992   0.317   4.528   8.390
 3345SOL    HW1 9993   0.412   4.543   8.387
 3345SOL    HW2 9994   0.309   4.438   8.419
 3346SOL     OW 9995   0.315   4.250   8.460
 3346SOL    HW1 9996   0.272   4.165   8.451
 3346SOL    HW2 9997   0.389   4.245   8.400
 3347SOL     OW 9998   1.137   4.093   9.133
 3347SOL    HW1 9999   1.092   4.147   9.199
 3347SOL    HW210000   1.223   4.134   9.123
 3348SOL     OW10001   1.156   3.914   8.922
 3348SOL    HW110002   1.145   3.977   8.994
 3348SOL    HW210003   1.203   3.963   8.855
 3349SOL     OW10004   9.969   5.057   7.669
 3349SOL    HW110005   9.919   5.046   7.588
 3349SOL    HW210006   9.990   4.968   7.696
 3350SOL     OW10007   0.078   5.408   8.397
 3350SOL    HW110008   0.113   5.325   8.365
 3350SOL    HW210009   0.151   5.470   8.387
 3351SOL     OW10010   0.497   5.300   8.356
 3351SOL    HW110011   0.565   5.367   8.368
 3351SOL    HW210012   0.536   5.237   8.295
 3352SOL     OW10013   0.949   4.503   8.661
 3352SOL    HW110014   1.011   4.491   8.733
 3352SOL    HW210015   0.869   4.460   8.690
 3353SOL     OW10016   0.041   4.289   8.536
 3353SOL    HW110017   0.133   4.292   8.513
 3353SOL    HW210018   0.040   4.291   8.632
 3354SOL     OW10019   0.193   4.230   9.126
 3354SOL    HW110020   0.237   4.185   9.054
 3354SOL    HW210021   0.174   4.317   9.091
 3355SOL     OW10022   1.391   4.645   9.099
 3355SOL    HW110023   1.408   4.739   9.094
 3355SOL    HW210024   1.384   4.618   9.008
 3356SOL     OW10025   0.829   4.291   7.824
 3356SOL    HW110026   0.832   4.218   7.761
 3356SOL    HW210027   0.758   4.346   7.792
 3357SOL     OW10028   1.636   4.325   8.611
 3357SOL    HW110029   1.626   4.266   8.685
 3357SOL    HW210030   1.727   4.314   8.583
 3358SOL     OW10031   0.260   5.286   9.180
 3358SOL    HW110032   0.266   5.324   9.268
 3358SOL    HW210033   0.269   5.192   9.193
 3359SOL     OW10034   0.735   4.158   8.685
 3359SOL    HW110035   0.673   4.087   8.670
 3359SOL    HW210036   0.715   4.221   8.615
 3360SOL     OW10037   0.901   5.405   8.938
 3360SOL    HW110038   0.881   5.357   8.857
 3360SOL    HW210039   0.906   5.496   8.910
 3361SOL     OW10040   0.518   4.212   7.620
 3361SOL    HW110041   0.567   4.287   7.652
 3361SOL    HW210042   0.438   4.248   7.582
 3362SOL     OW10043   0.157   4.872   8.888
 3362SOL    HW110044   0.146   4.828   8.972
 3362SOL    HW210045   0.165   4.800   8.825
 3363SOL     OW10046   1.304   4.758   8.656
 3363SOL    HW110047   1.314   4.694   8.585
 3363SOL    HW210048   1.251   4.828   8.619
 3364SOL     OW10049   1.323   4.585   7.739
 3364SOL    HW110050   1.253   4.548   7.793
 3364SOL    HW210051   1.296   4.569   7.649
 3365SOL     OW10052   1.787   5.448   8.617
 3365SOL    HW110053   1.849   5.474   8.549
 3365SOL    HW210054   1.755   5.362   8.590
 3366SOL     OW10055   1.241   5.459   8.540
 3366SOL    HW110056   1.325   5.488   8.506
 3366SOL    HW210057   1.255   5.367   8.564
 3367SOL     OW10058   0.101   4.897   8.502
 3367SOL    HW110059   0.104   4.957   8.576
 3367SOL    HW210060   0.009   4.893   8.478
 3368SOL     OW10061   0.695   5.402   9.199
 3368SOL    HW110062   0.637   5.477   9.185
 3368SOL    HW210063   0.771   5.420   9.144
 3369SOL     OW10064   1.744   3.908   7.944
 3369SOL    HW110065   1.803   3.888   7.872
 3369SOL    HW210066   1.718   3.822   7.978
 3370SOL     OW10067   1.397   5.293   7.951
 3370SOL    HW110068   1.452   5.327   7.881
 3370SOL    HW210069   1.342   5.367   7.977
 3371SOL     OW10070   0.099   5.513   9.311
 3371SOL    HW110071   0.063   5.455   9.377
 3371SOL    HW210072   0.173   5.555   9.354
 3372SOL     OW10073   1.280   4.661   8.113
 3372SOL    HW110074   1.353   4.601   8.126
 3372SOL    HW210075   1.315   4.732   8.060
 3373SOL     OW10076   0.783   5.005   8.859
 3373SOL    HW110077   0.758   5.052   8.938
 3373SOL    HW210078   0.710   5.017   8.799
 3374SOL     OW10079   0.673   5.357   7.606
 3374SOL    HW110080   0.689   5.373   7.513
 3374SOL    HW210081   0.617   5.279   7.608
 3375SOL     OW10082   1.615   5.455   8.846
 3375SOL    HW110083   1.673   5.455   8.769
 3375SOL    HW210084   1.600   5.548   8.864
 3376SOL     OW10085   1.845   3.884   8.412
 3376SOL    HW110086   1.873   3.795   8.391
 3376SOL    HW210087   1.757   3.891   8.374
 3377SOL     OW10088   0.275   4.049   8.185
 3377SOL    HW110089   0.197   4.093   8.151
 3377SOL    HW210090   0.255   4.033   8.278
 3378SOL     OW10091   1.211   5.312   7.484
 3378SOL    HW110092   1.201   5.221   7.512
 3378SOL    HW210093   1.142   5.326   7.420
 3379SOL     OW10094   0.826   4.737   8.829
 3379SOL    HW110095   0.863   4.729   8.741
 3379SOL    HW210096   0.814   4.832   8.841
 3380SOL     OW10097   0.920   4.638   7.750
 3380SOL    HW110098   0.972   4.665   7.675
 3380SOL    HW210099   0.974   4.570   7.793
 3381SOL     OW10100   1.484   5.370   7.506
 3381SOL    HW110101   1.392   5.350   7.489
 3381SOL    HW210102   1.525   5.373   7.419
 3382SOL     OW10103   0.364   5.045   8.950
 3382SOL    HW110104   0.358   5.119   8.889
 3382SOL    HW210105   0.293   4.986   8.922
 3383SOL     OW10106   1.599   5.014   8.725
 3383SOL    HW110107   1.653   4.989   8.800
 3383SOL    HW210108   1.540   5.081   8.759
 3384SOL     OW10109   1.077   4.844   8.177
 3384SOL    HW110110   1.002   4.794   8.209
 3384SOL    HW210111   1.140   4.777   8.147
 3385SOL     OW10112   1.033   3.973   8.410
 3385SOL    HW110113   1.033   3.930   8.324
 3385SOL    HW210114   1.026   3.901   8.472
 3386SOL     OW10115   0.606   5.211   7.932
 3386SOL    HW110116   0.658   5.164   7.866
 3386SOL    HW210117   0.518   5.215   7.894
 3387SOL     OW10118   1.745   4.106   8.835
 3387SOL    HW110119   1.816   4.170   8.832
 3387SOL    HW210120   1.772   4.037   8.774
 3388SOL     OW10121   0.244   5.085   7.690
 3388SOL    HW110122   0.149   5.072   7.692
 3388SOL    HW210123   0.267   5.104   7.781
 3389SOL     OW10124   0.133   4.739   9.130
 3389SOL    HW110125   0.088   4.813   9.172
 3389SOL    HW210126   0.215   4.731   9.179
 3390SOL     OW10127   0.683   3.917   8.946
 3390SOL    HW110128   0.767   3.891   8.907
 3390SOL    HW210129   0.706   3.947   9.034
 3391SOL     OW10130   0.074   4.038   7.440
 3391SOL    HW110131   9.979   4.027   7.446
 3391SOL    HW210132   0.085   4.115   7.384
 3392SOL     OW10133   1.416   4.578   8.836
 3392SOL    HW110134   1.364   4.637   8.781
 3392SOL    HW210135   1.504   4.583   8.798
 3393SOL     OW10136   0.060   3.795   7.712
 3393SOL    HW110137   0.077   3.849   7.789
 3393SOL    HW210138   0.147   3.777   7.675
 3394SOL     OW10139   1.181   5.046   7.570
 3394SOL    HW110140   1.089   5.022   7.569
 3394SOL    HW210141   1.204   5.049   7.663
 3395SOL     OW10142   0.627   4.559   8.885
 3395SOL    HW110143   0.687   4.633   8.872
 3395SOL    HW210144   0.684   4.482   8.884
 3396SOL     OW10145   1.487   5.526   8.440
 3396SOL    HW110146   1.513   5.601   8.386
 3396SOL    HW210147   1.569   5.483   8.462
 3397SOL     OW10148   0.709   4.280   9.142
 3397SOL    HW110149   0.761   4.334   9.202
 3397SOL    HW210150   0.724   4.190   9.172
 3398SOL     OW10151   1.469   4.908   9.069
 3398SOL    HW110152   1.463   4.928   9.162
 3398SOL    HW210153   1.558   4.932   9.045
 3399SOL     OW10154   0.366   5.480   9.014
 3399SOL    HW110155   0.282   5.523   8.998
 3399SOL    HW210156   0.344   5.397   9.056
 3400SOL     OW10157   1.656   4.599   8.701
 3400SOL    HW110158   1.654   4.516   8.654
 3400SOL    HW210159   1.644   4.666   8.633
 3401SOL     OW10160   1.226   4.049   7.903
 3401SOL    HW110161   1.285   3.974   7.902
 3401SOL    HW210162   1.253   4.101   7.979
 3402SOL     OW10163   0.568   4.453   8.128
 3402SOL    HW110164   0.616   4.535   8.118
 3402SOL    HW210165   0.511   4.450   8.051
 3403SOL     OW10166   1.748   4.077   9.111
 3403SOL    HW110167   1.744   4.094   9.016
 3403SOL    HW210168   1.670   4.023   9.128
 3404SOL     OW10169   1.760   4.648   8.953
 3404SOL    HW110170   1.743   4.742   8.966
 3404SOL    HW210171   1.733   4.631   8.862
 3405SOL     OW10172   0.875   5.081   7.512
 3405SOL    HW110173   0.835   5.102   7.597
 3405SOL    HW210174   0.884   5.166   7.469
 3406SOL     OW10175   0.673   5.501   8.367
 3406SOL    HW110176   0.649   5.593   8.358
 3406SOL    HW210177   0.769   5.502   8.367
 3407SOL     OW10178   0.874   4.700   8.304
 3407SOL    HW110179   0.924   4.627   8.340
 3407SOL    HW210180   0.829   4.738   8.380
 3408SOL     OW10181   1.061   4.694   7.529
 3408SOL    HW110182   1.047   4.755   7.457
 3408SOL    HW210183   1.140   4.646   7.504
 3409SOL     OW10184   1.830   5.282   8.287
 3409SOL    HW110185   1.754   5.273   8.231
 3409SOL    HW210186   1.809   5.230   8.365
 3410SOL     OW10187   0.223   5.023   9.287
 3410SOL    HW110188   0.146   5.032   9.231
 3410SOL    HW210189   0.189   5.016   9.376
 3411SOL     OW10190   0.155   4.947   8.118
 3411SOL    HW110191   0.089   4.892   8.160
 3411SOL    HW210192   0.211   4.886   8.071
 3412SOL     OW10193   0.691   5.142   9.078
 3412SOL    HW110194   0.614   5.103   9.120
 3412SOL    HW210195   0.697   5.229   9.117
 3413SOL     OW10196   1.811   3.895   8.682
 3413SOL    HW110197   1.814   3.800   8.695
 3413SOL    HW210198   1.825   3.907   8.588
 3414SOL     OW10199   0.433   4.165   7.968
 3414SOL    HW110200   0.495   4.100   7.936
 3414SOL    HW210201   0.411   4.136   8.057
 3415SOL     OW10202   1.696   5.204   8.529
 3415SOL    HW110203   1.617   5.185   8.478
 3415SOL    HW210204   1.697   5.137   8.597
 3416SOL     OW10205   0.367   4.293   8.735
 3416SOL    HW110206   0.415   4.229   8.788
 3416SOL    HW210207   0.371   4.258   8.646
 3417SOL     OW10208   0.844   5.308   8.119
 3417SOL    HW110209   0.817   5.381   8.063
 3417SOL    HW210210   0.766   5.253   8.126
 3418SOL     OW10211   1.422   3.957   8.563
 3418SOL    HW110212   1.431   3.868   8.596
 3418SOL    HW210213   1.376   4.004   8.633
 3419SOL     OW10214   1.010   3.741   8.569
 3419SOL    HW110215   0.957   3.678   8.520
 3419SOL    HW210216   1.097   3.701   8.572
 3420SOL     OW10217   0.776   5.056   7.777
 3420SOL    HW110218   0.754   4.964   7.790
 3420SOL    HW210219   0.856   5.069   7.828
 3421SOL     OW10220   0.617   5.294   8.734
 3421SOL    HW110221   0.614   5.381   8.773
 3421SOL    HW210222   0.707   5.286   8.701
 3422SOL     OW10223   1.382   3.763   7.640
 3422SOL    HW110224   1.423   3.690   7.592
 3422SOL    HW210225   1.291   3.736   7.650
 3423SOL     OW10226   1.298   4.196   8.123
 3423SOL    HW110227   1.248   4.278   8.121
 3423SOL    HW210228   1.292   4.166   8.214
 3424SOL     OW10229   1.582   3.912   8.341
 3424SOL    HW110230   1.530   3.941   8.415
 3424SOL    HW210231   1.583   3.986   8.281
 3425SOL     OW10232   0.067   4.814   7.744
 3425SOL    HW110233   0.142   4.762   7.717
 3425SOL    HW210234   0.031   4.767   7.819
 3426SOL     OW10235   0.902   5.394   7.775
 3426SOL    HW110236   0.821   5.381   7.724
 3426SOL    HW210237   0.879   5.463   7.838
 3427SOL     OW10238   0.269   4.299   9.379
 3427SOL    HW110239   0.220   4.380   9.397
 3427SOL    HW210240   0.248   4.278   9.288
 3428SOL     OW10241   1.806   4.293   9.520
 3428SOL    HW110242   1.764   4.295   9.434
 3428SOL    HW210243   1.757   4.227   9.570
 3429SOL     OW10244   0.271   5.405   9.800
 3429SOL    HW110245   0.212   5.477   9.825
 3429SOL    HW210246   0.330   5.443   9.736
 3430SOL     OW10247   0.232   5.147   9.856
 3430SOL    HW110248   0.252   5.240   9.847
 3430SOL    HW210249   0.139   5.145   9.880
 3431SOL     OW10250   0.571   4.712   9.452
 3431SOL    HW110251   0.624   4.755   9.384
 3431SOL    HW210252   0.606   4.747   9.534
 3432SOL     OW10253   0.121   4.348   9.918
 3432SOL    HW110254   0.113   4.325   9.825
 3432SOL    HW210255   0.039   4.393   9.938
 3433SOL     OW10256   1.830   5.477   9.642
 3433SOL    HW110257   1.907   5.458   9.696
 3433SOL    HW210258   1.846   5.566   9.609
 3434SOL     OW10259   0.014   5.321   9.498
 3434SOL    HW110260   0.012   5.232   9.463
 3434SOL    HW210261   0.018   5.310   9.593
 3435SOL     OW10262   1.674   4.595   9.919
 3435SOL    HW110263   1.746   4.616   9.978
 3435SOL    HW210264   1.667   4.672   9.862
 3436SOL     OW10265   1.694   4.824   9.757
 3436SOL    HW110266   1.777   4.820   9.709
 3436SOL    HW210267   1.703   4.900   9.814
 3437SOL     OW10268   0.639   5.065   9.999
 3437SOL    HW110269   0.581   4.989   9.997
 3437SOL    HW210270   0.619   5.113   9.919
 3438SOL     OW10271   0.853   3.741   9.829
 3438SOL    HW110272   0.893   3.823   9.800
 3438SOL    HW210273   0.759   3.757   9.824
 3439SOL     OW10274   1.558   4.749   9.520
 3439SOL    HW110275   1.498   4.679   9.547
 3439SOL    HW210276   1.597   4.780   9.602
 3440SOL     OW10277   0.625   4.454   9.595
 3440SOL    HW110278   0.630   4.528   9.535
 3440SOL    HW210279   0.615   4.494   9.681
 3441SOL     OW10280   1.563   5.398   9.627
 3441SOL    HW110281   1.655   5.420   9.634
 3441SOL    HW210282   1.549   5.385   9.533
 3442SOL     OW10283   1.049   4.416   9.736
 3442SOL    HW110284   1.078   4.393   9.825
 3442SOL    HW210285   0.966   4.368   9.725
 3443SOL     OW10286   0.058   4.674   0.072
 3443SOL    HW110287   0.128   4.609   0.079
 3443SOL    HW210288   0.053   4.715   0.159
 3444SOL     OW10289   0.902   4.065   9.500
 3444SOL    HW110290   0.945   4.128   9.442
 3444SOL    HW210291   0.904   3.982   9.451
 3445SOL     OW10292   1.315   4.819   9.793
 3445SOL    HW110293   1.366   4.848   9.869
 3445SOL    HW210294   1.290   4.900   9.749
 3446SOL     OW10295   0.991   5.151   9.783
 3446SOL    HW110296   0.965   5.237   9.750
 3446SOL    HW210297   0.964   5.151   9.875
 3447SOL     OW10298   0.329   5.491   0.180
 3447SOL    HW110299   0.337   5.396   0.170
 3447SOL    HW210300   0.392   5.513   0.248
 3448SOL     OW10301   0.325   4.656   9.608
 3448SOL    HW110302   0.398   4.662   9.546
 3448SOL    HW210303   0.339   4.572   9.652
 3449SOL     OW10304   1.138   5.501   9.540
 3449SOL    HW110305   1.062   5.463   9.584
 3449SOL    HW210306   1.161   5.437   9.472
 3450SOL     OW10307   1.638   5.117   9.403
 3450SOL    HW110308   1.594   5.201   9.391
 3450SOL    HW210309   1.571   5.052   9.380
 3451SOL     OW10310   0.482   5.484   9.624
 3451SOL    HW110311   0.530   5.528   9.694
 3451SOL    HW210312   0.549   5.436   9.575
 3452SOL     OW10313   1.424   3.874   9.738
 3452SOL    HW110314   1.414   3.832   9.653
 3452SOL    HW210315   1.519   3.877   9.752
 3453SOL     OW10316   0.368   4.436   9.783
 3453SOL    HW110317   0.410   4.351   9.792
 3453SOL    HW210318   0.278   4.422   9.815
 3454SOL     OW10319   0.653   3.831   9.418
 3454SOL    HW110320   0.707   3.757   9.445
 3454SOL    HW210321   0.603   3.798   9.343
 3455SOL     OW10322   0.590   3.794   9.808
 3455SOL    HW110323   0.518   3.797   9.871
 3455SOL    HW210324   0.573   3.868   9.749
 3456SOL     OW10325   1.439   4.932   9.345
 3456SOL    HW110326   1.474   4.865   9.403
 3456SOL    HW210327   1.353   4.953   9.381
 3457SOL     OW10328   0.307   3.750   9.458
 3457SOL    HW110329   0.355   3.823   9.421
 3457SOL    HW210330   0.370   3.706   9.515
 3458SOL     OW10331   0.959   3.982   9.756
 3458SOL    HW110332   0.933   4.012   9.669
 3458SOL    HW210333   1.051   4.005   9.763
 3459SOL     OW10334   0.442   4.875   0.034
 3459SOL    HW110335   0.371   4.905   0.091
 3459SOL    HW210336   0.400   4.863   9.949
 3460SOL     OW10337   1.299   5.558   9.899
 3460SOL    HW110338   1.342   5.624   9.845
 3460SOL    HW210339   1.206   5.583   9.900
 3461SOL     OW10340   1.031   4.244   9.337
 3461SOL    HW110341   0.988   4.327   9.318
 3461SOL    HW210342   1.094   4.265   9.406
 3462SOL     OW10343   0.846   4.159   9.939
 3462SOL    HW110344   0.813   4.221   9.874
 3462SOL    HW210345   0.881   4.086   9.888
 3463SOL     OW10346   1.881   4.529   9.637
 3463SOL    HW110347   1.913   4.491   9.718
 3463SOL    HW210348   1.847   4.456   9.587
 3464SOL     OW10349   0.489   5.155   9.458
 3464SOL    HW110350   0.412   5.125   9.506
 3464SOL    HW210351   0.493   5.099   9.381
 3465SOL     OW10352   1.389   4.302   9.370
 3465SOL    HW110353   1.335   4.279   9.445
 3465SOL    HW210354   1.478   4.278   9.397
 3466SOL     OW10355   0.536   3.986   9.625
 3466SOL    HW110356   0.580   3.937   9.556
 3466SOL    HW210357   0.519   4.072   9.587
 3467SOL     OW10358   0.702   4.779   9.685
 3467SOL    HW110359   0.664   4.730   9.758
 3467SOL    HW210360   0.784   4.733   9.665
 3468SOL     OW10361   0.315   4.853   9.795
 3468SOL    HW110362   0.319   4.931   9.740
 3468SOL    HW210363   0.322   4.779   9.735
 3469SOL     OW10364   1.237   5.077   9.690
 3469SOL    HW110365   1.292   5.149   9.721
 3469SOL    HW210366   1.151   5.095   9.727
 3470SOL     OW10367   1.636   4.362   9.789
 3470SOL    HW110368   1.638   4.436   9.850
 3470SOL    HW210369   1.588   4.395   9.713
 3471SOL     OW10370   1.197   4.258   9.564
 3471SOL    HW110371   1.206   4.182   9.622
 3471SOL    HW210372   1.159   4.326   9.619
 3472SOL     OW10373   0.390   3.814   9.984
 3472SOL    HW110374   0.313   3.870   9.971
 3472SOL    HW210375   0.359   3.745   0.042
 3473SOL     OW10376   1.631   4.120   9.655
 3473SOL    HW110377   1.653   4.043   9.709
 3473SOL    HW210378   1.622   4.191   9.718
 3474SOL     OW10379   1.520   3.998   9.425
 3474SOL    HW110380   1.468   3.926   9.460
 3474SOL    HW210381   1.557   4.040   9.503
 3475SOL     OW10382   1.279   4.550   9.331
 3475SOL    HW110383   1.318   4.463   9.338
 3475SOL    HW210384   1.315   4.586   9.250
 3476SOL     OW10385   0.013   5.025   9.484
 3476SOL    HW110386   9.923   5.023   9.451
 3476SOL    HW210387   0.025   4.938   9.523
 3477SOL     OW10388   0.817   4.275   9.683
 3477SOL    HW110389   0.827   4.207   9.616
 3477SOL    HW210390   0.751   4.334   9.647
 3478SOL     OW10391   0.500   4.224   9.503
 3478SOL    HW110392   0.544   4.302   9.535
 3478SOL    HW210393   0.421   4.257   9.461
 3479SOL     OW10394   1.370   4.570   9.606
 3479SOL    HW110395   1.318   4.623   9.668
 3479SOL    HW210396   1.314   4.564   9.528
 3480SOL     OW10397   1.707   3.881   9.771
 3480SOL    HW110398   1.777   3.882   9.707
 3480SOL    HW210399   1.724   3.803   9.824
 3481SOL     OW10400   1.362   5.312   9.792
 3481SOL    HW110401   1.434   5.329   9.731
 3481SOL    HW210402   1.335   5.399   9.822
 3482SOL     OW10403   0.676   5.355   9.472
 3482SOL    HW110404   0.693   5.369   9.379
 3482SOL    HW210405   0.618   5.279   9.474
 3483SOL     OW10406   1.210   5.317   9.347
 3483SOL    HW110407   1.202   5.225   9.372
 3483SOL    HW210408   1.140   5.331   9.283
 3484SOL     OW10409   0.920   4.636   9.620
 3484SOL    HW110410   0.971   4.660   9.543
 3484SOL    HW210411   0.972   4.569   9.664
 3485SOL     OW10412   1.486   5.370   9.360
 3485SOL    HW110413   1.394   5.352   9.344
 3485SOL    HW210414   1.525   5.372   9.272
 3486SOL     OW10415   0.593   5.201   9.768
 3486SOL    HW110416   0.648   5.156   9.703
 3486SOL    HW210417   0.516   5.229   9.719
 3487SOL     OW10418   0.264   5.074   9.600
 3487SOL    HW110419   0.173   5.065   9.571
 3487SOL    HW210420   0.258   5.109   9.689
 3488SOL     OW10421   0.081   4.024   9.272
 3488SOL    HW110422   9.986   4.010   9.270
 3488SOL    HW210423   0.094   4.102   9.218
 3489SOL     OW10424   0.067   3.808   9.570
 3489SOL    HW110425   0.090   3.871   9.638
 3489SOL    HW210426   0.151   3.778   9.536
 3490SOL     OW10427   1.180   5.047   9.422
 3490SOL    HW110428   1.087   5.023   9.421
 3490SOL    HW210429   1.203   5.052   9.515
 3491SOL     OW10430   1.222   4.063   9.767
 3491SOL    HW110431   1.295   4.003   9.760
 3491SOL    HW210432   1.242   4.116   9.845
 3492SOL     OW10433   0.592   4.583   9.856
 3492SOL    HW110434   0.611   4.587   9.950
 3492SOL    HW210435   0.508   4.538   9.850
 3493SOL     OW10436   0.874   5.081   9.367
 3493SOL    HW110437   0.837   5.096   9.453
 3493SOL    HW210438   0.884   5.168   9.329
 3494SOL     OW10439   1.053   4.686   9.390
 3494SOL    HW110440   1.042   4.751   9.321
 3494SOL    HW210441   1.135   4.641   9.369
 3495SOL     OW10442   0.050   4.888   9.879
 3495SOL    HW110443   0.034   4.823   9.948
 3495SOL    HW210444   0.145   4.890   9.869
 3496SOL     OW10445   0.478   4.194   9.848
 3496SOL    HW110446   0.526   4.126   9.801
 3496SOL    HW210447   0.491   4.174   9.941
 3497SOL     OW10448   0.779   5.049   9.628
 3497SOL    HW110449   0.753   4.959   9.647
 3497SOL    HW210450   0.855   5.064   9.684
 3498SOL     OW10451   1.379   3.766   9.491
 3498SOL    HW110452   1.422   3.689   9.454
 3498SOL    HW210453   1.289   3.738   9.506
 3499SOL     OW10454   0.066   4.789   9.601
 3499SOL    HW110455   0.142   4.731   9.596
 3499SOL    HW210456   0.050   4.800   9.695
 3500SOL     OW10457   0.905   5.387   9.660
 3500SOL    HW110458   0.826   5.374   9.607
 3500SOL    HW210459   0.882   5.456   9.722
 3501SOL     OW10460   0.266   6.272   0.137
 3501SOL    HW110461   0.212   6.231   0.204
 3501SOL    HW210462   0.223   6.250   0.054
 3502SOL     OW10463   0.196   5.867   1.000
 3502SOL    HW110464   0.234   5.831   1.080
 3502SOL    HW210465   0.104   5.840   1.002
 3503SOL     OW10466   0.045   6.009   0.635
 3503SOL    HW110467   9.951   6.013   0.656
 3503SOL    HW210468   0.050   5.947   0.562
 3504SOL     OW10469   0.569   6.894   1.203
 3504SOL    HW110470   0.487   6.897   1.154
 3504SOL    HW210471   0.587   6.985   1.226
 3505SOL     OW10472   1.589   7.110   0.706
 3505SOL    HW110473   1.542   7.077   0.783
 3505SOL    HW210474   1.523   7.113   0.637
 3506SOL     OW10475   1.142   6.286   0.686
 3506SOL    HW110476   1.187   6.370   0.678
 3506SOL    HW210477   1.091   6.295   0.767
 3507SOL     OW10478   1.776   6.169   0.200
 3507SOL    HW110479   1.701   6.199   0.148
 3507SOL    HW210480   1.740   6.097   0.252
 3508SOL     OW10481   0.729   6.716   1.060
 3508SOL    HW110482   0.667   6.757   1.120
 3508SOL    HW210483   0.772   6.790   1.016
 3509SOL     OW10484   0.888   6.330   1.826
 3509SOL    HW110485   0.892   6.399   1.893
 3509SOL    HW210486   0.903   6.376   1.743
 3510SOL     OW10487   0.692   6.569   0.647
 3510SOL    HW110488   0.760   6.570   0.715
 3510SOL    HW210489   0.625   6.630   0.679
 3511SOL     OW10490   0.717   6.735   1.835
 3511SOL    HW110491   0.768   6.808   1.869
 3511SOL    HW210492   0.643   6.775   1.790
 3512SOL     OW10493   0.337   7.005   1.061
 3512SOL    HW110494   0.264   6.986   1.003
 3512SOL    HW210495   0.395   7.062   1.010
 3513SOL     OW10496   1.453   7.092   1.372
 3513SOL    HW110497   1.508   7.170   1.385
 3513SOL    HW210498   1.381   7.103   1.434
 3514SOL     OW10499   0.478   5.972   1.451
 3514SOL    HW110500   0.549   5.910   1.466
 3514SOL    HW210501   0.399   5.926   1.481
 3515SOL     OW10502   1.580   6.018   0.753
 3515SOL    HW110503   1.505   6.025   0.694
 3515SOL    HW210504   1.567   6.088   0.817
 3516SOL     OW10505   0.266   7.247   0.476
 3516SOL    HW110506   0.212   7.323   0.497
 3516SOL    HW210507   0.351   7.284   0.450
 3517SOL     OW10508   1.136   6.927   1.696
 3517SOL    HW110509   1.181   6.916   1.780
 3517SOL    HW210510   1.083   6.848   1.687
 3518SOL     OW10511   0.196   7.004   0.556
 3518SOL    HW110512   0.227   7.093   0.536
 3518SOL    HW210513   0.101   7.008   0.544
 3519SOL     OW10514   0.279   6.667   0.875
 3519SOL    HW110515   0.284   6.576   0.904
 3519SOL    HW210516   0.219   6.708   0.937
 3520SOL     OW10517   0.586   7.395   1.411
 3520SOL    HW110518   0.508   7.375   1.462
 3520SOL    HW210519   0.618   7.477   1.448
 3521SOL     OW10520   0.585   6.538   0.160
 3521SOL    HW110521   0.553   6.612   0.108
 3521SOL    HW210522   0.640   6.579   0.227
 3522SOL     OW10523   1.593   5.718   1.460
 3522SOL    HW110524   1.629   5.796   1.417
 3522SOL    HW210525   1.560   5.751   1.544
 3523SOL     OW10526   0.147   6.259   0.583
 3523SOL    HW110527   0.115   6.174   0.615
 3523SOL    HW210528   0.124   6.320   0.652
 3524SOL     OW10529   1.862   7.323   0.306
 3524SOL    HW110530   1.932   7.302   0.368
 3524SOL    HW210531   1.876   7.416   0.285
 3525SOL     OW10532   9.982   7.193   0.192
 3525SOL    HW110533   0.019   7.104   0.193
 3525SOL    HW210534   0.053   7.248   0.160
 3526SOL     OW10535   1.698   6.507   0.663
 3526SOL    HW110536   1.781   6.463   0.644
 3526SOL    HW210537   1.678   6.556   0.584
 3527SOL     OW10538   1.662   6.677   0.442
 3527SOL    HW110539   1.743   6.673   0.392
 3527SOL    HW210540   1.676   6.747   0.506
 3528SOL     OW10541   0.178   6.340   1.570
 3528SOL    HW110542   0.273   6.339   1.575
 3528SOL    HW210543   0.154   6.430   1.591
 3529SOL     OW10544   0.622   6.974   0.759
 3529SOL    HW110545   0.579   6.888   0.757
 3529SOL    HW210546   0.613   7.007   0.670
 3530SOL     OW10547   1.271   6.811   1.418
 3530SOL    HW110548   1.298   6.742   1.357
 3530SOL    HW210549   1.333   6.805   1.490
 3531SOL     OW10550   0.861   5.596   0.526
 3531SOL    HW110551   0.902   5.675   0.493
 3531SOL    HW210552   0.768   5.618   0.534
 3532SOL     OW10553   0.164   6.526   1.275
 3532SOL    HW110554   0.253   6.491   1.267
 3532SOL    HW210555   0.136   6.543   1.185
 3533SOL     OW10556   1.490   6.615   0.235
 3533SOL    HW110557   1.437   6.542   0.267
 3533SOL    HW210558   1.552   6.631   0.306
 3534SOL     OW10559   1.179   7.410   1.637
 3534SOL    HW110560   1.180   7.472   1.565
 3534SOL    HW210561   1.195   7.324   1.597
 3535SOL     OW10562   0.342   5.837   1.787
 3535SOL    HW110563   0.385   5.906   1.838
 3535SOL    HW210564   0.250   5.841   1.814
 3536SOL     OW10565   1.473   7.002   0.931
 3536SOL    HW110566   1.409   7.022   0.999
 3536SOL    HW210567   1.454   6.911   0.906
 3537SOL     OW10568   1.644   7.382   0.565
 3537SOL    HW110569   1.627   7.337   0.482
 3537SOL    HW210570   1.641   7.314   0.631
 3538SOL     OW10571   0.610   6.280   0.283
 3538SOL    HW110572   0.614   6.365   0.238
 3538SOL    HW210573   0.541   6.292   0.349
 3539SOL     OW10574   1.282   5.977   0.941
 3539SOL    HW110575   1.193   5.943   0.947
 3539SOL    HW210576   1.333   5.918   0.997
 3540SOL     OW10577   1.591   7.263   0.324
 3540SOL    HW110578   1.685   7.274   0.309
 3540SOL    HW210579   1.555   7.245   0.237
 3541SOL     OW10580   0.792   6.196   1.437
 3541SOL    HW110581   0.762   6.168   1.523
 3541SOL    HW210582   0.766   6.125   1.378
 3542SOL     OW10583   1.392   6.063   1.673
 3542SOL    HW110584   1.397   6.106   1.759
 3542SOL    HW210585   1.441   5.982   1.684
 3543SOL     OW10586   0.944   6.468   1.590
 3543SOL    HW110587   1.000   6.403   1.546
 3543SOL    HW210588   0.897   6.511   1.520
 3544SOL     OW10589   1.009   5.983   1.210
 3544SOL    HW110590   0.917   5.997   1.232
 3544SOL    HW210591   1.007   5.938   1.125
 3545SOL     OW10592   1.071   6.285   0.417
 3545SOL    HW110593   1.091   6.281   0.511
 3545SOL    HW210594   0.987   6.241   0.409
 3546SOL     OW10595   0.066   6.418   0.812
 3546SOL    HW110596   0.152   6.413   0.853
 3546SOL    HW210597   0.009   6.453   0.881
 3547SOL     OW10598   0.112   7.449   1.581
 3547SOL    HW110599   0.110   7.443   1.676
 3547SOL    HW210600   0.058   7.376   1.551
 3548SOL     OW10601   0.861   5.926   0.199
 3548SOL    HW110602   0.849   5.972   0.117
 3548SOL    HW210603   0.865   5.833   0.174
 3549SOL     OW10604   1.688   6.149   1.840
 3549SOL    HW110605   1.666   6.226   1.788
 3549SOL    HW210606   1.716   6.084   1.775
 3550SOL     OW10607   1.396   6.735   0.556
 3550SOL    HW110608   1.474   6.726   0.502
 3550SOL    HW210609   1.340   6.796   0.508
 3551SOL     OW10610   0.568   5.760   0.913
 3551SOL    HW110611   0.568   5.786   1.005
 3551SOL    HW210612   0.553   5.842   0.865
 3552SOL     OW10613   0.998   7.034   0.470
 3552SOL    HW110614   0.976   7.110   0.416
 3552SOL    HW210615   0.965   7.056   0.557
 3553SOL     OW10616   0.337   7.390   0.948
 3553SOL    HW110617   0.386   7.311   0.926
 3553SOL    HW210618   0.390   7.462   0.913
 3554SOL     OW10619   1.803   6.630   0.894
 3554SOL    HW110620   1.755   6.612   0.814
 3554SOL    HW210621   1.736   6.640   0.961
 3555SOL     OW10622   1.218   7.129   1.516
 3555SOL    HW110623   1.207   7.058   1.579
 3555SOL    HW210624   1.149   7.116   1.451
 3556SOL     OW10625   0.328   6.522   0.270
 3556SOL    HW110626   0.415   6.532   0.230
 3556SOL    HW210627   0.309   6.428   0.262
 3557SOL     OW10628   1.486   6.343   0.712
 3557SOL    HW110629   1.486   6.302   0.799
 3557SOL    HW210630   1.564   6.398   0.712
 3558SOL     OW10631   0.485   6.861   1.735
 3558SOL    HW110632   0.462   6.869   1.642
 3558SOL    HW210633   0.401   6.851   1.780
 3559SOL     OW10634   1.108   7.370   0.178
 3559SOL    HW110635   1.051   7.329   0.243
 3559SOL    HW210636   1.148   7.297   0.131
 3560SOL     OW10637   0.220   5.867   1.497
 3560SOL    HW110638   0.130   5.895   1.483
 3560SOL    HW210639   0.214   5.796   1.562
 3561SOL     OW10640   1.630   6.956   0.111
 3561SOL    HW110641   1.589   7.042   0.104
 3561SOL    HW210642   1.564   6.896   0.077
 3562SOL     OW10643   0.521   7.320   0.378
 3562SOL    HW110644   0.557   7.393   0.429
 3562SOL    HW210645   0.584   7.307   0.308
 3563SOL     OW10646   1.397   5.690   0.447
 3563SOL    HW110647   1.394   5.669   0.354
 3563SOL    HW210648   1.489   5.676   0.472
 3564SOL     OW10649   0.257   7.376   1.217
 3564SOL    HW110650   0.301   7.298   1.250
 3564SOL    HW210651   0.274   7.375   1.123
 3565SOL     OW10652   0.952   7.288   0.892
 3565SOL    HW110653   1.035   7.242   0.907
 3565SOL    HW210654   0.908   7.237   0.824
 3566SOL     OW10655   0.401   6.284   0.467
 3566SOL    HW110656   0.419   6.192   0.489
 3566SOL    HW210657   0.312   6.299   0.500
 3567SOL     OW10658   1.507   5.809   1.717
 3567SOL    HW110659   1.520   5.827   1.810
 3567SOL    HW210660   1.441   5.740   1.715
 3568SOL     OW10661   0.613   5.679   0.170
 3568SOL    HW110662   0.704   5.665   0.141
 3568SOL    HW210663   0.562   5.674   0.089
 3569SOL     OW10664   0.758   5.863   1.755
 3569SOL    HW110665   0.842   5.817   1.754
 3569SOL    HW210666   0.711   5.824   1.829
 3570SOL     OW10667   0.871   7.113   1.200
 3570SOL    HW110668   0.853   7.072   1.115
 3570SOL    HW210669   0.939   7.058   1.239
 3571SOL     OW10670   1.329   6.177   1.433
 3571SOL    HW110671   1.362   6.147   1.517
 3571SOL    HW210672   1.367   6.265   1.422
 3572SOL     OW10673   0.820   6.963   0.962
 3572SOL    HW110674   0.905   6.959   0.918
 3572SOL    HW210675   0.757   6.976   0.891
 3573SOL     OW10676   0.932   6.101   0.890
 3573SOL    HW110677   0.907   6.088   0.799
 3573SOL    HW210678   0.956   6.014   0.922
 3574SOL     OW10679   0.604   5.671   0.523
 3574SOL    HW110680   0.531   5.667   0.584
 3574SOL    HW210681   0.584   5.746   0.466
 3575SOL     OW10682   1.423   6.784   0.035
 3575SOL    HW110683   1.449   6.719   0.100
 3575SOL    HW210684   1.342   6.822   0.069
 3576SOL     OW10685   0.962   5.837   0.446
 3576SOL    HW110686   0.928   5.874   0.365
 3576SOL    HW210687   1.055   5.863   0.446
 3577SOL     OW10688   1.074   6.279   1.444
 3577SOL    HW110689   1.009   6.209   1.450
 3577SOL    HW210690   1.158   6.234   1.441
 3578SOL     OW10691   1.210   7.173   0.800
 3578SOL    HW110692   1.224   7.232   0.727
 3578SOL    HW210693   1.281   7.193   0.862
 3579SOL     OW10694   0.489   6.739   0.722
 3579SOL    HW110695   0.418   6.718   0.783
 3579SOL    HW210696   0.449   6.732   0.635
 3580SOL     OW10697   1.256   7.379   0.613
 3580SOL    HW110698   1.303   7.443   0.560
 3580SOL    HW210699   1.188   7.429   0.657
 3581SOL     OW10700   1.093   6.148   9.981
 3581SOL    HW110701   1.006   6.108   9.988
 3581SOL    HW210702   1.129   6.141   0.069
 3582SOL     OW10703   0.103   6.173   1.360
 3582SOL    HW110704   0.194   6.161   1.331
 3582SOL    HW210705   0.110   6.229   1.438
 3583SOL     OW10706   0.563   5.809   1.184
 3583SOL    HW110707   0.599   5.738   1.236
 3583SOL    HW210708   0.469   5.809   1.203
 3584SOL     OW10709   0.877   6.035   0.633
 3584SOL    HW110710   0.844   6.092   0.564
 3584SOL    HW210711   0.902   5.954   0.588
 3585SOL     OW10712   1.034   5.643   0.746
 3585SOL    HW110713   0.973   5.636   0.673
 3585SOL    HW210714   1.009   5.571   0.805
 3586SOL     OW10715   1.431   6.739   0.854
 3586SOL    HW110716   1.362   6.674   0.867
 3586SOL    HW210717   1.440   6.745   0.759
 3587SOL     OW10718   1.462   6.201   0.951
 3587SOL    HW110719   1.398   6.131   0.961
 3587SOL    HW210720   1.517   6.194   1.029
 3588SOL     OW10721   1.861   6.375   0.369
 3588SOL    HW110722   1.902   6.326   0.439
 3588SOL    HW210723   1.821   6.308   0.313
 3589SOL     OW10724   0.480   7.054   0.195
 3589SOL    HW110725   0.412   7.001   0.236
 3589SOL    HW210726   0.528   6.992   0.140
 3590SOL     OW10727   1.711   6.859   0.629
 3590SOL    HW110728   1.803   6.852   0.654
 3590SOL    HW210729   1.685   6.947   0.657
 3591SOL     OW10730   1.417   6.151   0.092
 3591SOL    HW110731   1.341   6.140   0.149
 3591SOL    HW210732   1.455   6.063   0.085
 3592SOL     OW10733   0.519   5.862   0.343
 3592SOL    HW110734   0.552   5.795   0.282
 3592SOL    HW210735   0.496   5.936   0.287
 3593SOL     OW10736   1.735   6.830   1.533
 3593SOL    HW110737   1.823   6.796   1.519
 3593SOL    HW210738   1.749   6.917   1.570
 3594SOL     OW10739   1.043   6.941   1.335
 3594SOL    HW110740   0.965   6.906   1.379
 3594SOL    HW210741   1.116   6.895   1.376
 3595SOL     OW10742   1.609   7.221   1.672
 3595SOL    HW110743   1.597   7.257   1.585
 3595SOL    HW210744   1.686   7.165   1.665
 3596SOL     OW10745   1.152   6.824   1.104
 3596SOL    HW110746   1.089   6.857   1.169
 3596SOL    HW210747   1.119   6.856   1.020
 3597SOL     OW10748   1.608   6.678   1.078
 3597SOL    HW110749   1.600   6.744   1.146
 3597SOL    HW210750   1.538   6.699   1.016
 3598SOL     OW10751   0.921   5.667   1.385
 3598SOL    HW110752   0.941   5.652   1.292
 3598SOL    HW210753   1.001   5.708   1.419
 3599SOL     OW10754   0.981   6.701   1.723
 3599SOL    HW110755   0.891   6.717   1.751
 3599SOL    HW210756   0.976   6.621   1.671
 3600SOL     OW10757   0.725   6.641   0.376
 3600SOL    HW110758   0.709   6.616   0.467
 3600SOL    HW210759   0.806   6.594   0.352
 3601SOL     OW10760   0.420   6.421   1.261
 3601SOL    HW110761   0.490   6.431   1.326
 3601SOL    HW210762   0.396   6.329   1.266
 3602SOL     OW10763   1.266   5.954   1.292
 3602SOL    HW110764   1.293   6.034   1.336
 3602SOL    HW210765   1.177   5.971   1.262
 3603SOL     OW10766   0.076   7.168   1.331
 3603SOL    HW110767   0.075   7.247   1.277
 3603SOL    HW210768   0.169   7.149   1.344
 3604SOL     OW10769   0.372   6.708   0.480
 3604SOL    HW110770   0.353   6.779   0.418
 3604SOL    HW210771   0.369   6.629   0.426
 3605SOL     OW10772   0.535   6.101   0.862
 3605SOL    HW110773   0.546   6.162   0.788
 3605SOL    HW210774   0.602   6.129   0.925
 3606SOL     OW10775   1.249   6.933   0.419
 3606SOL    HW110776   1.303   7.007   0.447
 3606SOL    HW210777   1.160   6.958   0.445
 3607SOL     OW10778   1.309   7.055   1.142
 3607SOL    HW110779   1.356   7.061   1.225
 3607SOL    HW210780   1.257   6.975   1.149
 3608SOL     OW10781   1.539   6.209   0.471
 3608SOL    HW110782   1.519   6.247   0.557
 3608SOL    HW210783   1.492   6.266   0.409
 3609SOL     OW10784   0.348   7.118   1.306
 3609SOL    HW110785   0.335   7.073   1.222
 3609SOL    HW210786   0.442   7.134   1.311
 3610SOL     OW10787   0.451   6.320   1.620
 3610SOL    HW110788   0.508   6.363   1.556
 3610SOL    HW210789   0.500   6.242   1.646
 3611SOL     OW10790   1.627   6.372   1.698
 3611SOL    HW110791   1.540   6.410   1.689
 3611SOL    HW210792   1.678   6.410   1.626
 3612SOL     OW10793   0.994   5.729   1.761
 3612SOL    HW110794   1.053   5.801   1.740
 3612SOL    HW210795   1.045   5.650   1.739
 3613SOL     OW10796   0.504   5.619   1.747
 3613SOL    HW110797   0.456   5.567   1.683
 3613SOL    HW210798   0.450   5.697   1.760
 3614SOL     OW10799   0.593   6.461   1.043
 3614SOL    HW110800   0.630   6.550   1.043
 3614SOL    HW210801   0.531   6.461   1.116
 3615SOL     OW10802   1.309   6.439   1.004
 3615SOL    HW110803   1.220   6.413   0.978
 3615SOL    HW210804   1.363   6.362   0.986
 3616SOL     OW10805   1.192   6.106   0.245
 3616SOL    HW110806   1.207   6.032   0.303
 3616SOL    HW210807   1.152   6.173   0.301
 3617SOL     OW10808   0.296   5.781   1.241
 3617SOL    HW110809   0.270   5.811   1.328
 3617SOL    HW210810   0.278   5.687   1.242
 3618SOL     OW10811   0.004   6.906   1.281
 3618SOL    HW110812   0.051   6.858   1.350
 3618SOL    HW210813   0.019   6.998   1.302
 3619SOL     OW10814   0.712   6.210   1.042
 3619SOL    HW110815   0.789   6.204   0.985
 3619SOL    HW210816   0.682   6.300   1.033
 3620SOL     OW10817   1.751   6.553   1.870
 3620SOL    HW110818   1.711   6.481   1.821
 3620SOL    HW210819   1.687   6.574   1.938
 3621SOL     OW10820   0.370   5.673   0.655
 3621SOL    HW110821   0.343   5.756   0.694
 3621SOL    HW210822   0.289   5.622   0.649
 3622SOL     OW10823   1.637   5.980   0.351
 3622SOL    HW110824   1.670   5.916   0.415
 3622SOL    HW210825   1.601   6.050   0.405
 3623SOL     OW10826   1.037   6.344   0.957
 3623SOL    HW110827   1.015   6.359   1.049
 3623SOL    HW210828   1.006   6.255   0.939
 3624SOL     OW10829   0.982   7.151   1.734
 3624SOL    HW110830   0.961   7.194   1.651
 3624SOL    HW210831   1.020   7.068   1.708
 3625SOL     OW10832   1.839   7.080   1.602
 3625SOL    HW110833   1.865   7.110   1.515
 3625SOL    HW210834   1.917   7.091   1.656
 3626SOL     OW10835   0.364   6.505   1.811
 3626SOL    HW110836   0.438   6.528   1.867
 3626SOL    HW210837   0.399   6.438   1.752
 3627SOL     OW10838   1.500   5.891   0.128
 3627SOL    HW110839   1.452   5.811   0.150
 3627SOL    HW210840   1.548   5.913   0.208
 3628SOL     OW10841   1.323   6.404   0.038
 3628SOL    HW110842   1.357   6.314   0.039
 3628SOL    HW210843   1.383   6.451   9.981
 3629SOL     OW10844   1.073   6.939   0.865
 3629SOL    HW110845   1.083   6.866   0.804
 3629SOL    HW210846   1.125   7.010   0.827
 3630SOL     OW10847   0.315   6.395   0.941
 3630SOL    HW110848   0.409   6.410   0.936
 3630SOL    HW210849   0.307   6.304   0.971
 3631SOL     OW10850   0.311   6.114   1.011
 3631SOL    HW110851   0.268   6.029   1.003
 3631SOL    HW210852   0.387   6.109   0.952
 3632SOL     OW10853   1.138   5.954   1.685
 3632SOL    HW110854   1.093   6.005   1.752
 3632SOL    HW210855   1.224   5.997   1.676
 3633SOL     OW10856   1.158   5.776   1.474
 3633SOL    HW110857   1.146   5.838   1.546
 3633SOL    HW210858   1.204   5.825   1.407
 3634SOL     OW10859   9.992   6.893   0.239
 3634SOL    HW110860   9.916   6.884   0.182
 3634SOL    HW210861   0.011   6.804   0.269
 3635SOL     OW10862   0.080   7.271   0.949
 3635SOL    HW110863   0.115   7.188   0.916
 3635SOL    HW210864   0.152   7.333   0.939
 3636SOL     OW10865   0.498   7.164   0.913
 3636SOL    HW110866   0.565   7.232   0.922
 3636SOL    HW210867   0.537   7.098   0.857
 3637SOL     OW10868   0.950   6.367   1.213
 3637SOL    HW110869   1.009   6.354   1.287
 3637SOL    HW210870   0.870   6.321   1.238
 3638SOL     OW10871   0.037   6.151   1.086
 3638SOL    HW110872   0.129   6.154   1.061
 3638SOL    HW210873   0.037   6.156   1.181
 3639SOL     OW10874   0.171   6.101   1.699
 3639SOL    HW110875   0.226   6.049   1.641
 3639SOL    HW210876   0.160   6.184   1.653
 3640SOL     OW10877   1.392   6.506   1.652
 3640SOL    HW110878   1.409   6.600   1.646
 3640SOL    HW210879   1.384   6.479   1.561
 3641SOL     OW10880   0.836   6.149   0.376
 3641SOL    HW110881   0.838   6.074   0.316
 3641SOL    HW210882   0.759   6.199   0.348
 3642SOL     OW10883   1.636   6.187   1.164
 3642SOL    HW110884   1.626   6.128   1.239
 3642SOL    HW210885   1.727   6.176   1.136
 3643SOL     OW10886   0.257   7.146   1.723
 3643SOL    HW110887   0.262   7.184   1.811
 3643SOL    HW210888   0.265   7.052   1.737
 3644SOL     OW10889   0.737   6.020   1.235
 3644SOL    HW110890   0.673   5.950   1.222
 3644SOL    HW210891   0.718   6.084   1.167
 3645SOL     OW10892   0.907   7.265   1.488
 3645SOL    HW110893   0.882   7.217   1.409
 3645SOL    HW210894   0.909   7.357   1.461
 3646SOL     OW10895   0.461   6.078   0.159
 3646SOL    HW110896   0.536   6.126   0.196
 3646SOL    HW210897   0.394   6.145   0.146
 3647SOL     OW10898   0.156   6.741   1.443
 3647SOL    HW110899   0.149   6.699   1.528
 3647SOL    HW210900   0.165   6.668   1.381
 3648SOL     OW10901   1.304   6.620   1.208
 3648SOL    HW110902   1.313   6.556   1.138
 3648SOL    HW210903   1.251   6.690   1.171
 3649SOL     OW10904   1.328   6.404   0.318
 3649SOL    HW110905   1.243   6.382   0.357
 3649SOL    HW210906   1.313   6.400   0.224
 3650SOL     OW10907   1.787   7.309   1.171
 3650SOL    HW110908   1.849   7.335   1.102
 3650SOL    HW210909   1.755   7.224   1.144
 3651SOL     OW10910   1.241   7.320   1.091
 3651SOL    HW110911   1.326   7.349   1.057
 3651SOL    HW210912   1.255   7.229   1.115
 3652SOL     OW10913   0.099   6.761   1.055
 3652SOL    HW110914   0.103   6.821   1.129
 3652SOL    HW210915   0.006   6.758   1.031
 3653SOL     OW10916   0.692   7.269   1.748
 3653SOL    HW110917   0.631   7.342   1.735
 3653SOL    HW210918   0.766   7.289   1.691
 3654SOL     OW10919   0.886   5.663   0.099
 3654SOL    HW110920   0.882   5.636   0.007
 3654SOL    HW210921   0.964   5.620   0.134
 3655SOL     OW10922   1.754   5.768   0.495
 3655SOL    HW110923   1.814   5.745   0.425
 3655SOL    HW210924   1.724   5.684   0.530
 3656SOL     OW10925   1.400   7.157   0.503
 3656SOL    HW110926   1.457   7.192   0.435
 3656SOL    HW210927   1.347   7.232   0.531
 3657SOL     OW10928   0.113   7.382   1.856
 3657SOL    HW110929   0.074   7.329   1.926
 3657SOL    HW210930   0.186   7.428   1.899
 3658SOL     OW10931   1.281   6.518   0.669
 3658SOL    HW110932   1.354   6.459   0.681
 3658SOL    HW210933   1.317   6.591   0.619
 3659SOL     OW10934   0.784   6.867   1.412
 3659SOL    HW110935   0.760   6.915   1.491
 3659SOL    HW210936   0.709   6.879   1.353
 3660SOL     OW10937   0.692   7.222   0.177
 3660SOL    HW110938   0.702   7.229   0.082
 3660SOL    HW210939   0.623   7.157   0.189
 3661SOL     OW10940   1.616   7.316   1.402
 3661SOL    HW110941   1.673   7.315   1.325
 3661SOL    HW210942   1.601   7.408   1.421
 3662SOL     OW10943   1.845   5.746   0.964
 3662SOL    HW110944   1.873   5.656   0.944
 3662SOL    HW210945   1.757   5.752   0.927
 3663SOL     OW10946   0.281   5.912   0.743
 3663SOL    HW110947   0.203   5.951   0.704
 3663SOL    HW210948   0.256   5.896   0.834
 3664SOL     OW10949   1.219   7.152   0.051
 3664SOL    HW110950   1.205   7.063   0.083
 3664SOL    HW210951   1.231   7.142   9.957
 3665SOL     OW10952   0.825   6.599   1.382
 3665SOL    HW110953   0.860   6.590   1.293
 3665SOL    HW210954   0.813   6.693   1.394
 3666SOL     OW10955   0.943   6.507   0.296
 3666SOL    HW110956   0.992   6.526   0.215
 3666SOL    HW210957   0.991   6.435   0.336
 3667SOL     OW10958   1.490   7.198   0.074
 3667SOL    HW110959   1.395   7.189   0.081
 3667SOL    HW210960   1.507   7.207   9.980
 3668SOL     OW10961   0.372   6.906   1.495
 3668SOL    HW110962   0.363   6.981   1.436
 3668SOL    HW210963   0.298   6.849   1.472
 3669SOL     OW10964   1.600   6.877   1.277
 3669SOL    HW110965   1.653   6.852   1.353
 3669SOL    HW210966   1.540   6.943   1.311
 3670SOL     OW10967   1.079   6.705   0.730
 3670SOL    HW110968   1.003   6.657   0.762
 3670SOL    HW210969   1.139   6.636   0.701
 3671SOL     OW10970   1.034   5.834   0.964
 3671SOL    HW110971   1.034   5.792   0.878
 3671SOL    HW210972   1.025   5.762   1.026
 3672SOL     OW10973   0.624   7.080   0.509
 3672SOL    HW110974   0.661   7.024   0.441
 3672SOL    HW210975   0.566   7.140   0.462
 3673SOL     OW10976   1.745   5.968   1.388
 3673SOL    HW110977   1.816   6.032   1.384
 3673SOL    HW210978   1.772   5.899   1.327
 3674SOL     OW10979   0.271   6.910   0.308
 3674SOL    HW110980   0.183   6.904   0.271
 3674SOL    HW210981   0.257   6.946   0.396
 3675SOL     OW10982   0.141   6.595   1.674
 3675SOL    HW110983   0.075   6.613   1.741
 3675SOL    HW210984   0.222   6.584   1.724
 3676SOL     OW10985   0.685   5.778   1.497
 3676SOL    HW110986   0.769   5.752   1.459
 3676SOL    HW210987   0.707   5.810   1.584
 3677SOL     OW10988   0.026   5.976   0.035
 3677SOL    HW110989   9.944   6.007   0.074
 3677SOL    HW210990   0.058   6.051   9.985
 3678SOL     OW10991   1.414   6.440   1.388
 3678SOL    HW110992   1.362   6.498   1.334
 3678SOL    HW210993   1.502   6.444   1.351
 3679SOL     OW10994   0.104   5.647   0.210
 3679SOL    HW110995   0.145   5.734   0.210
 3679SOL    HW210996   0.178   5.586   0.207
 3680SOL     OW10997   1.194   6.897   0.146
 3680SOL    HW110998   1.103   6.869   0.138
 3680SOL    HW210999   1.212   6.895   0.240
 3681SOL     OW11000   0.630   6.417   1.436
 3681SOL    HW111001   0.688   6.491   1.424
 3681SOL    HW211002   0.687   6.340   1.435
 3682SOL     OW11003   1.487   7.388   0.991
 3682SOL    HW111004   1.514   7.463   0.938
 3682SOL    HW211005   1.569   7.344   1.013
 3683SOL     OW11006   0.711   6.139   1.692
 3683SOL    HW111007   0.762   6.193   1.753
 3683SOL    HW211008   0.724   6.050   1.723
 3684SOL     OW11009   1.469   6.770   1.620
 3684SOL    HW111010   1.461   6.792   1.712
 3684SOL    HW211011   1.558   6.794   1.596
 3685SOL     OW11012   0.365   7.341   1.562
 3685SOL    HW111013   0.282   7.385   1.544
 3685SOL    HW211014   0.340   7.258   1.603
 3686SOL     OW11015   1.655   6.461   1.253
 3686SOL    HW111016   1.652   6.378   1.207
 3686SOL    HW211017   1.642   6.527   1.185
 3687SOL     OW11018   1.228   5.914   0.449
 3687SOL    HW111019   1.286   5.838   0.448
 3687SOL    HW211020   1.255   5.964   0.525
 3688SOL     OW11021   0.573   6.318   0.688
 3688SOL    HW111022   0.620   6.400   0.675
 3688SOL    HW211023   0.515   6.310   0.613
 3689SOL     OW11024   1.747   5.941   1.664
 3689SOL    HW111025   1.743   5.957   1.570
 3689SOL    HW211026   1.669   5.888   1.682
 3690SOL     OW11027   1.760   6.510   1.504
 3690SOL    HW111028   1.743   6.604   1.517
 3690SOL    HW211029   1.733   6.493   1.414
 3691SOL     OW11030   0.898   7.002   0.046
 3691SOL    HW111031   0.813   6.961   0.031
 3691SOL    HW211032   0.892   7.042   0.132
 3692SOL     OW11033   0.673   7.366   0.921
 3692SOL    HW111034   0.648   7.457   0.912
 3692SOL    HW211035   0.769   7.366   0.920
 3693SOL     OW11036   0.876   6.564   0.859
 3693SOL    HW111037   0.925   6.490   0.895
 3693SOL    HW211038   0.829   6.600   0.934
 3694SOL     OW11039   1.095   6.555   0.072
 3694SOL    HW111040   1.095   6.611   9.995
 3694SOL    HW211041   1.170   6.496   0.059
 3695SOL     OW11042   1.829   7.144   0.842
 3695SOL    HW111043   1.753   7.135   0.784
 3695SOL    HW211044   1.806   7.093   0.919
 3696SOL     OW11045   0.239   6.887   1.839
 3696SOL    HW111046   0.148   6.891   1.810
 3696SOL    HW211047   0.234   6.897   1.934
 3697SOL     OW11048   0.101   6.694   0.584
 3697SOL    HW111049   0.074   6.683   0.675
 3697SOL    HW211050   0.193   6.718   0.589
 3698SOL     OW11051   0.699   7.005   1.634
 3698SOL    HW111052   0.622   6.964   1.671
 3698SOL    HW211053   0.699   7.094   1.670
 3699SOL     OW11054   1.812   5.758   1.234
 3699SOL    HW111055   1.812   5.663   1.248
 3699SOL    HW211056   1.825   5.769   1.140
 3700SOL     OW11057   0.446   6.035   0.547
 3700SOL    HW111058   0.484   5.964   0.496
 3700SOL    HW211059   0.409   5.993   0.624
 3701SOL     OW11060   1.696   7.065   1.082
 3701SOL    HW111061   1.618   7.046   1.030
 3701SOL    HW211062   1.696   6.998   1.150
 3702SOL     OW11063   0.364   6.156   1.285
 3702SOL    HW111064   0.414   6.093   1.337
 3702SOL    HW211065   0.367   6.121   1.196
 3703SOL     OW11066   0.844   7.181   0.664
 3703SOL    HW111067   0.836   7.264   0.617
 3703SOL    HW211068   0.764   7.134   0.642
 3704SOL     OW11069   1.421   5.817   1.115
 3704SOL    HW111070   1.426   5.727   1.146
 3704SOL    HW211071   1.376   5.864   1.185
 3705SOL     OW11072   1.010   5.603   1.121
 3705SOL    HW111073   0.955   5.539   1.075
 3705SOL    HW211074   1.097   5.562   1.124
 3706SOL     OW11075   0.768   6.915   0.343
 3706SOL    HW111076   0.749   6.821   0.347
 3706SOL    HW211077   0.854   6.924   0.385
 3707SOL     OW11078   0.618   7.154   1.287
 3707SOL    HW111079   0.615   7.240   1.329
 3707SOL    HW211080   0.707   7.147   1.253
 3708SOL     OW11081   1.355   5.644   0.177
 3708SOL    HW111082   1.380   5.605   0.093
 3708SOL    HW211083   1.265   5.614   0.191
 3709SOL     OW11084   1.302   6.054   0.675
 3709SOL    HW111085   1.252   6.136   0.671
 3709SOL    HW211086   1.291   6.024   0.766
 3710SOL     OW11087   1.583   5.774   0.894
 3710SOL    HW111088   1.530   5.803   0.968
 3710SOL    HW211089   1.581   5.848   0.833
 3711SOL     OW11090   0.082   6.643   0.321
 3711SOL    HW111091   0.171   6.607   0.313
 3711SOL    HW211092   0.071   6.658   0.415
 3712SOL     OW11093   0.913   7.260   0.337
 3712SOL    HW111094   0.833   7.249   0.285
 3712SOL    HW211095   0.891   7.329   0.400
 3713SOL     OW11096   0.286   6.181   1.942
 3713SOL    HW111097   0.220   6.198   2.009
 3713SOL    HW211098   0.237   6.160   1.863
 3714SOL     OW11099   0.198   5.866   2.860
 3714SOL    HW111100   0.235   5.830   2.941
 3714SOL    HW211101   0.106   5.840   2.862
 3715SOL     OW11102   0.042   6.012   2.495
 3715SOL    HW111103   9.951   6.024   2.522
 3715SOL    HW211104   0.037   5.949   2.423
 3716SOL     OW11105   0.570   6.894   3.064
 3716SOL    HW111106   0.486   6.896   3.017
 3716SOL    HW211107   0.586   6.985   3.087
 3717SOL     OW11108   1.587   7.111   2.567
 3717SOL    HW111109   1.540   7.079   2.644
 3717SOL    HW211110   1.521   7.113   2.498
 3718SOL     OW11111   1.139   6.290   2.549
 3718SOL    HW111112   1.185   6.374   2.538
 3718SOL    HW211113   1.090   6.301   2.631
 3719SOL     OW11114   1.801   6.168   2.082
 3719SOL    HW111115   1.763   6.167   1.994
 3719SOL    HW211116   1.757   6.096   2.128
 3720SOL     OW11117   0.728   6.716   2.919
 3720SOL    HW111118   0.666   6.756   2.980
 3720SOL    HW211119   0.771   6.790   2.876
 3721SOL     OW11120   0.887   6.330   3.688
 3721SOL    HW111121   0.892   6.398   3.755
 3721SOL    HW211122   0.903   6.376   3.606
 3722SOL     OW11123   0.688   6.569   2.510
 3722SOL    HW111124   0.757   6.568   2.575
 3722SOL    HW211125   0.624   6.632   2.544
 3723SOL     OW11126   0.717   6.734   3.697
 3723SOL    HW111127   0.767   6.808   3.731
 3723SOL    HW211128   0.643   6.775   3.652
 3724SOL     OW11129   0.334   7.011   2.925
 3724SOL    HW111130   0.258   6.995   2.870
 3724SOL    HW211131   0.393   7.064   2.870
 3725SOL     OW11132   1.454   7.092   3.234
 3725SOL    HW111133   1.509   7.169   3.247
 3725SOL    HW211134   1.382   7.103   3.296
 3726SOL     OW11135   0.479   5.971   3.311
 3726SOL    HW111136   0.550   5.909   3.329
 3726SOL    HW211137   0.400   5.927   3.343
 3727SOL     OW11138   1.584   6.018   2.617
 3727SOL    HW111139   1.517   6.028   2.550
 3727SOL    HW211140   1.566   6.088   2.680
 3728SOL     OW11141   0.223   7.245   2.290
 3728SOL    HW111142   0.183   7.311   2.346
 3728SOL    HW211143   0.304   7.285   2.260
 3729SOL     OW11144   1.135   6.928   3.558
 3729SOL    HW111145   1.181   6.916   3.641
 3729SOL    HW211146   1.082   6.848   3.549
 3730SOL     OW11147   0.287   6.988   2.364
 3730SOL    HW111148   0.257   7.079   2.360
 3730SOL    HW211149   0.232   6.948   2.431
 3731SOL     OW11150   0.309   6.666   2.767
 3731SOL    HW111151   0.301   6.573   2.785
 3731SOL    HW211152   0.237   6.706   2.817
 3732SOL     OW11153   0.586   7.395   3.272
 3732SOL    HW111154   0.508   7.375   3.323
 3732SOL    HW211155   0.618   7.477   3.310
 3733SOL     OW11156   0.570   6.574   2.015
 3733SOL    HW111157   0.622   6.616   1.946
 3733SOL    HW211158   0.608   6.608   2.097
 3734SOL     OW11159   1.592   5.719   3.322
 3734SOL    HW111160   1.629   5.795   3.278
 3734SOL    HW211161   1.560   5.752   3.406
 3735SOL     OW11162   0.147   6.261   2.435
 3735SOL    HW111163   0.113   6.176   2.462
 3735SOL    HW211164   0.124   6.320   2.507
 3736SOL     OW11165   1.846   7.329   2.179
 3736SOL    HW111166   1.918   7.314   2.240
 3736SOL    HW211167   1.853   7.422   2.156
 3737SOL     OW11168   0.029   7.207   2.062
 3737SOL    HW111169   0.010   7.113   2.058
 3737SOL    HW211170   0.087   7.217   2.137
 3738SOL     OW11171   1.698   6.512   2.513
 3738SOL    HW111172   1.778   6.467   2.488
 3738SOL    HW211173   1.675   6.565   2.437
 3739SOL     OW11174   1.656   6.691   2.294
 3739SOL    HW111175   1.741   6.683   2.251
 3739SOL    HW211176   1.670   6.757   2.362
 3740SOL     OW11177   0.177   6.340   3.430
 3740SOL    HW111178   0.273   6.338   3.435
 3740SOL    HW211179   0.154   6.430   3.453
 3741SOL     OW11180   0.627   6.984   2.600
 3741SOL    HW111181   0.585   6.899   2.606
 3741SOL    HW211182   0.610   7.013   2.510
 3742SOL     OW11183   1.271   6.811   3.279
 3742SOL    HW111184   1.298   6.742   3.219
 3742SOL    HW211185   1.333   6.806   3.352
 3743SOL     OW11186   0.855   5.593   2.382
 3743SOL    HW111187   0.894   5.676   2.352
 3743SOL    HW211188   0.760   5.610   2.381
 3744SOL     OW11189   0.164   6.526   3.138
 3744SOL    HW111190   0.253   6.491   3.129
 3744SOL    HW211191   0.134   6.537   3.048
 3745SOL     OW11192   1.534   6.601   2.061
 3745SOL    HW111193   1.465   6.541   2.091
 3745SOL    HW211194   1.576   6.631   2.142
 3746SOL     OW11195   1.179   7.410   3.500
 3746SOL    HW111196   1.180   7.472   3.427
 3746SOL    HW211197   1.196   7.325   3.459
 3747SOL     OW11198   0.340   5.837   3.648
 3747SOL    HW111199   0.384   5.905   3.699
 3747SOL    HW211200   0.249   5.841   3.676
 3748SOL     OW11201   1.472   7.004   2.793
 3748SOL    HW111202   1.408   7.023   2.861
 3748SOL    HW211203   1.455   6.913   2.768
 3749SOL     OW11204   1.638   7.381   2.424
 3749SOL    HW111205   1.620   7.335   2.342
 3749SOL    HW211206   1.637   7.313   2.491
 3750SOL     OW11207   0.616   6.307   2.143
 3750SOL    HW111208   0.619   6.391   2.098
 3750SOL    HW211209   0.545   6.315   2.207
 3751SOL     OW11210   1.282   5.979   2.803
 3751SOL    HW111211   1.193   5.944   2.808
 3751SOL    HW211212   1.334   5.920   2.858
 3752SOL     OW11213   1.579   7.259   2.181
 3752SOL    HW111214   1.673   7.274   2.170
 3752SOL    HW211215   1.546   7.247   2.092
 3753SOL     OW11216   0.791   6.197   3.297
 3753SOL    HW111217   0.763   6.169   3.384
 3753SOL    HW211218   0.766   6.125   3.240
 3754SOL     OW11219   1.392   6.063   3.535
 3754SOL    HW111220   1.397   6.106   3.621
 3754SOL    HW211221   1.442   5.982   3.546
 3755SOL     OW11222   0.945   6.467   3.453
 3755SOL    HW111223   1.000   6.403   3.409
 3755SOL    HW211224   0.897   6.511   3.382
 3756SOL     OW11225   1.010   5.983   3.070
 3756SOL    HW111226   0.918   5.997   3.093
 3756SOL    HW211227   1.007   5.939   2.985
 3757SOL     OW11228   1.065   6.286   2.281
 3757SOL    HW111229   1.085   6.283   2.375
 3757SOL    HW211230   0.981   6.240   2.274
 3758SOL     OW11231   0.073   6.423   2.665
 3758SOL    HW111232   0.158   6.414   2.708
 3758SOL    HW211233   0.015   6.455   2.734
 3759SOL     OW11234   0.112   7.448   3.443
 3759SOL    HW111235   0.111   7.443   3.539
 3759SOL    HW211236   0.057   7.375   3.414
 3760SOL     OW11237   0.895   5.935   2.061
 3760SOL    HW111238   0.943   5.991   2.000
 3760SOL    HW211239   0.874   5.856   2.011
 3761SOL     OW11240   1.688   6.149   3.702
 3761SOL    HW111241   1.666   6.226   3.650
 3761SOL    HW211242   1.716   6.084   3.637
 3762SOL     OW11243   1.393   6.736   2.406
 3762SOL    HW111244   1.472   6.725   2.353
 3762SOL    HW211245   1.339   6.796   2.355
 3763SOL     OW11246   0.560   5.755   2.777
 3763SOL    HW111247   0.565   5.781   2.869
 3763SOL    HW211248   0.553   5.838   2.729
 3764SOL     OW11249   0.996   7.037   2.327
 3764SOL    HW111250   0.974   7.112   2.272
 3764SOL    HW211251   0.966   7.062   2.415
 3765SOL     OW11252   0.339   7.392   2.802
 3765SOL    HW111253   0.387   7.312   2.781
 3765SOL    HW211254   0.399   7.463   2.780
 3766SOL     OW11255   1.804   6.630   2.750
 3766SOL    HW111256   1.757   6.614   2.668
 3766SOL    HW211257   1.736   6.639   2.816
 3767SOL     OW11258   1.219   7.130   3.379
 3767SOL    HW111259   1.207   7.058   3.441
 3767SOL    HW211260   1.149   7.118   3.315
 3768SOL     OW11261   0.314   6.525   2.139
 3768SOL    HW111262   0.391   6.540   2.084
 3768SOL    HW211263   0.328   6.438   2.177
 3769SOL     OW11264   1.485   6.349   2.573
 3769SOL    HW111265   1.487   6.306   2.658
 3769SOL    HW211266   1.564   6.403   2.571
 3770SOL     OW11267   0.485   6.861   3.597
 3770SOL    HW111268   0.463   6.868   3.504
 3770SOL    HW211269   0.401   6.852   3.642
 3771SOL     OW11270   1.143   7.362   2.086
 3771SOL    HW111271   1.061   7.330   2.125
 3771SOL    HW211272   1.163   7.297   2.018
 3772SOL     OW11273   0.221   5.868   3.359
 3772SOL    HW111274   0.130   5.895   3.345
 3772SOL    HW211275   0.216   5.800   3.426
 3773SOL     OW11276   1.639   6.974   1.962
 3773SOL    HW111277   1.598   7.060   1.949
 3773SOL    HW211278   1.572   6.912   1.935
 3774SOL     OW11279   0.471   7.335   2.181
 3774SOL    HW111280   0.520   7.383   2.248
 3774SOL    HW211281   0.539   7.290   2.130
 3775SOL     OW11282   1.398   5.691   2.320
 3775SOL    HW111283   1.398   5.667   2.228
 3775SOL    HW211284   1.489   5.677   2.348
 3776SOL     OW11285   0.256   7.377   3.078
 3776SOL    HW111286   0.300   7.299   3.112
 3776SOL    HW211287   0.268   7.372   2.983
 3777SOL     OW11288   0.953   7.289   2.754
 3777SOL    HW111289   1.037   7.245   2.769
 3777SOL    HW211290   0.912   7.237   2.684
 3778SOL     OW11291   0.395   6.290   2.315
 3778SOL    HW111292   0.415   6.197   2.324
 3778SOL    HW211293   0.309   6.300   2.357
 3779SOL     OW11294   1.508   5.809   3.579
 3779SOL    HW111295   1.521   5.828   3.672
 3779SOL    HW211296   1.442   5.739   3.578
 3780SOL     OW11297   0.658   5.689   1.961
 3780SOL    HW111298   0.707   5.611   1.985
 3780SOL    HW211299   0.599   5.661   1.891
 3781SOL     OW11300   0.758   5.863   3.617
 3781SOL    HW111301   0.842   5.817   3.615
 3781SOL    HW211302   0.711   5.824   3.691
 3782SOL     OW11303   0.871   7.112   3.060
 3782SOL    HW111304   0.853   7.071   2.976
 3782SOL    HW211305   0.938   7.057   3.100
 3783SOL     OW11306   1.329   6.178   3.295
 3783SOL    HW111307   1.362   6.147   3.380
 3783SOL    HW211308   1.368   6.265   3.284
 3784SOL     OW11309   0.819   6.962   2.820
 3784SOL    HW111310   0.906   6.958   2.779
 3784SOL    HW211311   0.760   6.978   2.747
 3785SOL     OW11312   0.930   6.101   2.750
 3785SOL    HW111313   0.905   6.088   2.658
 3785SOL    HW211314   0.956   6.014   2.780
 3786SOL     OW11315   0.593   5.647   2.354
 3786SOL    HW111316   0.523   5.654   2.419
 3786SOL    HW211317   0.578   5.721   2.296
 3787SOL     OW11318   1.434   6.799   1.895
 3787SOL    HW111319   1.463   6.725   1.947
 3787SOL    HW211320   1.348   6.823   1.931
 3788SOL     OW11321   0.308   5.627   2.023
 3788SOL    HW111322   0.338   5.717   2.038
 3788SOL    HW211323   0.369   5.573   2.073
 3789SOL     OW11324   0.960   5.837   2.311
 3789SOL    HW111325   0.933   5.872   2.226
 3789SOL    HW211326   1.053   5.857   2.316
 3790SOL     OW11327   1.074   6.279   3.306
 3790SOL    HW111328   1.011   6.208   3.312
 3790SOL    HW211329   1.159   6.235   3.303
 3791SOL     OW11330   1.210   7.172   2.664
 3791SOL    HW111331   1.223   7.232   2.591
 3791SOL    HW211332   1.282   7.190   2.724
 3792SOL     OW11333   0.491   6.746   2.584
 3792SOL    HW111334   0.431   6.723   2.656
 3792SOL    HW211335   0.440   6.728   2.505
 3793SOL     OW11336   1.254   7.377   2.479
 3793SOL    HW111337   1.302   7.441   2.426
 3793SOL    HW211338   1.183   7.428   2.519
 3794SOL     OW11339   1.032   6.103   1.890
 3794SOL    HW111340   0.989   6.186   1.871
 3794SOL    HW211341   1.096   6.124   1.959
 3795SOL     OW11342   0.104   6.170   3.222
 3795SOL    HW111343   0.195   6.159   3.194
 3795SOL    HW211344   0.110   6.228   3.298
 3796SOL     OW11345   0.564   5.808   3.047
 3796SOL    HW111346   0.600   5.739   3.102
 3796SOL    HW211347   0.470   5.808   3.066
 3797SOL     OW11348   0.871   6.037   2.492
 3797SOL    HW111349   0.839   6.094   2.422
 3797SOL    HW211350   0.899   5.957   2.447
 3798SOL     OW11351   1.028   5.644   2.605
 3798SOL    HW111352   0.969   5.634   2.530
 3798SOL    HW211353   1.004   5.571   2.663
 3799SOL     OW11354   1.434   6.740   2.716
 3799SOL    HW111355   1.364   6.675   2.725
 3799SOL    HW211356   1.448   6.746   2.621
 3800SOL     OW11357   1.463   6.202   2.810
 3800SOL    HW111358   1.399   6.132   2.821
 3800SOL    HW211359   1.518   6.196   2.888
 3801SOL     OW11360   1.829   6.382   2.250
 3801SOL    HW111361   1.890   6.339   2.310
 3801SOL    HW211362   1.815   6.319   2.180
 3802SOL     OW11363   0.493   7.015   1.996
 3802SOL    HW111364   0.409   6.993   2.035
 3802SOL    HW211365   0.499   6.961   1.918
 3803SOL     OW11366   1.707   6.859   2.494
 3803SOL    HW111367   1.800   6.853   2.516
 3803SOL    HW211368   1.683   6.948   2.520
 3804SOL     OW11369   1.394   6.161   1.927
 3804SOL    HW111370   1.337   6.135   1.999
 3804SOL    HW211371   1.482   6.137   1.955
 3805SOL     OW11372   0.548   5.840   2.169
 3805SOL    HW111373   0.593   5.792   2.099
 3805SOL    HW211374   0.528   5.925   2.130
 3806SOL     OW11375   1.735   6.830   3.394
 3806SOL    HW111376   1.823   6.795   3.380
 3806SOL    HW211377   1.749   6.917   3.431
 3807SOL     OW11378   1.043   6.940   3.196
 3807SOL    HW111379   0.965   6.906   3.240
 3807SOL    HW211380   1.116   6.895   3.237
 3808SOL     OW11381   1.609   7.220   3.534
 3808SOL    HW111382   1.597   7.257   3.447
 3808SOL    HW211383   1.686   7.165   3.527
 3809SOL     OW11384   1.152   6.823   2.966
 3809SOL    HW111385   1.090   6.857   3.031
 3809SOL    HW211386   1.119   6.855   2.883
 3810SOL     OW11387   1.610   6.678   2.938
 3810SOL    HW111388   1.602   6.744   3.007
 3810SOL    HW211389   1.540   6.699   2.876
 3811SOL     OW11390   0.921   5.667   3.246
 3811SOL    HW111391   0.941   5.652   3.154
 3811SOL    HW211392   1.001   5.708   3.281
 3812SOL     OW11393   0.981   6.701   3.584
 3812SOL    HW111394   0.891   6.717   3.613
 3812SOL    HW211395   0.976   6.621   3.533
 3813SOL     OW11396   0.712   6.648   2.242
 3813SOL    HW111397   0.697   6.623   2.333
 3813SOL    HW211398   0.788   6.597   2.214
 3814SOL     OW11399   0.421   6.421   3.122
 3814SOL    HW111400   0.489   6.432   3.188
 3814SOL    HW211401   0.396   6.328   3.128
 3815SOL     OW11402   1.266   5.954   3.154
 3815SOL    HW111403   1.293   6.034   3.198
 3815SOL    HW211404   1.177   5.972   3.124
 3816SOL     OW11405   0.075   7.167   3.192
 3816SOL    HW111406   0.074   7.247   3.139
 3816SOL    HW211407   0.168   7.149   3.207
 3817SOL     OW11408   0.339   6.699   2.358
 3817SOL    HW111409   0.337   6.787   2.320
 3817SOL    HW211410   0.331   6.640   2.283
 3818SOL     OW11411   0.535   6.102   2.716
 3818SOL    HW111412   0.546   6.166   2.645
 3818SOL    HW211413   0.601   6.128   2.781
 3819SOL     OW11414   1.246   6.939   2.260
 3819SOL    HW111415   1.302   7.009   2.294
 3819SOL    HW211416   1.158   6.961   2.291
 3820SOL     OW11417   1.309   7.055   3.004
 3820SOL    HW111418   1.356   7.061   3.088
 3820SOL    HW211419   1.258   6.974   3.012
 3821SOL     OW11420   1.574   6.203   2.347
 3821SOL    HW111421   1.523   6.244   2.418
 3821SOL    HW211422   1.621   6.276   2.307
 3822SOL     OW11423   0.348   7.120   3.170
 3822SOL    HW111424   0.335   7.075   3.086
 3822SOL    HW211425   0.442   7.135   3.175
 3823SOL     OW11426   0.451   6.319   3.481
 3823SOL    HW111427   0.507   6.362   3.417
 3823SOL    HW211428   0.500   6.241   3.508
 3824SOL     OW11429   1.627   6.372   3.560
 3824SOL    HW111430   1.540   6.410   3.551
 3824SOL    HW211431   1.678   6.410   3.488
 3825SOL     OW11432   0.994   5.729   3.622
 3825SOL    HW111433   1.053   5.802   3.602
 3825SOL    HW211434   1.045   5.650   3.600
 3826SOL     OW11435   0.504   5.620   3.609
 3826SOL    HW111436   0.456   5.567   3.544
 3826SOL    HW211437   0.449   5.697   3.621
 3827SOL     OW11438   0.592   6.460   2.903
 3827SOL    HW111439   0.628   6.548   2.902
 3827SOL    HW211440   0.531   6.460   2.977
 3828SOL     OW11441   1.309   6.439   2.865
 3828SOL    HW111442   1.220   6.411   2.840
 3828SOL    HW211443   1.364   6.363   2.846
 3829SOL     OW11444   1.200   6.110   2.118
 3829SOL    HW111445   1.211   6.034   2.174
 3829SOL    HW211446   1.160   6.176   2.174
 3830SOL     OW11447   0.297   5.781   3.103
 3830SOL    HW111448   0.270   5.812   3.189
 3830SOL    HW211449   0.278   5.687   3.104
 3831SOL     OW11450   0.008   6.905   3.140
 3831SOL    HW111451   0.053   6.857   3.210
 3831SOL    HW211452   0.021   6.997   3.161
 3832SOL     OW11453   0.709   6.207   2.901
 3832SOL    HW111454   0.788   6.202   2.846
 3832SOL    HW211455   0.681   6.299   2.894
 3833SOL     OW11456   1.751   6.554   3.731
 3833SOL    HW111457   1.711   6.481   3.683
 3833SOL    HW211458   1.687   6.575   3.800
 3834SOL     OW11459   0.376   5.678   2.510
 3834SOL    HW111460   0.350   5.758   2.556
 3834SOL    HW211461   0.309   5.614   2.533
 3835SOL     OW11462   1.632   5.976   2.206
 3835SOL    HW111463   1.664   5.911   2.268
 3835SOL    HW211464   1.602   6.049   2.261
 3836SOL     OW11465   1.035   6.343   2.818
 3836SOL    HW111466   1.014   6.358   2.910
 3836SOL    HW211467   1.005   6.254   2.800
 3837SOL     OW11468   0.981   7.152   3.596
 3837SOL    HW111469   0.961   7.195   3.512
 3837SOL    HW211470   1.020   7.068   3.570
 3838SOL     OW11471   1.838   7.080   3.464
 3838SOL    HW111472   1.865   7.109   3.377
 3838SOL    HW211473   1.917   7.091   3.518
 3839SOL     OW11474   0.365   6.506   3.670
 3839SOL    HW111475   0.438   6.528   3.728
 3839SOL    HW211476   0.400   6.439   3.612
 3840SOL     OW11477   1.522   5.856   1.981
 3840SOL    HW111478   1.470   5.784   2.018
 3840SOL    HW211479   1.561   5.898   2.057
 3841SOL     OW11480   1.281   6.407   1.882
 3841SOL    HW111481   1.322   6.321   1.889
 3841SOL    HW211482   1.318   6.444   1.801
 3842SOL     OW11483   1.072   6.939   2.728
 3842SOL    HW111484   1.083   6.866   2.666
 3842SOL    HW211485   1.124   7.010   2.690
 3843SOL     OW11486   0.317   6.390   2.803
 3843SOL    HW111487   0.412   6.405   2.802
 3843SOL    HW211488   0.308   6.299   2.832
 3844SOL     OW11489   0.314   6.112   2.872
 3844SOL    HW111490   0.271   6.027   2.864
 3844SOL    HW211491   0.389   6.107   2.812
 3845SOL     OW11492   1.138   5.954   3.547
 3845SOL    HW111493   1.093   6.006   3.614
 3845SOL    HW211494   1.224   5.996   3.538
 3846SOL     OW11495   1.158   5.776   3.336
 3846SOL    HW111496   1.146   5.838   3.408
 3846SOL    HW211497   1.204   5.825   3.269
 3847SOL     OW11498   9.969   6.920   2.082
 3847SOL    HW111499   9.920   6.908   2.000
 3847SOL    HW211500   9.989   6.830   2.110
 3848SOL     OW11501   0.081   7.271   2.811
 3848SOL    HW111502   0.114   7.187   2.780
 3848SOL    HW211503   0.153   7.332   2.795
 3849SOL     OW11504   0.497   7.162   2.769
 3849SOL    HW111505   0.565   7.229   2.781
 3849SOL    HW211506   0.536   7.099   2.709
 3850SOL     OW11507   0.949   6.366   3.075
 3850SOL    HW111508   1.010   6.354   3.148
 3850SOL    HW211509   0.869   6.320   3.103
 3851SOL     OW11510   0.039   6.151   2.947
 3851SOL    HW111511   0.132   6.154   2.924
 3851SOL    HW211512   0.038   6.156   3.042
 3852SOL     OW11513   0.170   6.102   3.561
 3852SOL    HW111514   0.225   6.050   3.503
 3852SOL    HW211515   0.158   6.185   3.515
 3853SOL     OW11516   1.392   6.506   3.514
 3853SOL    HW111517   1.409   6.601   3.508
 3853SOL    HW211518   1.384   6.479   3.422
 3854SOL     OW11519   0.829   6.153   2.237
 3854SOL    HW111520   0.832   6.081   2.175
 3854SOL    HW211521   0.757   6.209   2.206
 3855SOL     OW11522   1.635   6.188   3.025
 3855SOL    HW111523   1.624   6.128   3.099
 3855SOL    HW211524   1.726   6.176   2.998
 3856SOL     OW11525   0.257   7.146   3.585
 3856SOL    HW111526   0.262   7.185   3.673
 3856SOL    HW211527   0.265   7.052   3.601
 3857SOL     OW11528   0.737   6.020   3.096
 3857SOL    HW111529   0.673   5.950   3.084
 3857SOL    HW211530   0.717   6.083   3.028
 3858SOL     OW11531   0.909   7.264   3.349
 3858SOL    HW111532   0.884   7.217   3.269
 3858SOL    HW211533   0.910   7.356   3.322
 3859SOL     OW11534   0.518   6.075   2.032
 3859SOL    HW111535   0.566   6.150   2.065
 3859SOL    HW211536   0.438   6.111   1.995
 3860SOL     OW11537   0.156   6.740   3.305
 3860SOL    HW111538   0.149   6.699   3.391
 3860SOL    HW211539   0.165   6.668   3.244
 3861SOL     OW11540   1.304   6.620   3.070
 3861SOL    HW111541   1.313   6.556   2.999
 3861SOL    HW211542   1.251   6.690   3.033
 3862SOL     OW11543   1.324   6.447   2.154
 3862SOL    HW111544   1.254   6.411   2.207
 3862SOL    HW211545   1.297   6.431   2.064
 3863SOL     OW11546   1.787   7.309   3.034
 3863SOL    HW111547   1.848   7.335   2.965
 3863SOL    HW211548   1.755   7.224   3.006
 3864SOL     OW11549   1.241   7.320   2.953
 3864SOL    HW111550   1.325   7.349   2.919
 3864SOL    HW211551   1.255   7.228   2.977
 3865SOL     OW11552   0.101   6.760   2.913
 3865SOL    HW111553   0.104   6.819   2.988
 3865SOL    HW211554   0.008   6.756   2.889
 3866SOL     OW11555   0.692   7.269   3.611
 3866SOL    HW111556   0.631   7.342   3.597
 3866SOL    HW211557   0.767   7.289   3.556
 3867SOL     OW11558   1.745   5.770   2.359
 3867SOL    HW111559   1.804   5.750   2.286
 3867SOL    HW211560   1.718   5.685   2.392
 3868SOL     OW11561   1.396   7.155   2.364
 3868SOL    HW111562   1.451   7.190   2.294
 3868SOL    HW211563   1.342   7.229   2.391
 3869SOL     OW11564   0.114   7.382   3.719
 3869SOL    HW111565   0.075   7.329   3.788
 3869SOL    HW211566   0.187   7.428   3.761
 3870SOL     OW11567   1.279   6.522   2.526
 3870SOL    HW111568   1.353   6.463   2.539
 3870SOL    HW211569   1.315   6.594   2.474
 3871SOL     OW11570   0.784   6.867   3.274
 3871SOL    HW111571   0.760   6.915   3.353
 3871SOL    HW211572   0.709   6.879   3.215
 3872SOL     OW11573   0.673   7.219   2.020
 3872SOL    HW111574   0.689   7.235   1.927
 3872SOL    HW211575   0.617   7.141   2.022
 3873SOL     OW11576   1.616   7.316   3.264
 3873SOL    HW111577   1.673   7.315   3.187
 3873SOL    HW211578   1.600   7.408   3.283
 3874SOL     OW11579   1.845   5.746   2.827
 3874SOL    HW111580   1.873   5.657   2.806
 3874SOL    HW211581   1.758   5.753   2.789
 3875SOL     OW11582   0.277   5.913   2.601
 3875SOL    HW111583   0.199   5.955   2.565
 3875SOL    HW211584   0.256   5.896   2.692
 3876SOL     OW11585   1.212   7.174   1.898
 3876SOL    HW111586   1.201   7.083   1.926
 3876SOL    HW211587   1.142   7.188   1.834
 3877SOL     OW11588   0.826   6.599   3.245
 3877SOL    HW111589   0.861   6.590   3.156
 3877SOL    HW211590   0.813   6.693   3.257
 3878SOL     OW11591   0.921   6.500   2.164
 3878SOL    HW111592   0.973   6.528   2.089
 3878SOL    HW211593   0.974   6.432   2.206
 3879SOL     OW11594   1.484   7.231   1.920
 3879SOL    HW111595   1.392   7.211   1.903
 3879SOL    HW211596   1.525   7.235   1.833
 3880SOL     OW11597   0.373   6.906   3.356
 3880SOL    HW111598   0.362   6.981   3.298
 3880SOL    HW211599   0.299   6.849   3.334
 3881SOL     OW11600   1.600   6.876   3.139
 3881SOL    HW111601   1.653   6.851   3.214
 3881SOL    HW211602   1.540   6.943   3.173
 3882SOL     OW11603   1.078   6.705   2.591
 3882SOL    HW111604   1.002   6.656   2.623
 3882SOL    HW211605   1.139   6.638   2.561
 3883SOL     OW11606   1.033   5.835   2.823
 3883SOL    HW111607   1.033   5.792   2.737
 3883SOL    HW211608   1.026   5.763   2.886
 3884SOL     OW11609   0.605   7.073   2.345
 3884SOL    HW111610   0.657   7.026   2.280
 3884SOL    HW211611   0.517   7.076   2.308
 3885SOL     OW11612   1.745   5.968   3.250
 3885SOL    HW111613   1.816   6.032   3.245
 3885SOL    HW211614   1.771   5.899   3.189
 3886SOL     OW11615   0.244   6.947   2.104
 3886SOL    HW111616   0.149   6.934   2.105
 3886SOL    HW211617   0.267   6.966   2.195
 3887SOL     OW11618   0.141   6.594   3.536
 3887SOL    HW111619   0.074   6.609   3.603
 3887SOL    HW211620   0.222   6.584   3.585
 3888SOL     OW11621   0.685   5.778   3.358
 3888SOL    HW111622   0.769   5.752   3.321
 3888SOL    HW211623   0.707   5.809   3.446
 3889SOL     OW11624   0.074   5.900   1.856
 3889SOL    HW111625   9.979   5.888   1.862
 3889SOL    HW211626   0.085   5.976   1.799
 3890SOL     OW11627   1.415   6.440   3.250
 3890SOL    HW111628   1.362   6.498   3.195
 3890SOL    HW211629   1.503   6.444   3.212
 3891SOL     OW11630   0.059   5.657   2.125
 3891SOL    HW111631   0.077   5.710   2.203
 3891SOL    HW211632   0.146   5.640   2.088
 3892SOL     OW11633   1.181   6.909   1.984
 3892SOL    HW111634   1.088   6.885   1.982
 3892SOL    HW211635   1.203   6.911   2.077
 3893SOL     OW11636   0.629   6.417   3.298
 3893SOL    HW111637   0.688   6.492   3.286
 3893SOL    HW211638   0.687   6.341   3.297
 3894SOL     OW11639   1.487   7.389   2.854
 3894SOL    HW111640   1.512   7.463   2.799
 3894SOL    HW211641   1.569   7.344   2.874
 3895SOL     OW11642   0.712   6.139   3.553
 3895SOL    HW111643   0.762   6.193   3.615
 3895SOL    HW211644   0.724   6.050   3.584
 3896SOL     OW11645   1.469   6.770   3.481
 3896SOL    HW111646   1.461   6.792   3.574
 3896SOL    HW211647   1.558   6.794   3.458
 3897SOL     OW11648   0.365   7.341   3.424
 3897SOL    HW111649   0.282   7.385   3.407
 3897SOL    HW211650   0.341   7.258   3.465
 3898SOL     OW11651   1.655   6.461   3.115
 3898SOL    HW111652   1.653   6.378   3.068
 3898SOL    HW211653   1.644   6.527   3.046
 3899SOL     OW11654   1.226   5.911   2.316
 3899SOL    HW111655   1.285   5.836   2.316
 3899SOL    HW211656   1.254   5.963   2.392
 3900SOL     OW11657   0.569   6.315   2.541
 3900SOL    HW111658   0.617   6.397   2.532
 3900SOL    HW211659   0.511   6.312   2.465
 3901SOL     OW11660   1.747   5.941   3.526
 3901SOL    HW111661   1.743   5.957   3.431
 3901SOL    HW211662   1.670   5.888   3.544
 3902SOL     OW11663   1.760   6.510   3.365
 3902SOL    HW111664   1.743   6.603   3.378
 3902SOL    HW211665   1.733   6.493   3.275
 3903SOL     OW11666   0.877   6.943   1.927
 3903SOL    HW111667   0.835   6.963   2.011
 3903SOL    HW211668   0.884   7.028   1.884
 3904SOL     OW11669   0.673   7.363   2.780
 3904SOL    HW111670   0.649   7.455   2.773
 3904SOL    HW211671   0.769   7.363   2.781
 3905SOL     OW11672   0.875   6.563   2.719
 3905SOL    HW111673   0.924   6.490   2.755
 3905SOL    HW211674   0.829   6.600   2.794
 3906SOL     OW11675   1.063   6.558   1.944
 3906SOL    HW111676   1.048   6.619   1.871
 3906SOL    HW211677   1.141   6.509   1.918
 3907SOL     OW11678   1.828   7.145   2.703
 3907SOL    HW111679   1.753   7.137   2.645
 3907SOL    HW211680   1.806   7.094   2.780
 3908SOL     OW11681   0.239   6.888   3.700
 3908SOL    HW111682   0.148   6.891   3.671
 3908SOL    HW211683   0.234   6.897   3.795
 3909SOL     OW11684   0.153   6.809   2.533
 3909SOL    HW111685   0.084   6.756   2.572
 3909SOL    HW211686   0.210   6.746   2.488
 3910SOL     OW11687   0.699   7.006   3.495
 3910SOL    HW111688   0.622   6.964   3.533
 3910SOL    HW211689   0.699   7.094   3.532
 3911SOL     OW11690   1.812   5.757   3.097
 3911SOL    HW111691   1.813   5.662   3.110
 3911SOL    HW211692   1.825   5.768   3.003
 3912SOL     OW11693   0.434   6.029   2.382
 3912SOL    HW111694   0.493   5.961   2.349
 3912SOL    HW211695   0.409   5.998   2.469
 3913SOL     OW11696   1.695   7.066   2.944
 3913SOL    HW111697   1.617   7.047   2.892
 3913SOL    HW211698   1.696   6.998   3.012
 3914SOL     OW11699   0.365   6.156   3.146
 3914SOL    HW111700   0.415   6.093   3.198
 3914SOL    HW211701   0.368   6.121   3.057
 3915SOL     OW11702   0.844   7.169   2.533
 3915SOL    HW111703   0.815   7.241   2.477
 3915SOL    HW211704   0.766   7.113   2.543
 3916SOL     OW11705   1.421   5.818   2.976
 3916SOL    HW111706   1.427   5.728   3.008
 3916SOL    HW211707   1.376   5.865   3.046
 3917SOL     OW11708   1.011   5.603   2.982
 3917SOL    HW111709   0.956   5.540   2.935
 3917SOL    HW211710   1.097   5.563   2.986
 3918SOL     OW11711   0.776   6.918   2.191
 3918SOL    HW111712   0.753   6.826   2.204
 3918SOL    HW211713   0.856   6.931   2.242
 3919SOL     OW11714   0.618   7.154   3.148
 3919SOL    HW111715   0.615   7.240   3.190
 3919SOL    HW211716   0.707   7.147   3.115
 3920SOL     OW11717   1.383   5.625   2.053
 3920SOL    HW111718   1.423   5.553   2.005
 3920SOL    HW211719   1.291   5.599   2.064
 3921SOL     OW11720   1.300   6.058   2.537
 3921SOL    HW111721   1.249   6.139   2.535
 3921SOL    HW211722   1.292   6.028   2.628
 3922SOL     OW11723   1.583   5.774   2.755
 3922SOL    HW111724   1.530   5.803   2.829
 3922SOL    HW211725   1.583   5.848   2.695
 3923SOL     OW11726   0.067   6.677   2.159
 3923SOL    HW111727   0.143   6.624   2.132
 3923SOL    HW211728   0.031   6.630   2.234
 3924SOL     OW11729   0.902   7.257   2.189
 3924SOL    HW111730   0.822   7.244   2.138
 3924SOL    HW211731   0.880   7.325   2.252
 3925SOL     OW11732   0.286   6.182   3.804
 3925SOL    HW111733   0.219   6.197   3.871
 3925SOL    HW211734   0.236   6.160   3.725
 3926SOL     OW11735   0.198   5.867   4.722
 3926SOL    HW111736   0.235   5.830   4.803
 3926SOL    HW211737   0.106   5.840   4.724
 3927SOL     OW11738   0.042   6.012   4.356
 3927SOL    HW111739   9.950   6.024   4.383
 3927SOL    HW211740   0.038   5.948   4.285
 3928SOL     OW11741   0.570   6.894   4.926
 3928SOL    HW111742   0.486   6.896   4.879
 3928SOL    HW211743   0.586   6.985   4.949
 3929SOL     OW11744   1.587   7.110   4.429
 3929SOL    HW111745   1.541   7.079   4.506
 3929SOL    HW211746   1.521   7.113   4.360
 3930SOL     OW11747   1.139   6.290   4.411
 3930SOL    HW111748   1.185   6.374   4.400
 3930SOL    HW211749   1.090   6.301   4.493
 3931SOL     OW11750   1.802   6.167   3.944
 3931SOL    HW111751   1.763   6.167   3.856
 3931SOL    HW211752   1.757   6.096   3.990
 3932SOL     OW11753   0.728   6.716   4.781
 3932SOL    HW111754   0.666   6.756   4.842
 3932SOL    HW211755   0.771   6.790   4.738
 3933SOL     OW11756   0.888   6.330   5.550
 3933SOL    HW111757   0.894   6.399   5.617
 3933SOL    HW211758   0.903   6.376   5.467
 3934SOL     OW11759   0.688   6.569   4.372
 3934SOL    HW111760   0.757   6.568   4.437
 3934SOL    HW211761   0.624   6.632   4.406
 3935SOL     OW11762   0.717   6.734   5.559
 3935SOL    HW111763   0.767   6.808   5.593
 3935SOL    HW211764   0.643   6.775   5.513
 3936SOL     OW11765   0.334   7.011   4.787
 3936SOL    HW111766   0.258   6.995   4.732
 3936SOL    HW211767   0.392   7.064   4.732
 3937SOL     OW11768   1.454   7.092   5.096
 3937SOL    HW111769   1.509   7.169   5.109
 3937SOL    HW211770   1.382   7.103   5.158
 3938SOL     OW11771   0.478   5.971   5.173
 3938SOL    HW111772   0.549   5.909   5.191
 3938SOL    HW211773   0.400   5.926   5.205
 3939SOL     OW11774   1.584   6.018   4.479
 3939SOL    HW111775   1.516   6.028   4.412
 3939SOL    HW211776   1.566   6.088   4.542
 3940SOL     OW11777   0.225   7.244   4.155
 3940SOL    HW111778   0.184   7.311   4.210
 3940SOL    HW211779   0.306   7.286   4.124
 3941SOL     OW11780   1.136   6.927   5.420
 3941SOL    HW111781   1.182   6.916   5.503
 3941SOL    HW211782   1.083   6.848   5.411
 3942SOL     OW11783   0.287   6.987   4.226
 3942SOL    HW111784   0.258   7.078   4.222
 3942SOL    HW211785   0.232   6.947   4.293
 3943SOL     OW11786   0.309   6.667   4.629
 3943SOL    HW111787   0.301   6.573   4.647
 3943SOL    HW211788   0.238   6.706   4.679
 3944SOL     OW11789   0.585   7.396   5.133
 3944SOL    HW111790   0.507   7.375   5.185
 3944SOL    HW211791   0.618   7.477   5.171
 3945SOL     OW11792   0.570   6.574   3.878
 3945SOL    HW111793   0.621   6.616   3.808
 3945SOL    HW211794   0.608   6.608   3.959
 3946SOL     OW11795   1.591   5.719   5.183
 3946SOL    HW111796   1.630   5.795   5.140
 3946SOL    HW211797   1.560   5.753   5.267
 3947SOL     OW11798   0.147   6.261   4.297
 3947SOL    HW111799   0.113   6.176   4.324
 3947SOL    HW211800   0.124   6.320   4.369
 3948SOL     OW11801   1.846   7.329   4.041
 3948SOL    HW111802   1.918   7.314   4.103
 3948SOL    HW211803   1.853   7.422   4.019
 3949SOL     OW11804   0.029   7.207   3.923
 3949SOL    HW111805   0.010   7.113   3.919
 3949SOL    HW211806   0.086   7.217   3.999
 3950SOL     OW11807   1.698   6.512   4.376
 3950SOL    HW111808   1.779   6.467   4.353
 3950SOL    HW211809   1.676   6.564   4.299
 3951SOL     OW11810   1.657   6.691   4.157
 3951SOL    HW111811   1.741   6.683   4.113
 3951SOL    HW211812   1.671   6.757   4.225
 3952SOL     OW11813   0.177   6.340   5.293
 3952SOL    HW111814   0.273   6.339   5.298
 3952SOL    HW211815   0.154   6.430   5.315
 3953SOL     OW11816   0.627   6.985   4.462
 3953SOL    HW111817   0.585   6.899   4.468
 3953SOL    HW211818   0.610   7.013   4.372
 3954SOL     OW11819   1.271   6.811   5.141
 3954SOL    HW111820   1.298   6.742   5.081
 3954SOL    HW211821   1.333   6.806   5.214
 3955SOL     OW11822   0.855   5.593   4.244
 3955SOL    HW111823   0.894   5.676   4.214
 3955SOL    HW211824   0.761   5.610   4.243
 3956SOL     OW11825   0.164   6.525   5.000
 3956SOL    HW111826   0.253   6.491   4.991
 3956SOL    HW211827   0.134   6.537   4.910
 3957SOL     OW11828   1.534   6.601   3.924
 3957SOL    HW111829   1.465   6.541   3.953
 3957SOL    HW211830   1.576   6.631   4.004
 3958SOL     OW11831   1.177   7.409   5.361
 3958SOL    HW111832   1.180   7.471   5.289
 3958SOL    HW211833   1.195   7.324   5.321
 3959SOL     OW11834   0.341   5.837   5.510
 3959SOL    HW111835   0.384   5.905   5.561
 3959SOL    HW211836   0.249   5.841   5.537
 3960SOL     OW11837   1.472   7.004   4.655
 3960SOL    HW111838   1.409   7.023   4.724
 3960SOL    HW211839   1.454   6.913   4.630
 3961SOL     OW11840   1.637   7.382   4.286
 3961SOL    HW111841   1.620   7.335   4.205
 3961SOL    HW211842   1.637   7.313   4.353
 3962SOL     OW11843   0.616   6.306   4.005
 3962SOL    HW111844   0.619   6.391   3.960
 3962SOL    HW211845   0.545   6.315   4.068
 3963SOL     OW11846   1.282   5.979   4.665
 3963SOL    HW111847   1.193   5.944   4.670
 3963SOL    HW211848   1.334   5.920   4.720
 3964SOL     OW11849   1.579   7.259   4.043
 3964SOL    HW111850   1.673   7.274   4.032
 3964SOL    HW211851   1.546   7.246   3.955
 3965SOL     OW11852   0.790   6.197   5.159
 3965SOL    HW111853   0.762   6.169   5.246
 3965SOL    HW211854   0.765   6.125   5.102
 3966SOL     OW11855   1.391   6.063   5.397
 3966SOL    HW111856   1.397   6.106   5.482
 3966SOL    HW211857   1.442   5.982   5.408
 3967SOL     OW11858   0.945   6.467   5.315
 3967SOL    HW111859   1.000   6.403   5.270
 3967SOL    HW211860   0.897   6.510   5.244
 3968SOL     OW11861   1.009   5.984   4.933
 3968SOL    HW111862   0.917   5.997   4.955
 3968SOL    HW211863   1.007   5.939   4.848
 3969SOL     OW11864   1.065   6.286   4.143
 3969SOL    HW111865   1.085   6.283   4.237
 3969SOL    HW211866   0.981   6.240   4.136
 3970SOL     OW11867   0.074   6.424   4.527
 3970SOL    HW111868   0.159   6.414   4.570
 3970SOL    HW211869   0.015   6.455   4.596
 3971SOL     OW11870   0.112   7.448   5.305
 3971SOL    HW111871   0.110   7.443   5.401
 3971SOL    HW211872   0.058   7.375   5.276
 3972SOL     OW11873   0.895   5.935   3.923
 3972SOL    HW111874   0.943   5.991   3.862
 3972SOL    HW211875   0.875   5.856   3.873
 3973SOL     OW11876   1.686   6.149   5.564
 3973SOL    HW111877   1.665   6.226   5.512
 3973SOL    HW211878   1.715   6.084   5.500
 3974SOL     OW11879   1.393   6.736   4.268
 3974SOL    HW111880   1.473   6.724   4.216
 3974SOL    HW211881   1.339   6.796   4.217
 3975SOL     OW11882   0.559   5.755   4.639
 3975SOL    HW111883   0.564   5.781   4.731
 3975SOL    HW211884   0.552   5.837   4.591
 3976SOL     OW11885   0.996   7.037   4.189
 3976SOL    HW111886   0.974   7.112   4.134
 3976SOL    HW211887   0.966   7.062   4.277
 3977SOL     OW11888   0.339   7.394   4.655
 3977SOL    HW111889   0.389   7.314   4.638
 3977SOL    HW211890   0.402   7.464   4.641
 3978SOL     OW11891   1.804   6.631   4.613
 3978SOL    HW111892   1.756   6.615   4.531
 3978SOL    HW211893   1.736   6.639   4.679
 3979SOL     OW11894   1.218   7.130   5.241
 3979SOL    HW111895   1.207   7.058   5.303
 3979SOL    HW211896   1.150   7.116   5.176
 3980SOL     OW11897   0.312   6.523   3.999
 3980SOL    HW111898   0.390   6.540   3.946
 3980SOL    HW211899   0.328   6.438   4.039
 3981SOL     OW11900   1.485   6.349   4.435
 3981SOL    HW111901   1.487   6.306   4.520
 3981SOL    HW211902   1.564   6.402   4.433
 3982SOL     OW11903   0.485   6.861   5.459
 3982SOL    HW111904   0.462   6.868   5.366
 3982SOL    HW211905   0.401   6.852   5.504
 3983SOL     OW11906   1.142   7.362   3.948
 3983SOL    HW111907   1.061   7.330   3.987
 3983SOL    HW211908   1.163   7.298   3.880
 3984SOL     OW11909   0.221   5.867   5.221
 3984SOL    HW111910   0.130   5.894   5.207
 3984SOL    HW211911   0.216   5.798   5.287
 3985SOL     OW11912   1.639   6.974   3.824
 3985SOL    HW111913   1.598   7.060   3.811
 3985SOL    HW211914   1.572   6.911   3.797
 3986SOL     OW11915   0.471   7.336   4.043
 3986SOL    HW111916   0.520   7.384   4.109
 3986SOL    HW211917   0.539   7.290   3.992
 3987SOL     OW11918   1.398   5.691   4.182
 3987SOL    HW111919   1.398   5.667   4.090
 3987SOL    HW211920   1.489   5.677   4.211
 3988SOL     OW11921   0.253   7.376   4.941
 3988SOL    HW111922   0.300   7.299   4.974
 3988SOL    HW211923   0.258   7.368   4.846
 3989SOL     OW11924   0.953   7.289   4.616
 3989SOL    HW111925   1.038   7.246   4.631
 3989SOL    HW211926   0.913   7.237   4.546
 3990SOL     OW11927   0.394   6.290   4.176
 3990SOL    HW111928   0.415   6.197   4.186
 3990SOL    HW211929   0.309   6.300   4.219
 3991SOL     OW11930   1.508   5.809   5.441
 3991SOL    HW111931   1.521   5.828   5.534
 3991SOL    HW211932   1.443   5.739   5.439
 3992SOL     OW11933   0.658   5.690   3.823
 3992SOL    HW111934   0.707   5.611   3.848
 3992SOL    HW211935   0.599   5.661   3.753
 3993SOL     OW11936   0.757   5.863   5.479
 3993SOL    HW111937   0.842   5.818   5.478
 3993SOL    HW211938   0.711   5.825   5.553
 3994SOL     OW11939   0.871   7.112   4.922
 3994SOL    HW111940   0.853   7.071   4.838
 3994SOL    HW211941   0.938   7.057   4.962
 3995SOL     OW11942   1.329   6.178   5.157
 3995SOL    HW111943   1.362   6.147   5.241
 3995SOL    HW211944   1.368   6.265   5.146
 3996SOL     OW11945   0.819   6.962   4.682
 3996SOL    HW111946   0.906   6.958   4.642
 3996SOL    HW211947   0.760   6.977   4.609
 3997SOL     OW11948   0.930   6.101   4.612
 3997SOL    HW111949   0.904   6.088   4.520
 3997SOL    HW211950   0.956   6.014   4.642
 3998SOL     OW11951   0.593   5.647   4.215
 3998SOL    HW111952   0.523   5.655   4.280
 3998SOL    HW211953   0.579   5.722   4.157
 3999SOL     OW11954   1.434   6.799   3.757
 3999SOL    HW111955   1.463   6.725   3.810
 3999SOL    HW211956   1.348   6.823   3.793
 4000SOL     OW11957   0.309   5.628   3.886
 4000SOL    HW111958   0.338   5.718   3.901
 4000SOL    HW211959   0.370   5.574   3.936
 4001SOL     OW11960   0.960   5.837   4.174
 4001SOL    HW111961   0.933   5.872   4.089
 4001SOL    HW211962   1.053   5.857   4.179
 4002SOL     OW11963   1.074   6.279   5.168
 4002SOL    HW111964   1.011   6.207   5.174
 4002SOL    HW211965   1.160   6.236   5.165
 4003SOL     OW11966   1.209   7.172   4.526
 4003SOL    HW111967   1.223   7.232   4.453
 4003SOL    HW211968   1.283   7.189   4.586
 4004SOL     OW11969   0.491   6.746   4.446
 4004SOL    HW111970   0.431   6.723   4.518
 4004SOL    HW211971   0.441   6.728   4.367
 4005SOL     OW11972   1.254   7.377   4.341
 4005SOL    HW111973   1.302   7.440   4.288
 4005SOL    HW211974   1.184   7.428   4.381
 4006SOL     OW11975   1.032   6.103   3.752
 4006SOL    HW111976   0.989   6.186   3.733
 4006SOL    HW211977   1.095   6.124   3.821
 4007SOL     OW11978   0.104   6.172   5.084
 4007SOL    HW111979   0.195   6.160   5.056
 4007SOL    HW211980   0.110   6.228   5.161
 4008SOL     OW11981   0.564   5.807   4.908
 4008SOL    HW111982   0.600   5.739   4.965
 4008SOL    HW211983   0.470   5.808   4.928
 4009SOL     OW11984   0.871   6.037   4.354
 4009SOL    HW111985   0.839   6.094   4.284
 4009SOL    HW211986   0.899   5.957   4.309
 4010SOL     OW11987   1.028   5.644   4.467
 4010SOL    HW111988   0.969   5.634   4.392
 4010SOL    HW211989   1.004   5.571   4.525
 4011SOL     OW11990   1.434   6.740   4.578
 4011SOL    HW111991   1.364   6.675   4.588
 4011SOL    HW211992   1.447   6.746   4.483
 4012SOL     OW11993   1.463   6.202   4.673
 4012SOL    HW111994   1.399   6.132   4.683
 4012SOL    HW211995   1.518   6.196   4.750
 4013SOL     OW11996   1.829   6.382   4.111
 4013SOL    HW111997   1.889   6.339   4.172
 4013SOL    HW211998   1.815   6.318   4.041
 4014SOL     OW11999   0.493   7.015   3.858
 4014SOL    HW112000   0.409   6.993   3.897
 4014SOL    HW212001   0.499   6.960   3.780
 4015SOL     OW12002   1.708   6.859   4.356
 4015SOL    HW112003   1.801   6.852   4.378
 4015SOL    HW212004   1.683   6.948   4.383
 4016SOL     OW12005   1.394   6.161   3.789
 4016SOL    HW112006   1.337   6.135   3.861
 4016SOL    HW212007   1.482   6.136   3.817
 4017SOL     OW12008   0.548   5.840   4.030
 4017SOL    HW112009   0.593   5.792   3.960
 4017SOL    HW212010   0.528   5.925   3.991
 4018SOL     OW12011   1.735   6.830   5.256
 4018SOL    HW112012   1.823   6.796   5.242
 4018SOL    HW212013   1.749   6.917   5.293
 4019SOL     OW12014   1.043   6.941   5.058
 4019SOL    HW112015   0.965   6.906   5.102
 4019SOL    HW212016   1.116   6.895   5.099
 4020SOL     OW12017   1.608   7.221   5.396
 4020SOL    HW112018   1.597   7.257   5.308
 4020SOL    HW212019   1.686   7.165   5.389
 4021SOL     OW12020   1.152   6.823   4.828
 4021SOL    HW112021   1.090   6.857   4.893
 4021SOL    HW212022   1.119   6.855   4.745
 4022SOL     OW12023   1.610   6.678   4.800
 4022SOL    HW112024   1.602   6.744   4.869
 4022SOL    HW212025   1.540   6.699   4.738
 4023SOL     OW12026   0.921   5.667   5.108
 4023SOL    HW112027   0.941   5.652   5.016
 4023SOL    HW212028   1.001   5.707   5.143
 4024SOL     OW12029   0.981   6.702   5.446
 4024SOL    HW112030   0.890   6.717   5.475
 4024SOL    HW212031   0.976   6.621   5.394
 4025SOL     OW12032   0.712   6.648   4.104
 4025SOL    HW112033   0.697   6.623   4.195
 4025SOL    HW212034   0.788   6.597   4.076
 4026SOL     OW12035   0.420   6.421   4.984
 4026SOL    HW112036   0.489   6.432   5.050
 4026SOL    HW212037   0.396   6.328   4.990
 4027SOL     OW12038   1.265   5.954   5.016
 4027SOL    HW112039   1.293   6.034   5.060
 4027SOL    HW212040   1.176   5.972   4.986
 4028SOL     OW12041   0.075   7.166   5.055
 4028SOL    HW112042   0.073   7.247   5.003
 4028SOL    HW212043   0.168   7.149   5.069
 4029SOL     OW12044   0.339   6.699   4.220
 4029SOL    HW112045   0.336   6.787   4.183
 4029SOL    HW212046   0.331   6.640   4.144
 4030SOL     OW12047   0.535   6.102   4.578
 4030SOL    HW112048   0.546   6.166   4.507
 4030SOL    HW212049   0.601   6.128   4.643
 4031SOL     OW12050   1.247   6.939   4.122
 4031SOL    HW112051   1.302   7.009   4.156
 4031SOL    HW212052   1.159   6.961   4.153
 4032SOL     OW12053   1.309   7.055   4.867
 4032SOL    HW112054   1.357   7.061   4.950
 4032SOL    HW212055   1.258   6.974   4.874
 4033SOL     OW12056   1.574   6.204   4.209
 4033SOL    HW112057   1.523   6.244   4.280
 4033SOL    HW212058   1.622   6.276   4.170
 4034SOL     OW12059   0.348   7.120   5.032
 4034SOL    HW112060   0.335   7.076   4.948
 4034SOL    HW212061   0.442   7.136   5.037
 4035SOL     OW12062   0.451   6.320   5.344
 4035SOL    HW112063   0.507   6.363   5.279
 4035SOL    HW212064   0.500   6.242   5.371
 4036SOL     OW12065   1.627   6.372   5.422
 4036SOL    HW112066   1.540   6.410   5.413
 4036SOL    HW212067   1.678   6.410   5.350
 4037SOL     OW12068   0.994   5.729   5.485
 4037SOL    HW112069   1.052   5.802   5.464
 4037SOL    HW212070   1.044   5.651   5.463
 4038SOL     OW12071   0.504   5.620   5.471
 4038SOL    HW112072   0.456   5.567   5.406
 4038SOL    HW212073   0.450   5.697   5.483
 4039SOL     OW12074   0.591   6.460   4.765
 4039SOL    HW112075   0.628   6.548   4.764
 4039SOL    HW212076   0.530   6.460   4.839
 4040SOL     OW12077   1.309   6.439   4.727
 4040SOL    HW112078   1.221   6.411   4.702
 4040SOL    HW212079   1.364   6.363   4.708
 4041SOL     OW12080   1.200   6.110   3.980
 4041SOL    HW112081   1.211   6.034   4.036
 4041SOL    HW212082   1.160   6.176   4.037
 4042SOL     OW12083   0.297   5.780   4.964
 4042SOL    HW112084   0.270   5.811   5.051
 4042SOL    HW212085   0.278   5.687   4.965
 4043SOL     OW12086   0.008   6.904   5.002
 4043SOL    HW112087   0.053   6.857   5.072
 4043SOL    HW212088   0.021   6.997   5.024
 4044SOL     OW12089   0.709   6.207   4.763
 4044SOL    HW112090   0.788   6.202   4.708
 4044SOL    HW212091   0.681   6.298   4.756
 4045SOL     OW12092   1.751   6.554   5.593
 4045SOL    HW112093   1.711   6.481   5.545
 4045SOL    HW212094   1.687   6.574   5.662
 4046SOL     OW12095   0.376   5.681   4.370
 4046SOL    HW112096   0.350   5.761   4.417
 4046SOL    HW212097   0.316   5.614   4.403
 4047SOL     OW12098   1.632   5.977   4.068
 4047SOL    HW112099   1.664   5.911   4.130
 4047SOL    HW212100   1.602   6.049   4.123
 4048SOL     OW12101   1.035   6.343   4.680
 4048SOL    HW112102   1.014   6.358   4.772
 4048SOL    HW212103   1.005   6.254   4.662
 4049SOL     OW12104   0.981   7.151   5.458
 4049SOL    HW112105   0.961   7.194   5.375
 4049SOL    HW212106   1.020   7.067   5.432
 4050SOL     OW12107   1.838   7.081   5.326
 4050SOL    HW112108   1.865   7.109   5.239
 4050SOL    HW212109   1.916   7.091   5.380
 4051SOL     OW12110   0.364   6.505   5.534
 4051SOL    HW112111   0.438   6.529   5.591
 4051SOL    HW212112   0.400   6.438   5.475
 4052SOL     OW12113   1.522   5.856   3.843
 4052SOL    HW112114   1.470   5.784   3.880
 4052SOL    HW212115   1.561   5.899   3.919
 4053SOL     OW12116   1.281   6.407   3.743
 4053SOL    HW112117   1.321   6.321   3.751
 4053SOL    HW212118   1.318   6.444   3.663
 4054SOL     OW12119   1.072   6.939   4.590
 4054SOL    HW112120   1.082   6.866   4.528
 4054SOL    HW212121   1.124   7.010   4.552
 4055SOL     OW12122   0.317   6.390   4.665
 4055SOL    HW112123   0.412   6.405   4.664
 4055SOL    HW212124   0.308   6.299   4.694
 4056SOL     OW12125   0.314   6.112   4.734
 4056SOL    HW112126   0.271   6.027   4.726
 4056SOL    HW212127   0.389   6.107   4.674
 4057SOL     OW12128   1.138   5.954   5.409
 4057SOL    HW112129   1.093   6.006   5.476
 4057SOL    HW212130   1.224   5.996   5.400
 4058SOL     OW12131   1.158   5.776   5.199
 4058SOL    HW112132   1.146   5.838   5.270
 4058SOL    HW212133   1.204   5.825   5.131
 4059SOL     OW12134   9.968   6.919   3.944
 4059SOL    HW112135   9.918   6.908   3.864
 4059SOL    HW212136   9.989   6.830   3.973
 4060SOL     OW12137   0.085   7.271   4.676
 4060SOL    HW112138   0.116   7.186   4.644
 4060SOL    HW212139   0.155   7.332   4.653
 4061SOL     OW12140   0.497   7.163   4.631
 4061SOL    HW112141   0.565   7.229   4.644
 4061SOL    HW212142   0.536   7.099   4.571
 4062SOL     OW12143   0.949   6.366   4.937
 4062SOL    HW112144   1.010   6.354   5.010
 4062SOL    HW212145   0.869   6.320   4.965
 4063SOL     OW12146   0.039   6.152   4.809
 4063SOL    HW112147   0.132   6.154   4.786
 4063SOL    HW212148   0.038   6.157   4.905
 4064SOL     OW12149   0.171   6.102   5.423
 4064SOL    HW112150   0.226   6.050   5.365
 4064SOL    HW212151   0.159   6.185   5.377
 4065SOL     OW12152   1.392   6.507   5.376
 4065SOL    HW112153   1.409   6.601   5.370
 4065SOL    HW212154   1.384   6.479   5.284
 4066SOL     OW12155   0.829   6.153   4.099
 4066SOL    HW112156   0.832   6.080   4.037
 4066SOL    HW212157   0.757   6.208   4.068
 4067SOL     OW12158   1.636   6.188   4.887
 4067SOL    HW112159   1.626   6.128   4.961
 4067SOL    HW212160   1.727   6.177   4.859
 4068SOL     OW12161   0.257   7.146   5.448
 4068SOL    HW112162   0.263   7.184   5.535
 4068SOL    HW212163   0.265   7.052   5.462
 4069SOL     OW12164   0.737   6.020   4.958
 4069SOL    HW112165   0.673   5.950   4.946
 4069SOL    HW212166   0.717   6.083   4.890
 4070SOL     OW12167   0.907   7.265   5.212
 4070SOL    HW112168   0.883   7.217   5.132
 4070SOL    HW212169   0.909   7.357   5.185
 4071SOL     OW12170   0.518   6.075   3.893
 4071SOL    HW112171   0.566   6.150   3.927
 4071SOL    HW212172   0.438   6.112   3.857
 4072SOL     OW12173   0.156   6.740   5.167
 4072SOL    HW112174   0.149   6.699   5.253
 4072SOL    HW212175   0.165   6.667   5.105
 4073SOL     OW12176   1.304   6.620   4.932
 4073SOL    HW112177   1.313   6.556   4.861
 4073SOL    HW212178   1.251   6.690   4.895
 4074SOL     OW12179   1.324   6.447   4.015
 4074SOL    HW112180   1.254   6.411   4.069
 4074SOL    HW212181   1.296   6.431   3.925
 4075SOL     OW12182   1.787   7.310   4.895
 4075SOL    HW112183   1.848   7.336   4.826
 4075SOL    HW212184   1.755   7.224   4.867
 4076SOL     OW12185   1.241   7.320   4.815
 4076SOL    HW112186   1.325   7.349   4.781
 4076SOL    HW212187   1.255   7.228   4.839
 4077SOL     OW12188   0.101   6.761   4.775
 4077SOL    HW112189   0.104   6.820   4.850
 4077SOL    HW212190   0.008   6.756   4.751
 4078SOL     OW12191   0.692   7.269   5.473
 4078SOL    HW112192   0.632   7.342   5.459
 4078SOL    HW212193   0.767   7.289   5.418
 4079SOL     OW12194   1.744   5.770   4.221
 4079SOL    HW112195   1.803   5.750   4.148
 4079SOL    HW212196   1.717   5.685   4.254
 4080SOL     OW12197   1.396   7.155   4.227
 4080SOL    HW112198   1.452   7.190   4.157
 4080SOL    HW212199   1.342   7.229   4.253
 4081SOL     OW12200   0.114   7.382   5.581
 4081SOL    HW112201   0.075   7.329   5.650
 4081SOL    HW212202   0.187   7.428   5.623
 4082SOL     OW12203   1.279   6.522   4.388
 4082SOL    HW112204   1.353   6.463   4.402
 4082SOL    HW212205   1.315   6.594   4.336
 4083SOL     OW12206   0.784   6.867   5.135
 4083SOL    HW112207   0.760   6.915   5.215
 4083SOL    HW212208   0.709   6.879   5.077
 4084SOL     OW12209   0.673   7.219   3.883
 4084SOL    HW112210   0.689   7.234   3.789
 4084SOL    HW212211   0.617   7.141   3.885
 4085SOL     OW12212   1.616   7.316   5.126
 4085SOL    HW112213   1.673   7.316   5.049
 4085SOL    HW212214   1.600   7.409   5.144
 4086SOL     OW12215   1.845   5.746   4.688
 4086SOL    HW112216   1.873   5.657   4.668
 4086SOL    HW212217   1.757   5.753   4.650
 4087SOL     OW12218   0.277   5.915   4.463
 4087SOL    HW112219   0.199   5.956   4.427
 4087SOL    HW212220   0.256   5.897   4.555
 4088SOL     OW12221   1.211   7.174   3.760
 4088SOL    HW112222   1.201   7.083   3.788
 4088SOL    HW212223   1.142   7.188   3.696
 4089SOL     OW12224   0.826   6.599   5.107
 4089SOL    HW112225   0.861   6.590   5.018
 4089SOL    HW212226   0.814   6.693   5.118
 4090SOL     OW12227   0.920   6.499   4.025
 4090SOL    HW112228   0.973   6.528   3.951
 4090SOL    HW212229   0.973   6.432   4.068
 4091SOL     OW12230   1.484   7.231   3.782
 4091SOL    HW112231   1.392   7.211   3.765
 4091SOL    HW212232   1.525   7.234   3.695
 4092SOL     OW12233   0.372   6.906   5.218
 4092SOL    HW112234   0.362   6.982   5.161
 4092SOL    HW212235   0.299   6.849   5.196
 4093SOL     OW12236   1.599   6.876   5.001
 4093SOL    HW112237   1.653   6.851   5.076
 4093SOL    HW212238   1.540   6.943   5.035
 4094SOL     OW12239   1.077   6.705   4.452
 4094SOL    HW112240   1.002   6.656   4.485
 4094SOL    HW212241   1.139   6.638   4.423
 4095SOL     OW12242   1.033   5.835   4.685
 4095SOL    HW112243   1.033   5.792   4.600
 4095SOL    HW212244   1.026   5.763   4.748
 4096SOL     OW12245   0.605   7.072   4.207
 4096SOL    HW112246   0.657   7.025   4.141
 4096SOL    HW212247   0.517   7.075   4.170
 4097SOL     OW12248   1.745   5.968   5.112
 4097SOL    HW112249   1.816   6.032   5.108
 4097SOL    HW212250   1.772   5.900   5.051
 4098SOL     OW12251   0.243   6.947   3.965
 4098SOL    HW112252   0.148   6.935   3.967
 4098SOL    HW212253   0.267   6.966   4.056
 4099SOL     OW12254   0.141   6.595   5.398
 4099SOL    HW112255   0.074   6.612   5.465
 4099SOL    HW212256   0.222   6.584   5.448
 4100SOL     OW12257   0.685   5.777   5.220
 4100SOL    HW112258   0.769   5.752   5.183
 4100SOL    HW212259   0.707   5.809   5.308
 4101SOL     OW12260   0.074   5.901   3.718
 4101SOL    HW112261   9.979   5.888   3.725
 4101SOL    HW212262   0.084   5.977   3.662
 4102SOL     OW12263   1.415   6.440   5.112
 4102SOL    HW112264   1.363   6.498   5.057
 4102SOL    HW212265   1.503   6.444   5.075
 4103SOL     OW12266   0.060   5.657   3.987
 4103SOL    HW112267   0.076   5.708   4.066
 4103SOL    HW212268   0.146   5.640   3.950
 4104SOL     OW12269   1.181   6.909   3.846
 4104SOL    HW112270   1.088   6.885   3.845
 4104SOL    HW212271   1.204   6.911   3.939
 4105SOL     OW12272   0.629   6.418   5.160
 4105SOL    HW112273   0.687   6.492   5.148
 4105SOL    HW212274   0.686   6.341   5.159
 4106SOL     OW12275   1.487   7.389   4.717
 4106SOL    HW112276   1.513   7.463   4.662
 4106SOL    HW212277   1.569   7.345   4.738
 4107SOL     OW12278   0.712   6.140   5.416
 4107SOL    HW112279   0.762   6.193   5.477
 4107SOL    HW212280   0.724   6.050   5.446
 4108SOL     OW12281   1.469   6.770   5.343
 4108SOL    HW112282   1.461   6.793   5.436
 4108SOL    HW212283   1.558   6.794   5.320
 4109SOL     OW12284   0.365   7.341   5.286
 4109SOL    HW112285   0.282   7.385   5.269
 4109SOL    HW212286   0.341   7.258   5.327
 4110SOL     OW12287   1.655   6.461   4.977
 4110SOL    HW112288   1.653   6.378   4.930
 4110SOL    HW212289   1.643   6.527   4.908
 4111SOL     OW12290   1.226   5.912   4.178
 4111SOL    HW112291   1.285   5.836   4.178
 4111SOL    HW212292   1.254   5.963   4.254
 4112SOL     OW12293   0.569   6.315   4.403
 4112SOL    HW112294   0.617   6.397   4.394
 4112SOL    HW212295   0.511   6.312   4.327
 4113SOL     OW12296   1.748   5.941   5.388
 4113SOL    HW112297   1.744   5.957   5.294
 4113SOL    HW212298   1.670   5.888   5.406
 4114SOL     OW12299   1.760   6.511   5.228
 4114SOL    HW112300   1.743   6.604   5.240
 4114SOL    HW212301   1.733   6.493   5.137
 4115SOL     OW12302   0.876   6.943   3.789
 4115SOL    HW112303   0.835   6.962   3.874
 4115SOL    HW212304   0.883   7.028   3.746
 4116SOL     OW12305   0.674   7.362   4.642
 4116SOL    HW112306   0.650   7.455   4.635
 4116SOL    HW212307   0.770   7.363   4.643
 4117SOL     OW12308   0.875   6.563   4.580
 4117SOL    HW112309   0.924   6.489   4.617
 4117SOL    HW212310   0.829   6.600   4.656
 4118SOL     OW12311   1.064   6.559   3.806
 4118SOL    HW112312   1.048   6.619   3.733
 4118SOL    HW212313   1.141   6.509   3.780
 4119SOL     OW12314   1.829   7.144   4.564
 4119SOL    HW112315   1.753   7.136   4.507
 4119SOL    HW212316   1.807   7.093   4.641
 4120SOL     OW12317   0.239   6.887   5.562
 4120SOL    HW112318   0.148   6.891   5.533
 4120SOL    HW212319   0.234   6.897   5.657
 4121SOL     OW12320   0.153   6.809   4.395
 4121SOL    HW112321   0.082   6.757   4.433
 4121SOL    HW212322   0.209   6.745   4.351
 4122SOL     OW12323   0.699   7.006   5.356
 4122SOL    HW112324   0.622   6.964   5.395
 4122SOL    HW212325   0.699   7.094   5.394
 4123SOL     OW12326   1.809   5.757   4.958
 4123SOL    HW112327   1.812   5.662   4.971
 4123SOL    HW212328   1.824   5.769   4.864
 4124SOL     OW12329   0.434   6.030   4.244
 4124SOL    HW112330   0.492   5.962   4.210
 4124SOL    HW212331   0.408   5.999   4.330
 4125SOL     OW12332   1.696   7.066   4.805
 4125SOL    HW112333   1.617   7.047   4.754
 4125SOL    HW212334   1.697   6.998   4.873
 4126SOL     OW12335   0.365   6.156   5.008
 4126SOL    HW112336   0.415   6.093   5.061
 4126SOL    HW212337   0.368   6.121   4.919
 4127SOL     OW12338   0.844   7.168   4.396
 4127SOL    HW112339   0.814   7.240   4.340
 4127SOL    HW212340   0.767   7.112   4.406
 4128SOL     OW12341   1.422   5.819   4.838
 4128SOL    HW112342   1.430   5.729   4.871
 4128SOL    HW212343   1.376   5.865   4.908
 4129SOL     OW12344   1.011   5.603   4.844
 4129SOL    HW112345   0.957   5.540   4.797
 4129SOL    HW212346   1.098   5.563   4.848
 4130SOL     OW12347   0.776   6.918   4.053
 4130SOL    HW112348   0.753   6.826   4.066
 4130SOL    HW212349   0.856   6.931   4.104
 4131SOL     OW12350   0.618   7.155   5.010
 4131SOL    HW112351   0.615   7.241   5.052
 4131SOL    HW212352   0.707   7.147   4.977
 4132SOL     OW12353   1.383   5.625   3.915
 4132SOL    HW112354   1.423   5.552   3.868
 4132SOL    HW212355   1.292   5.599   3.926
 4133SOL     OW12356   1.300   6.058   4.399
 4133SOL    HW112357   1.249   6.139   4.397
 4133SOL    HW212358   1.292   6.028   4.490
 4134SOL     OW12359   1.582   5.773   4.617
 4134SOL    HW112360   1.530   5.803   4.691
 4134SOL    HW212361   1.583   5.848   4.557
 4135SOL     OW12362   0.068   6.677   4.022
 4135SOL    HW112363   0.143   6.625   3.995
 4135SOL    HW212364   0.030   6.629   4.096
 4136SOL     OW12365   0.902   7.257   4.051
 4136SOL    HW112366   0.822   7.244   4.001
 4136SOL    HW212367   0.880   7.325   4.114
 4137SOL     OW12368   0.286   6.181   5.666
 4137SOL    HW112369   0.219   6.198   5.733
 4137SOL    HW212370   0.236   6.160   5.587
 4138SOL     OW12371   0.198   5.866   6.584
 4138SOL    HW112372   0.235   5.831   6.665
 4138SOL    HW212373   0.106   5.840   6.585
 4139SOL     OW12374   0.041   6.012   6.216
 4139SOL    HW112375   9.949   6.024   6.239
 4139SOL    HW212376   0.040   5.948   6.145
 4140SOL     OW12377   0.569   6.894   6.788
 4140SOL    HW112378   0.486   6.896   6.741
 4140SOL    HW212379   0.586   6.985   6.811
 4141SOL     OW12380   1.588   7.110   6.291
 4141SOL    HW112381   1.541   7.079   6.368
 4141SOL    HW212382   1.522   7.113   6.222
 4142SOL     OW12383   1.139   6.291   6.273
 4142SOL    HW112384   1.185   6.374   6.262
 4142SOL    HW212385   1.090   6.301   6.355
 4143SOL     OW12386   1.801   6.167   5.806
 4143SOL    HW112387   1.762   6.167   5.718
 4143SOL    HW212388   1.757   6.096   5.851
 4144SOL     OW12389   0.728   6.716   6.643
 4144SOL    HW112390   0.666   6.756   6.704
 4144SOL    HW212391   0.771   6.790   6.600
 4145SOL     OW12392   0.888   6.331   7.412
 4145SOL    HW112393   0.895   6.399   7.478
 4145SOL    HW212394   0.903   6.376   7.329
 4146SOL     OW12395   0.687   6.569   6.234
 4146SOL    HW112396   0.757   6.568   6.299
 4146SOL    HW212397   0.624   6.632   6.268
 4147SOL     OW12398   0.717   6.734   7.421
 4147SOL    HW112399   0.768   6.808   7.455
 4147SOL    HW212400   0.643   6.775   7.375
 4148SOL     OW12401   0.334   7.011   6.649
 4148SOL    HW112402   0.258   6.995   6.594
 4148SOL    HW212403   0.393   7.064   6.594
 4149SOL     OW12404   1.454   7.092   6.958
 4149SOL    HW112405   1.509   7.169   6.971
 4149SOL    HW212406   1.382   7.104   7.020
 4150SOL     OW12407   0.478   5.971   7.036
 4150SOL    HW112408   0.549   5.910   7.053
 4150SOL    HW212409   0.399   5.926   7.068
 4151SOL     OW12410   1.585   6.018   6.341
 4151SOL    HW112411   1.518   6.029   6.273
 4151SOL    HW212412   1.567   6.088   6.403
 4152SOL     OW12413   0.223   7.245   6.014
 4152SOL    HW112414   0.184   7.312   6.071
 4152SOL    HW212415   0.305   7.285   5.984
 4153SOL     OW12416   1.136   6.927   7.282
 4153SOL    HW112417   1.182   6.916   7.365
 4153SOL    HW212418   1.083   6.848   7.273
 4154SOL     OW12419   0.287   6.988   6.088
 4154SOL    HW112420   0.258   7.079   6.084
 4154SOL    HW212421   0.233   6.948   6.155
 4155SOL     OW12422   0.309   6.666   6.492
 4155SOL    HW112423   0.301   6.573   6.509
 4155SOL    HW212424   0.237   6.706   6.542
 4156SOL     OW12425   0.585   7.396   6.995
 4156SOL    HW112426   0.507   7.375   7.046
 4156SOL    HW212427   0.618   7.478   7.033
 4157SOL     OW12428   0.570   6.574   5.740
 4157SOL    HW112429   0.622   6.616   5.670
 4157SOL    HW212430   0.608   6.608   5.821
 4158SOL     OW12431   1.591   5.718   7.046
 4158SOL    HW112432   1.630   5.794   7.002
 4158SOL    HW212433   1.560   5.753   7.129
 4159SOL     OW12434   0.147   6.261   6.159
 4159SOL    HW112435   0.113   6.176   6.186
 4159SOL    HW212436   0.124   6.320   6.231
 4160SOL     OW12437   1.846   7.329   5.904
 4160SOL    HW112438   1.918   7.314   5.965
 4160SOL    HW212439   1.853   7.422   5.881
 4161SOL     OW12440   0.029   7.207   5.785
 4161SOL    HW112441   0.010   7.113   5.782
 4161SOL    HW212442   0.087   7.217   5.861
 4162SOL     OW12443   1.698   6.512   6.239
 4162SOL    HW112444   1.780   6.467   6.216
 4162SOL    HW212445   1.677   6.563   6.161
 4163SOL     OW12446   1.657   6.691   6.019
 4163SOL    HW112447   1.741   6.683   5.975
 4163SOL    HW212448   1.671   6.756   6.087
 4164SOL     OW12449   0.178   6.340   7.157
 4164SOL    HW112450   0.273   6.339   7.162
 4164SOL    HW212451   0.154   6.431   7.177
 4165SOL     OW12452   0.627   6.984   6.324
 4165SOL    HW112453   0.585   6.899   6.330
 4165SOL    HW212454   0.610   7.013   6.234
 4166SOL     OW12455   1.271   6.811   7.003
 4166SOL    HW112456   1.298   6.742   6.943
 4166SOL    HW212457   1.333   6.806   7.076
 4167SOL     OW12458   0.854   5.593   6.106
 4167SOL    HW112459   0.893   5.675   6.077
 4167SOL    HW212460   0.760   5.610   6.106
 4168SOL     OW12461   0.164   6.525   6.862
 4168SOL    HW112462   0.253   6.491   6.853
 4168SOL    HW212463   0.134   6.538   6.772
 4169SOL     OW12464   1.534   6.601   5.786
 4169SOL    HW112465   1.465   6.542   5.816
 4169SOL    HW212466   1.576   6.631   5.866
 4170SOL     OW12467   1.176   7.409   7.223
 4170SOL    HW112468   1.179   7.471   7.151
 4170SOL    HW212469   1.194   7.324   7.182
 4171SOL     OW12470   0.342   5.837   7.373
 4171SOL    HW112471   0.385   5.906   7.424
 4171SOL    HW212472   0.250   5.841   7.399
 4172SOL     OW12473   1.472   7.004   6.516
 4172SOL    HW112474   1.408   7.023   6.586
 4172SOL    HW212475   1.455   6.913   6.492
 4173SOL     OW12476   1.637   7.382   6.148
 4173SOL    HW112477   1.620   7.335   6.066
 4173SOL    HW212478   1.637   7.314   6.215
 4174SOL     OW12479   0.616   6.306   5.867
 4174SOL    HW112480   0.620   6.391   5.822
 4174SOL    HW212481   0.545   6.315   5.930
 4175SOL     OW12482   1.282   5.979   6.527
 4175SOL    HW112483   1.193   5.944   6.532
 4175SOL    HW212484   1.334   5.921   6.582
 4176SOL     OW12485   1.579   7.259   5.905
 4176SOL    HW112486   1.673   7.273   5.894
 4176SOL    HW212487   1.546   7.246   5.816
 4177SOL     OW12488   0.790   6.197   7.021
 4177SOL    HW112489   0.762   6.169   7.108
 4177SOL    HW212490   0.765   6.125   6.964
 4178SOL     OW12491   1.391   6.063   7.259
 4178SOL    HW112492   1.397   6.106   7.344
 4178SOL    HW212493   1.442   5.982   7.270
 4179SOL     OW12494   0.945   6.467   7.176
 4179SOL    HW112495   1.000   6.403   7.132
 4179SOL    HW212496   0.897   6.510   7.105
 4180SOL     OW12497   1.009   5.984   6.795
 4180SOL    HW112498   0.917   5.997   6.817
 4180SOL    HW212499   1.007   5.940   6.710
 4181SOL     OW12500   1.065   6.286   6.005
 4181SOL    HW112501   1.086   6.284   6.099
 4181SOL    HW212502   0.982   6.240   5.998
 4182SOL     OW12503   0.074   6.423   6.389
 4182SOL    HW112504   0.159   6.414   6.432
 4182SOL    HW212505   0.015   6.455   6.458
 4183SOL     OW12506   0.112   7.449   7.167
 4183SOL    HW112507   0.110   7.443   7.262
 4183SOL    HW212508   0.058   7.375   7.137
 4184SOL     OW12509   0.896   5.934   5.785
 4184SOL    HW112510   0.943   5.991   5.724
 4184SOL    HW212511   0.878   5.855   5.735
 4185SOL     OW12512   1.685   6.149   7.426
 4185SOL    HW112513   1.664   6.226   7.374
 4185SOL    HW212514   1.715   6.084   7.362
 4186SOL     OW12515   1.393   6.736   6.129
 4186SOL    HW112516   1.473   6.724   6.077
 4186SOL    HW212517   1.340   6.796   6.078
 4187SOL     OW12518   0.562   5.756   6.501
 4187SOL    HW112519   0.566   5.782   6.593
 4187SOL    HW212520   0.554   5.839   6.453
 4188SOL     OW12521   0.996   7.037   6.051
 4188SOL    HW112522   0.974   7.112   5.996
 4188SOL    HW212523   0.967   7.062   6.139
 4189SOL     OW12524   0.339   7.391   6.529
 4189SOL    HW112525   0.387   7.311   6.507
 4189SOL    HW212526   0.398   7.462   6.505
 4190SOL     OW12527   1.804   6.630   6.476
 4190SOL    HW112528   1.756   6.615   6.394
 4190SOL    HW212529   1.735   6.639   6.542
 4191SOL     OW12530   1.218   7.129   7.103
 4191SOL    HW112531   1.207   7.058   7.165
 4191SOL    HW212532   1.151   7.114   7.036
 4192SOL     OW12533   0.313   6.524   5.862
 4192SOL    HW112534   0.391   6.540   5.808
 4192SOL    HW212535   0.328   6.438   5.901
 4193SOL     OW12536   1.485   6.350   6.297
 4193SOL    HW112537   1.487   6.306   6.382
 4193SOL    HW212538   1.564   6.403   6.295
 4194SOL     OW12539   0.485   6.861   7.321
 4194SOL    HW112540   0.462   6.869   7.229
 4194SOL    HW212541   0.401   6.852   7.366
 4195SOL     OW12542   1.142   7.362   5.809
 4195SOL    HW112543   1.061   7.330   5.849
 4195SOL    HW212544   1.163   7.298   5.742
 4196SOL     OW12545   0.220   5.867   7.083
 4196SOL    HW112546   0.129   5.895   7.070
 4196SOL    HW212547   0.214   5.796   7.147
 4197SOL     OW12548   1.638   6.974   5.686
 4197SOL    HW112549   1.598   7.060   5.673
 4197SOL    HW212550   1.571   6.912   5.659
 4198SOL     OW12551   0.471   7.335   5.905
 4198SOL    HW112552   0.520   7.383   5.972
 4198SOL    HW212553   0.539   7.290   5.854
 4199SOL     OW12554   1.399   5.691   6.044
 4199SOL    HW112555   1.398   5.667   5.952
 4199SOL    HW212556   1.489   5.677   6.073
 4200SOL     OW12557   0.258   7.377   6.802
 4200SOL    HW112558   0.302   7.299   6.836
 4200SOL    HW212559   0.272   7.374   6.707
 4201SOL     OW12560   0.954   7.289   6.478
 4201SOL    HW112561   1.038   7.246   6.492
 4201SOL    HW212562   0.913   7.237   6.408
 4202SOL     OW12563   0.394   6.290   6.038
 4202SOL    HW112564   0.414   6.196   6.048
 4202SOL    HW212565   0.309   6.300   6.081
 4203SOL     OW12566   1.508   5.809   7.303
 4203SOL    HW112567   1.520   5.828   7.396
 4203SOL    HW212568   1.443   5.739   7.301
 4204SOL     OW12569   0.658   5.689   5.685
 4204SOL    HW112570   0.707   5.611   5.709
 4204SOL    HW212571   0.599   5.661   5.615
 4205SOL     OW12572   0.757   5.863   7.341
 4205SOL    HW112573   0.841   5.818   7.340
 4205SOL    HW212574   0.710   5.825   7.416
 4206SOL     OW12575   0.871   7.112   6.784
 4206SOL    HW112576   0.853   7.071   6.700
 4206SOL    HW212577   0.938   7.057   6.824
 4207SOL     OW12578   1.329   6.178   7.019
 4207SOL    HW112579   1.362   6.147   7.103
 4207SOL    HW212580   1.368   6.265   7.007
 4208SOL     OW12581   0.819   6.962   6.544
 4208SOL    HW112582   0.906   6.958   6.504
 4208SOL    HW212583   0.760   6.978   6.471
 4209SOL     OW12584   0.929   6.101   6.474
 4209SOL    HW112585   0.904   6.088   6.382
 4209SOL    HW212586   0.956   6.014   6.504
 4210SOL     OW12587   0.592   5.646   6.079
 4210SOL    HW112588   0.522   5.653   6.145
 4210SOL    HW212589   0.577   5.721   6.021
 4211SOL     OW12590   1.434   6.799   5.618
 4211SOL    HW112591   1.463   6.725   5.671
 4211SOL    HW212592   1.348   6.822   5.655
 4212SOL     OW12593   0.309   5.627   5.748
 4212SOL    HW112594   0.339   5.717   5.762
 4212SOL    HW212595   0.370   5.573   5.798
 4213SOL     OW12596   0.960   5.837   6.036
 4213SOL    HW112597   0.932   5.871   5.951
 4213SOL    HW212598   1.053   5.856   6.041
 4214SOL     OW12599   1.074   6.279   7.030
 4214SOL    HW112600   1.012   6.207   7.036
 4214SOL    HW212601   1.160   6.236   7.026
 4215SOL     OW12602   1.209   7.172   6.388
 4215SOL    HW112603   1.223   7.232   6.315
 4215SOL    HW212604   1.284   7.188   6.447
 4216SOL     OW12605   0.490   6.746   6.308
 4216SOL    HW112606   0.431   6.723   6.380
 4216SOL    HW212607   0.440   6.728   6.229
 4217SOL     OW12608   1.254   7.377   6.203
 4217SOL    HW112609   1.302   7.440   6.150
 4217SOL    HW212610   1.184   7.429   6.243
 4218SOL     OW12611   1.032   6.103   5.614
 4218SOL    HW112612   0.989   6.186   5.596
 4218SOL    HW212613   1.096   6.124   5.683
 4219SOL     OW12614   0.104   6.173   6.946
 4219SOL    HW112615   0.195   6.161   6.918
 4219SOL    HW212616   0.111   6.229   7.024
 4220SOL     OW12617   0.564   5.808   6.771
 4220SOL    HW112618   0.599   5.738   6.826
 4220SOL    HW212619   0.470   5.808   6.790
 4221SOL     OW12620   0.870   6.036   6.216
 4221SOL    HW112621   0.839   6.093   6.146
 4221SOL    HW212622   0.898   5.956   6.171
 4222SOL     OW12623   1.027   5.644   6.329
 4222SOL    HW112624   0.969   5.635   6.254
 4222SOL    HW212625   1.004   5.571   6.387
 4223SOL     OW12626   1.435   6.740   6.440
 4223SOL    HW112627   1.364   6.676   6.448
 4223SOL    HW212628   1.450   6.746   6.345
 4224SOL     OW12629   1.463   6.202   6.535
 4224SOL    HW112630   1.399   6.132   6.545
 4224SOL    HW212631   1.519   6.196   6.612
 4225SOL     OW12632   1.828   6.382   5.973
 4225SOL    HW112633   1.888   6.339   6.034
 4225SOL    HW212634   1.814   6.318   5.903
 4226SOL     OW12635   0.493   7.015   5.720
 4226SOL    HW112636   0.409   6.993   5.759
 4226SOL    HW212637   0.499   6.960   5.642
 4227SOL     OW12638   1.708   6.858   6.220
 4227SOL    HW112639   1.801   6.851   6.241
 4227SOL    HW212640   1.684   6.947   6.245
 4228SOL     OW12641   1.394   6.162   5.650
 4228SOL    HW112642   1.338   6.135   5.723
 4228SOL    HW212643   1.482   6.137   5.678
 4229SOL     OW12644   0.548   5.840   5.893
 4229SOL    HW112645   0.593   5.792   5.823
 4229SOL    HW212646   0.527   5.925   5.854
 4230SOL     OW12647   1.735   6.830   7.118
 4230SOL    HW112648   1.823   6.796   7.104
 4230SOL    HW212649   1.749   6.918   7.155
 4231SOL     OW12650   1.043   6.942   6.921
 4231SOL    HW112651   0.966   6.907   6.965
 4231SOL    HW212652   1.117   6.895   6.961
 4232SOL     OW12653   1.608   7.221   7.258
 4232SOL    HW112654   1.597   7.257   7.170
 4232SOL    HW212655   1.686   7.165   7.251
 4233SOL     OW12656   1.152   6.823   6.691
 4233SOL    HW112657   1.090   6.858   6.755
 4233SOL    HW212658   1.119   6.855   6.607
 4234SOL     OW12659   1.609   6.677   6.663
 4234SOL    HW112660   1.601   6.744   6.731
 4234SOL    HW212661   1.539   6.698   6.600
 4235SOL     OW12662   0.921   5.667   6.970
 4235SOL    HW112663   0.941   5.652   6.878
 4235SOL    HW212664   1.001   5.707   7.005
 4236SOL     OW12665   0.981   6.702   7.308
 4236SOL    HW112666   0.890   6.717   7.337
 4236SOL    HW212667   0.976   6.621   7.256
 4237SOL     OW12668   0.711   6.648   5.966
 4237SOL    HW112669   0.697   6.623   6.057
 4237SOL    HW212670   0.788   6.597   5.938
 4238SOL     OW12671   0.420   6.421   6.847
 4238SOL    HW112672   0.489   6.432   6.912
 4238SOL    HW212673   0.396   6.328   6.852
 4239SOL     OW12674   1.265   5.953   6.878
 4239SOL    HW112675   1.293   6.034   6.922
 4239SOL    HW212676   1.176   5.972   6.848
 4240SOL     OW12677   0.075   7.168   6.916
 4240SOL    HW112678   0.075   7.247   6.862
 4240SOL    HW212679   0.168   7.150   6.931
 4241SOL     OW12680   0.339   6.699   6.082
 4241SOL    HW112681   0.337   6.787   6.043
 4241SOL    HW212682   0.331   6.640   6.007
 4242SOL     OW12683   0.535   6.103   6.440
 4242SOL    HW112684   0.546   6.166   6.369
 4242SOL    HW212685   0.601   6.128   6.505
 4243SOL     OW12686   1.247   6.939   5.983
 4243SOL    HW112687   1.302   7.009   6.018
 4243SOL    HW212688   1.159   6.961   6.015
 4244SOL     OW12689   1.309   7.055   6.729
 4244SOL    HW112690   1.357   7.061   6.812
 4244SOL    HW212691   1.258   6.974   6.736
 4245SOL     OW12692   1.575   6.203   6.072
 4245SOL    HW112693   1.524   6.245   6.142
 4245SOL    HW212694   1.625   6.275   6.033
 4246SOL     OW12695   0.348   7.119   6.894
 4246SOL    HW112696   0.335   7.075   6.810
 4246SOL    HW212697   0.442   7.135   6.899
 4247SOL     OW12698   0.451   6.321   7.207
 4247SOL    HW112699   0.508   6.364   7.142
 4247SOL    HW212700   0.501   6.243   7.233
 4248SOL     OW12701   1.627   6.372   7.284
 4248SOL    HW112702   1.540   6.411   7.275
 4248SOL    HW212703   1.678   6.410   7.212
 4249SOL     OW12704   0.993   5.729   7.347
 4249SOL    HW112705   1.052   5.802   7.327
 4249SOL    HW212706   1.044   5.651   7.325
 4250SOL     OW12707   0.504   5.619   7.333
 4250SOL    HW112708   0.457   5.567   7.269
 4250SOL    HW212709   0.450   5.697   7.345
 4251SOL     OW12710   0.591   6.460   6.627
 4251SOL    HW112711   0.628   6.548   6.626
 4251SOL    HW212712   0.530   6.460   6.701
 4252SOL     OW12713   1.309   6.439   6.589
 4252SOL    HW112714   1.221   6.411   6.564
 4252SOL    HW212715   1.364   6.363   6.570
 4253SOL     OW12716   1.200   6.110   5.842
 4253SOL    HW112717   1.212   6.033   5.898
 4253SOL    HW212718   1.161   6.176   5.899
 4254SOL     OW12719   0.296   5.782   6.827
 4254SOL    HW112720   0.269   5.812   6.913
 4254SOL    HW212721   0.278   5.688   6.827
 4255SOL     OW12722   0.007   6.905   6.865
 4255SOL    HW112723   0.053   6.858   6.934
 4255SOL    HW212724   0.021   6.998   6.886
 4256SOL     OW12725   0.709   6.207   6.625
 4256SOL    HW112726   0.787   6.202   6.570
 4256SOL    HW212727   0.681   6.298   6.618
 4257SOL     OW12728   1.751   6.554   7.456
 4257SOL    HW112729   1.711   6.481   7.407
 4257SOL    HW212730   1.687   6.574   7.524
 4258SOL     OW12731   0.375   5.675   6.236
 4258SOL    HW112732   0.349   5.755   6.281
 4258SOL    HW212733   0.301   5.616   6.248
 4259SOL     OW12734   1.632   5.976   5.930
 4259SOL    HW112735   1.664   5.911   5.992
 4259SOL    HW212736   1.602   6.049   5.985
 4260SOL     OW12737   1.035   6.343   6.542
 4260SOL    HW112738   1.013   6.358   6.634
 4260SOL    HW212739   1.004   6.254   6.524
 4261SOL     OW12740   0.981   7.150   7.321
 4261SOL    HW112741   0.960   7.194   7.238
 4261SOL    HW212742   1.021   7.067   7.294
 4262SOL     OW12743   1.838   7.081   7.188
 4262SOL    HW112744   1.865   7.109   7.101
 4262SOL    HW212745   1.917   7.092   7.242
 4263SOL     OW12746   0.363   6.504   7.398
 4263SOL    HW112747   0.436   6.529   7.454
 4263SOL    HW212748   0.399   6.438   7.339
 4264SOL     OW12749   1.521   5.856   5.705
 4264SOL    HW112750   1.469   5.784   5.742
 4264SOL    HW212751   1.561   5.899   5.780
 4265SOL     OW12752   1.281   6.408   5.605
 4265SOL    HW112753   1.321   6.321   5.613
 4265SOL    HW212754   1.317   6.444   5.525
 4266SOL     OW12755   1.072   6.939   6.452
 4266SOL    HW112756   1.082   6.866   6.390
 4266SOL    HW212757   1.124   7.010   6.414
 4267SOL     OW12758   0.317   6.390   6.527
 4267SOL    HW112759   0.412   6.405   6.526
 4267SOL    HW212760   0.308   6.299   6.557
 4268SOL     OW12761   0.314   6.112   6.596
 4268SOL    HW112762   0.271   6.027   6.588
 4268SOL    HW212763   0.389   6.107   6.536
 4269SOL     OW12764   1.138   5.954   7.272
 4269SOL    HW112765   1.093   6.006   7.338
 4269SOL    HW212766   1.223   5.996   7.262
 4270SOL     OW12767   1.157   5.775   7.061
 4270SOL    HW112768   1.146   5.838   7.132
 4270SOL    HW212769   1.204   5.825   6.993
 4271SOL     OW12770   9.968   6.919   5.807
 4271SOL    HW112771   9.918   6.908   5.726
 4271SOL    HW212772   9.989   6.830   5.835
 4272SOL     OW12773   0.080   7.271   6.534
 4272SOL    HW112774   0.114   7.187   6.503
 4272SOL    HW212775   0.152   7.332   6.521
 4273SOL     OW12776   0.497   7.162   6.493
 4273SOL    HW112777   0.565   7.229   6.505
 4273SOL    HW212778   0.536   7.099   6.433
 4274SOL     OW12779   0.949   6.366   6.799
 4274SOL    HW112780   1.010   6.354   6.872
 4274SOL    HW212781   0.869   6.320   6.828
 4275SOL     OW12782   0.040   6.152   6.671
 4275SOL    HW112783   0.133   6.154   6.648
 4275SOL    HW212784   0.039   6.157   6.767
 4276SOL     OW12785   0.171   6.101   7.285
 4276SOL    HW112786   0.226   6.049   7.226
 4276SOL    HW212787   0.160   6.185   7.239
 4277SOL     OW12788   1.392   6.507   7.238
 4277SOL    HW112789   1.409   6.601   7.232
 4277SOL    HW212790   1.384   6.479   7.146
 4278SOL     OW12791   0.829   6.153   5.962
 4278SOL    HW112792   0.832   6.080   5.899
 4278SOL    HW212793   0.757   6.208   5.930
 4279SOL     OW12794   1.635   6.187   6.749
 4279SOL    HW112795   1.626   6.128   6.823
 4279SOL    HW212796   1.727   6.176   6.721
 4280SOL     OW12797   0.258   7.146   7.310
 4280SOL    HW112798   0.264   7.183   7.398
 4280SOL    HW212799   0.265   7.051   7.323
 4281SOL     OW12800   0.737   6.020   6.821
 4281SOL    HW112801   0.673   5.950   6.808
 4281SOL    HW212802   0.717   6.083   6.752
 4282SOL     OW12803   0.904   7.266   7.076
 4282SOL    HW112804   0.881   7.218   6.997
 4282SOL    HW212805   0.908   7.358   7.049
 4283SOL     OW12806   0.518   6.074   5.756
 4283SOL    HW112807   0.566   6.150   5.789
 4283SOL    HW212808   0.438   6.111   5.719
 4284SOL     OW12809   0.156   6.740   7.028
 4284SOL    HW112810   0.149   6.699   7.114
 4284SOL    HW212811   0.165   6.668   6.967
 4285SOL     OW12812   1.304   6.620   6.795
 4285SOL    HW112813   1.313   6.556   6.724
 4285SOL    HW212814   1.250   6.690   6.757
 4286SOL     OW12815   1.323   6.447   5.877
 4286SOL    HW112816   1.253   6.410   5.931
 4286SOL    HW212817   1.296   6.431   5.787
 4287SOL     OW12818   1.788   7.310   6.757
 4287SOL    HW112819   1.849   7.336   6.689
 4287SOL    HW212820   1.755   7.224   6.729
 4288SOL     OW12821   1.241   7.320   6.678
 4288SOL    HW112822   1.325   7.350   6.643
 4288SOL    HW212823   1.255   7.229   6.702
 4289SOL     OW12824   0.101   6.760   6.638
 4289SOL    HW112825   0.104   6.820   6.713
 4289SOL    HW212826   0.008   6.756   6.614
 4290SOL     OW12827   0.692   7.269   7.334
 4290SOL    HW112828   0.632   7.342   7.321
 4290SOL    HW212829   0.767   7.288   7.278
 4291SOL     OW12830   1.745   5.770   6.082
 4291SOL    HW112831   1.804   5.750   6.009
 4291SOL    HW212832   1.718   5.685   6.116
 4292SOL     OW12833   1.397   7.155   6.089
 4292SOL    HW112834   1.452   7.190   6.019
 4292SOL    HW212835   1.342   7.229   6.115
 4293SOL     OW12836   0.113   7.383   7.442
 4293SOL    HW112837   0.074   7.329   7.511
 4293SOL    HW212838   0.186   7.428   7.485
 4294SOL     OW12839   1.280   6.523   6.251
 4294SOL    HW112840   1.353   6.463   6.264
 4294SOL    HW212841   1.315   6.594   6.198
 4295SOL     OW12842   0.784   6.867   6.997
 4295SOL    HW112843   0.760   6.915   7.077
 4295SOL    HW212844   0.709   6.879   6.939
 4296SOL     OW12845   0.673   7.219   5.745
 4296SOL    HW112846   0.689   7.234   5.651
 4296SOL    HW212847   0.617   7.141   5.747
 4297SOL     OW12848   1.616   7.316   6.988
 4297SOL    HW112849   1.673   7.316   6.911
 4297SOL    HW212850   1.600   7.408   7.006
 4298SOL     OW12851   1.845   5.746   6.551
 4298SOL    HW112852   1.873   5.657   6.530
 4298SOL    HW212853   1.757   5.753   6.513
 4299SOL     OW12854   0.276   5.912   6.324
 4299SOL    HW112855   0.198   5.955   6.289
 4299SOL    HW212856   0.256   5.896   6.416
 4300SOL     OW12857   1.211   7.174   5.622
 4300SOL    HW112858   1.201   7.083   5.650
 4300SOL    HW212859   1.141   7.188   5.558
 4301SOL     OW12860   0.826   6.599   6.968
 4301SOL    HW112861   0.862   6.590   6.880
 4301SOL    HW212862   0.814   6.693   6.980
 4302SOL     OW12863   0.920   6.500   5.888
 4302SOL    HW112864   0.973   6.528   5.813
 4302SOL    HW212865   0.974   6.432   5.930
 4303SOL     OW12866   1.484   7.232   5.644
 4303SOL    HW112867   1.392   7.212   5.627
 4303SOL    HW212868   1.525   7.235   5.557
 4304SOL     OW12869   0.372   6.906   7.081
 4304SOL    HW112870   0.362   6.982   7.023
 4304SOL    HW212871   0.298   6.849   7.058
 4305SOL     OW12872   1.599   6.876   6.863
 4305SOL    HW112873   1.653   6.851   6.937
 4305SOL    HW212874   1.540   6.943   6.897
 4306SOL     OW12875   1.077   6.706   6.314
 4306SOL    HW112876   1.002   6.656   6.346
 4306SOL    HW212877   1.139   6.639   6.285
 4307SOL     OW12878   1.033   5.835   6.547
 4307SOL    HW112879   1.033   5.792   6.462
 4307SOL    HW212880   1.026   5.763   6.610
 4308SOL     OW12881   0.605   7.072   6.069
 4308SOL    HW112882   0.657   7.025   6.004
 4308SOL    HW212883   0.517   7.076   6.032
 4309SOL     OW12884   1.746   5.968   6.975
 4309SOL    HW112885   1.816   6.032   6.970
 4309SOL    HW212886   1.772   5.899   6.914
 4310SOL     OW12887   0.243   6.947   5.827
 4310SOL    HW112888   0.148   6.934   5.829
 4310SOL    HW212889   0.267   6.966   5.918
 4311SOL     OW12890   0.141   6.596   7.260
 4311SOL    HW112891   0.075   6.616   7.326
 4311SOL    HW212892   0.222   6.584   7.310
 4312SOL     OW12893   0.685   5.778   7.083
 4312SOL    HW112894   0.769   5.752   7.045
 4312SOL    HW212895   0.707   5.809   7.170
 4313SOL     OW12896   0.073   5.900   5.579
 4313SOL    HW112897   9.979   5.888   5.585
 4313SOL    HW212898   0.084   5.977   5.523
 4314SOL     OW12899   1.415   6.440   6.974
 4314SOL    HW112900   1.362   6.498   6.919
 4314SOL    HW212901   1.503   6.444   6.937
 4315SOL     OW12902   0.060   5.657   5.849
 4315SOL    HW112903   0.077   5.710   5.927
 4315SOL    HW212904   0.147   5.639   5.813
 4316SOL     OW12905   1.181   6.908   5.708
 4316SOL    HW112906   1.089   6.884   5.707
 4316SOL    HW212907   1.204   6.911   5.801
 4317SOL     OW12908   0.628   6.418   7.022
 4317SOL    HW112909   0.687   6.492   7.010
 4317SOL    HW212910   0.686   6.341   7.021
 4318SOL     OW12911   1.487   7.389   6.578
 4318SOL    HW112912   1.513   7.463   6.524
 4318SOL    HW212913   1.569   7.344   6.599
 4319SOL     OW12914   0.711   6.140   7.278
 4319SOL    HW112915   0.762   6.193   7.339
 4319SOL    HW212916   0.724   6.050   7.308
 4320SOL     OW12917   1.469   6.770   7.205
 4320SOL    HW112918   1.462   6.793   7.298
 4320SOL    HW212919   1.558   6.794   7.182
 4321SOL     OW12920   0.365   7.341   7.148
 4321SOL    HW112921   0.282   7.385   7.131
 4321SOL    HW212922   0.341   7.258   7.189
 4322SOL     OW12923   1.655   6.461   6.839
 4322SOL    HW112924   1.653   6.377   6.792
 4322SOL    HW212925   1.643   6.527   6.770
 4323SOL     OW12926   1.226   5.911   6.041
 4323SOL    HW112927   1.285   5.836   6.040
 4323SOL    HW212928   1.254   5.963   6.116
 4324SOL     OW12929   0.569   6.315   6.265
 4324SOL    HW112930   0.617   6.397   6.256
 4324SOL    HW212931   0.511   6.312   6.189
 4325SOL     OW12932   1.747   5.941   7.251
 4325SOL    HW112933   1.744   5.957   7.156
 4325SOL    HW212934   1.670   5.888   7.269
 4326SOL     OW12935   1.760   6.510   7.090
 4326SOL    HW112936   1.743   6.604   7.102
 4326SOL    HW212937   1.733   6.493   6.999
 4327SOL     OW12938   0.875   6.943   5.651
 4327SOL    HW112939   0.835   6.963   5.735
 4327SOL    HW212940   0.883   7.028   5.608
 4328SOL     OW12941   0.674   7.363   6.504
 4328SOL    HW112942   0.649   7.455   6.497
 4328SOL    HW212943   0.769   7.363   6.505
 4329SOL     OW12944   0.874   6.563   6.442
 4329SOL    HW112945   0.924   6.489   6.479
 4329SOL    HW212946   0.829   6.600   6.518
 4330SOL     OW12947   1.062   6.558   5.668
 4330SOL    HW112948   1.047   6.618   5.595
 4330SOL    HW212949   1.141   6.509   5.642
 4331SOL     OW12950   1.830   7.144   6.425
 4331SOL    HW112951   1.754   7.136   6.369
 4331SOL    HW212952   1.809   7.091   6.502
 4332SOL     OW12953   0.239   6.887   7.425
 4332SOL    HW112954   0.148   6.891   7.396
 4332SOL    HW212955   0.234   6.897   7.520
 4333SOL     OW12956   0.154   6.809   6.257
 4333SOL    HW112957   0.085   6.756   6.296
 4333SOL    HW212958   0.210   6.746   6.211
 4334SOL     OW12959   0.699   7.005   7.218
 4334SOL    HW112960   0.621   6.964   7.257
 4334SOL    HW212961   0.700   7.093   7.256
 4335SOL     OW12962   1.810   5.757   6.821
 4335SOL    HW112963   1.812   5.662   6.834
 4335SOL    HW212964   1.824   5.769   6.727
 4336SOL     OW12965   0.433   6.029   6.106
 4336SOL    HW112966   0.494   5.962   6.073
 4336SOL    HW212967   0.410   5.999   6.194
 4337SOL     OW12968   1.695   7.067   6.668
 4337SOL    HW112969   1.617   7.047   6.616
 4337SOL    HW212970   1.696   6.999   6.735
 4338SOL     OW12971   0.365   6.156   6.870
 4338SOL    HW112972   0.414   6.093   6.923
 4338SOL    HW212973   0.368   6.121   6.781
 4339SOL     OW12974   0.844   7.169   6.257
 4339SOL    HW112975   0.815   7.241   6.201
 4339SOL    HW212976   0.766   7.113   6.266
 4340SOL     OW12977   1.421   5.819   6.700
 4340SOL    HW112978   1.430   5.729   6.733
 4340SOL    HW212979   1.376   5.865   6.770
 4341SOL     OW12980   1.011   5.603   6.707
 4341SOL    HW112981   0.957   5.540   6.659
 4341SOL    HW212982   1.098   5.563   6.710
 4342SOL     OW12983   0.776   6.918   5.915
 4342SOL    HW112984   0.754   6.826   5.928
 4342SOL    HW212985   0.856   6.931   5.966
 4343SOL     OW12986   0.618   7.155   6.872
 4343SOL    HW112987   0.615   7.241   6.913
 4343SOL    HW212988   0.707   7.147   6.839
 4344SOL     OW12989   1.383   5.625   5.777
 4344SOL    HW112990   1.423   5.552   5.730
 4344SOL    HW212991   1.291   5.598   5.788
 4345SOL     OW12992   1.299   6.058   6.261
 4345SOL    HW112993   1.248   6.139   6.259
 4345SOL    HW212994   1.292   6.028   6.352
 4346SOL     OW12995   1.582   5.774   6.479
 4346SOL    HW112996   1.530   5.803   6.553
 4346SOL    HW212997   1.583   5.848   6.418
 4347SOL     OW12998   0.068   6.677   5.884
 4347SOL    HW112999   0.143   6.624   5.856
 4347SOL    HW213000   0.030   6.629   5.957
 4348SOL     OW13001   0.902   7.257   5.913
 4348SOL    HW113002   0.822   7.244   5.863
 4348SOL    HW213003   0.880   7.325   5.976
 4349SOL     OW13004   0.287   6.180   7.528
 4349SOL    HW113005   0.220   6.199   7.594
 4349SOL    HW213006   0.237   6.160   7.449
 4350SOL     OW13007   0.198   5.867   8.446
 4350SOL    HW113008   0.234   5.830   8.526
 4350SOL    HW213009   0.105   5.842   8.447
 4351SOL     OW13010   0.040   6.011   8.075
 4351SOL    HW113011   9.947   6.022   8.091
 4351SOL    HW213012   0.045   5.946   8.004
 4352SOL     OW13013   0.569   6.894   8.650
 4352SOL    HW113014   0.486   6.897   8.603
 4352SOL    HW213015   0.586   6.986   8.673
 4353SOL     OW13016   1.588   7.110   8.153
 4353SOL    HW113017   1.541   7.079   8.230
 4353SOL    HW213018   1.522   7.113   8.084
 4354SOL     OW13019   1.138   6.291   8.136
 4354SOL    HW113020   1.185   6.374   8.124
 4354SOL    HW213021   1.090   6.302   8.218
 4355SOL     OW13022   1.801   6.167   7.668
 4355SOL    HW113023   1.762   6.167   7.580
 4355SOL    HW213024   1.757   6.095   7.713
 4356SOL     OW13025   0.727   6.716   8.505
 4356SOL    HW113026   0.665   6.756   8.566
 4356SOL    HW213027   0.770   6.790   8.462
 4357SOL     OW13028   0.888   6.334   9.273
 4357SOL    HW113029   0.909   6.401   9.338
 4357SOL    HW213030   0.901   6.377   9.188
 4358SOL     OW13031   0.687   6.569   8.096
 4358SOL    HW113032   0.757   6.568   8.161
 4358SOL    HW213033   0.623   6.632   8.130
 4359SOL     OW13034   0.715   6.737   9.275
 4359SOL    HW113035   0.767   6.810   9.309
 4359SOL    HW213036   0.639   6.778   9.234
 4360SOL     OW13037   0.334   7.011   8.511
 4360SOL    HW113038   0.258   6.995   8.456
 4360SOL    HW213039   0.393   7.064   8.457
 4361SOL     OW13040   1.454   7.093   8.819
 4361SOL    HW113041   1.509   7.170   8.830
 4361SOL    HW213042   1.383   7.104   8.882
 4362SOL     OW13043   0.470   5.966   8.904
 4362SOL    HW113044   0.546   5.908   8.917
 4362SOL    HW213045   0.395   5.913   8.930
 4363SOL     OW13046   1.585   6.018   8.203
 4363SOL    HW113047   1.519   6.029   8.135
 4363SOL    HW213048   1.567   6.088   8.265
 4364SOL     OW13049   0.222   7.246   7.874
 4364SOL    HW113050   0.183   7.313   7.931
 4364SOL    HW213051   0.304   7.285   7.845
 4365SOL     OW13052   1.135   6.928   9.141
 4365SOL    HW113053   1.179   6.918   9.226
 4365SOL    HW213054   1.083   6.848   9.132
 4366SOL     OW13055   0.287   6.990   7.950
 4366SOL    HW113056   0.256   7.080   7.946
 4366SOL    HW213057   0.232   6.949   8.017
 4367SOL     OW13058   0.308   6.666   8.353
 4367SOL    HW113059   0.301   6.573   8.371
 4367SOL    HW213060   0.237   6.706   8.404
 4368SOL     OW13061   0.581   7.400   8.853
 4368SOL    HW113062   0.505   7.377   8.907
 4368SOL    HW213063   0.616   7.479   8.893
 4369SOL     OW13064   0.570   6.574   7.601
 4369SOL    HW113065   0.622   6.616   7.532
 4369SOL    HW213066   0.608   6.608   7.683
 4370SOL     OW13067   1.589   5.720   8.904
 4370SOL    HW113068   1.629   5.796   8.862
 4370SOL    HW213069   1.558   5.752   8.988
 4371SOL     OW13070   0.147   6.261   8.021
 4371SOL    HW113071   0.112   6.176   8.047
 4371SOL    HW213072   0.124   6.319   8.093
 4372SOL     OW13073   1.846   7.329   7.766
 4372SOL    HW113074   1.919   7.314   7.827
 4372SOL    HW213075   1.853   7.422   7.743
 4373SOL     OW13076   0.029   7.207   7.647
 4373SOL    HW113077   0.011   7.113   7.644
 4373SOL    HW213078   0.087   7.218   7.722
 4374SOL     OW13079   1.698   6.512   8.101
 4374SOL    HW113080   1.780   6.467   8.078
 4374SOL    HW213081   1.677   6.563   8.023
 4375SOL     OW13082   1.657   6.691   7.881
 4375SOL    HW113083   1.741   6.683   7.837
 4375SOL    HW213084   1.671   6.756   7.949
 4376SOL     OW13085   0.176   6.343   9.017
 4376SOL    HW113086   0.271   6.347   9.025
 4376SOL    HW213087   0.146   6.428   9.048
 4377SOL     OW13088   0.627   6.984   8.186
 4377SOL    HW113089   0.584   6.899   8.192
 4377SOL    HW213090   0.610   7.013   8.096
 4378SOL     OW13091   1.271   6.812   8.865
 4378SOL    HW113092   1.300   6.743   8.806
 4378SOL    HW213093   1.333   6.807   8.939
 4379SOL     OW13094   0.854   5.593   7.968
 4379SOL    HW113095   0.893   5.675   7.939
 4379SOL    HW213096   0.759   5.610   7.968
 4380SOL     OW13097   0.162   6.521   8.719
 4380SOL    HW113098   0.251   6.488   8.711
 4380SOL    HW213099   0.133   6.536   8.630
 4381SOL     OW13100   1.534   6.601   7.648
 4381SOL    HW113101   1.465   6.542   7.678
 4381SOL    HW213102   1.576   6.631   7.728
 4382SOL     OW13103   1.171   7.409   9.085
 4382SOL    HW113104   1.176   7.472   9.012
 4382SOL    HW213105   1.191   7.325   9.044
 4383SOL     OW13106   0.355   5.828   9.269
 4383SOL    HW113107   0.389   5.916   9.283
 4383SOL    HW213108   0.260   5.839   9.268
 4384SOL     OW13109   1.471   7.004   8.378
 4384SOL    HW113110   1.408   7.023   8.448
 4384SOL    HW213111   1.454   6.913   8.354
 4385SOL     OW13112   1.637   7.382   8.010
 4385SOL    HW113113   1.620   7.335   7.928
 4385SOL    HW213114   1.637   7.314   8.077
 4386SOL     OW13115   0.616   6.306   7.730
 4386SOL    HW113116   0.620   6.390   7.685
 4386SOL    HW213117   0.545   6.315   7.793
 4387SOL     OW13118   1.282   5.979   8.389
 4387SOL    HW113119   1.193   5.944   8.394
 4387SOL    HW213120   1.334   5.921   8.444
 4388SOL     OW13121   1.579   7.259   7.767
 4388SOL    HW113122   1.673   7.273   7.756
 4388SOL    HW213123   1.546   7.246   7.678
 4389SOL     OW13124   0.786   6.199   8.884
 4389SOL    HW113125   0.759   6.171   8.972
 4389SOL    HW213126   0.763   6.126   8.827
 4390SOL     OW13127   1.391   6.060   9.118
 4390SOL    HW113128   1.396   6.105   9.203
 4390SOL    HW213129   1.441   5.980   9.130
 4391SOL     OW13130   0.944   6.467   9.036
 4391SOL    HW113131   1.000   6.403   8.992
 4391SOL    HW213132   0.897   6.510   8.965
 4392SOL     OW13133   1.008   5.984   8.658
 4392SOL    HW113134   0.916   5.997   8.680
 4392SOL    HW213135   1.006   5.940   8.573
 4393SOL     OW13136   1.065   6.286   7.867
 4393SOL    HW113137   1.085   6.283   7.961
 4393SOL    HW213138   0.982   6.240   7.860
 4394SOL     OW13139   0.074   6.423   8.251
 4394SOL    HW113140   0.159   6.414   8.294
 4394SOL    HW213141   0.015   6.455   8.320
 4395SOL     OW13142   0.113   7.452   9.035
 4395SOL    HW113143   0.106   7.448   9.131
 4395SOL    HW213144   0.061   7.378   9.004
 4396SOL     OW13145   0.897   5.934   7.647
 4396SOL    HW113146   0.944   5.991   7.586
 4396SOL    HW213147   0.879   5.855   7.597
 4397SOL     OW13148   1.681   6.146   9.285
 4397SOL    HW113149   1.662   6.226   9.234
 4397SOL    HW213150   1.711   6.083   9.219
 4398SOL     OW13151   1.393   6.735   7.991
 4398SOL    HW113152   1.473   6.724   7.939
 4398SOL    HW213153   1.340   6.796   7.939
 4399SOL     OW13154   0.564   5.758   8.362
 4399SOL    HW113155   0.567   5.784   8.454
 4399SOL    HW213156   0.556   5.841   8.314
 4400SOL     OW13157   0.996   7.037   7.913
 4400SOL    HW113158   0.974   7.112   7.858
 4400SOL    HW213159   0.967   7.062   8.001
 4401SOL     OW13160   0.339   7.389   8.397
 4401SOL    HW113161   0.387   7.310   8.373
 4401SOL    HW213162   0.395   7.461   8.367
 4402SOL     OW13163   1.804   6.630   8.338
 4402SOL    HW113164   1.756   6.615   8.256
 4402SOL    HW213165   1.735   6.639   8.404
 4403SOL     OW13166   1.217   7.130   8.964
 4403SOL    HW113167   1.207   7.059   9.027
 4403SOL    HW213168   1.152   7.112   8.896
 4404SOL     OW13169   0.315   6.526   7.726
 4404SOL    HW113170   0.392   6.541   7.671
 4404SOL    HW213171   0.328   6.438   7.762
 4405SOL     OW13172   1.484   6.349   8.159
 4405SOL    HW113173   1.487   6.306   8.244
 4405SOL    HW213174   1.564   6.403   8.157
 4406SOL     OW13175   0.476   6.866   9.191
 4406SOL    HW113176   0.452   6.873   9.099
 4406SOL    HW213177   0.393   6.855   9.237
 4407SOL     OW13178   1.142   7.362   7.671
 4407SOL    HW113179   1.061   7.330   7.711
 4407SOL    HW213180   1.163   7.298   7.604
 4408SOL     OW13181   0.217   5.850   8.946
 4408SOL    HW113182   0.131   5.889   8.931
 4408SOL    HW213183   0.200   5.771   8.997
 4409SOL     OW13184   1.638   6.974   7.549
 4409SOL    HW113185   1.598   7.060   7.535
 4409SOL    HW213186   1.571   6.912   7.522
 4410SOL     OW13187   0.471   7.334   7.768
 4410SOL    HW113188   0.520   7.382   7.835
 4410SOL    HW213189   0.539   7.290   7.716
 4411SOL     OW13190   1.399   5.691   7.907
 4411SOL    HW113191   1.398   5.667   7.814
 4411SOL    HW213192   1.489   5.678   7.935
 4412SOL     OW13193   0.261   7.375   8.665
 4412SOL    HW113194   0.304   7.297   8.699
 4412SOL    HW213195   0.279   7.374   8.571
 4413SOL     OW13196   0.954   7.289   8.340
 4413SOL    HW113197   1.038   7.246   8.354
 4413SOL    HW213198   0.912   7.237   8.270
 4414SOL     OW13199   0.395   6.289   7.901
 4414SOL    HW113200   0.414   6.196   7.910
 4414SOL    HW213201   0.309   6.299   7.943
 4415SOL     OW13202   1.509   5.807   9.163
 4415SOL    HW113203   1.521   5.828   9.255
 4415SOL    HW213204   1.447   5.734   9.163
 4416SOL     OW13205   0.658   5.689   7.548
 4416SOL    HW113206   0.708   5.611   7.571
 4416SOL    HW213207   0.599   5.661   7.478
 4417SOL     OW13208   0.755   5.864   9.205
 4417SOL    HW113209   0.840   5.820   9.205
 4417SOL    HW213210   0.711   5.831   9.284
 4418SOL     OW13211   0.870   7.112   8.647
 4418SOL    HW113212   0.853   7.071   8.562
 4418SOL    HW213213   0.938   7.057   8.687
 4419SOL     OW13214   1.330   6.179   8.879
 4419SOL    HW113215   1.363   6.147   8.964
 4419SOL    HW213216   1.369   6.265   8.869
 4420SOL     OW13217   0.819   6.962   8.406
 4420SOL    HW113218   0.906   6.958   8.366
 4420SOL    HW213219   0.759   6.978   8.333
 4421SOL     OW13220   0.929   6.100   8.336
 4421SOL    HW113221   0.904   6.088   8.245
 4421SOL    HW213222   0.957   6.013   8.366
 4422SOL     OW13223   0.591   5.646   7.942
 4422SOL    HW113224   0.521   5.651   8.008
 4422SOL    HW213225   0.575   5.720   7.885
 4423SOL     OW13226   1.434   6.799   7.480
 4423SOL    HW113227   1.463   6.725   7.533
 4423SOL    HW213228   1.349   6.822   7.517
 4424SOL     OW13229   0.309   5.626   7.609
 4424SOL    HW113230   0.340   5.716   7.623
 4424SOL    HW213231   0.370   5.572   7.659
 4425SOL     OW13232   0.959   5.837   7.898
 4425SOL    HW113233   0.932   5.871   7.813
 4425SOL    HW213234   1.053   5.856   7.903
 4426SOL     OW13235   1.075   6.278   8.891
 4426SOL    HW113236   1.014   6.205   8.898
 4426SOL    HW213237   1.161   6.237   8.888
 4427SOL     OW13238   1.209   7.172   8.251
 4427SOL    HW113239   1.223   7.233   8.178
 4427SOL    HW213240   1.283   7.187   8.309
 4428SOL     OW13241   0.490   6.745   8.170
 4428SOL    HW113242   0.430   6.723   8.241
 4428SOL    HW213243   0.440   6.729   8.090
 4429SOL     OW13244   1.254   7.377   8.065
 4429SOL    HW113245   1.302   7.440   8.012
 4429SOL    HW213246   1.184   7.429   8.105
 4430SOL     OW13247   1.032   6.103   7.477
 4430SOL    HW113248   0.989   6.186   7.457
 4430SOL    HW213249   1.096   6.124   7.545
 4431SOL     OW13250   0.108   6.165   8.813
 4431SOL    HW113251   0.198   6.159   8.783
 4431SOL    HW213252   0.111   6.227   8.886
 4432SOL     OW13253   0.564   5.807   8.633
 4432SOL    HW113254   0.598   5.734   8.684
 4432SOL    HW213255   0.470   5.807   8.651
 4433SOL     OW13256   0.870   6.036   8.078
 4433SOL    HW113257   0.839   6.093   8.008
 4433SOL    HW213258   0.898   5.956   8.033
 4434SOL     OW13259   1.027   5.644   8.191
 4434SOL    HW113260   0.969   5.635   8.116
 4434SOL    HW213261   1.004   5.572   8.249
 4435SOL     OW13262   1.435   6.740   8.302
 4435SOL    HW113263   1.365   6.675   8.310
 4435SOL    HW213264   1.451   6.747   8.208
 4436SOL     OW13265   1.463   6.202   8.397
 4436SOL    HW113266   1.399   6.132   8.407
 4436SOL    HW213267   1.519   6.196   8.474
 4437SOL     OW13268   1.828   6.382   7.835
 4437SOL    HW113269   1.888   6.339   7.896
 4437SOL    HW213270   1.814   6.318   7.765
 4438SOL     OW13271   0.493   7.016   7.582
 4438SOL    HW113272   0.409   6.993   7.621
 4438SOL    HW213273   0.499   6.960   7.504
 4439SOL     OW13274   1.707   6.857   8.082
 4439SOL    HW113275   1.801   6.850   8.103
 4439SOL    HW213276   1.684   6.947   8.107
 4440SOL     OW13277   1.394   6.162   7.512
 4440SOL    HW113278   1.338   6.135   7.585
 4440SOL    HW213279   1.482   6.138   7.539
 4441SOL     OW13280   0.547   5.839   7.756
 4441SOL    HW113281   0.592   5.791   7.687
 4441SOL    HW213282   0.527   5.924   7.717
 4442SOL     OW13283   1.735   6.830   8.980
 4442SOL    HW113284   1.823   6.795   8.966
 4442SOL    HW213285   1.748   6.917   9.017
 4443SOL     OW13286   1.044   6.942   8.784
 4443SOL    HW113287   0.966   6.907   8.828
 4443SOL    HW213288   1.117   6.896   8.824
 4444SOL     OW13289   1.607   7.221   9.112
 4444SOL    HW113290   1.599   7.257   9.024
 4444SOL    HW213291   1.685   7.165   9.108
 4445SOL     OW13292   1.151   6.823   8.553
 4445SOL    HW113293   1.089   6.858   8.618
 4445SOL    HW213294   1.119   6.855   8.469
 4446SOL     OW13295   1.609   6.677   8.525
 4446SOL    HW113296   1.602   6.744   8.594
 4446SOL    HW213297   1.540   6.699   8.463
 4447SOL     OW13298   0.919   5.668   8.832
 4447SOL    HW113299   0.939   5.652   8.739
 4447SOL    HW213300   0.999   5.708   8.867
 4448SOL     OW13301   0.981   6.701   9.169
 4448SOL    HW113302   0.891   6.717   9.196
 4448SOL    HW213303   0.977   6.620   9.118
 4449SOL     OW13304   0.711   6.648   7.828
 4449SOL    HW113305   0.697   6.623   7.919
 4449SOL    HW213306   0.788   6.597   7.800
 4450SOL     OW13307   0.420   6.420   8.708
 4450SOL    HW113308   0.489   6.433   8.774
 4450SOL    HW213309   0.397   6.327   8.715
 4451SOL     OW13310   1.264   5.954   8.740
 4451SOL    HW113311   1.292   6.035   8.783
 4451SOL    HW213312   1.175   5.972   8.710
 4452SOL     OW13313   0.076   7.166   8.777
 4452SOL    HW113314   0.075   7.244   8.721
 4452SOL    HW213315   0.169   7.149   8.792
 4453SOL     OW13316   0.339   6.700   7.943
 4453SOL    HW113317   0.338   6.787   7.904
 4453SOL    HW213318   0.331   6.640   7.869
 4454SOL     OW13319   0.535   6.103   8.302
 4454SOL    HW113320   0.545   6.167   8.232
 4454SOL    HW213321   0.601   6.128   8.367
 4455SOL     OW13322   1.247   6.939   7.845
 4455SOL    HW113323   1.302   7.009   7.880
 4455SOL    HW213324   1.159   6.961   7.877
 4456SOL     OW13325   1.309   7.055   8.590
 4456SOL    HW113326   1.357   7.062   8.673
 4456SOL    HW213327   1.258   6.974   8.599
 4457SOL     OW13328   1.575   6.203   7.935
 4457SOL    HW113329   1.524   6.245   8.004
 4457SOL    HW213330   1.625   6.274   7.895
 4458SOL     OW13331   0.348   7.117   8.758
 4458SOL    HW113332   0.336   7.074   8.673
 4458SOL    HW213333   0.443   7.133   8.762
 4459SOL     OW13334   0.451   6.332   9.074
 4459SOL    HW113335   0.506   6.373   9.008
 4459SOL    HW213336   0.499   6.254   9.101
 4460SOL     OW13337   1.626   6.374   9.148
 4460SOL    HW113338   1.539   6.412   9.139
 4460SOL    HW213339   1.677   6.412   9.077
 4461SOL     OW13340   0.993   5.732   9.215
 4461SOL    HW113341   1.052   5.804   9.190
 4461SOL    HW213342   1.041   5.653   9.191
 4462SOL     OW13343   0.512   5.616   9.198
 4462SOL    HW113344   0.462   5.566   9.133
 4462SOL    HW213345   0.459   5.694   9.213
 4463SOL     OW13346   0.592   6.459   8.489
 4463SOL    HW113347   0.629   6.548   8.488
 4463SOL    HW213348   0.531   6.460   8.563
 4464SOL     OW13349   1.309   6.439   8.451
 4464SOL    HW113350   1.221   6.411   8.425
 4464SOL    HW213351   1.364   6.363   8.432
 4465SOL     OW13352   1.200   6.110   7.704
 4465SOL    HW113353   1.212   6.033   7.760
 4465SOL    HW213354   1.161   6.176   7.761
 4466SOL     OW13355   0.296   5.780   8.688
 4466SOL    HW113356   0.269   5.808   8.775
 4466SOL    HW213357   0.280   5.686   8.686
 4467SOL     OW13358   0.008   6.904   8.729
 4467SOL    HW113359   0.053   6.856   8.798
 4467SOL    HW213360   0.021   6.996   8.750
 4468SOL     OW13361   0.709   6.206   8.487
 4468SOL    HW113362   0.788   6.200   8.433
 4468SOL    HW213363   0.682   6.298   8.480
 4469SOL     OW13364   1.755   6.557   9.316
 4469SOL    HW113365   1.710   6.485   9.272
 4469SOL    HW213366   1.698   6.580   9.389
 4470SOL     OW13367   0.373   5.672   8.100
 4470SOL    HW113368   0.348   5.753   8.144
 4470SOL    HW213369   0.295   5.618   8.103
 4471SOL     OW13370   1.632   5.976   7.792
 4471SOL    HW113371   1.664   5.911   7.854
 4471SOL    HW213372   1.602   6.049   7.847
 4472SOL     OW13373   1.035   6.343   8.403
 4472SOL    HW113374   1.013   6.358   8.495
 4472SOL    HW213375   1.004   6.254   8.386
 4473SOL     OW13376   0.981   7.152   9.180
 4473SOL    HW113377   0.962   7.195   9.097
 4473SOL    HW213378   1.021   7.069   9.155
 4474SOL     OW13379   1.838   7.080   9.048
 4474SOL    HW113380   1.866   7.109   8.961
 4474SOL    HW213381   1.916   7.091   9.102
 4475SOL     OW13382   0.360   6.516   9.265
 4475SOL    HW113383   0.432   6.541   9.322
 4475SOL    HW213384   0.399   6.454   9.203
 4476SOL     OW13385   1.521   5.856   7.567
 4476SOL    HW113386   1.469   5.784   7.604
 4476SOL    HW213387   1.561   5.899   7.642
 4477SOL     OW13388   1.281   6.408   7.467
 4477SOL    HW113389   1.321   6.321   7.475
 4477SOL    HW213390   1.317   6.444   7.387
 4478SOL     OW13391   1.072   6.939   8.314
 4478SOL    HW113392   1.082   6.866   8.252
 4478SOL    HW213393   1.124   7.010   8.277
 4479SOL     OW13394   0.317   6.390   8.389
 4479SOL    HW113395   0.412   6.405   8.387
 4479SOL    HW213396   0.308   6.299   8.419
 4480SOL     OW13397   0.315   6.112   8.460
 4480SOL    HW113398   0.272   6.027   8.451
 4480SOL    HW213399   0.389   6.107   8.400
 4481SOL     OW13400   1.137   5.955   9.133
 4481SOL    HW113401   1.092   6.009   9.199
 4481SOL    HW213402   1.223   5.996   9.123
 4482SOL     OW13403   1.156   5.776   8.923
 4482SOL    HW113404   1.145   5.839   8.994
 4482SOL    HW213405   1.203   5.825   8.855
 4483SOL     OW13406   9.969   6.919   7.668
 4483SOL    HW113407   9.919   6.908   7.587
 4483SOL    HW213408   9.990   6.830   7.696
 4484SOL     OW13409   0.078   7.270   8.397
 4484SOL    HW113410   0.113   7.187   8.365
 4484SOL    HW213411   0.151   7.332   8.387
 4485SOL     OW13412   0.497   7.162   8.356
 4485SOL    HW113413   0.565   7.229   8.368
 4485SOL    HW213414   0.536   7.099   8.295
 4486SOL     OW13415   0.949   6.365   8.661
 4486SOL    HW113416   1.011   6.353   8.733
 4486SOL    HW213417   0.869   6.322   8.690
 4487SOL     OW13418   0.041   6.151   8.536
 4487SOL    HW113419   0.133   6.154   8.513
 4487SOL    HW213420   0.040   6.154   8.632
 4488SOL     OW13421   0.193   6.092   9.126
 4488SOL    HW113422   0.237   6.046   9.054
 4488SOL    HW213423   0.174   6.179   9.091
 4489SOL     OW13424   1.391   6.507   9.099
 4489SOL    HW113425   1.408   6.601   9.094
 4489SOL    HW213426   1.384   6.480   9.008
 4490SOL     OW13427   0.829   6.153   7.824
 4490SOL    HW113428   0.832   6.080   7.761
 4490SOL    HW213429   0.758   6.208   7.792
 4491SOL     OW13430   1.636   6.187   8.611
 4491SOL    HW113431   1.626   6.128   8.685
 4491SOL    HW213432   1.727   6.176   8.583
 4492SOL     OW13433   0.260   7.148   9.180
 4492SOL    HW113434   0.266   7.185   9.268
 4492SOL    HW213435   0.269   7.054   9.193
 4493SOL     OW13436   0.735   6.020   8.685
 4493SOL    HW113437   0.673   5.949   8.670
 4493SOL    HW213438   0.716   6.083   8.615
 4494SOL     OW13439   0.901   7.267   8.938
 4494SOL    HW113440   0.881   7.219   8.858
 4494SOL    HW213441   0.906   7.358   8.910
 4495SOL     OW13442   0.518   6.074   7.620
 4495SOL    HW113443   0.566   6.149   7.652
 4495SOL    HW213444   0.438   6.111   7.582
 4496SOL     OW13445   0.157   6.734   8.888
 4496SOL    HW113446   0.146   6.690   8.972
 4496SOL    HW213447   0.165   6.662   8.825
 4497SOL     OW13448   1.304   6.620   8.656
 4497SOL    HW113449   1.314   6.556   8.585
 4497SOL    HW213450   1.251   6.690   8.619
 4498SOL     OW13451   1.323   6.447   7.739
 4498SOL    HW113452   1.253   6.410   7.793
 4498SOL    HW213453   1.296   6.431   7.649
 4499SOL     OW13454   1.787   7.310   8.617
 4499SOL    HW113455   1.849   7.336   8.549
 4499SOL    HW213456   1.755   7.224   8.590
 4500SOL     OW13457   1.241   7.321   8.541
 4500SOL    HW113458   1.325   7.350   8.506
 4500SOL    HW213459   1.255   7.229   8.564
 4501SOL     OW13460   0.101   6.759   8.502
 4501SOL    HW113461   0.104   6.819   8.576
 4501SOL    HW213462   0.009   6.755   8.477
 4502SOL     OW13463   0.695   7.264   9.199
 4502SOL    HW113464   0.637   7.338   9.185
 4502SOL    HW213465   0.771   7.282   9.144
 4503SOL     OW13466   1.745   5.770   7.944
 4503SOL    HW113467   1.804   5.750   7.872
 4503SOL    HW213468   1.718   5.685   7.978
 4504SOL     OW13469   1.397   7.155   7.951
 4504SOL    HW113470   1.452   7.189   7.881
 4504SOL    HW213471   1.342   7.229   7.977
 4505SOL     OW13472   0.099   7.375   9.311
 4505SOL    HW113473   0.063   7.317   9.377
 4505SOL    HW213474   0.173   7.418   9.354
 4506SOL     OW13475   1.280   6.523   8.113
 4506SOL    HW113476   1.353   6.463   8.126
 4506SOL    HW213477   1.315   6.594   8.060
 4507SOL     OW13478   0.783   6.867   8.859
 4507SOL    HW113479   0.758   6.914   8.938
 4507SOL    HW213480   0.710   6.879   8.799
 4508SOL     OW13481   0.673   7.219   7.606
 4508SOL    HW113482   0.689   7.235   7.513
 4508SOL    HW213483   0.617   7.141   7.608
 4509SOL     OW13484   1.615   7.317   8.846
 4509SOL    HW113485   1.673   7.317   8.769
 4509SOL    HW213486   1.600   7.410   8.864
 4510SOL     OW13487   1.845   5.746   8.412
 4510SOL    HW113488   1.873   5.657   8.391
 4510SOL    HW213489   1.757   5.753   8.374
 4511SOL     OW13490   0.275   5.911   8.185
 4511SOL    HW113491   0.197   5.955   8.151
 4511SOL    HW213492   0.255   5.895   8.278
 4512SOL     OW13493   1.211   7.174   7.484
 4512SOL    HW113494   1.201   7.083   7.512
 4512SOL    HW213495   1.142   7.188   7.420
 4513SOL     OW13496   0.826   6.599   8.829
 4513SOL    HW113497   0.862   6.591   8.741
 4513SOL    HW213498   0.814   6.693   8.841
 4514SOL     OW13499   0.921   6.500   7.750
 4514SOL    HW113500   0.973   6.528   7.675
 4514SOL    HW213501   0.974   6.432   7.793
 4515SOL     OW13502   1.484   7.232   7.506
 4515SOL    HW113503   1.392   7.212   7.489
 4515SOL    HW213504   1.525   7.235   7.419
 4516SOL     OW13505   0.364   6.907   8.950
 4516SOL    HW113506   0.358   6.981   8.889
 4516SOL    HW213507   0.294   6.848   8.922
 4517SOL     OW13508   1.599   6.876   8.725
 4517SOL    HW113509   1.653   6.851   8.800
 4517SOL    HW213510   1.540   6.943   8.759
 4518SOL     OW13511   1.077   6.706   8.177
 4518SOL    HW113512   1.002   6.656   8.208
 4518SOL    HW213513   1.140   6.639   8.147
 4519SOL     OW13514   1.033   5.835   8.410
 4519SOL    HW113515   1.033   5.792   8.324
 4519SOL    HW213516   1.026   5.763   8.472
 4520SOL     OW13517   0.606   7.073   7.932
 4520SOL    HW113518   0.658   7.026   7.866
 4520SOL    HW213519   0.518   7.077   7.894
 4521SOL     OW13520   1.745   5.968   8.835
 4521SOL    HW113521   1.816   6.032   8.832
 4521SOL    HW213522   1.772   5.899   8.775
 4522SOL     OW13523   0.244   6.947   7.690
 4522SOL    HW113524   0.149   6.934   7.692
 4522SOL    HW213525   0.267   6.966   7.781
 4523SOL     OW13526   0.133   6.602   9.130
 4523SOL    HW113527   0.088   6.675   9.172
 4523SOL    HW213528   0.215   6.593   9.179
 4524SOL     OW13529   0.683   5.779   8.946
 4524SOL    HW113530   0.767   5.754   8.907
 4524SOL    HW213531   0.706   5.809   9.034
 4525SOL     OW13532   0.073   5.900   7.440
 4525SOL    HW113533   9.979   5.888   7.445
 4525SOL    HW213534   0.085   5.976   7.384
 4526SOL     OW13535   1.416   6.440   8.836
 4526SOL    HW113536   1.364   6.499   8.781
 4526SOL    HW213537   1.504   6.445   8.798
 4527SOL     OW13538   0.061   5.657   7.712
 4527SOL    HW113539   0.078   5.711   7.789
 4527SOL    HW213540   0.147   5.639   7.675
 4528SOL     OW13541   1.181   6.908   7.570
 4528SOL    HW113542   1.089   6.884   7.569
 4528SOL    HW213543   1.204   6.911   7.663
 4529SOL     OW13544   0.627   6.421   8.885
 4529SOL    HW113545   0.687   6.495   8.872
 4529SOL    HW213546   0.684   6.344   8.884
 4530SOL     OW13547   1.487   7.389   8.440
 4530SOL    HW113548   1.513   7.463   8.386
 4530SOL    HW213549   1.569   7.345   8.462
 4531SOL     OW13550   0.709   6.142   9.142
 4531SOL    HW113551   0.761   6.196   9.202
 4531SOL    HW213552   0.724   6.052   9.172
 4532SOL     OW13553   1.469   6.770   9.069
 4532SOL    HW113554   1.463   6.790   9.163
 4532SOL    HW213555   1.558   6.794   9.045
 4533SOL     OW13556   0.366   7.342   9.014
 4533SOL    HW113557   0.282   7.385   8.998
 4533SOL    HW213558   0.344   7.259   9.056
 4534SOL     OW13559   1.656   6.461   8.701
 4534SOL    HW113560   1.654   6.378   8.654
 4534SOL    HW213561   1.644   6.527   8.633
 4535SOL     OW13562   1.226   5.911   7.903
 4535SOL    HW113563   1.285   5.836   7.902
 4535SOL    HW213564   1.254   5.962   7.979
 4536SOL     OW13565   0.568   6.315   8.128
 4536SOL    HW113566   0.616   6.398   8.118
 4536SOL    HW213567   0.511   6.312   8.051
 4537SOL     OW13568   1.748   5.939   9.111
 4537SOL    HW113569   1.744   5.956   9.016
 4537SOL    HW213570   1.670   5.886   9.128
 4538SOL     OW13571   1.760   6.510   8.953
 4538SOL    HW113572   1.743   6.604   8.966
 4538SOL    HW213573   1.733   6.493   8.862
 4539SOL     OW13574   0.875   6.943   7.512
 4539SOL    HW113575   0.835   6.964   7.597
 4539SOL    HW213576   0.884   7.028   7.469
 4540SOL     OW13577   0.673   7.363   8.367
 4540SOL    HW113578   0.649   7.455   8.359
 4540SOL    HW213579   0.769   7.363   8.367
 4541SOL     OW13580   0.874   6.562   8.304
 4541SOL    HW113581   0.924   6.489   8.340
 4541SOL    HW213582   0.829   6.600   8.380
 4542SOL     OW13583   1.062   6.557   7.529
 4542SOL    HW113584   1.047   6.618   7.457
 4542SOL    HW213585   1.140   6.508   7.504
 4543SOL     OW13586   1.830   7.144   8.287
 4543SOL    HW113587   1.754   7.135   8.231
 4543SOL    HW213588   1.809   7.091   8.364
 4544SOL     OW13589   0.223   6.884   9.286
 4544SOL    HW113590   0.145   6.894   9.232
 4544SOL    HW213591   0.190   6.878   9.376
 4545SOL     OW13592   0.155   6.810   8.119
 4545SOL    HW113593   0.088   6.755   8.160
 4545SOL    HW213594   0.211   6.748   8.071
 4546SOL     OW13595   0.691   7.004   9.078
 4546SOL    HW113596   0.614   6.965   9.119
 4546SOL    HW213597   0.697   7.091   9.117
 4547SOL     OW13598   1.811   5.757   8.682
 4547SOL    HW113599   1.814   5.662   8.695
 4547SOL    HW213600   1.825   5.769   8.588
 4548SOL     OW13601   0.433   6.027   7.968
 4548SOL    HW113602   0.494   5.962   7.936
 4548SOL    HW213603   0.411   5.998   8.057
 4549SOL     OW13604   1.695   7.066   8.530
 4549SOL    HW113605   1.617   7.047   8.478
 4549SOL    HW213606   1.696   6.999   8.597
 4550SOL     OW13607   0.367   6.154   8.735
 4550SOL    HW113608   0.415   6.090   8.788
 4550SOL    HW213609   0.371   6.120   8.646
 4551SOL     OW13610   0.844   7.170   8.119
 4551SOL    HW113611   0.816   7.242   8.063
 4551SOL    HW213612   0.766   7.115   8.127
 4552SOL     OW13613   1.422   5.819   8.563
 4552SOL    HW113614   1.431   5.730   8.596
 4552SOL    HW213615   1.376   5.866   8.633
 4553SOL     OW13616   1.010   5.603   8.569
 4553SOL    HW113617   0.957   5.540   8.520
 4553SOL    HW213618   1.097   5.563   8.572
 4554SOL     OW13619   0.776   6.918   7.777
 4554SOL    HW113620   0.754   6.826   7.790
 4554SOL    HW213621   0.856   6.931   7.828
 4555SOL     OW13622   0.617   7.156   8.733
 4555SOL    HW113623   0.614   7.243   8.773
 4555SOL    HW213624   0.707   7.148   8.701
 4556SOL     OW13625   1.383   5.625   7.640
 4556SOL    HW113626   1.423   5.552   7.592
 4556SOL    HW213627   1.291   5.598   7.650
 4557SOL     OW13628   1.298   6.058   8.123
 4557SOL    HW113629   1.248   6.140   8.121
 4557SOL    HW213630   1.292   6.028   8.214
 4558SOL     OW13631   1.582   5.774   8.341
 4558SOL    HW113632   1.530   5.803   8.415
 4558SOL    HW213633   1.583   5.848   8.281
 4559SOL     OW13634   0.067   6.676   7.744
 4559SOL    HW113635   0.142   6.624   7.717
 4559SOL    HW213636   0.031   6.629   7.818
 4560SOL     OW13637   0.902   7.256   7.775
 4560SOL    HW113638   0.822   7.244   7.724
 4560SOL    HW213639   0.880   7.325   7.838
 4561SOL     OW13640   0.269   6.161   9.380
 4561SOL    HW113641   0.220   6.242   9.397
 4561SOL    HW213642   0.248   6.140   9.289
 4562SOL     OW13643   1.806   6.155   9.520
 4562SOL    HW113644   1.764   6.157   9.434
 4562SOL    HW213645   1.757   6.089   9.570
 4563SOL     OW13646   0.269   7.266   9.801
 4563SOL    HW113647   0.211   7.338   9.826
 4563SOL    HW213648   0.329   7.305   9.737
 4564SOL     OW13649   0.238   7.007   9.854
 4564SOL    HW113650   0.253   7.101   9.846
 4564SOL    HW213651   0.149   7.000   9.887
 4565SOL     OW13652   0.571   6.574   9.452
 4565SOL    HW113653   0.624   6.617   9.384
 4565SOL    HW213654   0.607   6.609   9.534
 4566SOL     OW13655   0.121   6.211   9.918
 4566SOL    HW113656   0.113   6.187   9.825
 4566SOL    HW213657   0.039   6.256   9.938
 4567SOL     OW13658   1.830   7.339   9.642
 4567SOL    HW113659   1.907   7.320   9.695
 4567SOL    HW213660   1.845   7.428   9.609
 4568SOL     OW13661   0.014   7.183   9.496
 4568SOL    HW113662   0.013   7.094   9.461
 4568SOL    HW213663   0.015   7.171   9.591
 4569SOL     OW13664   1.673   6.457   9.919
 4569SOL    HW113665   1.745   6.478   9.978
 4569SOL    HW213666   1.667   6.534   9.862
 4570SOL     OW13667   1.694   6.686   9.757
 4570SOL    HW113668   1.777   6.682   9.709
 4570SOL    HW213669   1.703   6.762   9.814
 4571SOL     OW13670   0.639   6.928   9.999
 4571SOL    HW113671   0.581   6.851   9.997
 4571SOL    HW213672   0.619   6.975   9.919
 4572SOL     OW13673   0.854   5.603   9.829
 4572SOL    HW113674   0.894   5.685   9.800
 4572SOL    HW213675   0.759   5.619   9.824
 4573SOL     OW13676   1.558   6.611   9.520
 4573SOL    HW113677   1.498   6.542   9.547
 4573SOL    HW213678   1.597   6.642   9.602
 4574SOL     OW13679   0.625   6.316   9.595
 4574SOL    HW113680   0.630   6.390   9.535
 4574SOL    HW213681   0.615   6.356   9.681
 4575SOL     OW13682   1.563   7.260   9.627
 4575SOL    HW113683   1.655   7.282   9.634
 4575SOL    HW213684   1.548   7.247   9.533
 4576SOL     OW13685   1.049   6.278   9.736
 4576SOL    HW113686   1.078   6.255   9.825
 4576SOL    HW213687   0.966   6.230   9.725
 4577SOL     OW13688   0.059   6.539   0.070
 4577SOL    HW113689   0.128   6.473   0.078
 4577SOL    HW213690   0.054   6.578   0.158
 4578SOL     OW13691   0.902   5.927   9.500
 4578SOL    HW113692   0.945   5.990   9.442
 4578SOL    HW213693   0.904   5.844   9.451
 4579SOL     OW13694   1.315   6.681   9.793
 4579SOL    HW113695   1.366   6.710   9.869
 4579SOL    HW213696   1.290   6.762   9.749
 4580SOL     OW13697   0.991   7.013   9.784
 4580SOL    HW113698   0.965   7.099   9.751
 4580SOL    HW213699   0.964   7.013   9.875
 4581SOL     OW13700   0.329   7.353   0.180
 4581SOL    HW113701   0.337   7.258   0.170
 4581SOL    HW213702   0.392   7.376   0.248
 4582SOL     OW13703   0.326   6.518   9.608
 4582SOL    HW113704   0.399   6.524   9.546
 4582SOL    HW213705   0.339   6.434   9.652
 4583SOL     OW13706   1.138   7.363   9.540
 4583SOL    HW113707   1.062   7.325   9.584
 4583SOL    HW213708   1.161   7.299   9.472
 4584SOL     OW13709   1.638   6.979   9.403
 4584SOL    HW113710   1.594   7.063   9.391
 4584SOL    HW213711   1.571   6.914   9.380
 4585SOL     OW13712   0.481   7.345   9.624
 4585SOL    HW113713   0.529   7.390   9.694
 4585SOL    HW213714   0.548   7.298   9.575
 4586SOL     OW13715   1.424   5.736   9.738
 4586SOL    HW113716   1.414   5.694   9.653
 4586SOL    HW213717   1.519   5.739   9.752
 4587SOL     OW13718   0.367   6.299   9.783
 4587SOL    HW113719   0.410   6.214   9.792
 4587SOL    HW213720   0.278   6.284   9.815
 4588SOL     OW13721   0.653   5.693   9.419
 4588SOL    HW113722   0.707   5.619   9.445
 4588SOL    HW213723   0.603   5.660   9.343
 4589SOL     OW13724   0.591   5.656   9.808
 4589SOL    HW113725   0.519   5.658   9.871
 4589SOL    HW213726   0.573   5.730   9.749
 4590SOL     OW13727   1.439   6.794   9.345
 4590SOL    HW113728   1.474   6.727   9.403
 4590SOL    HW213729   1.353   6.815   9.381
 4591SOL     OW13730   0.307   5.612   9.458
 4591SOL    HW113731   0.355   5.685   9.421
 4591SOL    HW213732   0.370   5.568   9.515
 4592SOL     OW13733   0.959   5.844   9.756
 4592SOL    HW113734   0.933   5.874   9.669
 4592SOL    HW213735   1.051   5.867   9.763
 4593SOL     OW13736   0.442   6.737   0.034
 4593SOL    HW113737   0.371   6.766   0.092
 4593SOL    HW213738   0.399   6.724   9.949
 4594SOL     OW13739   1.299   7.420   9.899
 4594SOL    HW113740   1.342   7.486   9.845
 4594SOL    HW213741   1.206   7.445   9.899
 4595SOL     OW13742   1.031   6.106   9.337
 4595SOL    HW113743   0.988   6.189   9.318
 4595SOL    HW213744   1.094   6.127   9.406
 4596SOL     OW13745   0.846   6.021   9.939
 4596SOL    HW113746   0.813   6.083   9.874
 4596SOL    HW213747   0.882   5.949   9.888
 4597SOL     OW13748   1.881   6.391   9.637
 4597SOL    HW113749   1.913   6.353   9.718
 4597SOL    HW213750   1.846   6.318   9.587
 4598SOL     OW13751   0.490   7.017   9.457
 4598SOL    HW113752   0.412   6.987   9.505
 4598SOL    HW213753   0.494   6.961   9.380
 4599SOL     OW13754   1.389   6.164   9.370
 4599SOL    HW113755   1.335   6.141   9.445
 4599SOL    HW213756   1.478   6.140   9.396
 4600SOL     OW13757   0.534   5.847   9.625
 4600SOL    HW113758   0.578   5.799   9.556
 4600SOL    HW213759   0.518   5.934   9.587
 4601SOL     OW13760   0.702   6.641   9.685
 4601SOL    HW113761   0.664   6.591   9.758
 4601SOL    HW213762   0.784   6.596   9.665
 4602SOL     OW13763   0.312   6.713   9.797
 4602SOL    HW113764   0.318   6.792   9.743
 4602SOL    HW213765   0.320   6.641   9.734
 4603SOL     OW13766   1.237   6.939   9.690
 4603SOL    HW113767   1.292   7.011   9.721
 4603SOL    HW213768   1.151   6.957   9.727
 4604SOL     OW13769   1.636   6.224   9.789
 4604SOL    HW113770   1.639   6.298   9.850
 4604SOL    HW213771   1.588   6.257   9.713
 4605SOL     OW13772   1.197   6.120   9.564
 4605SOL    HW113773   1.206   6.044   9.622
 4605SOL    HW213774   1.159   6.188   9.619
 4606SOL     OW13775   0.390   5.677   9.983
 4606SOL    HW113776   0.314   5.733   9.970
 4606SOL    HW213777   0.359   5.608   0.042
 4607SOL     OW13778   1.631   5.981   9.655
 4607SOL    HW113779   1.654   5.905   9.709
 4607SOL    HW213780   1.622   6.053   9.718
 4608SOL     OW13781   1.520   5.860   9.425
 4608SOL    HW113782   1.468   5.788   9.460
 4608SOL    HW213783   1.557   5.902   9.503
 4609SOL     OW13784   1.279   6.412   9.331
 4609SOL    HW113785   1.318   6.325   9.338
 4609SOL    HW213786   1.315   6.448   9.250
 4610SOL     OW13787   0.012   6.886   9.483
 4610SOL    HW113788   9.922   6.885   9.453
 4610SOL    HW213789   0.025   6.799   9.522
 4611SOL     OW13790   0.817   6.137   9.682
 4611SOL    HW113791   0.827   6.069   9.616
 4611SOL    HW213792   0.751   6.196   9.647
 4612SOL     OW13793   0.500   6.086   9.503
 4612SOL    HW113794   0.544   6.164   9.536
 4612SOL    HW213795   0.420   6.119   9.461
 4613SOL     OW13796   1.370   6.432   9.606
 4613SOL    HW113797   1.318   6.485   9.668
 4613SOL    HW213798   1.314   6.426   9.528
 4614SOL     OW13799   1.707   5.743   9.771
 4614SOL    HW113800   1.777   5.744   9.707
 4614SOL    HW213801   1.724   5.665   9.824
 4615SOL     OW13802   1.362   7.174   9.792
 4615SOL    HW113803   1.434   7.191   9.731
 4615SOL    HW213804   1.335   7.261   9.822
 4616SOL     OW13805   0.676   7.217   9.472
 4616SOL    HW113806   0.693   7.231   9.379
 4616SOL    HW213807   0.618   7.141   9.474
 4617SOL     OW13808   1.210   7.179   9.347
 4617SOL    HW113809   1.202   7.087   9.372
 4617SOL    HW213810   1.141   7.193   9.283
 4618SOL     OW13811   0.920   6.498   9.620
 4618SOL    HW113812   0.971   6.522   9.543
 4618SOL    HW213813   0.972   6.431   9.664
 4619SOL     OW13814   1.486   7.232   9.360
 4619SOL    HW113815   1.394   7.213   9.344
 4619SOL    HW213816   1.525   7.234   9.272
 4620SOL     OW13817   0.594   7.063   9.768
 4620SOL    HW113818   0.649   7.019   9.703
 4620SOL    HW213819   0.516   7.090   9.720
 4621SOL     OW13820   0.264   6.936   9.597
 4621SOL    HW113821   0.173   6.928   9.569
 4621SOL    HW213822   0.260   6.971   9.686
 4622SOL     OW13823   0.081   5.886   9.272
 4622SOL    HW113824   9.986   5.872   9.270
 4622SOL    HW213825   0.095   5.964   9.219
 4623SOL     OW13826   0.067   5.670   9.570
 4623SOL    HW113827   0.090   5.734   9.638
 4623SOL    HW213828   0.151   5.640   9.536
 4624SOL     OW13829   1.180   6.909   9.422
 4624SOL    HW113830   1.087   6.885   9.421
 4624SOL    HW213831   1.203   6.914   9.515
 4625SOL     OW13832   1.222   5.925   9.767
 4625SOL    HW113833   1.295   5.865   9.760
 4625SOL    HW213834   1.242   5.978   9.845
 4626SOL     OW13835   0.592   6.445   9.856
 4626SOL    HW113836   0.612   6.449   9.950
 4626SOL    HW213837   0.508   6.400   9.850
 4627SOL     OW13838   0.874   6.943   9.367
 4627SOL    HW113839   0.837   6.958   9.453
 4627SOL    HW213840   0.884   7.030   9.329
 4628SOL     OW13841   1.053   6.548   9.390
 4628SOL    HW113842   1.042   6.613   9.321
 4628SOL    HW213843   1.135   6.503   9.369
 4629SOL     OW13844   0.052   6.757   9.888
 4629SOL    HW113845   0.036   6.688   9.952
 4629SOL    HW213846   0.146   6.752   9.871
 4630SOL     OW13847   0.479   6.057   9.848
 4630SOL    HW113848   0.525   5.988   9.801
 4630SOL    HW213849   0.491   6.036   9.941
 4631SOL     OW13850   0.779   6.911   9.628
 4631SOL    HW113851   0.753   6.821   9.647
 4631SOL    HW213852   0.855   6.926   9.684
 4632SOL     OW13853   1.379   5.628   9.491
 4632SOL    HW113854   1.422   5.551   9.454
 4632SOL    HW213855   1.289   5.600   9.506
 4633SOL     OW13856   0.067   6.649   9.599
 4633SOL    HW113857   0.143   6.592   9.592
 4633SOL    HW213858   0.050   6.656   9.693
 4634SOL     OW13859   0.905   7.249   9.660
 4634SOL    HW113860   0.826   7.236   9.607
 4634SOL    HW213861   0.882   7.318   9.722
 4635SOL     OW13862   0.267   8.134   0.137
 4635SOL    HW113863   0.212   8.093   0.204
 4635SOL    HW213864   0.223   8.113   0.054
 4636SOL     OW13865   0.196   7.729   1.000
 4636SOL    HW113866   0.234   7.693   1.080
 4636SOL    HW213867   0.105   7.702   1.002
 4637SOL     OW13868   0.045   7.870   0.636
 4637SOL    HW113869   9.952   7.874   0.659
 4637SOL    HW213870   0.049   7.809   0.563
 4638SOL     OW13871   0.569   8.754   1.202
 4638SOL    HW113872   0.486   8.757   1.153
 4638SOL    HW213873   0.586   8.845   1.227
 4639SOL     OW13874   1.588   8.970   0.706
 4639SOL    HW113875   1.541   8.939   0.784
 4639SOL    HW213876   1.521   8.973   0.638
 4640SOL     OW13877   1.142   8.148   0.687
 4640SOL    HW113878   1.187   8.232   0.678
 4640SOL    HW213879   1.091   8.157   0.767
 4641SOL     OW13880   1.775   8.031   0.200
 4641SOL    HW113881   1.701   8.061   0.148
 4641SOL    HW213882   1.740   7.959   0.252
 4642SOL     OW13883   0.729   8.578   1.060
 4642SOL    HW113884   0.667   8.618   1.120
 4642SOL    HW213885   0.772   8.652   1.016
 4643SOL     OW13886   0.887   8.192   1.825
 4643SOL    HW113887   0.893   8.261   1.892
 4643SOL    HW213888   0.903   8.238   1.743
 4644SOL     OW13889   0.692   8.431   0.647
 4644SOL    HW113890   0.759   8.432   0.715
 4644SOL    HW213891   0.625   8.492   0.679
 4645SOL     OW13892   0.718   8.597   1.836
 4645SOL    HW113893   0.768   8.670   1.870
 4645SOL    HW213894   0.644   8.637   1.790
 4646SOL     OW13895   0.337   8.864   1.061
 4646SOL    HW113896   0.265   8.845   1.002
 4646SOL    HW213897   0.395   8.922   1.010
 4647SOL     OW13898   1.454   8.953   1.372
 4647SOL    HW113899   1.509   9.031   1.385
 4647SOL    HW213900   1.381   8.965   1.433
 4648SOL     OW13901   0.478   7.834   1.450
 4648SOL    HW113902   0.549   7.772   1.467
 4648SOL    HW213903   0.399   7.788   1.481
 4649SOL     OW13904   1.580   7.880   0.753
 4649SOL    HW113905   1.505   7.887   0.694
 4649SOL    HW213906   1.567   7.950   0.817
 4650SOL     OW13907   0.276   9.089   0.468
 4650SOL    HW113908   0.217   9.164   0.479
 4650SOL    HW213909   0.359   9.129   0.443
 4651SOL     OW13910   1.136   8.789   1.695
 4651SOL    HW113911   1.181   8.778   1.779
 4651SOL    HW213912   1.083   8.710   1.686
 4652SOL     OW13913   0.195   8.857   0.561
 4652SOL    HW113914   0.230   8.943   0.537
 4652SOL    HW213915   0.100   8.865   0.547
 4653SOL     OW13916   0.278   8.529   0.875
 4653SOL    HW113917   0.284   8.438   0.904
 4653SOL    HW213918   0.218   8.570   0.937
 4654SOL     OW13919   0.591   9.249   1.419
 4654SOL    HW113920   0.507   9.234   1.462
 4654SOL    HW213921   0.617   9.337   1.447
 4655SOL     OW13922   0.585   8.401   0.160
 4655SOL    HW113923   0.553   8.474   0.108
 4655SOL    HW213924   0.640   8.441   0.227
 4656SOL     OW13925   1.593   7.580   1.460
 4656SOL    HW113926   1.630   7.658   1.417
 4656SOL    HW213927   1.560   7.613   1.544
 4657SOL     OW13928   0.146   8.120   0.582
 4657SOL    HW113929   0.115   8.036   0.614
 4657SOL    HW213930   0.124   8.182   0.652
 4658SOL     OW13931   1.860   9.182   0.307
 4658SOL    HW113932   1.928   9.162   0.371
 4658SOL    HW213933   1.874   9.274   0.285
 4659SOL     OW13934   9.999   9.064   0.202
 4659SOL    HW113935   0.024   8.972   0.202
 4659SOL    HW213936   0.076   9.111   0.171
 4660SOL     OW13937   1.698   8.369   0.663
 4660SOL    HW113938   1.781   8.325   0.644
 4660SOL    HW213939   1.678   8.418   0.584
 4661SOL     OW13940   1.662   8.539   0.442
 4661SOL    HW113941   1.743   8.535   0.392
 4661SOL    HW213942   1.676   8.609   0.506
 4662SOL     OW13943   0.177   8.203   1.569
 4662SOL    HW113944   0.273   8.201   1.574
 4662SOL    HW213945   0.154   8.293   1.590
 4663SOL     OW13946   0.621   8.834   0.761
 4663SOL    HW113947   0.577   8.749   0.759
 4663SOL    HW213948   0.612   8.868   0.671
 4664SOL     OW13949   1.271   8.673   1.417
 4664SOL    HW113950   1.298   8.604   1.357
 4664SOL    HW213951   1.333   8.667   1.490
 4665SOL     OW13952   0.861   7.458   0.526
 4665SOL    HW113953   0.902   7.537   0.493
 4665SOL    HW213954   0.768   7.480   0.534
 4666SOL     OW13955   0.164   8.386   1.275
 4666SOL    HW113956   0.253   8.352   1.267
 4666SOL    HW213957   0.136   8.400   1.185
 4667SOL     OW13958   1.491   8.476   0.234
 4667SOL    HW113959   1.437   8.404   0.266
 4667SOL    HW213960   1.553   8.493   0.306
 4668SOL     OW13961   1.183   9.271   1.636
 4668SOL    HW113962   1.182   9.333   1.562
 4668SOL    HW213963   1.198   9.186   1.595
 4669SOL     OW13964   0.342   7.699   1.786
 4669SOL    HW113965   0.385   7.768   1.837
 4669SOL    HW213966   0.250   7.703   1.813
 4670SOL     OW13967   1.474   8.863   0.932
 4670SOL    HW113968   1.409   8.883   0.999
 4670SOL    HW213969   1.454   8.772   0.907
 4671SOL     OW13970   1.650   9.236   0.566
 4671SOL    HW113971   1.628   9.192   0.484
 4671SOL    HW213972   1.643   9.168   0.633
 4672SOL     OW13973   0.610   8.142   0.283
 4672SOL    HW113974   0.614   8.227   0.238
 4672SOL    HW213975   0.541   8.154   0.349
 4673SOL     OW13976   1.282   7.839   0.941
 4673SOL    HW113977   1.193   7.805   0.947
 4673SOL    HW213978   1.333   7.780   0.997
 4674SOL     OW13979   1.589   9.122   0.324
 4674SOL    HW113980   1.683   9.133   0.310
 4674SOL    HW213981   1.553   9.106   0.237
 4675SOL     OW13982   0.792   8.058   1.437
 4675SOL    HW113983   0.762   8.030   1.523
 4675SOL    HW213984   0.766   7.987   1.378
 4676SOL     OW13985   1.392   7.925   1.673
 4676SOL    HW113986   1.397   7.968   1.759
 4676SOL    HW213987   1.441   7.844   1.684
 4677SOL     OW13988   0.944   8.330   1.590
 4677SOL    HW113989   1.000   8.265   1.546
 4677SOL    HW213990   0.897   8.373   1.519
 4678SOL     OW13991   1.009   7.844   1.210
 4678SOL    HW113992   0.917   7.859   1.232
 4678SOL    HW213993   1.007   7.800   1.125
 4679SOL     OW13994   1.071   8.147   0.418
 4679SOL    HW113995   1.091   8.143   0.511
 4679SOL    HW213996   0.987   8.102   0.409
 4680SOL     OW13997   0.066   8.280   0.812
 4680SOL    HW113998   0.152   8.275   0.853
 4680SOL    HW213999   0.009   8.314   0.881
 4681SOL     OW14000   0.109   9.312   1.597
 4681SOL    HW114001   0.110   9.297   1.692
 4681SOL    HW214002   0.022   9.284   1.569
 4682SOL     OW14003   0.861   7.788   0.199
 4682SOL    HW114004   0.849   7.835   0.117
 4682SOL    HW214005   0.865   7.695   0.174
 4683SOL     OW14006   1.688   8.011   1.840
 4683SOL    HW114007   1.666   8.088   1.788
 4683SOL    HW214008   1.716   7.946   1.775
 4684SOL     OW14009   1.396   8.597   0.556
 4684SOL    HW114010   1.474   8.588   0.502
 4684SOL    HW214011   1.340   8.658   0.508
 4685SOL     OW14012   0.568   7.622   0.913
 4685SOL    HW114013   0.568   7.648   1.005
 4685SOL    HW214014   0.553   7.704   0.865
 4686SOL     OW14015   0.997   8.895   0.470
 4686SOL    HW114016   0.975   8.973   0.419
 4686SOL    HW214017   0.965   8.914   0.558
 4687SOL     OW14018   0.355   9.263   0.880
 4687SOL    HW114019   0.399   9.179   0.890
 4687SOL    HW214020   0.421   9.328   0.905
 4688SOL     OW14021   1.803   8.492   0.894
 4688SOL    HW114022   1.755   8.474   0.813
 4688SOL    HW214023   1.736   8.502   0.961
 4689SOL     OW14024   1.219   8.992   1.516
 4689SOL    HW114025   1.207   8.920   1.578
 4689SOL    HW214026   1.148   8.981   1.452
 4690SOL     OW14027   0.328   8.384   0.268
 4690SOL    HW114028   0.415   8.394   0.230
 4690SOL    HW214029   0.309   8.290   0.259
 4691SOL     OW14030   1.486   8.205   0.712
 4691SOL    HW114031   1.485   8.164   0.799
 4691SOL    HW214032   1.564   8.260   0.712
 4692SOL     OW14033   0.486   8.722   1.734
 4692SOL    HW114034   0.463   8.728   1.641
 4692SOL    HW214035   0.401   8.716   1.779
 4693SOL     OW14036   1.111   9.225   0.184
 4693SOL    HW114037   1.054   9.185   0.250
 4693SOL    HW214038   1.149   9.150   0.138
 4694SOL     OW14039   0.221   7.729   1.497
 4694SOL    HW114040   0.130   7.758   1.483
 4694SOL    HW214041   0.214   7.659   1.562
 4695SOL     OW14042   1.631   8.818   0.107
 4695SOL    HW114043   1.589   8.904   0.102
 4695SOL    HW214044   1.563   8.757   0.076
 4696SOL     OW14045   0.524   9.177   0.385
 4696SOL    HW114046   0.553   9.251   0.438
 4696SOL    HW214047   0.587   9.172   0.314
 4697SOL     OW14048   1.397   7.552   0.447
 4697SOL    HW114049   1.394   7.531   0.354
 4697SOL    HW214050   1.489   7.538   0.472
 4698SOL     OW14051   0.225   9.222   1.212
 4698SOL    HW114052   0.282   9.150   1.238
 4698SOL    HW214053   0.187   9.195   1.129
 4699SOL     OW14054   0.951   9.146   0.892
 4699SOL    HW114055   1.034   9.101   0.906
 4699SOL    HW214056   0.907   9.095   0.823
 4700SOL     OW14057   0.401   8.146   0.467
 4700SOL    HW114058   0.419   8.054   0.489
 4700SOL    HW214059   0.312   8.161   0.499
 4701SOL     OW14060   1.507   7.671   1.717
 4701SOL    HW114061   1.520   7.689   1.810
 4701SOL    HW214062   1.440   7.602   1.715
 4702SOL     OW14063   0.613   7.541   0.170
 4702SOL    HW114064   0.704   7.528   0.141
 4702SOL    HW214065   0.562   7.536   0.089
 4703SOL     OW14066   0.758   7.725   1.755
 4703SOL    HW114067   0.842   7.679   1.754
 4703SOL    HW214068   0.711   7.686   1.829
 4704SOL     OW14069   0.871   8.974   1.199
 4704SOL    HW114070   0.852   8.933   1.115
 4704SOL    HW214071   0.938   8.919   1.239
 4705SOL     OW14072   1.329   8.039   1.432
 4705SOL    HW114073   1.362   8.009   1.517
 4705SOL    HW214074   1.367   8.127   1.421
 4706SOL     OW14075   0.820   8.824   0.962
 4706SOL    HW114076   0.905   8.821   0.918
 4706SOL    HW214077   0.757   8.837   0.891
 4707SOL     OW14078   0.932   7.963   0.890
 4707SOL    HW114079   0.907   7.949   0.799
 4707SOL    HW214080   0.956   7.876   0.922
 4708SOL     OW14081   0.604   7.533   0.523
 4708SOL    HW114082   0.531   7.529   0.584
 4708SOL    HW214083   0.584   7.608   0.466
 4709SOL     OW14084   1.423   8.646   0.035
 4709SOL    HW114085   1.449   8.580   0.099
 4709SOL    HW214086   1.341   8.682   0.069
 4710SOL     OW14087   0.962   7.699   0.446
 4710SOL    HW114088   0.928   7.736   0.365
 4710SOL    HW214089   1.055   7.725   0.446
 4711SOL     OW14090   1.074   8.141   1.444
 4711SOL    HW114091   1.009   8.071   1.450
 4711SOL    HW214092   1.158   8.096   1.441
 4712SOL     OW14093   1.210   9.035   0.803
 4712SOL    HW114094   1.224   9.093   0.728
 4712SOL    HW214095   1.279   9.058   0.865
 4713SOL     OW14096   0.488   8.600   0.722
 4713SOL    HW114097   0.417   8.579   0.783
 4713SOL    HW214098   0.448   8.594   0.635
 4714SOL     OW14099   1.256   9.236   0.613
 4714SOL    HW114100   1.305   9.300   0.560
 4714SOL    HW214101   1.187   9.287   0.655
 4715SOL     OW14102   1.093   8.010   9.981
 4715SOL    HW114103   1.006   7.970   9.988
 4715SOL    HW214104   1.130   8.003   0.069
 4716SOL     OW14105   0.103   8.033   1.360
 4716SOL    HW114106   0.194   8.022   1.332
 4716SOL    HW214107   0.109   8.090   1.437
 4717SOL     OW14108   0.563   7.671   1.184
 4717SOL    HW114109   0.599   7.600   1.237
 4717SOL    HW214110   0.469   7.671   1.203
 4718SOL     OW14111   0.877   7.897   0.633
 4718SOL    HW114112   0.844   7.954   0.564
 4718SOL    HW214113   0.902   7.816   0.587
 4719SOL     OW14114   1.034   7.505   0.746
 4719SOL    HW114115   0.973   7.498   0.673
 4719SOL    HW214116   1.009   7.433   0.805
 4720SOL     OW14117   1.430   8.600   0.854
 4720SOL    HW114118   1.361   8.535   0.867
 4720SOL    HW214119   1.439   8.607   0.759
 4721SOL     OW14120   1.462   8.063   0.951
 4721SOL    HW114121   1.397   7.993   0.961
 4721SOL    HW214122   1.517   8.056   1.029
 4722SOL     OW14123   1.862   8.237   0.368
 4722SOL    HW114124   1.903   8.188   0.439
 4722SOL    HW214125   1.821   8.170   0.313
 4723SOL     OW14126   0.478   8.924   0.191
 4723SOL    HW114127   0.411   8.871   0.234
 4723SOL    HW214128   0.527   8.862   0.136
 4724SOL     OW14129   1.711   8.721   0.629
 4724SOL    HW114130   1.803   8.714   0.654
 4724SOL    HW214131   1.684   8.808   0.658
 4725SOL     OW14132   1.418   8.013   0.092
 4725SOL    HW114133   1.342   8.002   0.149
 4725SOL    HW214134   1.455   7.925   0.085
 4726SOL     OW14135   0.519   7.724   0.343
 4726SOL    HW114136   0.552   7.657   0.282
 4726SOL    HW214137   0.496   7.798   0.287
 4727SOL     OW14138   1.735   8.692   1.533
 4727SOL    HW114139   1.823   8.658   1.519
 4727SOL    HW214140   1.749   8.779   1.570
 4728SOL     OW14141   1.043   8.802   1.334
 4728SOL    HW114142   0.965   8.768   1.378
 4728SOL    HW214143   1.116   8.757   1.375
 4729SOL     OW14144   1.609   9.083   1.672
 4729SOL    HW114145   1.597   9.119   1.584
 4729SOL    HW214146   1.686   9.027   1.665
 4730SOL     OW14147   1.151   8.685   1.104
 4730SOL    HW114148   1.089   8.719   1.169
 4730SOL    HW214149   1.118   8.717   1.020
 4731SOL     OW14150   1.608   8.540   1.078
 4731SOL    HW114151   1.600   8.606   1.146
 4731SOL    HW214152   1.538   8.560   1.016
 4732SOL     OW14153   0.921   7.529   1.385
 4732SOL    HW114154   0.941   7.514   1.292
 4732SOL    HW214155   1.001   7.570   1.419
 4733SOL     OW14156   0.981   8.563   1.723
 4733SOL    HW114157   0.891   8.579   1.751
 4733SOL    HW214158   0.976   8.483   1.671
 4734SOL     OW14159   0.725   8.502   0.376
 4734SOL    HW114160   0.709   8.477   0.467
 4734SOL    HW214161   0.805   8.456   0.352
 4735SOL     OW14162   0.421   8.283   1.261
 4735SOL    HW114163   0.490   8.293   1.326
 4735SOL    HW214164   0.397   8.190   1.266
 4736SOL     OW14165   1.266   7.815   1.292
 4736SOL    HW114166   1.293   7.896   1.336
 4736SOL    HW214167   1.176   7.833   1.262
 4737SOL     OW14168   0.076   9.023   1.356
 4737SOL    HW114169   0.073   9.111   1.320
 4737SOL    HW214170   0.170   9.002   1.360
 4738SOL     OW14171   0.372   8.569   0.479
 4738SOL    HW114172   0.354   8.641   0.417
 4738SOL    HW214173   0.368   8.490   0.425
 4739SOL     OW14174   0.535   7.963   0.861
 4739SOL    HW114175   0.546   8.023   0.788
 4739SOL    HW214176   0.602   7.991   0.925
 4740SOL     OW14177   1.248   8.794   0.418
 4740SOL    HW114178   1.302   8.868   0.446
 4740SOL    HW214179   1.159   8.819   0.443
 4741SOL     OW14180   1.309   8.915   1.143
 4741SOL    HW114181   1.356   8.921   1.226
 4741SOL    HW214182   1.257   8.835   1.150
 4742SOL     OW14183   1.538   8.072   0.470
 4742SOL    HW114184   1.519   8.109   0.556
 4742SOL    HW214185   1.491   8.128   0.409
 4743SOL     OW14186   0.345   8.975   1.305
 4743SOL    HW114187   0.335   8.930   1.221
 4743SOL    HW214188   0.439   8.995   1.311
 4744SOL     OW14189   0.451   8.182   1.620
 4744SOL    HW114190   0.507   8.225   1.556
 4744SOL    HW214191   0.499   8.104   1.646
 4745SOL     OW14192   1.627   8.234   1.698
 4745SOL    HW114193   1.540   8.272   1.689
 4745SOL    HW214194   1.678   8.272   1.626
 4746SOL     OW14195   0.994   7.591   1.761
 4746SOL    HW114196   1.053   7.664   1.740
 4746SOL    HW214197   1.045   7.512   1.739
 4747SOL     OW14198   0.504   7.481   1.747
 4747SOL    HW114199   0.456   7.429   1.683
 4747SOL    HW214200   0.450   7.559   1.759
 4748SOL     OW14201   0.593   8.323   1.043
 4748SOL    HW114202   0.630   8.412   1.043
 4748SOL    HW214203   0.531   8.323   1.116
 4749SOL     OW14204   1.309   8.301   1.003
 4749SOL    HW114205   1.220   8.275   0.978
 4749SOL    HW214206   1.363   8.224   0.985
 4750SOL     OW14207   1.193   7.968   0.245
 4750SOL    HW114208   1.207   7.894   0.303
 4750SOL    HW214209   1.153   8.035   0.301
 4751SOL     OW14210   0.296   7.643   1.241
 4751SOL    HW114211   0.270   7.673   1.328
 4751SOL    HW214212   0.278   7.549   1.242
 4752SOL     OW14213   0.004   8.768   1.283
 4752SOL    HW114214   0.050   8.717   1.349
 4752SOL    HW214215   0.019   8.859   1.309
 4753SOL     OW14216   0.712   8.072   1.041
 4753SOL    HW114217   0.789   8.066   0.985
 4753SOL    HW214218   0.682   8.162   1.033
 4754SOL     OW14219   1.751   8.415   1.870
 4754SOL    HW114220   1.711   8.343   1.821
 4754SOL    HW214221   1.687   8.436   1.938
 4755SOL     OW14222   0.370   7.535   0.655
 4755SOL    HW114223   0.343   7.618   0.694
 4755SOL    HW214224   0.289   7.484   0.649
 4756SOL     OW14225   1.637   7.842   0.352
 4756SOL    HW114226   1.670   7.778   0.415
 4756SOL    HW214227   1.601   7.913   0.405
 4757SOL     OW14228   1.037   8.205   0.957
 4757SOL    HW114229   1.015   8.221   1.049
 4757SOL    HW214230   1.006   8.117   0.939
 4758SOL     OW14231   0.983   9.014   1.732
 4758SOL    HW114232   0.963   9.057   1.649
 4758SOL    HW214233   1.021   8.930   1.707
 4759SOL     OW14234   1.838   8.942   1.602
 4759SOL    HW114235   1.865   8.971   1.515
 4759SOL    HW214236   1.917   8.953   1.656
 4760SOL     OW14237   0.362   8.366   1.811
 4760SOL    HW114238   0.436   8.391   1.867
 4760SOL    HW214239   0.399   8.300   1.752
 4761SOL     OW14240   1.500   7.753   0.128
 4761SOL    HW114241   1.452   7.673   0.150
 4761SOL    HW214242   1.548   7.775   0.208
 4762SOL     OW14243   1.323   8.266   0.038
 4762SOL    HW114244   1.357   8.176   0.039
 4762SOL    HW214245   1.383   8.313   9.980
 4763SOL     OW14246   1.072   8.801   0.865
 4763SOL    HW114247   1.083   8.728   0.804
 4763SOL    HW214248   1.125   8.872   0.828
 4764SOL     OW14249   0.315   8.257   0.942
 4764SOL    HW114250   0.409   8.272   0.936
 4764SOL    HW214251   0.307   8.166   0.971
 4765SOL     OW14252   0.311   7.976   1.010
 4765SOL    HW114253   0.269   7.891   1.003
 4765SOL    HW214254   0.387   7.971   0.952
 4766SOL     OW14255   1.138   7.816   1.685
 4766SOL    HW114256   1.092   7.868   1.752
 4766SOL    HW214257   1.224   7.859   1.676
 4767SOL     OW14258   1.158   7.638   1.475
 4767SOL    HW114259   1.146   7.700   1.546
 4767SOL    HW214260   1.204   7.688   1.407
 4768SOL     OW14261   9.993   8.759   0.243
 4768SOL    HW114262   9.925   8.750   0.177
 4768SOL    HW214263   0.011   8.670   0.272
 4769SOL     OW14264   0.118   9.137   0.968
 4769SOL    HW114265   0.135   9.052   0.928
 4769SOL    HW214266   0.181   9.196   0.926
 4770SOL     OW14267   0.498   9.026   0.914
 4770SOL    HW114268   0.568   9.090   0.929
 4770SOL    HW214269   0.538   8.959   0.859
 4771SOL     OW14270   0.950   8.229   1.213
 4771SOL    HW114271   1.009   8.216   1.287
 4771SOL    HW214272   0.870   8.183   1.239
 4772SOL     OW14273   0.037   8.013   1.086
 4772SOL    HW114274   0.129   8.016   1.061
 4772SOL    HW214275   0.037   8.017   1.181
 4773SOL     OW14276   0.171   7.964   1.698
 4773SOL    HW114277   0.227   7.912   1.641
 4773SOL    HW214278   0.160   8.047   1.653
 4774SOL     OW14279   1.392   8.368   1.652
 4774SOL    HW114280   1.409   8.462   1.646
 4774SOL    HW214281   1.383   8.340   1.560
 4775SOL     OW14282   0.836   8.011   0.376
 4775SOL    HW114283   0.838   7.936   0.316
 4775SOL    HW214284   0.759   8.061   0.348
 4776SOL     OW14285   1.636   8.049   1.164
 4776SOL    HW114286   1.626   7.990   1.239
 4776SOL    HW214287   1.727   8.038   1.136
 4777SOL     OW14288   0.254   9.008   1.712
 4777SOL    HW114289   0.229   9.056   1.791
 4777SOL    HW214290   0.263   8.917   1.741
 4778SOL     OW14291   0.737   7.882   1.235
 4778SOL    HW114292   0.673   7.813   1.222
 4778SOL    HW214293   0.718   7.946   1.167
 4779SOL     OW14294   0.911   9.126   1.485
 4779SOL    HW114295   0.883   9.079   1.407
 4779SOL    HW214296   0.909   9.219   1.460
 4780SOL     OW14297   0.461   7.940   0.159
 4780SOL    HW114298   0.536   7.988   0.196
 4780SOL    HW214299   0.394   8.007   0.146
 4781SOL     OW14300   0.154   8.601   1.441
 4781SOL    HW114301   0.148   8.559   1.527
 4781SOL    HW214302   0.164   8.528   1.380
 4782SOL     OW14303   1.304   8.482   1.208
 4782SOL    HW114304   1.313   8.418   1.138
 4782SOL    HW214305   1.250   8.552   1.171
 4783SOL     OW14306   1.329   8.265   0.318
 4783SOL    HW114307   1.244   8.244   0.357
 4783SOL    HW214308   1.313   8.262   0.224
 4784SOL     OW14309   1.787   9.170   1.171
 4784SOL    HW114310   1.849   9.196   1.102
 4784SOL    HW214311   1.755   9.084   1.143
 4785SOL     OW14312   1.240   9.179   1.091
 4785SOL    HW114313   1.324   9.208   1.056
 4785SOL    HW214314   1.254   9.088   1.116
 4786SOL     OW14315   0.099   8.626   1.053
 4786SOL    HW114316   0.103   8.685   1.129
 4786SOL    HW214317   0.006   8.622   1.032
 4787SOL     OW14318   0.694   9.127   1.750
 4787SOL    HW114319   0.630   9.197   1.735
 4787SOL    HW214320   0.767   9.148   1.693
 4788SOL     OW14321   0.886   7.525   0.099
 4788SOL    HW114322   0.882   7.498   0.007
 4788SOL    HW214323   0.964   7.482   0.134
 4789SOL     OW14324   1.754   7.630   0.496
 4789SOL    HW114325   1.814   7.607   0.425
 4789SOL    HW214326   1.724   7.546   0.530
 4790SOL     OW14327   1.399   9.016   0.503
 4790SOL    HW114328   1.456   9.052   0.435
 4790SOL    HW214329   1.346   9.091   0.532
 4791SOL     OW14330   0.110   9.222   1.863
 4791SOL    HW114331   0.068   9.177   1.936
 4791SOL    HW214332   0.183   9.270   1.904
 4792SOL     OW14333   1.281   8.380   0.668
 4792SOL    HW114334   1.354   8.320   0.680
 4792SOL    HW214335   1.317   8.453   0.618
 4793SOL     OW14336   0.784   8.729   1.413
 4793SOL    HW114337   0.761   8.777   1.492
 4793SOL    HW214338   0.709   8.741   1.354
 4794SOL     OW14339   0.697   9.088   0.181
 4794SOL    HW114340   0.689   9.118   0.091
 4794SOL    HW214341   0.628   9.021   0.190
 4795SOL     OW14342   1.617   9.176   1.401
 4795SOL    HW114343   1.674   9.175   1.324
 4795SOL    HW214344   1.601   9.269   1.419
 4796SOL     OW14345   1.845   7.608   0.964
 4796SOL    HW114346   1.873   7.518   0.944
 4796SOL    HW214347   1.757   7.614   0.927
 4797SOL     OW14348   0.281   7.774   0.743
 4797SOL    HW114349   0.203   7.813   0.704
 4797SOL    HW214350   0.257   7.758   0.834
 4798SOL     OW14351   1.219   9.010   0.053
 4798SOL    HW114352   1.206   8.920   0.083
 4798SOL    HW214353   1.231   9.002   9.958
 4799SOL     OW14354   0.825   8.461   1.382
 4799SOL    HW114355   0.860   8.453   1.293
 4799SOL    HW214356   0.813   8.555   1.394
 4800SOL     OW14357   0.943   8.368   0.296
 4800SOL    HW114358   0.991   8.387   0.216
 4800SOL    HW214359   0.991   8.296   0.336
 4801SOL     OW14360   1.491   9.058   0.073
 4801SOL    HW114361   1.396   9.049   0.082
 4801SOL    HW214362   1.505   9.069   9.978
 4802SOL     OW14363   0.374   8.762   1.492
 4802SOL    HW114364   0.365   8.839   1.436
 4802SOL    HW214365   0.299   8.707   1.470
 4803SOL     OW14366   1.600   8.738   1.277
 4803SOL    HW114367   1.653   8.714   1.353
 4803SOL    HW214368   1.540   8.805   1.311
 4804SOL     OW14369   1.079   8.567   0.730
 4804SOL    HW114370   1.003   8.519   0.762
 4804SOL    HW214371   1.140   8.498   0.701
 4805SOL     OW14372   1.034   7.696   0.964
 4805SOL    HW114373   1.034   7.654   0.878
 4805SOL    HW214374   1.025   7.624   1.026
 4806SOL     OW14375   0.623   8.940   0.511
 4806SOL    HW114376   0.660   8.884   0.443
 4806SOL    HW214377   0.568   9.003   0.464
 4807SOL     OW14378   1.745   7.830   1.388
 4807SOL    HW114379   1.816   7.894   1.384
 4807SOL    HW214380   1.772   7.761   1.327
 4808SOL     OW14381   0.273   8.773   0.307
 4808SOL    HW114382   0.185   8.768   0.270
 4808SOL    HW214383   0.260   8.807   0.396
 4809SOL     OW14384   0.141   8.458   1.675
 4809SOL    HW114385   0.076   8.483   1.740
 4809SOL    HW214386   0.222   8.445   1.725
 4810SOL     OW14387   0.685   7.640   1.497
 4810SOL    HW114388   0.769   7.614   1.459
 4810SOL    HW214389   0.707   7.672   1.584
 4811SOL     OW14390   0.026   7.838   0.035
 4811SOL    HW114391   9.945   7.869   0.075
 4811SOL    HW214392   0.059   7.913   9.986
 4812SOL     OW14393   1.414   8.302   1.388
 4812SOL    HW114394   1.362   8.360   1.333
 4812SOL    HW214395   1.502   8.306   1.351
 4813SOL     OW14396   0.104   7.509   0.210
 4813SOL    HW114397   0.145   7.596   0.211
 4813SOL    HW214398   0.178   7.448   0.207
 4814SOL     OW14399   1.192   8.755   0.145
 4814SOL    HW114400   1.099   8.733   0.138
 4814SOL    HW214401   1.210   8.754   0.239
 4815SOL     OW14402   0.630   8.279   1.436
 4815SOL    HW114403   0.688   8.354   1.424
 4815SOL    HW214404   0.688   8.203   1.436
 4816SOL     OW14405   1.485   9.239   0.988
 4816SOL    HW114406   1.510   9.317   0.940
 4816SOL    HW214407   1.569   9.199   1.013
 4817SOL     OW14408   0.711   8.002   1.692
 4817SOL    HW114409   0.762   8.055   1.753
 4817SOL    HW214410   0.724   7.912   1.723
 4818SOL     OW14411   1.469   8.632   1.620
 4818SOL    HW114412   1.461   8.654   1.712
 4818SOL    HW214413   1.558   8.656   1.596
 4819SOL     OW14414   0.357   9.203   1.553
 4819SOL    HW114415   0.275   9.251   1.545
 4819SOL    HW214416   0.333   9.120   1.593
 4820SOL     OW14417   1.655   8.323   1.253
 4820SOL    HW114418   1.652   8.240   1.206
 4820SOL    HW214419   1.642   8.390   1.185
 4821SOL     OW14420   1.228   7.776   0.449
 4821SOL    HW114421   1.286   7.700   0.448
 4821SOL    HW214422   1.255   7.826   0.525
 4822SOL     OW14423   0.573   8.180   0.688
 4822SOL    HW114424   0.620   8.262   0.675
 4822SOL    HW214425   0.515   8.172   0.612
 4823SOL     OW14426   1.747   7.803   1.664
 4823SOL    HW114427   1.743   7.819   1.570
 4823SOL    HW214428   1.669   7.750   1.682
 4824SOL     OW14429   1.760   8.373   1.504
 4824SOL    HW114430   1.743   8.466   1.517
 4824SOL    HW214431   1.733   8.355   1.414
 4825SOL     OW14432   0.899   8.862   0.046
 4825SOL    HW114433   0.813   8.822   0.032
 4825SOL    HW214434   0.889   8.913   0.127
 4826SOL     OW14435   0.676   9.224   0.927
 4826SOL    HW114436   0.655   9.317   0.914
 4826SOL    HW214437   0.772   9.221   0.923
 4827SOL     OW14438   0.876   8.426   0.859
 4827SOL    HW114439   0.925   8.352   0.895
 4827SOL    HW214440   0.829   8.463   0.934
 4828SOL     OW14441   1.095   8.415   0.073
 4828SOL    HW114442   1.096   8.474   9.998
 4828SOL    HW214443   1.169   8.357   0.059
 4829SOL     OW14444   1.829   9.004   0.841
 4829SOL    HW114445   1.753   8.996   0.784
 4829SOL    HW214446   1.805   8.955   0.920
 4830SOL     OW14447   0.241   8.755   1.840
 4830SOL    HW114448   0.148   8.754   1.813
 4830SOL    HW214449   0.238   8.764   1.935
 4831SOL     OW14450   0.100   8.552   0.583
 4831SOL    HW114451   0.073   8.540   0.675
 4831SOL    HW214452   0.191   8.581   0.589
 4832SOL     OW14453   0.701   8.866   1.635
 4832SOL    HW114454   0.622   8.825   1.671
 4832SOL    HW214455   0.700   8.954   1.672
 4833SOL     OW14456   1.812   7.620   1.234
 4833SOL    HW114457   1.812   7.525   1.248
 4833SOL    HW214458   1.825   7.631   1.140
 4834SOL     OW14459   0.446   7.897   0.547
 4834SOL    HW114460   0.484   7.826   0.496
 4834SOL    HW214461   0.409   7.854   0.624
 4835SOL     OW14462   1.697   8.926   1.081
 4835SOL    HW114463   1.618   8.907   1.030
 4835SOL    HW214464   1.697   8.859   1.150
 4836SOL     OW14465   0.364   8.018   1.285
 4836SOL    HW114466   0.414   7.955   1.337
 4836SOL    HW214467   0.367   7.983   1.196
 4837SOL     OW14468   0.841   9.042   0.664
 4837SOL    HW114469   0.832   9.124   0.615
 4837SOL    HW214470   0.762   8.992   0.641
 4838SOL     OW14471   1.421   7.679   1.115
 4838SOL    HW114472   1.426   7.589   1.147
 4838SOL    HW214473   1.376   7.726   1.185
 4839SOL     OW14474   1.010   7.465   1.121
 4839SOL    HW114475   0.955   7.401   1.075
 4839SOL    HW214476   1.097   7.424   1.124
 4840SOL     OW14477   0.765   8.776   0.344
 4840SOL    HW114478   0.748   8.682   0.347
 4840SOL    HW214479   0.852   8.786   0.383
 4841SOL     OW14480   0.617   9.013   1.287
 4841SOL    HW114481   0.614   9.097   1.333
 4841SOL    HW214482   0.705   9.008   1.252
 4842SOL     OW14483   1.355   7.506   0.176
 4842SOL    HW114484   1.380   7.467   0.093
 4842SOL    HW214485   1.265   7.477   0.191
 4843SOL     OW14486   1.302   7.916   0.675
 4843SOL    HW114487   1.252   7.998   0.671
 4843SOL    HW214488   1.291   7.886   0.766
 4844SOL     OW14489   1.583   7.636   0.894
 4844SOL    HW114490   1.530   7.665   0.968
 4844SOL    HW214491   1.581   7.710   0.833
 4845SOL     OW14492   0.082   8.505   0.320
 4845SOL    HW114493   0.170   8.470   0.311
 4845SOL    HW214494   0.071   8.519   0.414
 4846SOL     OW14495   0.912   9.125   0.345
 4846SOL    HW114496   0.834   9.113   0.291
 4846SOL    HW214497   0.889   9.198   0.403
 4847SOL     OW14498   0.286   8.039   1.943
 4847SOL    HW114499   0.220   8.059   2.009
 4847SOL    HW214500   0.236   8.022   1.863
 4848SOL     OW14501   0.198   7.728   2.860
 4848SOL    HW114502   0.235   7.692   2.941
 4848SOL    HW214503   0.106   7.702   2.862
 4849SOL     OW14504   0.042   7.874   2.494
 4849SOL    HW114505   9.950   7.886   2.521
 4849SOL    HW214506   0.038   7.812   2.422
 4850SOL     OW14507   0.569   8.754   3.063
 4850SOL    HW114508   0.486   8.757   3.016
 4850SOL    HW214509   0.585   8.845   3.088
 4851SOL     OW14510   1.586   8.970   2.567
 4851SOL    HW114511   1.540   8.940   2.645
 4851SOL    HW214512   1.519   8.973   2.499
 4852SOL     OW14513   1.139   8.152   2.549
 4852SOL    HW114514   1.185   8.236   2.538
 4852SOL    HW214515   1.091   8.163   2.631
 4853SOL     OW14516   1.801   8.029   2.082
 4853SOL    HW114517   1.763   8.029   1.994
 4853SOL    HW214518   1.757   7.958   2.128
 4854SOL     OW14519   0.728   8.577   2.919
 4854SOL    HW114520   0.666   8.617   2.980
 4854SOL    HW214521   0.772   8.651   2.877
 4855SOL     OW14522   0.887   8.192   3.688
 4855SOL    HW114523   0.893   8.260   3.755
 4855SOL    HW214524   0.903   8.238   3.605
 4856SOL     OW14525   0.687   8.431   2.510
 4856SOL    HW114526   0.757   8.430   2.576
 4856SOL    HW214527   0.624   8.494   2.544
 4857SOL     OW14528   0.717   8.596   3.697
 4857SOL    HW114529   0.768   8.670   3.732
 4857SOL    HW214530   0.644   8.637   3.652
 4858SOL     OW14531   0.336   8.870   2.924
 4858SOL    HW114532   0.259   8.855   2.868
 4858SOL    HW214533   0.393   8.925   2.870
 4859SOL     OW14534   1.454   8.953   3.234
 4859SOL    HW114535   1.509   9.030   3.247
 4859SOL    HW214536   1.382   8.965   3.296
 4860SOL     OW14537   0.479   7.833   3.311
 4860SOL    HW114538   0.550   7.771   3.329
 4860SOL    HW214539   0.400   7.789   3.343
 4861SOL     OW14540   1.584   7.880   2.617
 4861SOL    HW114541   1.516   7.890   2.550
 4861SOL    HW214542   1.566   7.950   2.680
 4862SOL     OW14543   0.237   9.099   2.303
 4862SOL    HW114544   0.187   9.167   2.349
 4862SOL    HW214545   0.313   9.144   2.268
 4863SOL     OW14546   1.136   8.789   3.558
 4863SOL    HW114547   1.181   8.778   3.641
 4863SOL    HW214548   1.082   8.710   3.548
 4864SOL     OW14549   0.290   8.842   2.365
 4864SOL    HW114550   0.267   8.935   2.362
 4864SOL    HW214551   0.233   8.804   2.432
 4865SOL     OW14552   0.308   8.528   2.767
 4865SOL    HW114553   0.300   8.434   2.785
 4865SOL    HW214554   0.237   8.568   2.817
 4866SOL     OW14555   0.590   9.249   3.280
 4866SOL    HW114556   0.506   9.234   3.323
 4866SOL    HW214557   0.617   9.336   3.309
 4867SOL     OW14558   0.570   8.437   2.015
 4867SOL    HW114559   0.622   8.478   1.946
 4867SOL    HW214560   0.608   8.470   2.097
 4868SOL     OW14561   1.592   7.580   3.322
 4868SOL    HW114562   1.630   7.657   3.279
 4868SOL    HW214563   1.560   7.613   3.406
 4869SOL     OW14564   0.147   8.123   2.435
 4869SOL    HW114565   0.113   8.038   2.462
 4869SOL    HW214566   0.124   8.182   2.507
 4870SOL     OW14567   1.847   9.188   2.178
 4870SOL    HW114568   1.918   9.173   2.241
 4870SOL    HW214569   1.855   9.281   2.155
 4871SOL     OW14570   0.020   9.068   2.076
 4871SOL    HW114571   0.002   8.974   2.066
 4871SOL    HW214572   0.080   9.073   2.150
 4872SOL     OW14573   1.697   8.374   2.513
 4872SOL    HW114574   1.778   8.329   2.489
 4872SOL    HW214575   1.675   8.427   2.437
 4873SOL     OW14576   1.656   8.553   2.294
 4873SOL    HW114577   1.741   8.545   2.251
 4873SOL    HW214578   1.671   8.619   2.362
 4874SOL     OW14579   0.177   8.203   3.430
 4874SOL    HW114580   0.272   8.201   3.435
 4874SOL    HW214581   0.153   8.293   3.453
 4875SOL     OW14582   0.628   8.846   2.599
 4875SOL    HW114583   0.585   8.761   2.606
 4875SOL    HW214584   0.610   8.875   2.510
 4876SOL     OW14585   1.271   8.673   3.279
 4876SOL    HW114586   1.298   8.604   3.219
 4876SOL    HW214587   1.333   8.668   3.352
 4877SOL     OW14588   0.855   7.455   2.382
 4877SOL    HW114589   0.894   7.538   2.352
 4877SOL    HW214590   0.760   7.472   2.381
 4878SOL     OW14591   0.164   8.386   3.138
 4878SOL    HW114592   0.254   8.352   3.129
 4878SOL    HW214593   0.134   8.396   3.048
 4879SOL     OW14594   1.534   8.463   2.061
 4879SOL    HW114595   1.466   8.403   2.091
 4879SOL    HW214596   1.576   8.493   2.142
 4880SOL     OW14597   1.183   9.271   3.497
 4880SOL    HW114598   1.182   9.332   3.424
 4880SOL    HW214599   1.198   9.186   3.457
 4881SOL     OW14600   0.341   7.699   3.647
 4881SOL    HW114601   0.384   7.767   3.699
 4881SOL    HW214602   0.249   7.703   3.675
 4882SOL     OW14603   1.473   8.864   2.794
 4882SOL    HW114604   1.409   8.884   2.862
 4882SOL    HW214605   1.454   8.774   2.769
 4883SOL     OW14606   1.646   9.229   2.429
 4883SOL    HW114607   1.623   9.188   2.346
 4883SOL    HW214608   1.638   9.159   2.494
 4884SOL     OW14609   0.616   8.169   2.143
 4884SOL    HW114610   0.619   8.253   2.099
 4884SOL    HW214611   0.545   8.178   2.207
 4885SOL     OW14612   1.282   7.841   2.803
 4885SOL    HW114613   1.193   7.806   2.808
 4885SOL    HW214614   1.334   7.782   2.858
 4886SOL     OW14615   1.579   9.119   2.182
 4886SOL    HW114616   1.673   9.135   2.170
 4886SOL    HW214617   1.546   9.108   2.093
 4887SOL     OW14618   0.791   8.059   3.297
 4887SOL    HW114619   0.762   8.031   3.384
 4887SOL    HW214620   0.766   7.987   3.240
 4888SOL     OW14621   1.392   7.925   3.535
 4888SOL    HW114622   1.397   7.968   3.621
 4888SOL    HW214623   1.442   7.844   3.546
 4889SOL     OW14624   0.944   8.329   3.452
 4889SOL    HW114625   1.000   8.265   3.408
 4889SOL    HW214626   0.897   8.373   3.382
 4890SOL     OW14627   1.009   7.845   3.071
 4890SOL    HW114628   0.918   7.859   3.093
 4890SOL    HW214629   1.007   7.801   2.985
 4891SOL     OW14630   1.065   8.148   2.281
 4891SOL    HW114631   1.086   8.145   2.375
 4891SOL    HW214632   0.981   8.102   2.274
 4892SOL     OW14633   0.073   8.285   2.665
 4892SOL    HW114634   0.159   8.276   2.708
 4892SOL    HW214635   0.015   8.316   2.734
 4893SOL     OW14636   0.109   9.312   3.459
 4893SOL    HW114637   0.110   9.298   3.553
 4893SOL    HW214638   0.023   9.282   3.430
 4894SOL     OW14639   0.896   7.797   2.061
 4894SOL    HW114640   0.943   7.853   2.000
 4894SOL    HW214641   0.875   7.718   2.010
 4895SOL     OW14642   1.687   8.011   3.702
 4895SOL    HW114643   1.665   8.088   3.650
 4895SOL    HW214644   1.715   7.946   3.637
 4896SOL     OW14645   1.393   8.598   2.405
 4896SOL    HW114646   1.472   8.587   2.353
 4896SOL    HW214647   1.339   8.658   2.354
 4897SOL     OW14648   0.561   7.618   2.777
 4897SOL    HW114649   0.565   7.644   2.869
 4897SOL    HW214650   0.554   7.701   2.729
 4898SOL     OW14651   0.995   8.898   2.327
 4898SOL    HW114652   0.973   8.974   2.273
 4898SOL    HW214653   0.967   8.922   2.415
 4899SOL     OW14654   0.356   9.262   2.733
 4899SOL    HW114655   0.400   9.178   2.744
 4899SOL    HW214656   0.420   9.327   2.762
 4900SOL     OW14657   1.804   8.491   2.750
 4900SOL    HW114658   1.756   8.476   2.669
 4900SOL    HW214659   1.736   8.500   2.817
 4901SOL     OW14660   1.219   8.992   3.379
 4901SOL    HW114661   1.207   8.920   3.440
 4901SOL    HW214662   1.149   8.981   3.314
 4902SOL     OW14663   0.314   8.387   2.139
 4902SOL    HW114664   0.392   8.403   2.085
 4902SOL    HW214665   0.328   8.300   2.177
 4903SOL     OW14666   1.485   8.211   2.573
 4903SOL    HW114667   1.487   8.168   2.658
 4903SOL    HW214668   1.564   8.264   2.571
 4904SOL     OW14669   0.486   8.722   3.596
 4904SOL    HW114670   0.463   8.727   3.503
 4904SOL    HW214671   0.402   8.716   3.641
 4905SOL     OW14672   1.137   9.223   2.084
 4905SOL    HW114673   1.057   9.191   2.126
 4905SOL    HW214674   1.158   9.158   2.017
 4906SOL     OW14675   0.221   7.730   3.359
 4906SOL    HW114676   0.130   7.757   3.345
 4906SOL    HW214677   0.216   7.661   3.425
 4907SOL     OW14678   1.639   8.836   1.962
 4907SOL    HW114679   1.598   8.922   1.949
 4907SOL    HW214680   1.571   8.773   1.935
 4908SOL     OW14681   0.471   9.197   2.179
 4908SOL    HW114682   0.519   9.250   2.242
 4908SOL    HW214683   0.540   9.151   2.130
 4909SOL     OW14684   1.398   7.553   2.320
 4909SOL    HW114685   1.398   7.529   2.228
 4909SOL    HW214686   1.489   7.541   2.348
 4910SOL     OW14687   0.224   9.223   3.072
 4910SOL    HW114688   0.280   9.150   3.099
 4910SOL    HW214689   0.186   9.195   2.989
 4911SOL     OW14690   0.951   9.147   2.754
 4911SOL    HW114691   1.036   9.105   2.768
 4911SOL    HW214692   0.911   9.095   2.684
 4912SOL     OW14693   0.395   8.151   2.315
 4912SOL    HW114694   0.415   8.058   2.324
 4912SOL    HW214695   0.309   8.162   2.356
 4913SOL     OW14696   1.507   7.671   3.579
 4913SOL    HW114697   1.520   7.689   3.672
 4913SOL    HW214698   1.441   7.602   3.577
 4914SOL     OW14699   0.658   7.551   1.961
 4914SOL    HW114700   0.707   7.472   1.985
 4914SOL    HW214701   0.599   7.523   1.892
 4915SOL     OW14702   0.757   7.725   3.617
 4915SOL    HW114703   0.842   7.679   3.616
 4915SOL    HW214704   0.711   7.686   3.691
 4916SOL     OW14705   0.870   8.973   3.060
 4916SOL    HW114706   0.853   8.932   2.976
 4916SOL    HW214707   0.938   8.919   3.100
 4917SOL     OW14708   1.329   8.040   3.295
 4917SOL    HW114709   1.362   8.010   3.379
 4917SOL    HW214710   1.367   8.127   3.284
 4918SOL     OW14711   0.819   8.823   2.820
 4918SOL    HW114712   0.906   8.819   2.780
 4918SOL    HW214713   0.760   8.838   2.747
 4919SOL     OW14714   0.929   7.963   2.750
 4919SOL    HW114715   0.904   7.950   2.658
 4919SOL    HW214716   0.956   7.876   2.779
 4920SOL     OW14717   0.592   7.508   2.355
 4920SOL    HW114718   0.523   7.515   2.420
 4920SOL    HW214719   0.578   7.583   2.297
 4921SOL     OW14720   1.433   8.661   1.895
 4921SOL    HW114721   1.463   8.587   1.948
 4921SOL    HW214722   1.348   8.684   1.931
 4922SOL     OW14723   0.308   7.489   2.023
 4922SOL    HW114724   0.337   7.579   2.038
 4922SOL    HW214725   0.370   7.435   2.073
 4923SOL     OW14726   0.960   7.699   2.311
 4923SOL    HW114727   0.932   7.734   2.226
 4923SOL    HW214728   1.053   7.719   2.316
 4924SOL     OW14729   1.074   8.141   3.306
 4924SOL    HW114730   1.011   8.070   3.312
 4924SOL    HW214731   1.159   8.097   3.303
 4925SOL     OW14732   1.210   9.035   2.665
 4925SOL    HW114733   1.223   9.094   2.591
 4925SOL    HW214734   1.281   9.055   2.726
 4926SOL     OW14735   0.491   8.608   2.585
 4926SOL    HW114736   0.431   8.585   2.656
 4926SOL    HW214737   0.441   8.590   2.505
 4927SOL     OW14738   1.254   9.236   2.477
 4927SOL    HW114739   1.302   9.300   2.424
 4927SOL    HW214740   1.183   9.287   2.516
 4928SOL     OW14741   1.032   7.965   1.890
 4928SOL    HW114742   0.989   8.048   1.871
 4928SOL    HW214743   1.095   7.986   1.959
 4929SOL     OW14744   0.104   8.032   3.222
 4929SOL    HW114745   0.195   8.021   3.194
 4929SOL    HW214746   0.109   8.090   3.298
 4930SOL     OW14747   0.564   7.670   3.046
 4930SOL    HW114748   0.599   7.601   3.102
 4930SOL    HW214749   0.470   7.671   3.066
 4931SOL     OW14750   0.871   7.899   2.492
 4931SOL    HW114751   0.839   7.956   2.422
 4931SOL    HW214752   0.898   7.819   2.447
 4932SOL     OW14753   1.028   7.506   2.605
 4932SOL    HW114754   0.969   7.496   2.530
 4932SOL    HW214755   1.004   7.433   2.663
 4933SOL     OW14756   1.434   8.601   2.716
 4933SOL    HW114757   1.364   8.537   2.725
 4933SOL    HW214758   1.449   8.608   2.622
 4934SOL     OW14759   1.463   8.064   2.810
 4934SOL    HW114760   1.399   7.994   2.821
 4934SOL    HW214761   1.518   8.058   2.888
 4935SOL     OW14762   1.829   8.244   2.250
 4935SOL    HW114763   1.890   8.201   2.310
 4935SOL    HW214764   1.815   8.180   2.180
 4936SOL     OW14765   0.495   8.876   1.999
 4936SOL    HW114766   0.410   8.856   2.037
 4936SOL    HW214767   0.498   8.824   1.919
 4937SOL     OW14768   1.707   8.719   2.496
 4937SOL    HW114769   1.800   8.713   2.516
 4937SOL    HW214770   1.682   8.808   2.521
 4938SOL     OW14771   1.394   8.024   1.927
 4938SOL    HW114772   1.337   7.997   1.999
 4938SOL    HW214773   1.482   7.999   1.955
 4939SOL     OW14774   0.549   7.702   2.169
 4939SOL    HW114775   0.593   7.653   2.099
 4939SOL    HW214776   0.529   7.787   2.131
 4940SOL     OW14777   1.735   8.692   3.394
 4940SOL    HW114778   1.823   8.658   3.380
 4940SOL    HW214779   1.749   8.779   3.431
 4941SOL     OW14780   1.043   8.802   3.195
 4941SOL    HW114781   0.965   8.768   3.240
 4941SOL    HW214782   1.116   8.757   3.237
 4942SOL     OW14783   1.608   9.083   3.534
 4942SOL    HW114784   1.597   9.119   3.446
 4942SOL    HW214785   1.686   9.027   3.527
 4943SOL     OW14786   1.151   8.684   2.966
 4943SOL    HW114787   1.089   8.719   3.031
 4943SOL    HW214788   1.119   8.717   2.883
 4944SOL     OW14789   1.610   8.539   2.938
 4944SOL    HW114790   1.602   8.606   3.007
 4944SOL    HW214791   1.540   8.560   2.876
 4945SOL     OW14792   0.922   7.529   3.246
 4945SOL    HW114793   0.941   7.514   3.154
 4945SOL    HW214794   1.001   7.570   3.281
 4946SOL     OW14795   0.981   8.563   3.584
 4946SOL    HW114796   0.891   8.578   3.613
 4946SOL    HW214797   0.976   8.483   3.533
 4947SOL     OW14798   0.711   8.510   2.242
 4947SOL    HW114799   0.697   8.485   2.333
 4947SOL    HW214800   0.787   8.459   2.215
 4948SOL     OW14801   0.421   8.282   3.122
 4948SOL    HW114802   0.490   8.293   3.188
 4948SOL    HW214803   0.397   8.190   3.128
 4949SOL     OW14804   1.265   7.816   3.154
 4949SOL    HW114805   1.293   7.896   3.198
 4949SOL    HW214806   1.177   7.834   3.124
 4950SOL     OW14807   0.075   9.022   3.216
 4950SOL    HW114808   0.072   9.111   3.180
 4950SOL    HW214809   0.168   9.003   3.223
 4951SOL     OW14810   0.339   8.559   2.360
 4951SOL    HW114811   0.337   8.648   2.324
 4951SOL    HW214812   0.331   8.502   2.283
 4952SOL     OW14813   0.535   7.964   2.716
 4952SOL    HW114814   0.546   8.028   2.645
 4952SOL    HW214815   0.601   7.990   2.781
 4953SOL     OW14816   1.246   8.800   2.259
 4953SOL    HW114817   1.302   8.870   2.293
 4953SOL    HW214818   1.158   8.823   2.290
 4954SOL     OW14819   1.309   8.915   3.005
 4954SOL    HW114820   1.356   8.922   3.088
 4954SOL    HW214821   1.258   8.835   3.013
 4955SOL     OW14822   1.574   8.065   2.347
 4955SOL    HW114823   1.523   8.106   2.418
 4955SOL    HW214824   1.622   8.138   2.307
 4956SOL     OW14825   0.345   8.977   3.169
 4956SOL    HW114826   0.335   8.933   3.085
 4956SOL    HW214827   0.438   8.997   3.175
 4957SOL     OW14828   0.450   8.182   3.481
 4957SOL    HW114829   0.507   8.225   3.417
 4957SOL    HW214830   0.499   8.104   3.508
 4958SOL     OW14831   1.627   8.234   3.560
 4958SOL    HW114832   1.540   8.272   3.551
 4958SOL    HW214833   1.678   8.272   3.488
 4959SOL     OW14834   0.994   7.591   3.622
 4959SOL    HW114835   1.052   7.664   3.602
 4959SOL    HW214836   1.045   7.513   3.601
 4960SOL     OW14837   0.504   7.482   3.609
 4960SOL    HW114838   0.456   7.429   3.545
 4960SOL    HW214839   0.450   7.559   3.621
 4961SOL     OW14840   0.591   8.322   2.903
 4961SOL    HW114841   0.628   8.410   2.902
 4961SOL    HW214842   0.531   8.322   2.977
 4962SOL     OW14843   1.309   8.300   2.865
 4962SOL    HW114844   1.221   8.273   2.840
 4962SOL    HW214845   1.364   8.224   2.846
 4963SOL     OW14846   1.200   7.972   2.118
 4963SOL    HW114847   1.211   7.896   2.174
 4963SOL    HW214848   1.161   8.038   2.174
 4964SOL     OW14849   0.296   7.643   3.103
 4964SOL    HW114850   0.269   7.674   3.189
 4964SOL    HW214851   0.278   7.550   3.104
 4965SOL     OW14852   0.008   8.767   3.142
 4965SOL    HW114853   0.053   8.716   3.209
 4965SOL    HW214854   0.020   8.858   3.168
 4966SOL     OW14855   0.709   8.069   2.900
 4966SOL    HW114856   0.787   8.064   2.846
 4966SOL    HW214857   0.681   8.160   2.894
 4967SOL     OW14858   1.751   8.415   3.732
 4967SOL    HW114859   1.711   8.343   3.683
 4967SOL    HW214860   1.687   8.436   3.800
 4968SOL     OW14861   0.375   7.538   2.511
 4968SOL    HW114862   0.350   7.618   2.557
 4968SOL    HW214863   0.303   7.477   2.528
 4969SOL     OW14864   1.632   7.838   2.206
 4969SOL    HW114865   1.664   7.773   2.268
 4969SOL    HW214866   1.602   7.911   2.261
 4970SOL     OW14867   1.035   8.205   2.818
 4970SOL    HW114868   1.014   8.220   2.910
 4970SOL    HW214869   1.005   8.116   2.800
 4971SOL     OW14870   0.983   9.014   3.594
 4971SOL    HW114871   0.963   9.057   3.511
 4971SOL    HW214872   1.021   8.930   3.569
 4972SOL     OW14873   1.838   8.942   3.464
 4972SOL    HW114874   1.865   8.971   3.377
 4972SOL    HW214875   1.917   8.953   3.518
 4973SOL     OW14876   0.363   8.367   3.672
 4973SOL    HW114877   0.437   8.391   3.728
 4973SOL    HW214878   0.399   8.300   3.613
 4974SOL     OW14879   1.522   7.717   1.981
 4974SOL    HW114880   1.470   7.646   2.018
 4974SOL    HW214881   1.562   7.760   2.056
 4975SOL     OW14882   1.281   8.269   1.882
 4975SOL    HW114883   1.322   8.183   1.889
 4975SOL    HW214884   1.318   8.306   1.801
 4976SOL     OW14885   1.072   8.801   2.728
 4976SOL    HW114886   1.083   8.729   2.666
 4976SOL    HW214887   1.125   8.872   2.691
 4977SOL     OW14888   0.317   8.252   2.804
 4977SOL    HW114889   0.411   8.267   2.802
 4977SOL    HW214890   0.308   8.161   2.833
 4978SOL     OW14891   0.314   7.974   2.872
 4978SOL    HW114892   0.271   7.889   2.864
 4978SOL    HW214893   0.389   7.969   2.812
 4979SOL     OW14894   1.138   7.816   3.547
 4979SOL    HW114895   1.093   7.868   3.614
 4979SOL    HW214896   1.224   7.859   3.538
 4980SOL     OW14897   1.158   7.638   3.337
 4980SOL    HW114898   1.146   7.700   3.408
 4980SOL    HW214899   1.204   7.687   3.269
 4981SOL     OW14900   9.968   8.781   2.081
 4981SOL    HW114901   9.933   8.770   1.992
 4981SOL    HW214902   9.987   8.691   2.109
 4982SOL     OW14903   0.120   9.136   2.828
 4982SOL    HW114904   0.134   9.050   2.788
 4982SOL    HW214905   0.178   9.195   2.780
 4983SOL     OW14906   0.499   9.024   2.770
 4983SOL    HW114907   0.567   9.089   2.785
 4983SOL    HW214908   0.538   8.961   2.709
 4984SOL     OW14909   0.949   8.227   3.075
 4984SOL    HW114910   1.010   8.216   3.148
 4984SOL    HW214911   0.869   8.183   3.103
 4985SOL     OW14912   0.039   8.014   2.947
 4985SOL    HW114913   0.132   8.016   2.924
 4985SOL    HW214914   0.038   8.018   3.043
 4986SOL     OW14915   0.170   7.965   3.561
 4986SOL    HW114916   0.226   7.913   3.503
 4986SOL    HW214917   0.158   8.048   3.515
 4987SOL     OW14918   1.392   8.369   3.513
 4987SOL    HW114919   1.409   8.463   3.508
 4987SOL    HW214920   1.384   8.341   3.422
 4988SOL     OW14921   0.829   8.015   2.237
 4988SOL    HW114922   0.832   7.943   2.175
 4988SOL    HW214923   0.757   8.071   2.206
 4989SOL     OW14924   1.635   8.049   3.025
 4989SOL    HW114925   1.625   7.990   3.100
 4989SOL    HW214926   1.726   8.038   2.998
 4990SOL     OW14927   0.253   9.009   3.574
 4990SOL    HW114928   0.229   9.057   3.653
 4990SOL    HW214929   0.262   8.918   3.603
 4991SOL     OW14930   0.737   7.882   3.096
 4991SOL    HW114931   0.673   7.812   3.084
 4991SOL    HW214932   0.717   7.946   3.028
 4992SOL     OW14933   0.911   9.127   3.347
 4992SOL    HW114934   0.883   9.079   3.269
 4992SOL    HW214935   0.910   9.219   3.322
 4993SOL     OW14936   0.519   7.936   2.033
 4993SOL    HW114937   0.567   8.012   2.066
 4993SOL    HW214938   0.439   7.973   1.996
 4994SOL     OW14939   0.155   8.600   3.304
 4994SOL    HW114940   0.148   8.559   3.390
 4994SOL    HW214941   0.164   8.527   3.243
 4995SOL     OW14942   1.304   8.481   3.070
 4995SOL    HW114943   1.313   8.418   2.999
 4995SOL    HW214944   1.250   8.551   3.033
 4996SOL     OW14945   1.324   8.309   2.154
 4996SOL    HW114946   1.254   8.273   2.207
 4996SOL    HW214947   1.296   8.293   2.063
 4997SOL     OW14948   1.788   9.170   3.033
 4997SOL    HW114949   1.849   9.196   2.965
 4997SOL    HW214950   1.755   9.085   3.005
 4998SOL     OW14951   1.240   9.179   2.954
 4998SOL    HW114952   1.324   9.209   2.919
 4998SOL    HW214953   1.255   9.088   2.978
 4999SOL     OW14954   0.101   8.625   2.912
 4999SOL    HW114955   0.105   8.683   2.988
 4999SOL    HW214956   0.007   8.620   2.891
 5000SOL     OW14957   0.694   9.127   3.613
 5000SOL    HW114958   0.631   9.197   3.597
 5000SOL    HW214959   0.768   9.148   3.557
 5001SOL     OW14960   1.744   7.632   2.359
 5001SOL    HW114961   1.803   7.612   2.286
 5001SOL    HW214962   1.717   7.546   2.392
 5002SOL     OW14963   1.396   9.015   2.364
 5002SOL    HW114964   1.451   9.051   2.294
 5002SOL    HW214965   1.342   9.090   2.392
 5003SOL     OW14966   0.111   9.223   3.725
 5003SOL    HW114967   0.069   9.177   3.798
 5003SOL    HW214968   0.184   9.270   3.766
 5004SOL     OW14969   1.279   8.384   2.526
 5004SOL    HW114970   1.353   8.325   2.539
 5004SOL    HW214971   1.315   8.456   2.474
 5005SOL     OW14972   0.784   8.729   3.274
 5005SOL    HW114973   0.761   8.777   3.354
 5005SOL    HW214974   0.709   8.741   3.216
 5006SOL     OW14975   0.674   9.080   2.023
 5006SOL    HW114976   0.690   9.096   1.930
 5006SOL    HW214977   0.618   9.002   2.024
 5007SOL     OW14978   1.617   9.176   3.264
 5007SOL    HW114979   1.674   9.175   3.187
 5007SOL    HW214980   1.601   9.269   3.280
 5008SOL     OW14981   1.845   7.607   2.827
 5008SOL    HW114982   1.873   7.518   2.806
 5008SOL    HW214983   1.758   7.615   2.789
 5009SOL     OW14984   0.277   7.774   2.600
 5009SOL    HW114985   0.199   7.817   2.565
 5009SOL    HW214986   0.256   7.758   2.692
 5010SOL     OW14987   1.211   9.036   1.898
 5010SOL    HW114988   1.200   8.945   1.926
 5010SOL    HW214989   1.142   9.049   1.833
 5011SOL     OW14990   0.826   8.461   3.244
 5011SOL    HW114991   0.861   8.453   3.156
 5011SOL    HW214992   0.813   8.555   3.257
 5012SOL     OW14993   0.920   8.362   2.164
 5012SOL    HW114994   0.973   8.390   2.089
 5012SOL    HW214995   0.974   8.294   2.207
 5013SOL     OW14996   1.484   9.093   1.920
 5013SOL    HW114997   1.392   9.072   1.902
 5013SOL    HW214998   1.524   9.096   1.833
 5014SOL     OW14999   0.374   8.762   3.353
 5014SOL    HW115000   0.364   8.840   3.298
 5014SOL    HW215001   0.299   8.707   3.332
 5015SOL     OW15002   1.600   8.737   3.139
 5015SOL    HW115003   1.654   8.713   3.214
 5015SOL    HW215004   1.540   8.804   3.172
 5016SOL     OW15005   1.078   8.567   2.591
 5016SOL    HW115006   1.002   8.518   2.623
 5016SOL    HW215007   1.139   8.501   2.561
 5017SOL     OW15008   1.034   7.697   2.823
 5017SOL    HW115009   1.033   7.654   2.737
 5017SOL    HW215010   1.026   7.625   2.886
 5018SOL     OW15011   0.605   8.935   2.344
 5018SOL    HW115012   0.657   8.888   2.279
 5018SOL    HW215013   0.517   8.939   2.307
 5019SOL     OW15014   1.745   7.830   3.251
 5019SOL    HW115015   1.816   7.894   3.246
 5019SOL    HW215016   1.772   7.761   3.190
 5020SOL     OW15017   0.243   8.810   2.104
 5020SOL    HW115018   0.148   8.796   2.106
 5020SOL    HW215019   0.267   8.826   2.195
 5021SOL     OW15020   0.141   8.457   3.537
 5021SOL    HW115021   0.075   8.480   3.603
 5021SOL    HW215022   0.222   8.445   3.587
 5022SOL     OW15023   0.685   7.639   3.358
 5022SOL    HW115024   0.769   7.614   3.321
 5022SOL    HW215025   0.707   7.671   3.446
 5023SOL     OW15026   0.074   7.763   1.855
 5023SOL    HW115027   9.979   7.752   1.861
 5023SOL    HW215028   0.086   7.839   1.798
 5024SOL     OW15029   1.415   8.302   3.250
 5024SOL    HW115030   1.362   8.360   3.195
 5024SOL    HW215031   1.503   8.306   3.212
 5025SOL     OW15032   0.059   7.519   2.125
 5025SOL    HW115033   0.077   7.572   2.203
 5025SOL    HW215034   0.146   7.501   2.088
 5026SOL     OW15035   1.180   8.770   1.983
 5026SOL    HW115036   1.087   8.749   1.981
 5026SOL    HW215037   1.202   8.772   2.077
 5027SOL     OW15038   0.629   8.279   3.298
 5027SOL    HW115039   0.688   8.354   3.286
 5027SOL    HW215040   0.687   8.203   3.297
 5028SOL     OW15041   1.485   9.242   2.851
 5028SOL    HW115042   1.509   9.320   2.800
 5028SOL    HW215043   1.569   9.201   2.872
 5029SOL     OW15044   0.712   8.002   3.553
 5029SOL    HW115045   0.762   8.055   3.615
 5029SOL    HW215046   0.724   7.912   3.584
 5030SOL     OW15047   1.469   8.632   3.481
 5030SOL    HW115048   1.461   8.655   3.574
 5030SOL    HW215049   1.558   8.656   3.458
 5031SOL     OW15050   0.357   9.203   3.415
 5031SOL    HW115051   0.275   9.252   3.407
 5031SOL    HW215052   0.333   9.120   3.455
 5032SOL     OW15053   1.655   8.323   3.115
 5032SOL    HW115054   1.653   8.240   3.068
 5032SOL    HW215055   1.643   8.389   3.046
 5033SOL     OW15056   1.226   7.773   2.317
 5033SOL    HW115057   1.285   7.698   2.316
 5033SOL    HW215058   1.254   7.825   2.392
 5034SOL     OW15059   0.569   8.177   2.541
 5034SOL    HW115060   0.617   8.259   2.532
 5034SOL    HW215061   0.511   8.174   2.465
 5035SOL     OW15062   1.747   7.803   3.527
 5035SOL    HW115063   1.744   7.819   3.432
 5035SOL    HW215064   1.669   7.750   3.545
 5036SOL     OW15065   1.760   8.372   3.365
 5036SOL    HW115066   1.743   8.466   3.378
 5036SOL    HW215067   1.733   8.355   3.275
 5037SOL     OW15068   0.879   8.806   1.928
 5037SOL    HW115069   0.836   8.825   2.012
 5037SOL    HW215070   0.883   8.890   1.884
 5038SOL     OW15071   0.675   9.226   2.780
 5038SOL    HW115072   0.654   9.319   2.774
 5038SOL    HW215073   0.770   9.222   2.782
 5039SOL     OW15074   0.875   8.425   2.719
 5039SOL    HW115075   0.925   8.352   2.755
 5039SOL    HW215076   0.829   8.462   2.794
 5040SOL     OW15077   1.062   8.419   1.944
 5040SOL    HW115078   1.047   8.480   1.872
 5040SOL    HW215079   1.141   8.370   1.918
 5041SOL     OW15080   1.829   9.005   2.703
 5041SOL    HW115081   1.753   8.997   2.645
 5041SOL    HW215082   1.805   8.955   2.781
 5042SOL     OW15083   0.241   8.755   3.701
 5042SOL    HW115084   0.149   8.754   3.674
 5042SOL    HW215085   0.238   8.764   3.796
 5043SOL     OW15086   0.153   8.670   2.535
 5043SOL    HW115087   0.087   8.617   2.579
 5043SOL    HW215088   0.209   8.607   2.490
 5044SOL     OW15089   0.700   8.866   3.496
 5044SOL    HW115090   0.622   8.825   3.532
 5044SOL    HW215091   0.700   8.954   3.533
 5045SOL     OW15092   1.811   7.619   3.097
 5045SOL    HW115093   1.812   7.524   3.110
 5045SOL    HW215094   1.825   7.631   3.003
 5046SOL     OW15095   0.434   7.891   2.382
 5046SOL    HW115096   0.494   7.824   2.349
 5046SOL    HW215097   0.410   7.860   2.470
 5047SOL     OW15098   1.696   8.927   2.943
 5047SOL    HW115099   1.617   8.908   2.892
 5047SOL    HW215100   1.697   8.860   3.011
 5048SOL     OW15101   0.365   8.018   3.146
 5048SOL    HW115102   0.415   7.955   3.199
 5048SOL    HW215103   0.368   7.983   3.057
 5049SOL     OW15104   0.841   9.026   2.535
 5049SOL    HW115105   0.807   9.092   2.474
 5049SOL    HW215106   0.767   8.966   2.549
 5050SOL     OW15107   1.421   7.680   2.976
 5050SOL    HW115108   1.428   7.590   3.008
 5050SOL    HW215109   1.376   7.727   3.046
 5051SOL     OW15110   1.011   7.465   2.982
 5051SOL    HW115111   0.956   7.402   2.935
 5051SOL    HW215112   1.097   7.425   2.986
 5052SOL     OW15113   0.776   8.780   2.191
 5052SOL    HW115114   0.753   8.688   2.204
 5052SOL    HW215115   0.856   8.792   2.242
 5053SOL     OW15116   0.616   9.014   3.148
 5053SOL    HW115117   0.614   9.098   3.194
 5053SOL    HW215118   0.706   9.007   3.114
 5054SOL     OW15119   1.382   7.487   2.053
 5054SOL    HW115120   1.423   7.415   2.005
 5054SOL    HW215121   1.291   7.461   2.064
 5055SOL     OW15122   1.300   7.920   2.537
 5055SOL    HW115123   1.249   8.001   2.535
 5055SOL    HW215124   1.292   7.890   2.628
 5056SOL     OW15125   1.583   7.636   2.755
 5056SOL    HW115126   1.530   7.665   2.830
 5056SOL    HW215127   1.583   7.710   2.695
 5057SOL     OW15128   0.067   8.538   2.159
 5057SOL    HW115129   0.142   8.486   2.132
 5057SOL    HW215130   0.033   8.492   2.236
 5058SOL     OW15131   0.900   9.120   2.194
 5058SOL    HW115132   0.820   9.107   2.142
 5058SOL    HW215133   0.878   9.193   2.252
 5059SOL     OW15134   0.286   8.041   3.805
 5059SOL    HW115135   0.220   8.059   3.871
 5059SOL    HW215136   0.236   8.022   3.726
 5060SOL     OW15137   0.198   7.729   4.722
 5060SOL    HW115138   0.235   7.692   4.803
 5060SOL    HW215139   0.106   7.702   4.724
 5061SOL     OW15140   0.042   7.874   4.356
 5061SOL    HW115141   9.950   7.885   4.381
 5061SOL    HW215142   0.039   7.811   4.284
 5062SOL     OW15143   0.569   8.754   4.925
 5062SOL    HW115144   0.486   8.757   4.878
 5062SOL    HW215145   0.585   8.845   4.950
 5063SOL     OW15146   1.587   8.970   4.429
 5063SOL    HW115147   1.540   8.940   4.507
 5063SOL    HW215148   1.520   8.973   4.361
 5064SOL     OW15149   1.139   8.153   4.411
 5064SOL    HW115150   1.185   8.236   4.400
 5064SOL    HW215151   1.091   8.163   4.493
 5065SOL     OW15152   1.801   8.029   3.944
 5065SOL    HW115153   1.763   8.029   3.856
 5065SOL    HW215154   1.757   7.958   3.990
 5066SOL     OW15155   0.728   8.577   4.781
 5066SOL    HW115156   0.666   8.617   4.842
 5066SOL    HW215157   0.772   8.651   4.739
 5067SOL     OW15158   0.887   8.192   5.550
 5067SOL    HW115159   0.894   8.261   5.617
 5067SOL    HW215160   0.903   8.238   5.467
 5068SOL     OW15161   0.687   8.431   4.372
 5068SOL    HW115162   0.757   8.430   4.437
 5068SOL    HW215163   0.624   8.494   4.406
 5069SOL     OW15164   0.717   8.596   5.559
 5069SOL    HW115165   0.768   8.670   5.593
 5069SOL    HW215166   0.644   8.637   5.514
 5070SOL     OW15167   0.336   8.870   4.786
 5070SOL    HW115168   0.259   8.855   4.730
 5070SOL    HW215169   0.393   8.925   4.732
 5071SOL     OW15170   1.454   8.953   5.096
 5071SOL    HW115171   1.509   9.030   5.109
 5071SOL    HW215172   1.382   8.965   5.158
 5072SOL     OW15173   0.478   7.833   5.173
 5072SOL    HW115174   0.549   7.771   5.191
 5072SOL    HW215175   0.400   7.788   5.205
 5073SOL     OW15176   1.584   7.880   4.479
 5073SOL    HW115177   1.516   7.890   4.412
 5073SOL    HW215178   1.566   7.950   4.542
 5074SOL     OW15179   0.239   9.099   4.169
 5074SOL    HW115180   0.188   9.167   4.213
 5074SOL    HW215181   0.315   9.145   4.132
 5075SOL     OW15182   1.136   8.789   5.420
 5075SOL    HW115183   1.181   8.778   5.503
 5075SOL    HW215184   1.083   8.710   5.410
 5076SOL     OW15185   0.291   8.841   4.227
 5076SOL    HW115186   0.268   8.934   4.225
 5076SOL    HW215187   0.233   8.804   4.294
 5077SOL     OW15188   0.308   8.528   4.629
 5077SOL    HW115189   0.301   8.435   4.647
 5077SOL    HW215190   0.237   8.568   4.679
 5078SOL     OW15191   0.590   9.249   5.142
 5078SOL    HW115192   0.506   9.234   5.185
 5078SOL    HW215193   0.617   9.336   5.171
 5079SOL     OW15194   0.570   8.437   3.878
 5079SOL    HW115195   0.621   8.478   3.808
 5079SOL    HW215196   0.608   8.470   3.959
 5080SOL     OW15197   1.592   7.581   5.184
 5080SOL    HW115198   1.630   7.657   5.140
 5080SOL    HW215199   1.560   7.614   5.268
 5081SOL     OW15200   0.147   8.123   4.297
 5081SOL    HW115201   0.113   8.038   4.324
 5081SOL    HW215202   0.124   8.182   4.369
 5082SOL     OW15203   1.847   9.188   4.040
 5082SOL    HW115204   1.918   9.173   4.103
 5082SOL    HW215205   1.855   9.281   4.017
 5083SOL     OW15206   0.019   9.068   3.937
 5083SOL    HW115207   0.001   8.974   3.926
 5083SOL    HW215208   0.079   9.073   4.012
 5084SOL     OW15209   1.698   8.374   4.376
 5084SOL    HW115210   1.779   8.329   4.352
 5084SOL    HW215211   1.676   8.426   4.299
 5085SOL     OW15212   1.657   8.553   4.156
 5085SOL    HW115213   1.741   8.545   4.113
 5085SOL    HW215214   1.671   8.618   4.225
 5086SOL     OW15215   0.177   8.203   5.293
 5086SOL    HW115216   0.273   8.201   5.298
 5086SOL    HW215217   0.154   8.293   5.315
 5087SOL     OW15218   0.628   8.846   4.461
 5087SOL    HW115219   0.585   8.761   4.468
 5087SOL    HW215220   0.610   8.875   4.372
 5088SOL     OW15221   1.271   8.673   5.141
 5088SOL    HW115222   1.298   8.604   5.081
 5088SOL    HW215223   1.333   8.668   5.214
 5089SOL     OW15224   0.855   7.455   4.243
 5089SOL    HW115225   0.894   7.538   4.214
 5089SOL    HW215226   0.761   7.472   4.243
 5090SOL     OW15227   0.164   8.385   5.000
 5090SOL    HW115228   0.253   8.352   4.991
 5090SOL    HW215229   0.134   8.396   4.910
 5091SOL     OW15230   1.534   8.463   3.923
 5091SOL    HW115231   1.465   8.403   3.953
 5091SOL    HW215232   1.576   8.493   4.004
 5092SOL     OW15233   1.183   9.271   5.359
 5092SOL    HW115234   1.182   9.332   5.286
 5092SOL    HW215235   1.198   9.185   5.319
 5093SOL     OW15236   0.341   7.699   5.510
 5093SOL    HW115237   0.384   7.767   5.561
 5093SOL    HW215238   0.249   7.703   5.537
 5094SOL     OW15239   1.473   8.865   4.656
 5094SOL    HW115240   1.409   8.884   4.724
 5094SOL    HW215241   1.454   8.774   4.631
 5095SOL     OW15242   1.646   9.230   4.291
 5095SOL    HW115243   1.623   9.188   4.208
 5095SOL    HW215244   1.638   9.160   4.356
 5096SOL     OW15245   0.616   8.169   4.005
 5096SOL    HW115246   0.619   8.253   3.961
 5096SOL    HW215247   0.545   8.177   4.068
 5097SOL     OW15248   1.282   7.841   4.665
 5097SOL    HW115249   1.193   7.806   4.670
 5097SOL    HW215250   1.334   7.782   4.720
 5098SOL     OW15251   1.579   9.119   4.044
 5098SOL    HW115252   1.673   9.135   4.032
 5098SOL    HW215253   1.546   9.108   3.955
 5099SOL     OW15254   0.790   8.059   5.159
 5099SOL    HW115255   0.762   8.031   5.246
 5099SOL    HW215256   0.766   7.987   5.102
 5100SOL     OW15257   1.391   7.925   5.397
 5100SOL    HW115258   1.397   7.968   5.482
 5100SOL    HW215259   1.442   7.844   5.408
 5101SOL     OW15260   0.944   8.329   5.314
 5101SOL    HW115261   1.000   8.265   5.270
 5101SOL    HW215262   0.897   8.372   5.244
 5102SOL     OW15263   1.009   7.845   4.933
 5102SOL    HW115264   0.917   7.859   4.955
 5102SOL    HW215265   1.007   7.801   4.848
 5103SOL     OW15266   1.065   8.148   4.143
 5103SOL    HW115267   1.086   8.145   4.237
 5103SOL    HW215268   0.982   8.102   4.136
 5104SOL     OW15269   0.074   8.285   4.527
 5104SOL    HW115270   0.159   8.276   4.570
 5104SOL    HW215271   0.015   8.316   4.596
 5105SOL     OW15272   0.109   9.314   5.320
 5105SOL    HW115273   0.108   9.299   5.414
 5105SOL    HW215274   0.026   9.276   5.289
 5106SOL     OW15275   0.895   7.797   3.923
 5106SOL    HW115276   0.943   7.853   3.862
 5106SOL    HW215277   0.875   7.718   3.873
 5107SOL     OW15278   1.687   8.011   5.564
 5107SOL    HW115279   1.665   8.088   5.512
 5107SOL    HW215280   1.715   7.946   5.500
 5108SOL     OW15281   1.393   8.598   4.267
 5108SOL    HW115282   1.472   8.587   4.215
 5108SOL    HW215283   1.339   8.658   4.216
 5109SOL     OW15284   0.560   7.617   4.639
 5109SOL    HW115285   0.565   7.643   4.731
 5109SOL    HW215286   0.553   7.700   4.591
 5110SOL     OW15287   0.995   8.898   4.189
 5110SOL    HW115288   0.973   8.974   4.136
 5110SOL    HW215289   0.967   8.922   4.278
 5111SOL     OW15290   0.356   9.262   4.595
 5111SOL    HW115291   0.400   9.178   4.606
 5111SOL    HW215292   0.421   9.327   4.625
 5112SOL     OW15293   1.804   8.492   4.613
 5112SOL    HW115294   1.756   8.477   4.531
 5112SOL    HW215295   1.736   8.501   4.679
 5113SOL     OW15296   1.219   8.992   5.241
 5113SOL    HW115297   1.207   8.920   5.302
 5113SOL    HW215298   1.149   8.980   5.176
 5114SOL     OW15299   0.313   8.386   4.000
 5114SOL    HW115300   0.391   8.402   3.946
 5114SOL    HW215301   0.328   8.300   4.039
 5115SOL     OW15302   1.485   8.211   4.435
 5115SOL    HW115303   1.487   8.168   4.520
 5115SOL    HW215304   1.564   8.264   4.433
 5116SOL     OW15305   0.486   8.722   5.458
 5116SOL    HW115306   0.463   8.728   5.365
 5116SOL    HW215307   0.401   8.716   5.503
 5117SOL     OW15308   1.137   9.223   3.946
 5117SOL    HW115309   1.058   9.191   3.988
 5117SOL    HW215310   1.158   9.158   3.879
 5118SOL     OW15311   0.221   7.730   5.221
 5118SOL    HW115312   0.130   7.756   5.207
 5118SOL    HW215313   0.216   7.660   5.287
 5119SOL     OW15314   1.639   8.836   3.824
 5119SOL    HW115315   1.598   8.922   3.811
 5119SOL    HW215316   1.571   8.773   3.797
 5120SOL     OW15317   0.472   9.198   4.041
 5120SOL    HW115318   0.519   9.251   4.105
 5120SOL    HW215319   0.540   9.151   3.993
 5121SOL     OW15320   1.398   7.554   4.182
 5121SOL    HW115321   1.398   7.529   4.090
 5121SOL    HW215322   1.489   7.540   4.210
 5122SOL     OW15323   0.224   9.223   4.934
 5122SOL    HW115324   0.280   9.150   4.960
 5122SOL    HW215325   0.186   9.195   4.851
 5123SOL     OW15326   0.951   9.147   4.616
 5123SOL    HW115327   1.036   9.105   4.630
 5123SOL    HW215328   0.911   9.095   4.546
 5124SOL     OW15329   0.394   8.152   4.177
 5124SOL    HW115330   0.415   8.059   4.186
 5124SOL    HW215331   0.309   8.162   4.218
 5125SOL     OW15332   1.508   7.671   5.441
 5125SOL    HW115333   1.521   7.690   5.534
 5125SOL    HW215334   1.442   7.601   5.439
 5126SOL     OW15335   0.658   7.551   3.823
 5126SOL    HW115336   0.707   7.472   3.848
 5126SOL    HW215337   0.599   7.523   3.753
 5127SOL     OW15338   0.757   7.725   5.479
 5127SOL    HW115339   0.842   7.680   5.478
 5127SOL    HW215340   0.711   7.686   5.553
 5128SOL     OW15341   0.870   8.974   4.922
 5128SOL    HW115342   0.853   8.932   4.838
 5128SOL    HW215343   0.938   8.919   4.962
 5129SOL     OW15344   1.329   8.040   5.157
 5129SOL    HW115345   1.362   8.009   5.241
 5129SOL    HW215346   1.368   8.127   5.146
 5130SOL     OW15347   0.819   8.823   4.682
 5130SOL    HW115348   0.906   8.819   4.642
 5130SOL    HW215349   0.760   8.838   4.609
 5131SOL     OW15350   0.929   7.963   4.612
 5131SOL    HW115351   0.904   7.950   4.520
 5131SOL    HW215352   0.956   7.876   4.642
 5132SOL     OW15353   0.593   7.509   4.216
 5132SOL    HW115354   0.523   7.516   4.281
 5132SOL    HW215355   0.578   7.583   4.158
 5133SOL     OW15356   1.434   8.661   3.757
 5133SOL    HW115357   1.463   8.587   3.810
 5133SOL    HW215358   1.348   8.684   3.793
 5134SOL     OW15359   0.309   7.489   3.885
 5134SOL    HW115360   0.337   7.579   3.901
 5134SOL    HW215361   0.370   7.436   3.936
 5135SOL     OW15362   0.960   7.699   4.174
 5135SOL    HW115363   0.932   7.734   4.089
 5135SOL    HW215364   1.053   7.719   4.179
 5136SOL     OW15365   1.074   8.141   5.168
 5136SOL    HW115366   1.011   8.070   5.174
 5136SOL    HW215367   1.160   8.098   5.165
 5137SOL     OW15368   1.210   9.034   4.527
 5137SOL    HW115369   1.223   9.094   4.453
 5137SOL    HW215370   1.281   9.054   4.588
 5138SOL     OW15371   0.491   8.608   4.447
 5138SOL    HW115372   0.431   8.585   4.518
 5138SOL    HW215373   0.441   8.590   4.367
 5139SOL     OW15374   1.254   9.236   4.339
 5139SOL    HW115375   1.302   9.300   4.286
 5139SOL    HW215376   1.183   9.287   4.378
 5140SOL     OW15377   1.032   7.965   3.752
 5140SOL    HW115378   0.989   8.048   3.733
 5140SOL    HW215379   1.096   7.986   3.821
 5141SOL     OW15380   0.104   8.034   5.084
 5141SOL    HW115381   0.195   8.022   5.056
 5141SOL    HW215382   0.110   8.091   5.161
 5142SOL     OW15383   0.564   7.670   4.908
 5142SOL    HW115384   0.600   7.601   4.965
 5142SOL    HW215385   0.470   7.670   4.928
 5143SOL     OW15386   0.871   7.899   4.354
 5143SOL    HW115387   0.839   7.956   4.284
 5143SOL    HW215388   0.898   7.819   4.309
 5144SOL     OW15389   1.028   7.506   4.467
 5144SOL    HW115390   0.969   7.496   4.392
 5144SOL    HW215391   1.004   7.433   4.525
 5145SOL     OW15392   1.434   8.601   4.578
 5145SOL    HW115393   1.364   8.537   4.587
 5145SOL    HW215394   1.448   8.608   4.484
 5146SOL     OW15395   1.463   8.064   4.673
 5146SOL    HW115396   1.399   7.994   4.683
 5146SOL    HW215397   1.518   8.058   4.750
 5147SOL     OW15398   1.829   8.244   4.111
 5147SOL    HW115399   1.889   8.201   4.172
 5147SOL    HW215400   1.815   8.180   4.041
 5148SOL     OW15401   0.495   8.876   3.861
 5148SOL    HW115402   0.409   8.856   3.899
 5148SOL    HW215403   0.498   8.824   3.781
 5149SOL     OW15404   1.707   8.719   4.357
 5149SOL    HW115405   1.801   8.713   4.378
 5149SOL    HW215406   1.683   8.808   4.383
 5150SOL     OW15407   1.393   8.024   3.789
 5150SOL    HW115408   1.337   7.997   3.861
 5150SOL    HW215409   1.482   7.999   3.817
 5151SOL     OW15410   0.549   7.702   4.031
 5151SOL    HW115411   0.593   7.654   3.961
 5151SOL    HW215412   0.529   7.787   3.992
 5152SOL     OW15413   1.735   8.692   5.256
 5152SOL    HW115414   1.823   8.658   5.242
 5152SOL    HW215415   1.749   8.779   5.293
 5153SOL     OW15416   1.043   8.802   5.058
 5153SOL    HW115417   0.965   8.768   5.102
 5153SOL    HW215418   1.116   8.757   5.099
 5154SOL     OW15419   1.608   9.083   5.396
 5154SOL    HW115420   1.597   9.119   5.308
 5154SOL    HW215421   1.686   9.027   5.389
 5155SOL     OW15422   1.151   8.684   4.828
 5155SOL    HW115423   1.089   8.719   4.893
 5155SOL    HW215424   1.118   8.717   4.745
 5156SOL     OW15425   1.610   8.539   4.800
 5156SOL    HW115426   1.602   8.606   4.869
 5156SOL    HW215427   1.540   8.560   4.738
 5157SOL     OW15428   0.921   7.529   5.108
 5157SOL    HW115429   0.941   7.514   5.016
 5157SOL    HW215430   1.001   7.570   5.143
 5158SOL     OW15431   0.981   8.563   5.446
 5158SOL    HW115432   0.891   8.578   5.475
 5158SOL    HW215433   0.976   8.483   5.394
 5159SOL     OW15434   0.711   8.510   4.104
 5159SOL    HW115435   0.697   8.485   4.195
 5159SOL    HW215436   0.787   8.459   4.077
 5160SOL     OW15437   0.421   8.282   4.984
 5160SOL    HW115438   0.490   8.293   5.050
 5160SOL    HW215439   0.397   8.190   4.990
 5161SOL     OW15440   1.265   7.816   5.016
 5161SOL    HW115441   1.293   7.896   5.060
 5161SOL    HW215442   1.176   7.834   4.986
 5162SOL     OW15443   0.075   9.022   5.077
 5162SOL    HW115444   0.072   9.111   5.040
 5162SOL    HW215445   0.168   9.003   5.084
 5163SOL     OW15446   0.339   8.558   4.222
 5163SOL    HW115447   0.337   8.647   4.187
 5163SOL    HW215448   0.331   8.502   4.145
 5164SOL     OW15449   0.535   7.964   4.578
 5164SOL    HW115450   0.546   8.028   4.507
 5164SOL    HW215451   0.601   7.990   4.643
 5165SOL     OW15452   1.246   8.800   4.121
 5165SOL    HW115453   1.302   8.870   4.155
 5165SOL    HW215454   1.158   8.823   4.152
 5166SOL     OW15455   1.309   8.915   4.867
 5166SOL    HW115456   1.357   8.922   4.950
 5166SOL    HW215457   1.258   8.835   4.875
 5167SOL     OW15458   1.574   8.066   4.209
 5167SOL    HW115459   1.524   8.106   4.279
 5167SOL    HW215460   1.623   8.138   4.170
 5168SOL     OW15461   0.345   8.977   5.031
 5168SOL    HW115462   0.335   8.933   4.947
 5168SOL    HW215463   0.439   8.997   5.037
 5169SOL     OW15464   0.451   8.182   5.344
 5169SOL    HW115465   0.507   8.225   5.280
 5169SOL    HW215466   0.500   8.104   5.371
 5170SOL     OW15467   1.627   8.234   5.422
 5170SOL    HW115468   1.540   8.272   5.413
 5170SOL    HW215469   1.678   8.272   5.350
 5171SOL     OW15470   0.994   7.591   5.485
 5171SOL    HW115471   1.052   7.664   5.464
 5171SOL    HW215472   1.044   7.513   5.463
 5172SOL     OW15473   0.504   7.482   5.471
 5172SOL    HW115474   0.456   7.429   5.407
 5172SOL    HW215475   0.450   7.559   5.483
 5173SOL     OW15476   0.591   8.322   4.765
 5173SOL    HW115477   0.628   8.410   4.764
 5173SOL    HW215478   0.531   8.322   4.839
 5174SOL     OW15479   1.309   8.300   4.727
 5174SOL    HW115480   1.221   8.273   4.702
 5174SOL    HW215481   1.364   8.225   4.708
 5175SOL     OW15482   1.200   7.972   3.980
 5175SOL    HW115483   1.211   7.896   4.036
 5175SOL    HW215484   1.161   8.038   4.037
 5176SOL     OW15485   0.297   7.643   4.965
 5176SOL    HW115486   0.270   7.674   5.051
 5176SOL    HW215487   0.278   7.549   4.965
 5177SOL     OW15488   0.008   8.767   5.004
 5177SOL    HW115489   0.053   8.716   5.071
 5177SOL    HW215490   0.020   8.858   5.030
 5178SOL     OW15491   0.709   8.069   4.763
 5178SOL    HW115492   0.788   8.064   4.708
 5178SOL    HW215493   0.681   8.160   4.756
 5179SOL     OW15494   1.751   8.416   5.594
 5179SOL    HW115495   1.711   8.343   5.545
 5179SOL    HW215496   1.687   8.436   5.662
 5180SOL     OW15497   0.376   7.541   4.372
 5180SOL    HW115498   0.350   7.621   4.418
 5180SOL    HW215499   0.310   7.476   4.397
 5181SOL     OW15500   1.632   7.838   4.068
 5181SOL    HW115501   1.664   7.773   4.130
 5181SOL    HW215502   1.602   7.911   4.123
 5182SOL     OW15503   1.035   8.205   4.680
 5182SOL    HW115504   1.014   8.220   4.772
 5182SOL    HW215505   1.005   8.116   4.662
 5183SOL     OW15506   0.983   9.014   5.456
 5183SOL    HW115507   0.963   9.057   5.373
 5183SOL    HW215508   1.021   8.930   5.431
 5184SOL     OW15509   1.838   8.942   5.327
 5184SOL    HW115510   1.865   8.971   5.239
 5184SOL    HW215511   1.916   8.953   5.380
 5185SOL     OW15512   0.363   8.366   5.535
 5185SOL    HW115513   0.436   8.391   5.591
 5185SOL    HW215514   0.399   8.300   5.476
 5186SOL     OW15515   1.522   7.717   3.843
 5186SOL    HW115516   1.470   7.646   3.880
 5186SOL    HW215517   1.561   7.760   3.918
 5187SOL     OW15518   1.281   8.270   3.743
 5187SOL    HW115519   1.321   8.183   3.751
 5187SOL    HW215520   1.318   8.306   3.663
 5188SOL     OW15521   1.072   8.801   4.590
 5188SOL    HW115522   1.083   8.729   4.528
 5188SOL    HW215523   1.125   8.872   4.553
 5189SOL     OW15524   0.317   8.252   4.666
 5189SOL    HW115525   0.411   8.267   4.664
 5189SOL    HW215526   0.308   8.161   4.695
 5190SOL     OW15527   0.314   7.974   4.734
 5190SOL    HW115528   0.271   7.889   4.726
 5190SOL    HW215529   0.389   7.969   4.674
 5191SOL     OW15530   1.138   7.816   5.409
 5191SOL    HW115531   1.093   7.868   5.476
 5191SOL    HW215532   1.224   7.858   5.400
 5192SOL     OW15533   1.158   7.638   5.199
 5192SOL    HW115534   1.146   7.700   5.270
 5192SOL    HW215535   1.204   7.687   5.131
 5193SOL     OW15536   9.967   8.780   3.943
 5193SOL    HW115537   9.931   8.770   3.855
 5193SOL    HW215538   9.987   8.691   3.972
 5194SOL     OW15539   0.120   9.136   4.690
 5194SOL    HW115540   0.134   9.050   4.651
 5194SOL    HW215541   0.179   9.195   4.642
 5195SOL     OW15542   0.499   9.024   4.632
 5195SOL    HW115543   0.567   9.089   4.647
 5195SOL    HW215544   0.538   8.961   4.571
 5196SOL     OW15545   0.949   8.227   4.937
 5196SOL    HW115546   1.010   8.216   5.010
 5196SOL    HW215547   0.869   8.183   4.965
 5197SOL     OW15548   0.039   8.014   4.809
 5197SOL    HW115549   0.132   8.016   4.786
 5197SOL    HW215550   0.038   8.019   4.904
 5198SOL     OW15551   0.170   7.964   5.423
 5198SOL    HW115552   0.226   7.912   5.365
 5198SOL    HW215553   0.159   8.047   5.377
 5199SOL     OW15554   1.392   8.369   5.376
 5199SOL    HW115555   1.409   8.463   5.370
 5199SOL    HW215556   1.384   8.341   5.284
 5200SOL     OW15557   0.829   8.015   4.099
 5200SOL    HW115558   0.832   7.943   4.037
 5200SOL    HW215559   0.757   8.071   4.068
 5201SOL     OW15560   1.635   8.049   4.887
 5201SOL    HW115561   1.625   7.990   4.962
 5201SOL    HW215562   1.726   8.038   4.859
 5202SOL     OW15563   0.252   9.009   5.436
 5202SOL    HW115564   0.232   9.056   5.517
 5202SOL    HW215565   0.262   8.918   5.464
 5203SOL     OW15566   0.737   7.882   4.958
 5203SOL    HW115567   0.673   7.812   4.946
 5203SOL    HW215568   0.717   7.946   4.890
 5204SOL     OW15569   0.910   9.127   5.210
 5204SOL    HW115570   0.883   9.080   5.131
 5204SOL    HW215571   0.909   9.219   5.184
 5205SOL     OW15572   0.519   7.936   3.894
 5205SOL    HW115573   0.567   8.012   3.927
 5205SOL    HW215574   0.438   7.973   3.857
 5206SOL     OW15575   0.155   8.600   5.166
 5206SOL    HW115576   0.148   8.559   5.252
 5206SOL    HW215577   0.164   8.527   5.105
 5207SOL     OW15578   1.304   8.482   4.932
 5207SOL    HW115579   1.313   8.418   4.861
 5207SOL    HW215580   1.250   8.551   4.895
 5208SOL     OW15581   1.324   8.309   4.015
 5208SOL    HW115582   1.254   8.273   4.069
 5208SOL    HW215583   1.296   8.293   3.925
 5209SOL     OW15584   1.788   9.170   4.896
 5209SOL    HW115585   1.849   9.196   4.827
 5209SOL    HW215586   1.755   9.085   4.867
 5210SOL     OW15587   1.240   9.180   4.816
 5210SOL    HW115588   1.324   9.209   4.781
 5210SOL    HW215589   1.255   9.088   4.840
 5211SOL     OW15590   0.101   8.625   4.774
 5211SOL    HW115591   0.105   8.683   4.850
 5211SOL    HW215592   0.008   8.620   4.752
 5212SOL     OW15593   0.694   9.126   5.475
 5212SOL    HW115594   0.631   9.197   5.459
 5212SOL    HW215595   0.769   9.148   5.419
 5213SOL     OW15596   1.744   7.632   4.221
 5213SOL    HW115597   1.803   7.612   4.148
 5213SOL    HW215598   1.717   7.546   4.254
 5214SOL     OW15599   1.396   9.015   4.226
 5214SOL    HW115600   1.451   9.051   4.156
 5214SOL    HW215601   1.342   9.090   4.254
 5215SOL     OW15602   0.111   9.224   5.587
 5215SOL    HW115603   0.068   9.178   5.660
 5215SOL    HW215604   0.183   9.271   5.628
 5216SOL     OW15605   1.280   8.384   4.388
 5216SOL    HW115606   1.353   8.325   4.401
 5216SOL    HW215607   1.315   8.456   4.336
 5217SOL     OW15608   0.784   8.729   5.136
 5217SOL    HW115609   0.761   8.777   5.215
 5217SOL    HW215610   0.709   8.741   5.077
 5218SOL     OW15611   0.674   9.080   3.885
 5218SOL    HW115612   0.690   9.096   3.792
 5218SOL    HW215613   0.618   9.002   3.886
 5219SOL     OW15614   1.617   9.176   5.126
 5219SOL    HW115615   1.674   9.175   5.049
 5219SOL    HW215616   1.600   9.269   5.142
 5220SOL     OW15617   1.845   7.608   4.689
 5220SOL    HW115618   1.873   7.519   4.668
 5220SOL    HW215619   1.758   7.615   4.651
 5221SOL     OW15620   0.277   7.775   4.463
 5221SOL    HW115621   0.199   7.817   4.427
 5221SOL    HW215622   0.256   7.758   4.554
 5222SOL     OW15623   1.211   9.035   3.760
 5222SOL    HW115624   1.200   8.944   3.788
 5222SOL    HW215625   1.142   9.049   3.695
 5223SOL     OW15626   0.826   8.461   5.106
 5223SOL    HW115627   0.861   8.452   5.018
 5223SOL    HW215628   0.813   8.555   5.118
 5224SOL     OW15629   0.920   8.361   4.026
 5224SOL    HW115630   0.973   8.390   3.951
 5224SOL    HW215631   0.974   8.294   4.068
 5225SOL     OW15632   1.483   9.093   3.782
 5225SOL    HW115633   1.392   9.072   3.764
 5225SOL    HW215634   1.524   9.097   3.695
 5226SOL     OW15635   0.374   8.763   5.216
 5226SOL    HW115636   0.364   8.840   5.160
 5226SOL    HW215637   0.299   8.707   5.194
 5227SOL     OW15638   1.600   8.737   5.001
 5227SOL    HW115639   1.654   8.713   5.076
 5227SOL    HW215640   1.540   8.804   5.034
 5228SOL     OW15641   1.078   8.567   4.453
 5228SOL    HW115642   1.002   8.518   4.485
 5228SOL    HW215643   1.139   8.501   4.423
 5229SOL     OW15644   1.033   7.697   4.685
 5229SOL    HW115645   1.033   7.654   4.599
 5229SOL    HW215646   1.026   7.625   4.748
 5230SOL     OW15647   0.605   8.935   4.206
 5230SOL    HW115648   0.656   8.888   4.141
 5230SOL    HW215649   0.516   8.938   4.169
 5231SOL     OW15650   1.745   7.830   5.113
 5231SOL    HW115651   1.816   7.894   5.108
 5231SOL    HW215652   1.772   7.761   5.051
 5232SOL     OW15653   0.242   8.810   3.966
 5232SOL    HW115654   0.148   8.796   3.968
 5232SOL    HW215655   0.266   8.825   4.057
 5233SOL     OW15656   0.141   8.457   5.399
 5233SOL    HW115657   0.075   8.480   5.465
 5233SOL    HW215658   0.222   8.445   5.449
 5234SOL     OW15659   0.685   7.639   5.220
 5234SOL    HW115660   0.769   7.614   5.183
 5234SOL    HW215661   0.707   7.671   5.308
 5235SOL     OW15662   0.074   7.763   3.717
 5235SOL    HW115663   9.979   7.751   3.725
 5235SOL    HW215664   0.085   7.839   3.661
 5236SOL     OW15665   1.415   8.302   5.112
 5236SOL    HW115666   1.362   8.360   5.057
 5236SOL    HW215667   1.503   8.306   5.074
 5237SOL     OW15668   0.060   7.519   3.987
 5237SOL    HW115669   0.076   7.571   4.065
 5237SOL    HW215670   0.146   7.502   3.950
 5238SOL     OW15671   1.180   8.770   3.846
 5238SOL    HW115672   1.087   8.748   3.844
 5238SOL    HW215673   1.203   8.772   3.939
 5239SOL     OW15674   0.629   8.280   5.160
 5239SOL    HW115675   0.687   8.354   5.148
 5239SOL    HW215676   0.687   8.203   5.159
 5240SOL     OW15677   1.485   9.242   4.713
 5240SOL    HW115678   1.509   9.320   4.663
 5240SOL    HW215679   1.569   9.200   4.734
 5241SOL     OW15680   0.712   8.002   5.416
 5241SOL    HW115681   0.762   8.055   5.477
 5241SOL    HW215682   0.724   7.912   5.446
 5242SOL     OW15683   1.469   8.632   5.343
 5242SOL    HW115684   1.461   8.655   5.436
 5242SOL    HW215685   1.558   8.656   5.320
 5243SOL     OW15686   0.357   9.204   5.277
 5243SOL    HW115687   0.275   9.252   5.269
 5243SOL    HW215688   0.332   9.120   5.317
 5244SOL     OW15689   1.655   8.323   4.977
 5244SOL    HW115690   1.653   8.240   4.930
 5244SOL    HW215691   1.643   8.389   4.908
 5245SOL     OW15692   1.226   7.774   4.179
 5245SOL    HW115693   1.285   7.698   4.178
 5245SOL    HW215694   1.254   7.825   4.254
 5246SOL     OW15695   0.569   8.177   4.403
 5246SOL    HW115696   0.617   8.259   4.394
 5246SOL    HW215697   0.511   8.174   4.327
 5247SOL     OW15698   1.747   7.803   5.388
 5247SOL    HW115699   1.744   7.819   5.294
 5247SOL    HW215700   1.670   7.750   5.406
 5248SOL     OW15701   1.760   8.373   5.227
 5248SOL    HW115702   1.743   8.466   5.240
 5248SOL    HW215703   1.733   8.355   5.137
 5249SOL     OW15704   0.878   8.805   3.790
 5249SOL    HW115705   0.835   8.824   3.874
 5249SOL    HW215706   0.883   8.890   3.747
 5250SOL     OW15707   0.675   9.226   4.642
 5250SOL    HW115708   0.654   9.319   4.636
 5250SOL    HW215709   0.770   9.222   4.644
 5251SOL     OW15710   0.875   8.425   4.581
 5251SOL    HW115711   0.925   8.351   4.617
 5251SOL    HW215712   0.829   8.462   4.656
 5252SOL     OW15713   1.063   8.419   3.806
 5252SOL    HW115714   1.048   8.480   3.734
 5252SOL    HW215715   1.141   8.371   3.780
 5253SOL     OW15716   1.829   9.005   4.564
 5253SOL    HW115717   1.753   8.996   4.507
 5253SOL    HW215718   1.806   8.954   4.642
 5254SOL     OW15719   0.241   8.755   5.563
 5254SOL    HW115720   0.149   8.754   5.536
 5254SOL    HW215721   0.238   8.764   5.658
 5255SOL     OW15722   0.153   8.670   4.397
 5255SOL    HW115723   0.085   8.618   4.439
 5255SOL    HW215724   0.208   8.606   4.353
 5256SOL     OW15725   0.700   8.866   5.357
 5256SOL    HW115726   0.622   8.825   5.394
 5256SOL    HW215727   0.701   8.954   5.395
 5257SOL     OW15728   1.810   7.619   4.959
 5257SOL    HW115729   1.812   7.524   4.972
 5257SOL    HW215730   1.824   7.631   4.865
 5258SOL     OW15731   0.434   7.891   4.244
 5258SOL    HW115732   0.493   7.824   4.211
 5258SOL    HW215733   0.408   7.861   4.331
 5259SOL     OW15734   1.696   8.927   4.805
 5259SOL    HW115735   1.617   8.908   4.754
 5259SOL    HW215736   1.697   8.860   4.873
 5260SOL     OW15737   0.365   8.018   5.008
 5260SOL    HW115738   0.415   7.955   5.061
 5260SOL    HW215739   0.368   7.983   4.919
 5261SOL     OW15740   0.841   9.025   4.397
 5261SOL    HW115741   0.807   9.091   4.336
 5261SOL    HW215742   0.767   8.966   4.412
 5262SOL     OW15743   1.421   7.681   4.839
 5262SOL    HW115744   1.429   7.591   4.871
 5262SOL    HW215745   1.376   7.727   4.908
 5263SOL     OW15746   1.011   7.465   4.844
 5263SOL    HW115747   0.956   7.402   4.797
 5263SOL    HW215748   1.097   7.425   4.848
 5264SOL     OW15749   0.776   8.780   4.053
 5264SOL    HW115750   0.753   8.688   4.067
 5264SOL    HW215751   0.856   8.793   4.104
 5265SOL     OW15752   0.616   9.014   5.010
 5265SOL    HW115753   0.614   9.098   5.056
 5265SOL    HW215754   0.706   9.008   4.976
 5266SOL     OW15755   1.383   7.487   3.915
 5266SOL    HW115756   1.423   7.415   3.868
 5266SOL    HW215757   1.291   7.461   3.926
 5267SOL     OW15758   1.300   7.920   4.399
 5267SOL    HW115759   1.249   8.001   4.397
 5267SOL    HW215760   1.292   7.890   4.490
 5268SOL     OW15761   1.582   7.636   4.617
 5268SOL    HW115762   1.530   7.665   4.692
 5268SOL    HW215763   1.583   7.710   4.557
 5269SOL     OW15764   0.067   8.538   4.022
 5269SOL    HW115765   0.142   8.486   3.994
 5269SOL    HW215766   0.031   8.492   4.097
 5270SOL     OW15767   0.900   9.120   4.056
 5270SOL    HW115768   0.820   9.107   4.004
 5270SOL    HW215769   0.879   9.193   4.115
 5271SOL     OW15770   0.286   8.041   5.667
 5271SOL    HW115771   0.220   8.060   5.733
 5271SOL    HW215772   0.236   8.022   5.587
 5272SOL     OW15773   0.198   7.728   6.584
 5272SOL    HW115774   0.235   7.693   6.665
 5272SOL    HW215775   0.106   7.702   6.586
 5273SOL     OW15776   0.041   7.874   6.216
 5273SOL    HW115777   9.949   7.885   6.239
 5273SOL    HW215778   0.041   7.810   6.145
 5274SOL     OW15779   0.569   8.754   6.787
 5274SOL    HW115780   0.486   8.757   6.740
 5274SOL    HW215781   0.585   8.845   6.812
 5275SOL     OW15782   1.587   8.970   6.291
 5275SOL    HW115783   1.540   8.940   6.369
 5275SOL    HW215784   1.520   8.973   6.222
 5276SOL     OW15785   1.139   8.153   6.273
 5276SOL    HW115786   1.185   8.236   6.262
 5276SOL    HW215787   1.090   8.163   6.355
 5277SOL     OW15788   1.801   8.029   5.806
 5277SOL    HW115789   1.762   8.029   5.718
 5277SOL    HW215790   1.757   7.958   5.852
 5278SOL     OW15791   0.728   8.577   6.643
 5278SOL    HW115792   0.666   8.617   6.704
 5278SOL    HW215793   0.771   8.651   6.601
 5279SOL     OW15794   0.888   8.193   7.412
 5279SOL    HW115795   0.895   8.261   7.478
 5279SOL    HW215796   0.903   8.238   7.329
 5280SOL     OW15797   0.687   8.431   6.234
 5280SOL    HW115798   0.757   8.430   6.299
 5280SOL    HW215799   0.624   8.494   6.268
 5281SOL     OW15800   0.717   8.597   7.421
 5281SOL    HW115801   0.768   8.670   7.455
 5281SOL    HW215802   0.644   8.637   7.376
 5282SOL     OW15803   0.335   8.871   6.648
 5282SOL    HW115804   0.259   8.855   6.592
 5282SOL    HW215805   0.393   8.925   6.594
 5283SOL     OW15806   1.454   8.953   6.958
 5283SOL    HW115807   1.509   9.030   6.971
 5283SOL    HW215808   1.382   8.965   7.020
 5284SOL     OW15809   0.478   7.833   7.036
 5284SOL    HW115810   0.549   7.771   7.053
 5284SOL    HW215811   0.399   7.788   7.068
 5285SOL     OW15812   1.584   7.880   6.341
 5285SOL    HW115813   1.518   7.890   6.273
 5285SOL    HW215814   1.566   7.950   6.404
 5286SOL     OW15815   0.239   9.099   6.030
 5286SOL    HW115816   0.188   9.167   6.074
 5286SOL    HW215817   0.314   9.145   5.994
 5287SOL     OW15818   1.136   8.789   7.282
 5287SOL    HW115819   1.181   8.778   7.365
 5287SOL    HW215820   1.083   8.710   7.272
 5288SOL     OW15821   0.291   8.841   6.089
 5288SOL    HW115822   0.268   8.934   6.087
 5288SOL    HW215823   0.234   8.804   6.156
 5289SOL     OW15824   0.308   8.528   6.492
 5289SOL    HW115825   0.301   8.434   6.509
 5289SOL    HW215826   0.237   8.568   6.542
 5290SOL     OW15827   0.589   9.250   7.003
 5290SOL    HW115828   0.506   9.235   7.047
 5290SOL    HW215829   0.617   9.337   7.032
 5291SOL     OW15830   0.570   8.437   5.739
 5291SOL    HW115831   0.622   8.478   5.670
 5291SOL    HW215832   0.608   8.470   5.821
 5292SOL     OW15833   1.591   7.580   7.046
 5292SOL    HW115834   1.630   7.656   7.002
 5292SOL    HW215835   1.560   7.614   7.129
 5293SOL     OW15836   0.147   8.123   6.159
 5293SOL    HW115837   0.113   8.038   6.186
 5293SOL    HW215838   0.124   8.182   6.231
 5294SOL     OW15839   1.847   9.188   5.902
 5294SOL    HW115840   1.918   9.173   5.965
 5294SOL    HW215841   1.855   9.281   5.879
 5295SOL     OW15842   0.019   9.068   5.798
 5295SOL    HW115843   0.001   8.974   5.788
 5295SOL    HW215844   0.079   9.073   5.873
 5296SOL     OW15845   1.698   8.374   6.238
 5296SOL    HW115846   1.779   8.329   6.215
 5296SOL    HW215847   1.676   8.426   6.161
 5297SOL     OW15848   1.657   8.553   6.018
 5297SOL    HW115849   1.741   8.545   5.975
 5297SOL    HW215850   1.671   8.618   6.087
 5298SOL     OW15851   0.178   8.203   7.156
 5298SOL    HW115852   0.273   8.201   7.161
 5298SOL    HW215853   0.154   8.293   7.177
 5299SOL     OW15854   0.628   8.846   6.323
 5299SOL    HW115855   0.585   8.761   6.330
 5299SOL    HW215856   0.610   8.875   6.234
 5300SOL     OW15857   1.271   8.673   7.003
 5300SOL    HW115858   1.298   8.604   6.943
 5300SOL    HW215859   1.333   8.668   7.076
 5301SOL     OW15860   0.854   7.455   6.106
 5301SOL    HW115861   0.894   7.537   6.076
 5301SOL    HW215862   0.760   7.472   6.106
 5302SOL     OW15863   0.164   8.385   6.862
 5302SOL    HW115864   0.253   8.352   6.853
 5302SOL    HW215865   0.133   8.396   6.771
 5303SOL     OW15866   1.534   8.463   5.786
 5303SOL    HW115867   1.465   8.403   5.815
 5303SOL    HW215868   1.576   8.493   5.866
 5304SOL     OW15869   1.182   9.271   7.221
 5304SOL    HW115870   1.181   9.332   7.148
 5304SOL    HW215871   1.197   9.185   7.181
 5305SOL     OW15872   0.342   7.699   7.373
 5305SOL    HW115873   0.385   7.768   7.423
 5305SOL    HW215874   0.250   7.703   7.399
 5306SOL     OW15875   1.472   8.865   6.517
 5306SOL    HW115876   1.409   8.884   6.586
 5306SOL    HW215877   1.454   8.774   6.493
 5307SOL     OW15878   1.646   9.230   6.153
 5307SOL    HW115879   1.622   9.188   6.070
 5307SOL    HW215880   1.638   9.160   6.218
 5308SOL     OW15881   0.616   8.168   5.867
 5308SOL    HW115882   0.619   8.253   5.822
 5308SOL    HW215883   0.545   8.178   5.930
 5309SOL     OW15884   1.282   7.841   6.527
 5309SOL    HW115885   1.193   7.806   6.532
 5309SOL    HW215886   1.334   7.783   6.582
 5310SOL     OW15887   1.579   9.119   5.906
 5310SOL    HW115888   1.673   9.134   5.894
 5310SOL    HW215889   1.546   9.108   5.816
 5311SOL     OW15890   0.790   8.059   7.021
 5311SOL    HW115891   0.762   8.031   7.108
 5311SOL    HW215892   0.765   7.987   6.964
 5312SOL     OW15893   1.391   7.925   7.259
 5312SOL    HW115894   1.397   7.968   7.344
 5312SOL    HW215895   1.442   7.844   7.270
 5313SOL     OW15896   0.944   8.329   7.176
 5313SOL    HW115897   1.000   8.265   7.132
 5313SOL    HW215898   0.897   8.372   7.105
 5314SOL     OW15899   1.009   7.845   6.795
 5314SOL    HW115900   0.917   7.859   6.817
 5314SOL    HW215901   1.007   7.801   6.710
 5315SOL     OW15902   1.065   8.148   6.005
 5315SOL    HW115903   1.086   8.145   6.099
 5315SOL    HW215904   0.982   8.102   5.998
 5316SOL     OW15905   0.074   8.285   6.389
 5316SOL    HW115906   0.159   8.276   6.432
 5316SOL    HW215907   0.015   8.316   6.458
 5317SOL     OW15908   0.109   9.314   7.181
 5317SOL    HW115909   0.108   9.300   7.276
 5317SOL    HW215910   0.027   9.275   7.151
 5318SOL     OW15911   0.896   7.797   5.785
 5318SOL    HW115912   0.943   7.853   5.724
 5318SOL    HW215913   0.876   7.718   5.735
 5319SOL     OW15914   1.686   8.011   7.426
 5319SOL    HW115915   1.665   8.088   7.374
 5319SOL    HW215916   1.715   7.946   7.362
 5320SOL     OW15917   1.393   8.598   6.129
 5320SOL    HW115918   1.473   8.586   6.077
 5320SOL    HW215919   1.339   8.658   6.078
 5321SOL     OW15920   0.562   7.618   6.501
 5321SOL    HW115921   0.566   7.644   6.593
 5321SOL    HW215922   0.554   7.701   6.453
 5322SOL     OW15923   0.995   8.898   6.051
 5322SOL    HW115924   0.973   8.974   5.998
 5322SOL    HW215925   0.967   8.922   6.139
 5323SOL     OW15926   0.356   9.262   6.457
 5323SOL    HW115927   0.400   9.178   6.468
 5323SOL    HW215928   0.421   9.327   6.486
 5324SOL     OW15929   1.804   8.492   6.475
 5324SOL    HW115930   1.756   8.477   6.393
 5324SOL    HW215931   1.736   8.501   6.541
 5325SOL     OW15932   1.218   8.991   7.102
 5325SOL    HW115933   1.207   8.920   7.164
 5325SOL    HW215934   1.150   8.978   7.037
 5326SOL     OW15935   0.314   8.387   5.862
 5326SOL    HW115936   0.391   8.403   5.808
 5326SOL    HW215937   0.329   8.300   5.901
 5327SOL     OW15938   1.485   8.211   6.297
 5327SOL    HW115939   1.487   8.168   6.382
 5327SOL    HW215940   1.564   8.265   6.295
 5328SOL     OW15941   0.485   8.722   7.320
 5328SOL    HW115942   0.463   8.728   7.227
 5328SOL    HW215943   0.401   8.716   7.365
 5329SOL     OW15944   1.137   9.223   5.808
 5329SOL    HW115945   1.058   9.191   5.850
 5329SOL    HW215946   1.158   9.158   5.741
 5330SOL     OW15947   0.220   7.729   7.083
 5330SOL    HW115948   0.129   7.756   7.070
 5330SOL    HW215949   0.214   7.658   7.147
 5331SOL     OW15950   1.639   8.836   5.686
 5331SOL    HW115951   1.598   8.922   5.673
 5331SOL    HW215952   1.572   8.773   5.659
 5332SOL     OW15953   0.472   9.198   5.902
 5332SOL    HW115954   0.519   9.251   5.966
 5332SOL    HW215955   0.540   9.151   5.855
 5333SOL     OW15956   1.399   7.553   6.044
 5333SOL    HW115957   1.398   7.529   5.952
 5333SOL    HW215958   1.489   7.539   6.073
 5334SOL     OW15959   0.224   9.223   6.796
 5334SOL    HW115960   0.281   9.150   6.822
 5334SOL    HW215961   0.186   9.195   6.713
 5335SOL     OW15962   0.951   9.147   6.478
 5335SOL    HW115963   1.037   9.105   6.492
 5335SOL    HW215964   0.911   9.095   6.408
 5336SOL     OW15965   0.395   8.151   6.039
 5336SOL    HW115966   0.414   8.058   6.048
 5336SOL    HW215967   0.309   8.162   6.080
 5337SOL     OW15968   1.508   7.671   7.303
 5337SOL    HW115969   1.520   7.690   7.396
 5337SOL    HW215970   1.443   7.601   7.301
 5338SOL     OW15971   0.658   7.551   5.685
 5338SOL    HW115972   0.707   7.473   5.710
 5338SOL    HW215973   0.599   7.523   5.616
 5339SOL     OW15974   0.757   7.725   7.341
 5339SOL    HW115975   0.841   7.680   7.340
 5339SOL    HW215976   0.710   7.687   7.416
 5340SOL     OW15977   0.870   8.974   6.784
 5340SOL    HW115978   0.853   8.932   6.700
 5340SOL    HW215979   0.938   8.919   6.824
 5341SOL     OW15980   1.329   8.040   7.019
 5341SOL    HW115981   1.362   8.009   7.103
 5341SOL    HW215982   1.368   8.127   7.007
 5342SOL     OW15983   0.819   8.823   6.544
 5342SOL    HW115984   0.906   8.819   6.504
 5342SOL    HW215985   0.760   8.838   6.471
 5343SOL     OW15986   0.929   7.963   6.474
 5343SOL    HW115987   0.904   7.950   6.382
 5343SOL    HW215988   0.956   7.876   6.504
 5344SOL     OW15989   0.592   7.508   6.079
 5344SOL    HW115990   0.523   7.515   6.145
 5344SOL    HW215991   0.577   7.583   6.021
 5345SOL     OW15992   1.434   8.661   5.619
 5345SOL    HW115993   1.463   8.587   5.671
 5345SOL    HW215994   1.348   8.684   5.655
 5346SOL     OW15995   0.309   7.489   5.747
 5346SOL    HW115996   0.338   7.579   5.762
 5346SOL    HW215997   0.370   7.435   5.798
 5347SOL     OW15998   0.960   7.699   6.036
 5347SOL    HW115999   0.932   7.734   5.951
 5347SOL    HW216000   1.053   7.719   6.041
 5348SOL     OW16001   1.074   8.141   7.030
 5348SOL    HW116002   1.011   8.069   7.036
 5348SOL    HW216003   1.160   8.098   7.026
 5349SOL     OW16004   1.209   9.035   6.389
 5349SOL    HW116005   1.223   9.094   6.316
 5349SOL    HW216006   1.281   9.054   6.450
 5350SOL     OW16007   0.491   8.608   6.309
 5350SOL    HW116008   0.431   8.585   6.381
 5350SOL    HW216009   0.441   8.590   6.230
 5351SOL     OW16010   1.254   9.236   6.201
 5351SOL    HW116011   1.302   9.300   6.148
 5351SOL    HW216012   1.183   9.287   6.240
 5352SOL     OW16013   1.032   7.965   5.614
 5352SOL    HW116014   0.989   8.048   5.595
 5352SOL    HW216015   1.096   7.986   5.683
 5353SOL     OW16016   0.104   8.035   6.946
 5353SOL    HW116017   0.195   8.023   6.918
 5353SOL    HW216018   0.110   8.091   7.023
 5354SOL     OW16019   0.564   7.670   6.771
 5354SOL    HW116020   0.599   7.600   6.826
 5354SOL    HW216021   0.470   7.670   6.790
 5355SOL     OW16022   0.870   7.899   6.216
 5355SOL    HW116023   0.839   7.956   6.146
 5355SOL    HW216024   0.898   7.819   6.171
 5356SOL     OW16025   1.028   7.506   6.329
 5356SOL    HW116026   0.969   7.497   6.254
 5356SOL    HW216027   1.004   7.433   6.387
 5357SOL     OW16028   1.434   8.601   6.440
 5357SOL    HW116029   1.364   8.537   6.449
 5357SOL    HW216030   1.449   8.608   6.346
 5358SOL     OW16031   1.463   8.064   6.535
 5358SOL    HW116032   1.399   7.994   6.545
 5358SOL    HW216033   1.518   8.058   6.612
 5359SOL     OW16034   1.828   8.244   5.974
 5359SOL    HW116035   1.889   8.201   6.034
 5359SOL    HW216036   1.815   8.180   5.903
 5360SOL     OW16037   0.495   8.876   5.723
 5360SOL    HW116038   0.409   8.856   5.761
 5360SOL    HW216039   0.498   8.823   5.643
 5361SOL     OW16040   1.708   8.719   6.220
 5361SOL    HW116041   1.801   8.713   6.240
 5361SOL    HW216042   1.683   8.808   6.245
 5362SOL     OW16043   1.394   8.024   5.651
 5362SOL    HW116044   1.337   7.997   5.723
 5362SOL    HW216045   1.482   7.999   5.678
 5363SOL     OW16046   0.548   7.702   5.893
 5363SOL    HW116047   0.593   7.654   5.823
 5363SOL    HW216048   0.528   7.787   5.855
 5364SOL     OW16049   1.735   8.692   7.118
 5364SOL    HW116050   1.823   8.658   7.104
 5364SOL    HW216051   1.749   8.779   7.155
 5365SOL     OW16052   1.043   8.803   6.920
 5365SOL    HW116053   0.965   8.768   6.964
 5365SOL    HW216054   1.116   8.757   6.961
 5366SOL     OW16055   1.608   9.083   7.258
 5366SOL    HW116056   1.597   9.119   7.170
 5366SOL    HW216057   1.686   9.027   7.251
 5367SOL     OW16058   1.151   8.684   6.691
 5367SOL    HW116059   1.089   8.719   6.755
 5367SOL    HW216060   1.119   8.717   6.607
 5368SOL     OW16061   1.609   8.539   6.662
 5368SOL    HW116062   1.602   8.605   6.731
 5368SOL    HW216063   1.540   8.560   6.600
 5369SOL     OW16064   0.921   7.529   6.970
 5369SOL    HW116065   0.941   7.514   6.878
 5369SOL    HW216066   1.001   7.569   7.005
 5370SOL     OW16067   0.981   8.563   7.308
 5370SOL    HW116068   0.891   8.578   7.337
 5370SOL    HW216069   0.976   8.483   7.256
 5371SOL     OW16070   0.711   8.510   5.966
 5371SOL    HW116071   0.697   8.485   6.057
 5371SOL    HW216072   0.788   8.459   5.939
 5372SOL     OW16073   0.420   8.282   6.847
 5372SOL    HW116074   0.489   8.294   6.912
 5372SOL    HW216075   0.397   8.190   6.852
 5373SOL     OW16076   1.265   7.815   6.878
 5373SOL    HW116077   1.293   7.896   6.922
 5373SOL    HW216078   1.176   7.834   6.848
 5374SOL     OW16079   0.075   9.023   6.939
 5374SOL    HW116080   0.072   9.111   6.901
 5374SOL    HW216081   0.168   9.003   6.946
 5375SOL     OW16082   0.339   8.558   6.084
 5375SOL    HW116083   0.337   8.647   6.049
 5375SOL    HW216084   0.331   8.502   6.007
 5376SOL     OW16085   0.535   7.965   6.440
 5376SOL    HW116086   0.546   8.028   6.369
 5376SOL    HW216087   0.601   7.990   6.505
 5377SOL     OW16088   1.246   8.800   5.983
 5377SOL    HW116089   1.302   8.870   6.017
 5377SOL    HW216090   1.158   8.823   6.014
 5378SOL     OW16091   1.309   8.915   6.729
 5378SOL    HW116092   1.357   8.922   6.812
 5378SOL    HW216093   1.258   8.835   6.737
 5379SOL     OW16094   1.574   8.065   6.072
 5379SOL    HW116095   1.523   8.106   6.142
 5379SOL    HW216096   1.623   8.137   6.032
 5380SOL     OW16097   0.345   8.977   6.893
 5380SOL    HW116098   0.335   8.933   6.809
 5380SOL    HW216099   0.439   8.997   6.899
 5381SOL     OW16100   0.451   8.183   7.207
 5381SOL    HW116101   0.507   8.226   7.142
 5381SOL    HW216102   0.500   8.105   7.233
 5382SOL     OW16103   1.627   8.234   7.284
 5382SOL    HW116104   1.540   8.272   7.275
 5382SOL    HW216105   1.678   8.272   7.212
 5383SOL     OW16106   0.994   7.591   7.347
 5383SOL    HW116107   1.052   7.664   7.326
 5383SOL    HW216108   1.044   7.513   7.325
 5384SOL     OW16109   0.505   7.481   7.333
 5384SOL    HW116110   0.457   7.429   7.269
 5384SOL    HW216111   0.451   7.559   7.345
 5385SOL     OW16112   0.591   8.322   6.627
 5385SOL    HW116113   0.628   8.410   6.626
 5385SOL    HW216114   0.531   8.322   6.701
 5386SOL     OW16115   1.309   8.301   6.589
 5386SOL    HW116116   1.221   8.273   6.564
 5386SOL    HW216117   1.364   8.225   6.570
 5387SOL     OW16118   1.200   7.972   5.842
 5387SOL    HW116119   1.212   7.896   5.898
 5387SOL    HW216120   1.161   8.038   5.899
 5388SOL     OW16121   0.296   7.644   6.827
 5388SOL    HW116122   0.269   7.674   6.913
 5388SOL    HW216123   0.278   7.550   6.827
 5389SOL     OW16124   0.008   8.767   6.866
 5389SOL    HW116125   0.053   8.716   6.933
 5389SOL    HW216126   0.020   8.858   6.892
 5390SOL     OW16127   0.709   8.069   6.625
 5390SOL    HW116128   0.787   8.064   6.570
 5390SOL    HW216129   0.681   8.160   6.618
 5391SOL     OW16130   1.751   8.416   7.456
 5391SOL    HW116131   1.711   8.343   7.407
 5391SOL    HW216132   1.687   8.436   7.524
 5392SOL     OW16133   0.375   7.537   6.236
 5392SOL    HW116134   0.349   7.618   6.281
 5392SOL    HW216135   0.301   7.478   6.249
 5393SOL     OW16136   1.632   7.838   5.930
 5393SOL    HW116137   1.664   7.773   5.992
 5393SOL    HW216138   1.602   7.911   5.985
 5394SOL     OW16139   1.035   8.205   6.542
 5394SOL    HW116140   1.013   8.220   6.634
 5394SOL    HW216141   1.004   8.116   6.524
 5395SOL     OW16142   0.983   9.014   7.319
 5395SOL    HW116143   0.963   9.057   7.235
 5395SOL    HW216144   1.021   8.930   7.293
 5396SOL     OW16145   1.838   8.943   7.189
 5396SOL    HW116146   1.865   8.971   7.101
 5396SOL    HW216147   1.916   8.953   7.242
 5397SOL     OW16148   0.362   8.365   7.399
 5397SOL    HW116149   0.435   8.391   7.454
 5397SOL    HW216150   0.398   8.300   7.339
 5398SOL     OW16151   1.521   7.718   5.705
 5398SOL    HW116152   1.470   7.646   5.742
 5398SOL    HW216153   1.561   7.761   5.780
 5399SOL     OW16154   1.281   8.269   5.605
 5399SOL    HW116155   1.321   8.183   5.613
 5399SOL    HW216156   1.318   8.306   5.525
 5400SOL     OW16157   1.072   8.801   6.452
 5400SOL    HW116158   1.083   8.729   6.390
 5400SOL    HW216159   1.125   8.872   6.415
 5401SOL     OW16160   0.317   8.252   6.528
 5401SOL    HW116161   0.412   8.267   6.526
 5401SOL    HW216162   0.308   8.161   6.557
 5402SOL     OW16163   0.314   7.974   6.596
 5402SOL    HW116164   0.271   7.889   6.588
 5402SOL    HW216165   0.389   7.969   6.536
 5403SOL     OW16166   1.138   7.816   7.272
 5403SOL    HW116167   1.092   7.868   7.338
 5403SOL    HW216168   1.223   7.858   7.262
 5404SOL     OW16169   1.157   7.638   7.061
 5404SOL    HW116170   1.146   7.700   7.132
 5404SOL    HW216171   1.204   7.687   6.993
 5405SOL     OW16172   9.967   8.780   5.805
 5405SOL    HW116173   9.930   8.769   5.718
 5405SOL    HW216174   9.987   8.691   5.834
 5406SOL     OW16175   0.120   9.136   6.552
 5406SOL    HW116176   0.134   9.050   6.512
 5406SOL    HW216177   0.179   9.195   6.504
 5407SOL     OW16178   0.499   9.024   6.494
 5407SOL    HW116179   0.567   9.089   6.509
 5407SOL    HW216180   0.538   8.961   6.434
 5408SOL     OW16181   0.949   8.227   6.799
 5408SOL    HW116182   1.010   8.216   6.871
 5408SOL    HW216183   0.869   8.182   6.828
 5409SOL     OW16184   0.040   8.015   6.671
 5409SOL    HW116185   0.133   8.016   6.648
 5409SOL    HW216186   0.039   8.019   6.767
 5410SOL     OW16187   0.171   7.964   7.284
 5410SOL    HW116188   0.226   7.911   7.226
 5410SOL    HW216189   0.160   8.047   7.239
 5411SOL     OW16190   1.392   8.369   7.238
 5411SOL    HW116191   1.409   8.463   7.232
 5411SOL    HW216192   1.384   8.341   7.146
 5412SOL     OW16193   0.829   8.015   5.962
 5412SOL    HW116194   0.832   7.943   5.899
 5412SOL    HW216195   0.757   8.071   5.930
 5413SOL     OW16196   1.635   8.049   6.749
 5413SOL    HW116197   1.625   7.990   6.823
 5413SOL    HW216198   1.726   8.038   6.721
 5414SOL     OW16199   0.252   9.009   7.298
 5414SOL    HW116200   0.233   9.056   7.379
 5414SOL    HW216201   0.262   8.917   7.326
 5415SOL     OW16202   0.737   7.882   6.821
 5415SOL    HW116203   0.673   7.812   6.808
 5415SOL    HW216204   0.717   7.945   6.752
 5416SOL     OW16205   0.908   9.128   7.073
 5416SOL    HW116206   0.882   9.080   6.995
 5416SOL    HW216207   0.908   9.220   7.047
 5417SOL     OW16208   0.518   7.936   5.757
 5417SOL    HW116209   0.567   8.012   5.790
 5417SOL    HW216210   0.438   7.973   5.719
 5418SOL     OW16211   0.155   8.600   7.027
 5418SOL    HW116212   0.149   8.559   7.113
 5418SOL    HW216213   0.164   8.527   6.966
 5419SOL     OW16214   1.304   8.482   6.794
 5419SOL    HW116215   1.313   8.418   6.724
 5419SOL    HW216216   1.250   8.551   6.757
 5420SOL     OW16217   1.324   8.309   5.877
 5420SOL    HW116218   1.254   8.272   5.931
 5420SOL    HW216219   1.296   8.293   5.787
 5421SOL     OW16220   1.788   9.170   6.758
 5421SOL    HW116221   1.849   9.196   6.689
 5421SOL    HW216222   1.755   9.085   6.729
 5422SOL     OW16223   1.240   9.180   6.679
 5422SOL    HW116224   1.324   9.209   6.643
 5422SOL    HW216225   1.255   9.088   6.702
 5423SOL     OW16226   0.101   8.624   6.637
 5423SOL    HW116227   0.105   8.683   6.712
 5423SOL    HW216228   0.008   8.619   6.615
 5424SOL     OW16229   0.694   9.126   7.336
 5424SOL    HW116230   0.631   9.197   7.321
 5424SOL    HW216231   0.768   9.147   7.280
 5425SOL     OW16232   1.745   7.632   6.082
 5425SOL    HW116233   1.804   7.612   6.010
 5425SOL    HW216234   1.718   7.547   6.116
 5426SOL     OW16235   1.396   9.015   6.088
 5426SOL    HW116236   1.451   9.051   6.018
 5426SOL    HW216237   1.342   9.090   6.116
 5427SOL     OW16238   0.110   9.225   7.449
 5427SOL    HW116239   0.068   9.178   7.521
 5427SOL    HW216240   0.183   9.272   7.489
 5428SOL     OW16241   1.280   8.384   6.251
 5428SOL    HW116242   1.353   8.325   6.264
 5428SOL    HW216243   1.315   8.456   6.198
 5429SOL     OW16244   0.784   8.729   6.998
 5429SOL    HW116245   0.761   8.776   7.077
 5429SOL    HW216246   0.709   8.741   6.939
 5430SOL     OW16247   0.674   9.080   5.747
 5430SOL    HW116248   0.690   9.096   5.654
 5430SOL    HW216249   0.618   9.002   5.748
 5431SOL     OW16250   1.617   9.176   6.988
 5431SOL    HW116251   1.674   9.175   6.911
 5431SOL    HW216252   1.600   9.269   7.004
 5432SOL     OW16253   1.845   7.608   6.551
 5432SOL    HW116254   1.873   7.519   6.530
 5432SOL    HW216255   1.757   7.615   6.513
 5433SOL     OW16256   0.276   7.774   6.324
 5433SOL    HW116257   0.198   7.817   6.289
 5433SOL    HW216258   0.256   7.758   6.416
 5434SOL     OW16259   1.211   9.035   5.622
 5434SOL    HW116260   1.200   8.944   5.650
 5434SOL    HW216261   1.141   9.049   5.557
 5435SOL     OW16262   0.826   8.461   6.968
 5435SOL    HW116263   0.861   8.452   6.880
 5435SOL    HW216264   0.814   8.555   6.980
 5436SOL     OW16265   0.920   8.362   5.888
 5436SOL    HW116266   0.973   8.390   5.813
 5436SOL    HW216267   0.974   8.294   5.930
 5437SOL     OW16268   1.483   9.093   5.643
 5437SOL    HW116269   1.392   9.072   5.626
 5437SOL    HW216270   1.524   9.097   5.557
 5438SOL     OW16271   0.374   8.763   7.078
 5438SOL    HW116272   0.364   8.840   7.022
 5438SOL    HW216273   0.299   8.707   7.056
 5439SOL     OW16274   1.600   8.737   6.863
 5439SOL    HW116275   1.654   8.713   6.938
 5439SOL    HW216276   1.540   8.804   6.896
 5440SOL     OW16277   1.077   8.568   6.315
 5440SOL    HW116278   1.002   8.518   6.347
 5440SOL    HW216279   1.139   8.501   6.285
 5441SOL     OW16280   1.033   7.697   6.547
 5441SOL    HW116281   1.033   7.654   6.462
 5441SOL    HW216282   1.026   7.625   6.610
 5442SOL     OW16283   0.605   8.935   6.069
 5442SOL    HW116284   0.656   8.888   6.003
 5442SOL    HW216285   0.516   8.938   6.032
 5443SOL     OW16286   1.746   7.830   6.975
 5443SOL    HW116287   1.816   7.894   6.970
 5443SOL    HW216288   1.772   7.761   6.914
 5444SOL     OW16289   0.242   8.810   5.828
 5444SOL    HW116290   0.148   8.796   5.830
 5444SOL    HW216291   0.266   8.825   5.919
 5445SOL     OW16292   0.141   8.458   7.261
 5445SOL    HW116293   0.075   8.483   7.326
 5445SOL    HW216294   0.221   8.446   7.311
 5446SOL     OW16295   0.685   7.640   7.083
 5446SOL    HW116296   0.769   7.614   7.045
 5446SOL    HW216297   0.707   7.671   7.170
 5447SOL     OW16298   0.074   7.762   5.579
 5447SOL    HW116299   9.979   7.750   5.585
 5447SOL    HW216300   0.084   7.839   5.523
 5448SOL     OW16301   1.415   8.302   6.974
 5448SOL    HW116302   1.362   8.360   6.919
 5448SOL    HW216303   1.503   8.306   6.936
 5449SOL     OW16304   0.060   7.519   5.849
 5449SOL    HW116305   0.077   7.572   5.927
 5449SOL    HW216306   0.147   7.501   5.813
 5450SOL     OW16307   1.180   8.770   5.708
 5450SOL    HW116308   1.087   8.748   5.706
 5450SOL    HW216309   1.203   8.772   5.801
 5451SOL     OW16310   0.629   8.280   7.022
 5451SOL    HW116311   0.687   8.354   7.010
 5451SOL    HW216312   0.686   8.203   7.021
 5452SOL     OW16313   1.485   9.242   6.575
 5452SOL    HW116314   1.509   9.320   6.525
 5452SOL    HW216315   1.569   9.200   6.596
 5453SOL     OW16316   0.711   8.002   7.278
 5453SOL    HW116317   0.762   8.055   7.339
 5453SOL    HW216318   0.724   7.912   7.308
 5454SOL     OW16319   1.469   8.632   7.205
 5454SOL    HW116320   1.461   8.655   7.298
 5454SOL    HW216321   1.558   8.656   7.182
 5455SOL     OW16322   0.357   9.204   7.140
 5455SOL    HW116323   0.275   9.252   7.132
 5455SOL    HW216324   0.333   9.121   7.179
 5456SOL     OW16325   1.655   8.323   6.839
 5456SOL    HW116326   1.653   8.240   6.792
 5456SOL    HW216327   1.643   8.389   6.770
 5457SOL     OW16328   1.226   7.773   6.041
 5457SOL    HW116329   1.285   7.698   6.040
 5457SOL    HW216330   1.254   7.825   6.116
 5458SOL     OW16331   0.569   8.177   6.265
 5458SOL    HW116332   0.617   8.259   6.256
 5458SOL    HW216333   0.511   8.174   6.189
 5459SOL     OW16334   1.747   7.803   7.251
 5459SOL    HW116335   1.744   7.819   7.156
 5459SOL    HW216336   1.670   7.750   7.269
 5460SOL     OW16337   1.760   8.372   7.089
 5460SOL    HW116338   1.743   8.466   7.102
 5460SOL    HW216339   1.733   8.355   6.999
 5461SOL     OW16340   0.877   8.806   5.652
 5461SOL    HW116341   0.835   8.824   5.736
 5461SOL    HW216342   0.883   8.891   5.608
 5462SOL     OW16343   0.675   9.226   6.504
 5462SOL    HW116344   0.654   9.319   6.498
 5462SOL    HW216345   0.770   9.222   6.506
 5463SOL     OW16346   0.875   8.425   6.442
 5463SOL    HW116347   0.924   8.351   6.479
 5463SOL    HW216348   0.829   8.462   6.518
 5464SOL     OW16349   1.062   8.419   5.668
 5464SOL    HW116350   1.047   8.480   5.595
 5464SOL    HW216351   1.141   8.370   5.642
 5465SOL     OW16352   1.830   9.005   6.426
 5465SOL    HW116353   1.754   8.996   6.369
 5465SOL    HW216354   1.807   8.953   6.504
 5466SOL     OW16355   0.240   8.754   7.425
 5466SOL    HW116356   0.148   8.754   7.399
 5466SOL    HW216357   0.238   8.764   7.521
 5467SOL     OW16358   0.154   8.670   6.260
 5467SOL    HW116359   0.086   8.617   6.302
 5467SOL    HW216360   0.209   8.607   6.214
 5468SOL     OW16361   0.700   8.866   7.219
 5468SOL    HW116362   0.622   8.825   7.256
 5468SOL    HW216363   0.701   8.954   7.257
 5469SOL     OW16364   1.810   7.619   6.821
 5469SOL    HW116365   1.812   7.524   6.834
 5469SOL    HW216366   1.824   7.631   6.727
 5470SOL     OW16367   0.433   7.891   6.106
 5470SOL    HW116368   0.494   7.824   6.073
 5470SOL    HW216369   0.410   7.860   6.194
 5471SOL     OW16370   1.696   8.927   6.667
 5471SOL    HW116371   1.617   8.908   6.616
 5471SOL    HW216372   1.697   8.860   6.735
 5472SOL     OW16373   0.365   8.017   6.870
 5472SOL    HW116374   0.414   7.955   6.923
 5472SOL    HW216375   0.368   7.982   6.782
 5473SOL     OW16376   0.841   9.026   6.259
 5473SOL    HW116377   0.807   9.091   6.198
 5473SOL    HW216378   0.767   8.966   6.273
 5474SOL     OW16379   1.421   7.681   6.700
 5474SOL    HW116380   1.429   7.591   6.732
 5474SOL    HW216381   1.376   7.727   6.770
 5475SOL     OW16382   1.011   7.465   6.707
 5475SOL    HW116383   0.957   7.402   6.659
 5475SOL    HW216384   1.097   7.425   6.710
 5476SOL     OW16385   0.776   8.780   5.915
 5476SOL    HW116386   0.753   8.688   5.928
 5476SOL    HW216387   0.856   8.793   5.966
 5477SOL     OW16388   0.616   9.014   6.872
 5477SOL    HW116389   0.614   9.098   6.917
 5477SOL    HW216390   0.706   9.008   6.838
 5478SOL     OW16391   1.383   7.487   5.777
 5478SOL    HW116392   1.423   7.414   5.730
 5478SOL    HW216393   1.291   7.460   5.788
 5479SOL     OW16394   1.299   7.920   6.261
 5479SOL    HW116395   1.248   8.001   6.259
 5479SOL    HW216396   1.292   7.890   6.352
 5480SOL     OW16397   1.582   7.636   6.479
 5480SOL    HW116398   1.530   7.665   6.553
 5480SOL    HW216399   1.583   7.710   6.419
 5481SOL     OW16400   0.067   8.538   5.884
 5481SOL    HW116401   0.142   8.486   5.856
 5481SOL    HW216402   0.031   8.491   5.959
 5482SOL     OW16403   0.900   9.120   5.918
 5482SOL    HW116404   0.820   9.107   5.866
 5482SOL    HW216405   0.879   9.193   5.977
 5483SOL     OW16406   0.286   8.040   7.529
 5483SOL    HW116407   0.220   8.060   7.595
 5483SOL    HW216408   0.237   8.022   7.449
 5484SOL     OW16409   0.198   7.729   8.446
 5484SOL    HW116410   0.234   7.692   8.526
 5484SOL    HW216411   0.105   7.704   8.447
 5485SOL     OW16412   0.040   7.873   8.075
 5485SOL    HW116413   9.947   7.884   8.090
 5485SOL    HW216414   0.046   7.809   8.004
 5486SOL     OW16415   0.569   8.755   8.649
 5486SOL    HW116416   0.486   8.758   8.601
 5486SOL    HW216417   0.585   8.846   8.674
 5487SOL     OW16418   1.587   8.970   8.153
 5487SOL    HW116419   1.541   8.940   8.231
 5487SOL    HW216420   1.520   8.972   8.085
 5488SOL     OW16421   1.139   8.153   8.136
 5488SOL    HW116422   1.185   8.236   8.124
 5488SOL    HW216423   1.090   8.164   8.218
 5489SOL     OW16424   1.801   8.029   7.668
 5489SOL    HW116425   1.762   8.029   7.580
 5489SOL    HW216426   1.757   7.957   7.713
 5490SOL     OW16427   0.727   8.577   8.505
 5490SOL    HW116428   0.665   8.617   8.566
 5490SOL    HW216429   0.771   8.651   8.463
 5491SOL     OW16430   0.888   8.196   9.273
 5491SOL    HW116431   0.908   8.263   9.338
 5491SOL    HW216432   0.901   8.239   9.188
 5492SOL     OW16433   0.687   8.431   8.096
 5492SOL    HW116434   0.757   8.430   8.161
 5492SOL    HW216435   0.624   8.494   8.130
 5493SOL     OW16436   0.716   8.599   9.276
 5493SOL    HW116437   0.768   8.672   9.309
 5493SOL    HW216438   0.640   8.641   9.234
 5494SOL     OW16439   0.335   8.871   8.510
 5494SOL    HW116440   0.259   8.856   8.455
 5494SOL    HW216441   0.393   8.926   8.457
 5495SOL     OW16442   1.454   8.954   8.819
 5495SOL    HW116443   1.509   9.031   8.830
 5495SOL    HW216444   1.383   8.966   8.882
 5496SOL     OW16445   0.470   7.828   8.904
 5496SOL    HW116446   0.546   7.770   8.917
 5496SOL    HW216447   0.395   7.775   8.930
 5497SOL     OW16448   1.585   7.880   8.203
 5497SOL    HW116449   1.519   7.891   8.135
 5497SOL    HW216450   1.567   7.950   8.266
 5498SOL     OW16451   0.237   9.100   7.891
 5498SOL    HW116452   0.187   9.168   7.936
 5498SOL    HW216453   0.313   9.146   7.855
 5499SOL     OW16454   1.135   8.790   9.141
 5499SOL    HW116455   1.179   8.780   9.226
 5499SOL    HW216456   1.083   8.710   9.131
 5500SOL     OW16457   0.291   8.843   7.951
 5500SOL    HW116458   0.267   8.935   7.948
 5500SOL    HW216459   0.234   8.805   8.018
 5501SOL     OW16460   0.308   8.528   8.353
 5501SOL    HW116461   0.301   8.434   8.371
 5501SOL    HW216462   0.237   8.568   8.404
 5502SOL     OW16463   0.585   9.251   8.863
 5502SOL    HW116464   0.503   9.236   8.910
 5502SOL    HW216465   0.615   9.337   8.894
 5503SOL     OW16466   0.570   8.437   7.601
 5503SOL    HW116467   0.622   8.478   7.532
 5503SOL    HW216468   0.608   8.470   7.683
 5504SOL     OW16469   1.589   7.582   8.904
 5504SOL    HW116470   1.629   7.658   8.862
 5504SOL    HW216471   1.558   7.614   8.988
 5505SOL     OW16472   0.147   8.123   8.021
 5505SOL    HW116473   0.112   8.038   8.048
 5505SOL    HW216474   0.124   8.181   8.094
 5506SOL     OW16475   1.847   9.188   7.764
 5506SOL    HW116476   1.918   9.173   7.827
 5506SOL    HW216477   1.855   9.281   7.741
 5507SOL     OW16478   0.019   9.068   7.660
 5507SOL    HW116479   0.002   8.974   7.650
 5507SOL    HW216480   0.079   9.073   7.735
 5508SOL     OW16481   1.698   8.373   8.100
 5508SOL    HW116482   1.779   8.329   8.078
 5508SOL    HW216483   1.676   8.425   8.023
 5509SOL     OW16484   1.657   8.553   7.880
 5509SOL    HW116485   1.741   8.544   7.837
 5509SOL    HW216486   1.671   8.618   7.949
 5510SOL     OW16487   0.176   8.206   9.017
 5510SOL    HW116488   0.271   8.209   9.026
 5510SOL    HW216489   0.146   8.291   9.048
 5511SOL     OW16490   0.627   8.846   8.185
 5511SOL    HW116491   0.585   8.761   8.192
 5511SOL    HW216492   0.609   8.875   8.096
 5512SOL     OW16493   1.271   8.674   8.865
 5512SOL    HW116494   1.300   8.604   8.805
 5512SOL    HW216495   1.333   8.668   8.939
 5513SOL     OW16496   0.854   7.455   7.968
 5513SOL    HW116497   0.893   7.537   7.939
 5513SOL    HW216498   0.760   7.472   7.968
 5514SOL     OW16499   0.162   8.381   8.719
 5514SOL    HW116500   0.252   8.349   8.711
 5514SOL    HW216501   0.133   8.394   8.629
 5515SOL     OW16502   1.534   8.463   7.648
 5515SOL    HW116503   1.465   8.403   7.677
 5515SOL    HW216504   1.576   8.493   7.728
 5516SOL     OW16505   1.177   9.270   9.082
 5516SOL    HW116506   1.179   9.332   9.009
 5516SOL    HW216507   1.194   9.185   9.042
 5517SOL     OW16508   0.355   7.690   9.269
 5517SOL    HW116509   0.389   7.778   9.283
 5517SOL    HW216510   0.260   7.701   9.268
 5518SOL     OW16511   1.472   8.865   8.379
 5518SOL    HW116512   1.408   8.884   8.448
 5518SOL    HW216513   1.454   8.774   8.355
 5519SOL     OW16514   1.646   9.230   8.015
 5519SOL    HW116515   1.623   9.188   7.932
 5519SOL    HW216516   1.638   9.160   8.080
 5520SOL     OW16517   0.616   8.168   7.729
 5520SOL    HW116518   0.620   8.253   7.685
 5520SOL    HW216519   0.545   8.178   7.793
 5521SOL     OW16520   1.282   7.841   8.389
 5521SOL    HW116521   1.193   7.806   8.394
 5521SOL    HW216522   1.334   7.783   8.444
 5522SOL     OW16523   1.579   9.119   7.768
 5522SOL    HW116524   1.673   9.134   7.756
 5522SOL    HW216525   1.546   9.108   7.679
 5523SOL     OW16526   0.787   8.061   8.884
 5523SOL    HW116527   0.759   8.033   8.972
 5523SOL    HW216528   0.763   7.988   8.827
 5524SOL     OW16529   1.391   7.922   9.118
 5524SOL    HW116530   1.396   7.967   9.203
 5524SOL    HW216531   1.441   7.842   9.130
 5525SOL     OW16532   0.944   8.329   9.036
 5525SOL    HW116533   1.000   8.265   8.992
 5525SOL    HW216534   0.897   8.372   8.965
 5526SOL     OW16535   1.008   7.846   8.658
 5526SOL    HW116536   0.916   7.859   8.680
 5526SOL    HW216537   1.006   7.802   8.572
 5527SOL     OW16538   1.065   8.148   7.867
 5527SOL    HW116539   1.086   8.145   7.961
 5527SOL    HW216540   0.982   8.102   7.860
 5528SOL     OW16541   0.074   8.285   8.252
 5528SOL    HW116542   0.159   8.276   8.295
 5528SOL    HW216543   0.015   8.316   8.320
 5529SOL     OW16544   0.108   9.319   9.049
 5529SOL    HW116545   0.106   9.309   9.144
 5529SOL    HW216546   0.036   9.264   9.017
 5530SOL     OW16547   0.896   7.796   7.647
 5530SOL    HW116548   0.944   7.853   7.586
 5530SOL    HW216549   0.878   7.717   7.597
 5531SOL     OW16550   1.681   8.008   9.285
 5531SOL    HW116551   1.662   8.088   9.234
 5531SOL    HW216552   1.711   7.945   9.219
 5532SOL     OW16553   1.393   8.597   7.991
 5532SOL    HW116554   1.473   8.586   7.939
 5532SOL    HW216555   1.339   8.658   7.940
 5533SOL     OW16556   0.564   7.620   8.362
 5533SOL    HW116557   0.567   7.646   8.454
 5533SOL    HW216558   0.556   7.703   8.314
 5534SOL     OW16559   0.996   8.898   7.913
 5534SOL    HW116560   0.973   8.974   7.860
 5534SOL    HW216561   0.967   8.922   8.002
 5535SOL     OW16562   0.356   9.263   8.319
 5535SOL    HW116563   0.401   9.179   8.330
 5535SOL    HW216564   0.421   9.328   8.348
 5536SOL     OW16565   1.804   8.492   8.337
 5536SOL    HW116566   1.756   8.477   8.255
 5536SOL    HW216567   1.736   8.501   8.403
 5537SOL     OW16568   1.218   8.992   8.963
 5537SOL    HW116569   1.207   8.921   9.026
 5537SOL    HW216570   1.151   8.977   8.897
 5538SOL     OW16571   0.315   8.388   7.726
 5538SOL    HW116572   0.392   8.403   7.671
 5538SOL    HW216573   0.328   8.300   7.762
 5539SOL     OW16574   1.484   8.211   8.159
 5539SOL    HW116575   1.487   8.168   8.244
 5539SOL    HW216576   1.564   8.265   8.157
 5540SOL     OW16577   0.478   8.727   9.189
 5540SOL    HW116578   0.454   8.733   9.097
 5540SOL    HW216579   0.395   8.721   9.236
 5541SOL     OW16580   1.137   9.223   7.670
 5541SOL    HW116581   1.058   9.190   7.712
 5541SOL    HW216582   1.158   9.158   7.603
 5542SOL     OW16583   0.217   7.712   8.946
 5542SOL    HW116584   0.131   7.751   8.931
 5542SOL    HW216585   0.200   7.633   8.997
 5543SOL     OW16586   1.639   8.836   7.548
 5543SOL    HW116587   1.598   8.922   7.535
 5543SOL    HW216588   1.572   8.773   7.521
 5544SOL     OW16589   0.472   9.198   7.764
 5544SOL    HW116590   0.519   9.251   7.828
 5544SOL    HW216591   0.540   9.151   7.716
 5545SOL     OW16592   1.399   7.553   7.907
 5545SOL    HW116593   1.398   7.529   7.814
 5545SOL    HW216594   1.489   7.539   7.935
 5546SOL     OW16595   0.224   9.223   8.659
 5546SOL    HW116596   0.282   9.150   8.685
 5546SOL    HW216597   0.187   9.195   8.575
 5547SOL     OW16598   0.951   9.146   8.340
 5547SOL    HW116599   1.037   9.105   8.353
 5547SOL    HW216600   0.911   9.095   8.270
 5548SOL     OW16601   0.395   8.151   7.901
 5548SOL    HW116602   0.414   8.057   7.910
 5548SOL    HW216603   0.309   8.162   7.943
 5549SOL     OW16604   1.509   7.669   9.163
 5549SOL    HW116605   1.521   7.690   9.255
 5549SOL    HW216606   1.447   7.596   9.163
 5550SOL     OW16607   0.658   7.551   7.548
 5550SOL    HW116608   0.707   7.473   7.571
 5550SOL    HW216609   0.599   7.523   7.478
 5551SOL     OW16610   0.755   7.726   9.205
 5551SOL    HW116611   0.840   7.681   9.205
 5551SOL    HW216612   0.711   7.693   9.284
 5552SOL     OW16613   0.870   8.974   8.647
 5552SOL    HW116614   0.853   8.932   8.562
 5552SOL    HW216615   0.938   8.920   8.687
 5553SOL     OW16616   1.330   8.041   8.879
 5553SOL    HW116617   1.363   8.009   8.964
 5553SOL    HW216618   1.369   8.127   8.869
 5554SOL     OW16619   0.819   8.823   8.406
 5554SOL    HW116620   0.906   8.819   8.366
 5554SOL    HW216621   0.759   8.838   8.333
 5555SOL     OW16622   0.929   7.962   8.336
 5555SOL    HW116623   0.904   7.950   8.245
 5555SOL    HW216624   0.957   7.875   8.365
 5556SOL     OW16625   0.591   7.507   7.943
 5556SOL    HW116626   0.522   7.513   8.008
 5556SOL    HW216627   0.575   7.582   7.885
 5557SOL     OW16628   1.434   8.661   7.480
 5557SOL    HW116629   1.463   8.587   7.533
 5557SOL    HW216630   1.348   8.684   7.517
 5558SOL     OW16631   0.309   7.488   7.609
 5558SOL    HW116632   0.339   7.578   7.623
 5558SOL    HW216633   0.370   7.434   7.659
 5559SOL     OW16634   0.959   7.699   7.898
 5559SOL    HW116635   0.932   7.733   7.813
 5559SOL    HW216636   1.053   7.718   7.903
 5560SOL     OW16637   1.075   8.140   8.891
 5560SOL    HW116638   1.014   8.067   8.898
 5560SOL    HW216639   1.161   8.099   8.887
 5561SOL     OW16640   1.209   9.035   8.252
 5561SOL    HW116641   1.223   9.094   8.178
 5561SOL    HW216642   1.281   9.053   8.311
 5562SOL     OW16643   0.490   8.608   8.171
 5562SOL    HW116644   0.430   8.585   8.242
 5562SOL    HW216645   0.441   8.590   8.091
 5563SOL     OW16646   1.254   9.236   8.063
 5563SOL    HW116647   1.302   9.299   8.010
 5563SOL    HW216648   1.183   9.287   8.102
 5564SOL     OW16649   1.032   7.965   7.476
 5564SOL    HW116650   0.989   8.048   7.457
 5564SOL    HW216651   1.096   7.986   7.545
 5565SOL     OW16652   0.107   8.028   8.813
 5565SOL    HW116653   0.198   8.021   8.783
 5565SOL    HW216654   0.111   8.090   8.886
 5566SOL     OW16655   0.564   7.669   8.633
 5566SOL    HW116656   0.598   7.596   8.684
 5566SOL    HW216657   0.470   7.669   8.651
 5567SOL     OW16658   0.870   7.898   8.078
 5567SOL    HW116659   0.839   7.956   8.008
 5567SOL    HW216660   0.898   7.819   8.033
 5568SOL     OW16661   1.027   7.506   8.191
 5568SOL    HW116662   0.969   7.497   8.116
 5568SOL    HW216663   1.004   7.434   8.249
 5569SOL     OW16664   1.435   8.601   8.302
 5569SOL    HW116665   1.365   8.537   8.311
 5569SOL    HW216666   1.450   8.608   8.208
 5570SOL     OW16667   1.463   8.064   8.397
 5570SOL    HW116668   1.399   7.994   8.407
 5570SOL    HW216669   1.519   8.058   8.474
 5571SOL     OW16670   1.828   8.244   7.836
 5571SOL    HW116671   1.889   8.201   7.896
 5571SOL    HW216672   1.815   8.180   7.765
 5572SOL     OW16673   0.495   8.876   7.585
 5572SOL    HW116674   0.409   8.856   7.623
 5572SOL    HW216675   0.499   8.823   7.505
 5573SOL     OW16676   1.707   8.719   8.082
 5573SOL    HW116677   1.801   8.713   8.103
 5573SOL    HW216678   1.683   8.808   8.107
 5574SOL     OW16679   1.394   8.024   7.512
 5574SOL    HW116680   1.338   7.997   7.585
 5574SOL    HW216681   1.482   7.999   7.539
 5575SOL     OW16682   0.548   7.701   7.756
 5575SOL    HW116683   0.593   7.653   7.687
 5575SOL    HW216684   0.528   7.786   7.718
 5576SOL     OW16685   1.735   8.691   8.980
 5576SOL    HW116686   1.823   8.657   8.966
 5576SOL    HW216687   1.748   8.778   9.017
 5577SOL     OW16688   1.043   8.803   8.783
 5577SOL    HW116689   0.966   8.769   8.827
 5577SOL    HW216690   1.117   8.758   8.824
 5578SOL     OW16691   1.608   9.083   9.112
 5578SOL    HW116692   1.599   9.119   9.024
 5578SOL    HW216693   1.685   9.027   9.108
 5579SOL     OW16694   1.150   8.684   8.553
 5579SOL    HW116695   1.089   8.719   8.618
 5579SOL    HW216696   1.118   8.717   8.469
 5580SOL     OW16697   1.610   8.539   8.525
 5580SOL    HW116698   1.602   8.606   8.593
 5580SOL    HW216699   1.540   8.561   8.463
 5581SOL     OW16700   0.919   7.530   8.832
 5581SOL    HW116701   0.939   7.514   8.739
 5581SOL    HW216702   0.999   7.570   8.867
 5582SOL     OW16703   0.982   8.563   9.169
 5582SOL    HW116704   0.891   8.579   9.196
 5582SOL    HW216705   0.977   8.482   9.117
 5583SOL     OW16706   0.711   8.510   7.828
 5583SOL    HW116707   0.697   8.485   7.919
 5583SOL    HW216708   0.788   8.459   7.801
 5584SOL     OW16709   0.420   8.282   8.708
 5584SOL    HW116710   0.489   8.295   8.774
 5584SOL    HW216711   0.398   8.189   8.715
 5585SOL     OW16712   1.264   7.816   8.740
 5585SOL    HW116713   1.292   7.897   8.783
 5585SOL    HW216714   1.175   7.834   8.710
 5586SOL     OW16715   0.073   9.021   8.796
 5586SOL    HW116716   0.071   9.109   8.759
 5586SOL    HW216717   0.167   9.002   8.807
 5587SOL     OW16718   0.339   8.559   7.946
 5587SOL    HW116719   0.338   8.648   7.909
 5587SOL    HW216720   0.331   8.502   7.870
 5588SOL     OW16721   0.535   7.965   8.302
 5588SOL    HW116722   0.545   8.029   8.232
 5588SOL    HW216723   0.601   7.990   8.367
 5589SOL     OW16724   1.246   8.801   7.845
 5589SOL    HW116725   1.302   8.870   7.879
 5589SOL    HW216726   1.158   8.823   7.876
 5590SOL     OW16727   1.309   8.915   8.591
 5590SOL    HW116728   1.357   8.922   8.674
 5590SOL    HW216729   1.258   8.834   8.599
 5591SOL     OW16730   1.574   8.065   7.934
 5591SOL    HW116731   1.523   8.107   8.004
 5591SOL    HW216732   1.624   8.137   7.895
 5592SOL     OW16733   0.345   8.976   8.757
 5592SOL    HW116734   0.334   8.932   8.673
 5592SOL    HW216735   0.439   8.995   8.763
 5593SOL     OW16736   0.451   8.194   9.074
 5593SOL    HW116737   0.506   8.235   9.008
 5593SOL    HW216738   0.499   8.116   9.101
 5594SOL     OW16739   1.626   8.236   9.148
 5594SOL    HW116740   1.539   8.274   9.139
 5594SOL    HW216741   1.677   8.274   9.077
 5595SOL     OW16742   0.993   7.594   9.215
 5595SOL    HW116743   1.052   7.666   9.190
 5595SOL    HW216744   1.041   7.515   9.191
 5596SOL     OW16745   0.512   7.478   9.198
 5596SOL    HW116746   0.462   7.428   9.133
 5596SOL    HW216747   0.459   7.556   9.213
 5597SOL     OW16748   0.592   8.321   8.489
 5597SOL    HW116749   0.629   8.410   8.489
 5597SOL    HW216750   0.531   8.322   8.563
 5598SOL     OW16751   1.309   8.301   8.451
 5598SOL    HW116752   1.221   8.273   8.425
 5598SOL    HW216753   1.364   8.225   8.432
 5599SOL     OW16754   1.200   7.972   7.704
 5599SOL    HW116755   1.212   7.895   7.760
 5599SOL    HW216756   1.161   8.038   7.761
 5600SOL     OW16757   0.296   7.642   8.688
 5600SOL    HW116758   0.269   7.670   8.775
 5600SOL    HW216759   0.280   7.548   8.686
 5601SOL     OW16760   0.007   8.764   8.729
 5601SOL    HW116761   0.053   8.714   8.797
 5601SOL    HW216762   0.020   8.855   8.754
 5602SOL     OW16763   0.709   8.068   8.487
 5602SOL    HW116764   0.788   8.062   8.433
 5602SOL    HW216765   0.682   8.159   8.480
 5603SOL     OW16766   1.755   8.419   9.317
 5603SOL    HW116767   1.711   8.347   9.272
 5603SOL    HW216768   1.697   8.442   9.390
 5604SOL     OW16769   0.373   7.534   8.100
 5604SOL    HW116770   0.348   7.615   8.144
 5604SOL    HW216771   0.295   7.480   8.103
 5605SOL     OW16772   1.632   7.838   7.792
 5605SOL    HW116773   1.664   7.773   7.854
 5605SOL    HW216774   1.602   7.911   7.847
 5606SOL     OW16775   1.035   8.205   8.403
 5606SOL    HW116776   1.013   8.220   8.495
 5606SOL    HW216777   1.004   8.116   8.386
 5607SOL     OW16778   0.983   9.015   9.178
 5607SOL    HW116779   0.964   9.058   9.094
 5607SOL    HW216780   1.021   8.931   9.154
 5608SOL     OW16781   1.838   8.942   9.049
 5608SOL    HW116782   1.865   8.970   8.961
 5608SOL    HW216783   1.916   8.953   9.103
 5609SOL     OW16784   0.360   8.378   9.265
 5609SOL    HW116785   0.432   8.404   9.322
 5609SOL    HW216786   0.399   8.316   9.203
 5610SOL     OW16787   1.521   7.718   7.567
 5610SOL    HW116788   1.469   7.646   7.604
 5610SOL    HW216789   1.561   7.761   7.642
 5611SOL     OW16790   1.281   8.270   7.467
 5611SOL    HW116791   1.321   8.183   7.475
 5611SOL    HW216792   1.318   8.306   7.387
 5612SOL     OW16793   1.072   8.801   8.314
 5612SOL    HW116794   1.083   8.729   8.252
 5612SOL    HW216795   1.124   8.872   8.277
 5613SOL     OW16796   0.317   8.252   8.390
 5613SOL    HW116797   0.412   8.267   8.387
 5613SOL    HW216798   0.309   8.161   8.420
 5614SOL     OW16799   0.315   7.974   8.460
 5614SOL    HW116800   0.272   7.889   8.451
 5614SOL    HW216801   0.389   7.969   8.400
 5615SOL     OW16802   1.137   7.817   9.133
 5615SOL    HW116803   1.092   7.871   9.199
 5615SOL    HW216804   1.223   7.858   9.123
 5616SOL     OW16805   1.156   7.638   8.923
 5616SOL    HW116806   1.145   7.701   8.994
 5616SOL    HW216807   1.203   7.687   8.855
 5617SOL     OW16808   9.968   8.780   7.667
 5617SOL    HW116809   9.931   8.770   7.579
 5617SOL    HW216810   9.987   8.691   7.695
 5618SOL     OW16811   0.121   9.137   8.415
 5618SOL    HW116812   0.135   9.051   8.375
 5618SOL    HW216813   0.179   9.195   8.367
 5619SOL     OW16814   0.499   9.024   8.356
 5619SOL    HW116815   0.567   9.090   8.371
 5619SOL    HW216816   0.538   8.961   8.296
 5620SOL     OW16817   0.949   8.227   8.661
 5620SOL    HW116818   1.011   8.215   8.733
 5620SOL    HW216819   0.869   8.184   8.690
 5621SOL     OW16820   0.041   8.014   8.536
 5621SOL    HW116821   0.133   8.016   8.513
 5621SOL    HW216822   0.040   8.016   8.632
 5622SOL     OW16823   0.193   7.954   9.126
 5622SOL    HW116824   0.237   7.909   9.054
 5622SOL    HW216825   0.174   8.041   9.091
 5623SOL     OW16826   1.391   8.369   9.099
 5623SOL    HW116827   1.408   8.463   9.094
 5623SOL    HW216828   1.384   8.341   9.007
 5624SOL     OW16829   0.829   8.015   7.824
 5624SOL    HW116830   0.832   7.942   7.761
 5624SOL    HW216831   0.758   8.070   7.792
 5625SOL     OW16832   1.636   8.049   8.611
 5625SOL    HW116833   1.626   7.990   8.685
 5625SOL    HW216834   1.727   8.038   8.583
 5626SOL     OW16835   0.253   9.013   9.173
 5626SOL    HW116836   0.245   9.059   9.256
 5626SOL    HW216837   0.264   8.921   9.197
 5627SOL     OW16838   0.735   7.882   8.685
 5627SOL    HW116839   0.673   7.811   8.670
 5627SOL    HW216840   0.716   7.945   8.615
 5628SOL     OW16841   0.908   9.127   8.933
 5628SOL    HW116842   0.882   9.080   8.854
 5628SOL    HW216843   0.907   9.220   8.907
 5629SOL     OW16844   0.518   7.936   7.620
 5629SOL    HW116845   0.567   8.012   7.652
 5629SOL    HW216846   0.438   7.972   7.582
 5630SOL     OW16847   0.156   8.594   8.887
 5630SOL    HW116848   0.146   8.551   8.972
 5630SOL    HW216849   0.165   8.521   8.825
 5631SOL     OW16850   1.304   8.482   8.656
 5631SOL    HW116851   1.314   8.418   8.585
 5631SOL    HW216852   1.250   8.552   8.619
 5632SOL     OW16853   1.324   8.309   7.739
 5632SOL    HW116854   1.253   8.272   7.793
 5632SOL    HW216855   1.296   8.293   7.649
 5633SOL     OW16856   1.788   9.171   8.618
 5633SOL    HW116857   1.849   9.197   8.549
 5633SOL    HW216858   1.756   9.085   8.590
 5634SOL     OW16859   1.240   9.180   8.541
 5634SOL    HW116860   1.324   9.209   8.505
 5634SOL    HW216861   1.255   9.088   8.564
 5635SOL     OW16862   0.101   8.623   8.500
 5635SOL    HW116863   0.104   8.681   8.576
 5635SOL    HW216864   0.008   8.619   8.477
 5636SOL     OW16865   0.696   9.123   9.203
 5636SOL    HW116866   0.636   9.196   9.187
 5636SOL    HW216867   0.773   9.143   9.149
 5637SOL     OW16868   1.745   7.632   7.944
 5637SOL    HW116869   1.804   7.612   7.872
 5637SOL    HW216870   1.718   7.547   7.978
 5638SOL     OW16871   1.396   9.015   7.951
 5638SOL    HW116872   1.451   9.051   7.881
 5638SOL    HW216873   1.343   9.090   7.978
 5639SOL     OW16874   0.107   9.229   9.320
 5639SOL    HW116875   0.067   9.176   9.388
 5639SOL    HW216876   0.178   9.276   9.364
 5640SOL     OW16877   1.279   8.385   8.113
 5640SOL    HW116878   1.353   8.325   8.126
 5640SOL    HW216879   1.315   8.456   8.060
 5641SOL     OW16880   0.783   8.729   8.859
 5641SOL    HW116881   0.758   8.776   8.939
 5641SOL    HW216882   0.709   8.741   8.800
 5642SOL     OW16883   0.674   9.080   7.609
 5642SOL    HW116884   0.690   9.096   7.516
 5642SOL    HW216885   0.618   9.002   7.610
 5643SOL     OW16886   1.616   9.178   8.845
 5643SOL    HW116887   1.674   9.177   8.769
 5643SOL    HW216888   1.600   9.270   8.863
 5644SOL     OW16889   1.845   7.608   8.412
 5644SOL    HW116890   1.873   7.519   8.391
 5644SOL    HW216891   1.757   7.615   8.374
 5645SOL     OW16892   0.275   7.773   8.185
 5645SOL    HW116893   0.197   7.817   8.151
 5645SOL    HW216894   0.255   7.757   8.278
 5646SOL     OW16895   1.211   9.035   7.484
 5646SOL    HW116896   1.201   8.944   7.512
 5646SOL    HW216897   1.142   9.048   7.419
 5647SOL     OW16898   0.826   8.461   8.829
 5647SOL    HW116899   0.862   8.453   8.741
 5647SOL    HW216900   0.814   8.556   8.842
 5648SOL     OW16901   0.921   8.362   7.750
 5648SOL    HW116902   0.973   8.390   7.675
 5648SOL    HW216903   0.974   8.294   7.793
 5649SOL     OW16904   1.483   9.093   7.506
 5649SOL    HW116905   1.392   9.072   7.488
 5649SOL    HW216906   1.524   9.097   7.419
 5650SOL     OW16907   0.367   8.764   8.947
 5650SOL    HW116908   0.360   8.840   8.888
 5650SOL    HW216909   0.295   8.707   8.920
 5651SOL     OW16910   1.599   8.737   8.725
 5651SOL    HW116911   1.653   8.713   8.801
 5651SOL    HW216912   1.540   8.805   8.759
 5652SOL     OW16913   1.077   8.568   8.177
 5652SOL    HW116914   1.002   8.518   8.209
 5652SOL    HW216915   1.140   8.501   8.147
 5653SOL     OW16916   1.033   7.697   8.410
 5653SOL    HW116917   1.033   7.654   8.324
 5653SOL    HW216918   1.026   7.625   8.472
 5654SOL     OW16919   0.605   8.935   7.931
 5654SOL    HW116920   0.657   8.888   7.865
 5654SOL    HW216921   0.517   8.938   7.893
 5655SOL     OW16922   1.745   7.830   8.835
 5655SOL    HW116923   1.816   7.894   8.831
 5655SOL    HW216924   1.772   7.761   8.774
 5656SOL     OW16925   0.242   8.810   7.690
 5656SOL    HW116926   0.148   8.796   7.692
 5656SOL    HW216927   0.267   8.826   7.781
 5657SOL     OW16928   0.132   8.465   9.130
 5657SOL    HW116929   0.088   8.540   9.170
 5657SOL    HW216930   0.214   8.457   9.179
 5658SOL     OW16931   0.683   7.641   8.946
 5658SOL    HW116932   0.767   7.616   8.907
 5658SOL    HW216933   0.706   7.671   9.034
 5659SOL     OW16934   0.074   7.762   7.440
 5659SOL    HW116935   9.979   7.750   7.445
 5659SOL    HW216936   0.085   7.838   7.383
 5660SOL     OW16937   1.416   8.302   8.835
 5660SOL    HW116938   1.364   8.361   8.780
 5660SOL    HW216939   1.504   8.307   8.798
 5661SOL     OW16940   0.060   7.519   7.712
 5661SOL    HW116941   0.078   7.573   7.789
 5661SOL    HW216942   0.147   7.501   7.675
 5662SOL     OW16943   1.181   8.770   7.570
 5662SOL    HW116944   1.088   8.748   7.568
 5662SOL    HW216945   1.203   8.772   7.663
 5663SOL     OW16946   0.627   8.283   8.885
 5663SOL    HW116947   0.687   8.357   8.872
 5663SOL    HW216948   0.684   8.206   8.884
 5664SOL     OW16949   1.485   9.242   8.437
 5664SOL    HW116950   1.509   9.320   8.387
 5664SOL    HW216951   1.569   9.201   8.458
 5665SOL     OW16952   0.709   8.004   9.142
 5665SOL    HW116953   0.761   8.058   9.202
 5665SOL    HW216954   0.724   7.914   9.172
 5666SOL     OW16955   1.469   8.632   9.069
 5666SOL    HW116956   1.463   8.652   9.163
 5666SOL    HW216957   1.558   8.656   9.045
 5667SOL     OW16958   0.358   9.207   9.009
 5667SOL    HW116959   0.276   9.255   9.001
 5667SOL    HW216960   0.333   9.123   9.049
 5668SOL     OW16961   1.656   8.323   8.701
 5668SOL    HW116962   1.654   8.240   8.654
 5668SOL    HW216963   1.645   8.389   8.633
 5669SOL     OW16964   1.226   7.773   7.903
 5669SOL    HW116965   1.285   7.698   7.902
 5669SOL    HW216966   1.254   7.825   7.979
 5670SOL     OW16967   0.568   8.177   8.128
 5670SOL    HW116968   0.616   8.260   8.118
 5670SOL    HW216969   0.511   8.174   8.051
 5671SOL     OW16970   1.748   7.801   9.111
 5671SOL    HW116971   1.744   7.818   9.016
 5671SOL    HW216972   1.670   7.748   9.128
 5672SOL     OW16973   1.760   8.372   8.953
 5672SOL    HW116974   1.743   8.466   8.965
 5672SOL    HW216975   1.733   8.355   8.862
 5673SOL     OW16976   0.877   8.806   7.514
 5673SOL    HW116977   0.835   8.825   7.598
 5673SOL    HW216978   0.883   8.890   7.470
 5674SOL     OW16979   0.675   9.226   8.367
 5674SOL    HW116980   0.654   9.319   8.360
 5674SOL    HW216981   0.770   9.222   8.368
 5675SOL     OW16982   0.874   8.424   8.304
 5675SOL    HW116983   0.924   8.351   8.340
 5675SOL    HW216984   0.829   8.462   8.380
 5676SOL     OW16985   1.062   8.418   7.529
 5676SOL    HW116986   1.047   8.480   7.457
 5676SOL    HW216987   1.140   8.370   7.504
 5677SOL     OW16988   1.830   9.004   8.288
 5677SOL    HW116989   1.754   8.996   8.231
 5677SOL    HW216990   1.808   8.953   8.365
 5678SOL     OW16991   0.227   8.752   9.287
 5678SOL    HW116992   0.147   8.756   9.236
 5678SOL    HW216993   0.198   8.745   9.378
 5679SOL     OW16994   0.155   8.671   8.122
 5679SOL    HW116995   0.089   8.617   8.165
 5679SOL    HW216996   0.210   8.608   8.074
 5680SOL     OW16997   0.693   8.866   9.079
 5680SOL    HW116998   0.615   8.826   9.119
 5680SOL    HW216999   0.698   8.953   9.118
 5681SOL     OW17000   1.811   7.619   8.682
 5681SOL    HW117001   1.814   7.524   8.695
 5681SOL    HW217002   1.825   7.631   8.588
 5682SOL     OW17003   0.433   7.889   7.968
 5682SOL    HW117004   0.495   7.824   7.936
 5682SOL    HW217005   0.411   7.860   8.057
 5683SOL     OW17006   1.696   8.927   8.530
 5683SOL    HW117007   1.617   8.908   8.478
 5683SOL    HW217008   1.697   8.860   8.597
 5684SOL     OW17009   0.367   8.016   8.735
 5684SOL    HW117010   0.415   7.952   8.788
 5684SOL    HW217011   0.371   7.982   8.646
 5685SOL     OW17012   0.841   9.026   8.121
 5685SOL    HW117013   0.807   9.092   8.060
 5685SOL    HW217014   0.767   8.966   8.135
 5686SOL     OW17015   1.421   7.681   8.563
 5686SOL    HW117016   1.431   7.592   8.596
 5686SOL    HW217017   1.375   7.728   8.633
 5687SOL     OW17018   1.010   7.465   8.569
 5687SOL    HW117019   0.957   7.402   8.520
 5687SOL    HW217020   1.097   7.425   8.572
 5688SOL     OW17021   0.776   8.780   7.777
 5688SOL    HW117022   0.753   8.688   7.790
 5688SOL    HW217023   0.856   8.793   7.828
 5689SOL     OW17024   0.616   9.015   8.734
 5689SOL    HW117025   0.612   9.100   8.778
 5689SOL    HW217026   0.705   9.009   8.700
 5690SOL     OW17027   1.383   7.487   7.639
 5690SOL    HW117028   1.423   7.414   7.592
 5690SOL    HW217029   1.291   7.460   7.650
 5691SOL     OW17030   1.299   7.920   8.123
 5691SOL    HW117031   1.248   8.001   8.121
 5691SOL    HW217032   1.292   7.890   8.214
 5692SOL     OW17033   1.582   7.636   8.341
 5692SOL    HW117034   1.530   7.665   8.415
 5692SOL    HW217035   1.583   7.710   8.281
 5693SOL     OW17036   0.067   8.538   7.744
 5693SOL    HW117037   0.142   8.485   7.717
 5693SOL    HW217038   0.032   8.491   7.820
 5694SOL     OW17039   0.900   9.120   7.780
 5694SOL    HW117040   0.820   9.107   7.728
 5694SOL    HW217041   0.879   9.193   7.839
 5695SOL     OW17042   0.269   8.023   9.379
 5695SOL    HW117043   0.220   8.104   9.397
 5695SOL    HW217044   0.248   8.002   9.288
 5696SOL     OW17045   1.806   8.018   9.520
 5696SOL    HW117046   1.764   8.019   9.434
 5696SOL    HW217047   1.757   7.952   9.570
 5697SOL     OW17048   0.246   9.130   9.778
 5697SOL    HW117049   0.191   9.204   9.804
 5697SOL    HW217050   0.318   9.169   9.729
 5698SOL     OW17051   0.251   8.870   9.846
 5698SOL    HW117052   0.249   8.965   9.836
 5698SOL    HW217053   0.177   8.849   9.902
 5699SOL     OW17054   0.572   8.437   9.452
 5699SOL    HW117055   0.624   8.479   9.384
 5699SOL    HW217056   0.607   8.471   9.534
 5700SOL     OW17057   0.120   8.073   9.918
 5700SOL    HW117058   0.112   8.049   9.826
 5700SOL    HW217059   0.039   8.119   9.938
 5701SOL     OW17060   1.832   9.194   9.642
 5701SOL    HW117061   1.908   9.177   9.697
 5701SOL    HW217062   1.845   9.283   9.609
 5702SOL     OW17063   0.007   9.045   9.502
 5702SOL    HW117064   0.009   8.958   9.462
 5702SOL    HW217065   0.004   9.028   9.596
 5703SOL     OW17066   1.674   8.318   9.919
 5703SOL    HW117067   1.745   8.339   9.979
 5703SOL    HW217068   1.667   8.395   9.862
 5704SOL     OW17069   1.693   8.548   9.758
 5704SOL    HW117070   1.777   8.546   9.712
 5704SOL    HW217071   1.697   8.628   9.811
 5705SOL     OW17072   0.637   8.790   0.001
 5705SOL    HW117073   0.579   8.714   9.998
 5705SOL    HW217074   0.618   8.838   9.920
 5706SOL     OW17075   0.853   7.465   9.829
 5706SOL    HW117076   0.893   7.547   9.800
 5706SOL    HW217077   0.759   7.481   9.824
 5707SOL     OW17078   1.558   8.473   9.520
 5707SOL    HW117079   1.498   8.403   9.547
 5707SOL    HW217080   1.597   8.503   9.602
 5708SOL     OW17081   0.625   8.179   9.595
 5708SOL    HW117082   0.631   8.253   9.535
 5708SOL    HW217083   0.616   8.219   9.682
 5709SOL     OW17084   1.562   9.121   9.627
 5709SOL    HW117085   1.655   9.140   9.634
 5709SOL    HW217086   1.546   9.110   9.533
 5710SOL     OW17087   1.049   8.139   9.736
 5710SOL    HW117088   1.078   8.117   9.825
 5710SOL    HW217089   0.966   8.092   9.725
 5711SOL     OW17090   0.059   8.404   0.068
 5711SOL    HW117091   0.129   8.338   0.074
 5711SOL    HW217092   0.054   8.441   0.156
 5712SOL     OW17093   0.902   7.789   9.500
 5712SOL    HW117094   0.945   7.852   9.442
 5712SOL    HW217095   0.903   7.706   9.451
 5713SOL     OW17096   1.316   8.543   9.792
 5713SOL    HW117097   1.366   8.572   9.869
 5713SOL    HW217098   1.290   8.624   9.749
 5714SOL     OW17099   0.990   8.876   9.783
 5714SOL    HW117100   0.963   8.963   9.751
 5714SOL    HW217101   0.963   8.876   9.875
 5715SOL     OW17102   0.350   9.199   0.158
 5715SOL    HW117103   0.380   9.108   0.167
 5715SOL    HW217104   0.382   9.242   0.237
 5716SOL     OW17105   0.327   8.379   9.606
 5716SOL    HW117106   0.401   8.387   9.546
 5716SOL    HW217107   0.341   8.296   9.651
 5717SOL     OW17108   1.138   9.224   9.538
 5717SOL    HW117109   1.062   9.188   9.583
 5717SOL    HW217110   1.159   9.158   9.471
 5718SOL     OW17111   1.638   8.840   9.403
 5718SOL    HW117112   1.594   8.925   9.391
 5718SOL    HW217113   1.571   8.776   9.380
 5719SOL     OW17114   0.479   9.217   9.632
 5719SOL    HW117115   0.526   9.261   9.702
 5719SOL    HW217116   0.546   9.166   9.586
 5720SOL     OW17117   1.424   7.598   9.738
 5720SOL    HW117118   1.414   7.557   9.653
 5720SOL    HW217119   1.519   7.601   9.752
 5721SOL     OW17120   0.367   8.161   9.783
 5721SOL    HW117121   0.410   8.076   9.792
 5721SOL    HW217122   0.278   8.146   9.814
 5722SOL     OW17123   0.653   7.555   9.419
 5722SOL    HW117124   0.707   7.481   9.446
 5722SOL    HW217125   0.603   7.522   9.343
 5723SOL     OW17126   0.590   7.518   9.808
 5723SOL    HW117127   0.518   7.521   9.871
 5723SOL    HW217128   0.573   7.592   9.749
 5724SOL     OW17129   1.439   8.656   9.345
 5724SOL    HW117130   1.474   8.588   9.403
 5724SOL    HW217131   1.353   8.677   9.381
 5725SOL     OW17132   0.307   7.474   9.458
 5725SOL    HW117133   0.355   7.547   9.421
 5725SOL    HW217134   0.370   7.429   9.515
 5726SOL     OW17135   0.959   7.706   9.756
 5726SOL    HW117136   0.933   7.736   9.669
 5726SOL    HW217137   1.051   7.729   9.763
 5727SOL     OW17138   0.440   8.599   0.033
 5727SOL    HW117139   0.370   8.628   0.092
 5727SOL    HW217140   0.396   8.585   9.949
 5728SOL     OW17141   1.298   9.281   9.903
 5728SOL    HW117142   1.344   9.340   9.844
 5728SOL    HW217143   1.208   9.314   9.905
 5729SOL     OW17144   1.031   7.968   9.337
 5729SOL    HW117145   0.988   8.051   9.318
 5729SOL    HW217146   1.094   7.989   9.406
 5730SOL     OW17147   0.846   7.883   9.939
 5730SOL    HW117148   0.813   7.945   9.874
 5730SOL    HW217149   0.881   7.811   9.888
 5731SOL     OW17150   1.881   8.254   9.637
 5731SOL    HW117151   1.912   8.214   9.719
 5731SOL    HW217152   1.846   8.180   9.587
 5732SOL     OW17153   0.492   8.878   9.458
 5732SOL    HW117154   0.412   8.849   9.502
 5732SOL    HW217155   0.496   8.825   9.379
 5733SOL     OW17156   1.389   8.026   9.370
 5733SOL    HW117157   1.334   8.002   9.444
 5733SOL    HW217158   1.478   8.001   9.397
 5734SOL     OW17159   0.534   7.710   9.625
 5734SOL    HW117160   0.579   7.661   9.556
 5734SOL    HW217161   0.518   7.796   9.587
 5735SOL     OW17162   0.703   8.503   9.685
 5735SOL    HW117163   0.665   8.453   9.758
 5735SOL    HW217164   0.784   8.457   9.665
 5736SOL     OW17165   0.304   8.574   9.797
 5736SOL    HW117166   0.314   8.653   9.745
 5736SOL    HW217167   0.315   8.502   9.734
 5737SOL     OW17168   1.236   8.801   9.690
 5737SOL    HW117169   1.291   8.874   9.721
 5737SOL    HW217170   1.149   8.819   9.727
 5738SOL     OW17171   1.635   8.086   9.789
 5738SOL    HW117172   1.638   8.160   9.849
 5738SOL    HW217173   1.586   8.119   9.713
 5739SOL     OW17174   1.197   7.982   9.564
 5739SOL    HW117175   1.206   7.906   9.622
 5739SOL    HW217176   1.159   8.050   9.619
 5740SOL     OW17177   0.390   7.539   9.983
 5740SOL    HW117178   0.313   7.594   9.970
 5740SOL    HW217179   0.359   7.469   0.042
 5741SOL     OW17180   1.631   7.843   9.655
 5741SOL    HW117181   1.654   7.767   9.709
 5741SOL    HW217182   1.622   7.915   9.718
 5742SOL     OW17183   1.520   7.722   9.425
 5742SOL    HW117184   1.468   7.650   9.460
 5742SOL    HW217185   1.557   7.764   9.503
 5743SOL     OW17186   1.279   8.274   9.331
 5743SOL    HW117187   1.318   8.187   9.338
 5743SOL    HW217188   1.316   8.310   9.250
 5744SOL     OW17189   0.011   8.746   9.485
 5744SOL    HW117190   9.919   8.747   9.458
 5744SOL    HW217191   0.025   8.658   9.520
 5745SOL     OW17192   0.817   7.999   9.683
 5745SOL    HW117193   0.827   7.931   9.616
 5745SOL    HW217194   0.751   8.058   9.647
 5746SOL     OW17195   0.500   7.948   9.503
 5746SOL    HW117196   0.544   8.026   9.536
 5746SOL    HW217197   0.420   7.982   9.461
 5747SOL     OW17198   1.370   8.294   9.606
 5747SOL    HW117199   1.318   8.347   9.668
 5747SOL    HW217200   1.314   8.287   9.528
 5748SOL     OW17201   1.707   7.605   9.771
 5748SOL    HW117202   1.777   7.606   9.707
 5748SOL    HW217203   1.723   7.527   9.824
 5749SOL     OW17204   1.361   9.036   9.793
 5749SOL    HW117205   1.432   9.055   9.731
 5749SOL    HW217206   1.332   9.123   9.823
 5750SOL     OW17207   0.672   9.083   9.477
 5750SOL    HW117208   0.691   9.097   9.384
 5750SOL    HW217209   0.615   9.006   9.479
 5751SOL     OW17210   1.210   9.039   9.345
 5751SOL    HW117211   1.201   8.947   9.371
 5751SOL    HW217212   1.140   9.053   9.281
 5752SOL     OW17213   0.920   8.360   9.620
 5752SOL    HW117214   0.971   8.384   9.542
 5752SOL    HW217215   0.972   8.293   9.663
 5753SOL     OW17216   1.484   9.094   9.358
 5753SOL    HW117217   1.392   9.073   9.342
 5753SOL    HW217218   1.524   9.096   9.271
 5754SOL     OW17219   0.594   8.924   9.768
 5754SOL    HW117220   0.649   8.880   9.703
 5754SOL    HW217221   0.512   8.941   9.722
 5755SOL     OW17222   0.262   8.797   9.589
 5755SOL    HW117223   0.170   8.789   9.566
 5755SOL    HW217224   0.262   8.833   9.678
 5756SOL     OW17225   0.081   7.748   9.272
 5756SOL    HW117226   9.986   7.733   9.270
 5756SOL    HW217227   0.095   7.826   9.219
 5757SOL     OW17228   0.067   7.533   9.570
 5757SOL    HW117229   0.091   7.595   9.638
 5757SOL    HW217230   0.151   7.502   9.535
 5758SOL     OW17231   1.179   8.770   9.422
 5758SOL    HW117232   1.086   8.749   9.421
 5758SOL    HW217233   1.201   8.775   9.515
 5759SOL     OW17234   1.222   7.787   9.767
 5759SOL    HW117235   1.295   7.727   9.760
 5759SOL    HW217236   1.242   7.840   9.845
 5760SOL     OW17237   0.592   8.307   9.856
 5760SOL    HW117238   0.611   8.311   9.950
 5760SOL    HW217239   0.508   8.262   9.850
 5761SOL     OW17240   0.877   8.805   9.368
 5761SOL    HW117241   0.838   8.818   9.454
 5761SOL    HW217242   0.882   8.892   9.329
 5762SOL     OW17243   1.053   8.410   9.390
 5762SOL    HW117244   1.042   8.475   9.321
 5762SOL    HW217245   1.135   8.365   9.369
 5763SOL     OW17246   0.066   8.643   9.922
 5763SOL    HW117247   0.044   8.564   9.972
 5763SOL    HW217248   0.150   8.623   9.881
 5764SOL     OW17249   0.478   7.919   9.848
 5764SOL    HW117250   0.525   7.850   9.801
 5764SOL    HW217251   0.491   7.898   9.941
 5765SOL     OW17252   0.780   8.772   9.627
 5765SOL    HW117253   0.753   8.682   9.647
 5765SOL    HW217254   0.855   8.788   9.684
 5766SOL     OW17255   1.379   7.490   9.491
 5766SOL    HW117256   1.422   7.413   9.454
 5766SOL    HW217257   1.289   7.462   9.506
 5767SOL     OW17258   0.068   8.504   9.591
 5767SOL    HW117259   0.147   8.451   9.579
 5767SOL    HW217260   0.044   8.491   9.683
 5768SOL     OW17261   0.903   9.115   9.662
 5768SOL    HW117262   0.824   9.101   9.608
 5768SOL    HW217263   0.879   9.187   9.720
 5769SOL     OW17264   0.192   9.583   1.017
 5769SOL    HW117265   0.235   9.539   1.090
 5769SOL    HW217266   0.099   9.562   1.028
 5770SOL     OW17267   0.037   9.669   0.631
 5770SOL    HW117268   9.942   9.669   0.619
 5770SOL    HW217269   0.070   9.624   0.553
 5771SOL     OW17270   1.757   9.887   0.194
 5771SOL    HW117271   1.758   9.861   0.102
 5771SOL    HW217272   1.708   9.817   0.239
 5772SOL     OW17273   0.455   9.720   1.474
 5772SOL    HW117274   0.536   9.670   1.469
 5772SOL    HW217275   0.385   9.655   1.469
 5773SOL     OW17276   1.593   9.718   0.754
 5773SOL    HW117277   1.519   9.729   0.694
 5773SOL    HW217278   1.575   9.780   0.825
 5774SOL     OW17279   1.592   9.441   1.456
 5774SOL    HW117280   1.633   9.517   1.417
 5774SOL    HW217281   1.557   9.472   1.539
 5775SOL     OW17282   0.112   9.917   0.553
 5775SOL    HW117283   0.087   9.833   0.592
 5775SOL    HW217284   0.082   9.982   0.617
 5776SOL     OW17285   0.852   9.330   0.526
 5776SOL    HW117286   0.890   9.412   0.495
 5776SOL    HW217287   0.760   9.349   0.540
 5777SOL     OW17288   0.356   9.553   1.773
 5777SOL    HW117289   0.388   9.643   1.771
 5777SOL    HW217290   0.264   9.561   1.799
 5778SOL     OW17291   1.275   9.682   0.940
 5778SOL    HW117292   1.185   9.648   0.943
 5778SOL    HW217293   1.325   9.625   0.998
 5779SOL     OW17294   0.849   9.834   1.435
 5779SOL    HW117295   0.801   9.845   1.517
 5779SOL    HW217296   0.781   9.824   1.369
 5780SOL     OW17297   1.405   9.785   1.681
 5780SOL    HW117298   1.452   9.830   1.752
 5780SOL    HW217299   1.438   9.696   1.683
 5781SOL     OW17300   1.018   9.755   1.236
 5781SOL    HW117301   0.964   9.778   1.312
 5781SOL    HW217302   0.959   9.706   1.179
 5782SOL     OW17303   1.063   9.978   0.418
 5782SOL    HW117304   1.052   0.042   0.488
 5782SOL    HW217305   0.974   9.951   0.396
 5783SOL     OW17306   0.067   0.058   0.785
 5783SOL    HW117307   0.149   0.069   0.833
 5783SOL    HW217308   0.007   0.122   0.823
 5784SOL     OW17309   0.865   9.642   0.194
 5784SOL    HW117310   0.860   9.691   0.112
 5784SOL    HW217311   0.876   9.551   0.168
 5785SOL     OW17312   1.677   9.900   1.809
 5785SOL    HW117313   1.722   9.970   1.761
 5785SOL    HW217314   1.706   9.819   1.766
 5786SOL     OW17315   0.553   9.475   0.907
 5786SOL    HW117316   0.558   9.508   0.997
 5786SOL    HW217317   0.551   9.554   0.853
 5787SOL     OW17318   1.489   0.020   0.732
 5787SOL    HW117319   1.479   9.971   0.814
 5787SOL    HW217320   1.528   0.103   0.759
 5788SOL     OW17321   0.205   9.587   1.475
 5788SOL    HW117322   0.160   9.671   1.467
 5788SOL    HW217323   0.203   9.567   1.568
 5789SOL     OW17324   1.400   9.404   0.447
 5789SOL    HW117325   1.398   9.384   0.353
 5789SOL    HW217326   1.493   9.399   0.470
 5790SOL     OW17327   1.500   9.523   1.710
 5790SOL    HW117328   1.512   9.539   1.804
 5790SOL    HW217329   1.433   9.455   1.706
 5791SOL     OW17330   0.630   9.404   0.118
 5791SOL    HW117331   0.726   9.395   0.119
 5791SOL    HW217332   0.609   9.420   0.027
 5792SOL     OW17333   0.760   9.580   1.746
 5792SOL    HW117334   0.844   9.535   1.747
 5792SOL    HW217335   0.713   9.547   1.822
 5793SOL     OW17336   1.382   9.898   1.426
 5793SOL    HW117337   1.381   9.867   1.517
 5793SOL    HW217338   1.433   9.978   1.428
 5794SOL     OW17339   0.934   9.802   0.900
 5794SOL    HW117340   0.910   9.784   0.810
 5794SOL    HW217341   0.969   9.719   0.932
 5795SOL     OW17342   0.590   9.390   0.538
 5795SOL    HW117343   0.514   9.393   0.597
 5795SOL    HW217344   0.568   9.452   0.468
 5796SOL     OW17345   0.954   9.575   0.448
 5796SOL    HW117346   0.926   9.604   0.361
 5796SOL    HW217347   1.048   9.592   0.449
 5797SOL     OW17348   1.071   9.950   1.567
 5797SOL    HW117349   1.007   9.909   1.510
 5797SOL    HW217350   1.113   0.016   1.513
 5798SOL     OW17351   1.106   9.888   0.031
 5798SOL    HW117352   1.021   9.845   0.021
 5798SOL    HW217353   1.130   9.873   0.123
 5799SOL     OW17354   0.095   9.836   1.389
 5799SOL    HW117355   0.181   9.873   1.367
 5799SOL    HW217356   0.059   9.898   1.452
 5800SOL     OW17357   0.558   9.545   1.175
 5800SOL    HW117358   0.607   9.491   1.237
 5800SOL    HW217359   0.466   9.528   1.196
 5801SOL     OW17360   0.878   9.765   0.644
 5801SOL    HW117361   0.856   9.844   0.593
 5801SOL    HW217362   0.892   9.697   0.578
 5802SOL     OW17363   1.034   9.357   0.741
 5802SOL    HW117364   0.972   9.356   0.668
 5802SOL    HW217365   1.006   9.286   0.798
 5803SOL     OW17366   1.482   9.872   0.956
 5803SOL    HW117367   1.403   9.820   0.976
 5803SOL    HW217368   1.523   9.886   1.042
 5804SOL     OW17369   0.499   9.524   0.324
 5804SOL    HW117370   0.539   9.482   0.248
 5804SOL    HW217371   0.497   9.617   0.303
 5805SOL     OW17372   0.922   9.393   1.382
 5805SOL    HW117373   0.943   9.373   1.291
 5805SOL    HW217374   1.001   9.433   1.417
 5806SOL     OW17375   1.274   9.685   1.297
 5806SOL    HW117376   1.312   9.762   1.338
 5806SOL    HW217377   1.186   9.713   1.269
 5807SOL     OW17378   0.537   9.791   0.884
 5807SOL    HW117379   0.537   9.788   0.788
 5807SOL    HW217380   0.606   9.853   0.906
 5808SOL     OW17381   1.581   9.925   0.496
 5808SOL    HW117382   1.548   9.952   0.582
 5808SOL    HW217383   1.665   9.969   0.488
 5809SOL     OW17384   0.999   9.449   1.769
 5809SOL    HW117385   1.059   9.521   1.749
 5809SOL    HW217386   1.047   9.370   1.745
 5810SOL     OW17387   0.505   9.332   1.738
 5810SOL    HW117388   0.456   9.280   1.674
 5810SOL    HW217389   0.456   9.414   1.745
 5811SOL     OW17390   1.230   9.837   0.268
 5811SOL    HW117391   1.243   9.755   0.316
 5811SOL    HW217392   1.177   9.891   0.327
 5812SOL     OW17393   0.302   9.480   1.244
 5812SOL    HW117394   0.264   9.511   1.326
 5812SOL    HW217395   0.277   9.388   1.239
 5813SOL     OW17396   0.730   9.958   1.003
 5813SOL    HW117397   0.803   9.921   0.954
 5813SOL    HW217398   0.710   0.041   0.959
 5814SOL     OW17399   0.334   9.404   0.647
 5814SOL    HW117400   0.319   9.490   0.688
 5814SOL    HW217401   0.333   9.342   0.720
 5815SOL     OW17402   1.619   9.692   0.348
 5815SOL    HW117403   1.660   9.629   0.407
 5815SOL    HW217404   1.595   9.766   0.404
 5816SOL     OW17405   1.482   9.607   0.125
 5816SOL    HW117406   1.444   9.523   0.150
 5816SOL    HW217407   1.529   9.636   0.203
 5817SOL     OW17408   0.301   0.081   0.928
 5817SOL    HW117409   0.388   0.107   0.898
 5817SOL    HW217410   0.314   9.995   0.969
 5818SOL     OW17411   0.325   9.820   1.046
 5818SOL    HW117412   0.277   9.738   1.035
 5818SOL    HW217413   0.402   9.810   0.990
 5819SOL     OW17414   1.148   9.670   1.695
 5819SOL    HW117415   1.092   9.728   1.746
 5819SOL    HW217416   1.228   9.720   1.681
 5820SOL     OW17417   1.158   9.502   1.473
 5820SOL    HW117418   1.148   9.561   1.549
 5820SOL    HW217419   1.205   9.555   1.408
 5821SOL     OW17420   0.053   9.866   1.113
 5821SOL    HW117421   0.147   9.868   1.094
 5821SOL    HW217422   0.048   9.846   1.207
 5822SOL     OW17423   0.207   9.820   1.676
 5822SOL    HW117424   0.290   9.836   1.630
 5822SOL    HW217425   0.182   9.906   1.709
 5823SOL     OW17426   0.820   9.893   0.324
 5823SOL    HW117427   0.814   9.804   0.289
 5823SOL    HW217428   0.732   9.912   0.357
 5824SOL     OW17429   1.633   9.904   1.185
 5824SOL    HW117430   1.620   9.847   1.261
 5824SOL    HW217431   1.717   9.875   1.148
 5825SOL     OW17432   0.685   9.790   1.222
 5825SOL    HW117433   0.636   9.713   1.195
 5825SOL    HW217434   0.686   9.846   1.145
 5826SOL     OW17435   0.904   9.385   0.093
 5826SOL    HW117436   0.901   9.358   0.001
 5826SOL    HW217437   0.979   9.337   0.129
 5827SOL     OW17438   1.752   9.482   0.486
 5827SOL    HW117439   1.816   9.459   0.418
 5827SOL    HW217440   1.726   9.399   0.524
 5828SOL     OW17441   1.843   9.466   0.964
 5828SOL    HW117442   1.872   9.377   0.944
 5828SOL    HW217443   1.754   9.470   0.929
 5829SOL     OW17444   0.271   9.642   0.760
 5829SOL    HW117445   0.185   9.660   0.721
 5829SOL    HW217446   0.251   9.623   0.852
 5830SOL     OW17447   1.035   9.545   0.954
 5830SOL    HW117448   1.036   9.495   0.872
 5830SOL    HW217449   1.024   9.478   1.022
 5831SOL     OW17450   1.754   9.686   1.401
 5831SOL    HW117451   1.816   9.758   1.390
 5831SOL    HW217452   1.781   9.621   1.337
 5832SOL     OW17453   0.683   9.506   1.483
 5832SOL    HW117454   0.767   9.477   1.448
 5832SOL    HW217455   0.703   9.535   1.572
 5833SOL     OW17456   0.018   9.637   9.980
 5833SOL    HW117457   9.923   9.634   9.973
 5833SOL    HW217458   0.043   9.719   9.937
 5834SOL     OW17459   0.088   9.400   0.247
 5834SOL    HW117460   0.134   9.477   0.282
 5834SOL    HW217461   0.094   9.335   0.317
 5835SOL     OW17462   0.737   9.854   1.689
 5835SOL    HW117463   0.806   9.897   1.740
 5835SOL    HW217464   0.743   9.762   1.713
 5836SOL     OW17465   1.228   9.624   0.454
 5836SOL    HW117466   1.286   9.548   0.452
 5836SOL    HW217467   1.257   9.674   0.530
 5837SOL     OW17468   1.740   9.668   1.675
 5837SOL    HW117469   1.743   9.678   1.580
 5837SOL    HW217470   1.666   9.608   1.689
 5838SOL     OW17471   1.115   0.234   0.073
 5838SOL    HW117472   1.124   0.327   0.052
 5838SOL    HW217473   1.203   0.208   0.102
 5839SOL     OW17474   1.812   9.482   1.235
 5839SOL    HW117475   1.812   9.387   1.247
 5839SOL    HW217476   1.823   9.494   1.141
 5840SOL     OW17477   0.493   9.726   0.617
 5840SOL    HW117478   0.470   9.773   0.536
 5840SOL    HW217479   0.409   9.705   0.657
 5841SOL     OW17480   0.344   9.915   1.306
 5841SOL    HW117481   0.401   9.860   1.360
 5841SOL    HW217482   0.353   9.880   1.217
 5842SOL     OW17483   1.420   9.537   1.122
 5842SOL    HW117484   1.429   9.451   1.162
 5842SOL    HW217485   1.376   9.590   1.189
 5843SOL     OW17486   1.008   9.320   1.124
 5843SOL    HW117487   0.954   9.257   1.078
 5843SOL    HW217488   1.096   9.281   1.124
 5844SOL     OW17489   1.357   9.357   0.176
 5844SOL    HW117490   1.374   9.324   0.088
 5844SOL    HW217491   1.268   9.327   0.196
 5845SOL     OW17492   1.322   9.760   0.675
 5845SOL    HW117493   1.317   9.856   0.676
 5845SOL    HW217494   1.298   9.735   0.764
 5846SOL     OW17495   1.578   9.485   0.900
 5846SOL    HW117496   1.526   9.518   0.973
 5846SOL    HW217497   1.581   9.558   0.838
 5847SOL     OW17498   0.195   9.582   2.879
 5847SOL    HW117499   0.235   9.539   2.954
 5847SOL    HW217500   0.102   9.560   2.886
 5848SOL     OW17501   0.029   9.670   2.510
 5848SOL    HW117502   9.935   9.685   2.499
 5848SOL    HW217503   0.052   9.611   2.438
 5849SOL     OW17504   1.624   9.914   2.078
 5849SOL    HW117505   1.658   9.912   1.989
 5849SOL    HW217506   1.637   9.825   2.111
 5850SOL     OW17507   0.455   9.720   3.334
 5850SOL    HW117508   0.536   9.669   3.332
 5850SOL    HW217509   0.385   9.655   3.332
 5851SOL     OW17510   1.607   9.725   2.618
 5851SOL    HW117511   1.583   9.766   2.534
 5851SOL    HW217512   1.570   9.783   2.684
 5852SOL     OW17513   1.591   9.441   3.317
 5852SOL    HW117514   1.633   9.517   3.278
 5852SOL    HW217515   1.557   9.473   3.401
 5853SOL     OW17516   0.117   9.912   2.427
 5853SOL    HW117517   0.088   9.831   2.468
 5853SOL    HW217518   0.092   9.981   2.489
 5854SOL     OW17519   0.852   9.331   2.375
 5854SOL    HW117520   0.890   9.415   2.349
 5854SOL    HW217521   0.757   9.345   2.375
 5855SOL     OW17522   0.356   9.553   3.635
 5855SOL    HW117523   0.388   9.643   3.636
 5855SOL    HW217524   0.264   9.559   3.660
 5856SOL     OW17525   1.275   9.683   2.803
 5856SOL    HW117526   1.186   9.648   2.804
 5856SOL    HW217527   1.325   9.625   2.860
 5857SOL     OW17528   0.850   9.833   3.297
 5857SOL    HW117529   0.802   9.845   3.379
 5857SOL    HW217530   0.782   9.824   3.231
 5858SOL     OW17531   1.405   9.785   3.542
 5858SOL    HW117532   1.453   9.830   3.613
 5858SOL    HW217533   1.438   9.695   3.544
 5859SOL     OW17534   1.014   9.753   3.095
 5859SOL    HW117535   0.962   9.778   3.171
 5859SOL    HW217536   0.955   9.701   3.041
 5860SOL     OW17537   1.097   9.987   2.298
 5860SOL    HW117538   1.151   0.031   2.363
 5860SOL    HW217539   1.008   9.996   2.331
 5861SOL     OW17540   0.061   0.058   2.651
 5861SOL    HW117541   0.143   0.070   2.700
 5861SOL    HW217542   0.002   0.124   2.688
 5862SOL     OW17543   0.893   9.652   2.047
 5862SOL    HW117544   0.933   9.720   1.993
 5862SOL    HW217545   0.906   9.571   1.998
 5863SOL     OW17546   1.676   9.900   3.671
 5863SOL    HW117547   1.723   9.969   3.624
 5863SOL    HW217548   1.706   9.819   3.628
 5864SOL     OW17549   0.558   9.481   2.777
 5864SOL    HW117550   0.562   9.507   2.869
 5864SOL    HW217551   0.551   9.564   2.729
 5865SOL     OW17552   1.482   0.023   2.591
 5865SOL    HW117553   1.474   9.974   2.672
 5865SOL    HW217554   1.523   0.106   2.617
 5866SOL     OW17555   0.206   9.587   3.337
 5866SOL    HW117556   0.160   9.671   3.327
 5866SOL    HW217557   0.202   9.569   3.430
 5867SOL     OW17558   1.395   9.411   2.316
 5867SOL    HW117559   1.395   9.387   2.223
 5867SOL    HW217560   1.487   9.412   2.340
 5868SOL     OW17561   1.500   9.523   3.572
 5868SOL    HW117562   1.512   9.539   3.666
 5868SOL    HW217563   1.434   9.454   3.568
 5869SOL     OW17564   0.641   9.427   1.953
 5869SOL    HW117565   0.693   9.357   1.990
 5869SOL    HW217566   0.595   9.387   1.879
 5870SOL     OW17567   0.760   9.580   3.606
 5870SOL    HW117568   0.844   9.535   3.608
 5870SOL    HW217569   0.713   9.546   3.683
 5871SOL     OW17570   1.377   9.900   3.288
 5871SOL    HW117571   1.378   9.867   3.378
 5871SOL    HW217572   1.431   9.979   3.290
 5872SOL     OW17573   0.929   9.804   2.758
 5872SOL    HW117574   0.899   9.783   2.670
 5872SOL    HW217575   0.969   9.723   2.790
 5873SOL     OW17576   0.588   9.381   2.345
 5873SOL    HW117577   0.519   9.388   2.412
 5873SOL    HW217578   0.571   9.453   2.285
 5874SOL     OW17579   0.314   9.339   2.006
 5874SOL    HW117580   0.373   9.409   1.977
 5874SOL    HW217581   0.366   9.286   2.066
 5875SOL     OW17582   0.950   9.581   2.306
 5875SOL    HW117583   0.925   9.608   2.217
 5875SOL    HW217584   1.044   9.595   2.310
 5876SOL     OW17585   1.071   9.950   3.430
 5876SOL    HW117586   1.007   9.908   3.372
 5876SOL    HW217587   1.114   0.015   3.374
 5877SOL     OW17588   1.023   9.832   1.889
 5877SOL    HW117589   1.001   9.921   1.863
 5877SOL    HW217590   1.090   9.842   1.956
 5878SOL     OW17591   0.096   9.835   3.252
 5878SOL    HW117592   0.181   9.872   3.229
 5878SOL    HW217593   0.059   9.897   3.314
 5879SOL     OW17594   0.559   9.543   3.045
 5879SOL    HW117595   0.607   9.494   3.112
 5879SOL    HW217596   0.467   9.525   3.063
 5880SOL     OW17597   0.858   9.759   2.503
 5880SOL    HW117598   0.857   9.842   2.455
 5880SOL    HW217599   0.886   9.694   2.438
 5881SOL     OW17600   1.027   9.358   2.598
 5881SOL    HW117601   0.967   9.353   2.524
 5881SOL    HW217602   1.000   9.286   2.656
 5882SOL     OW17603   1.477   9.873   2.813
 5882SOL    HW117604   1.401   9.817   2.831
 5882SOL    HW217605   1.519   9.885   2.898
 5883SOL     OW17606   0.522   9.572   2.165
 5883SOL    HW117607   0.569   9.546   2.086
 5883SOL    HW217608   0.447   9.623   2.133
 5884SOL     OW17609   0.922   9.393   3.243
 5884SOL    HW117610   0.944   9.373   3.152
 5884SOL    HW217611   1.001   9.433   3.279
 5885SOL     OW17612   1.271   9.685   3.158
 5885SOL    HW117613   1.308   9.763   3.199
 5885SOL    HW217614   1.184   9.713   3.129
 5886SOL     OW17615   0.517   9.818   2.711
 5886SOL    HW117616   0.495   9.877   2.638
 5886SOL    HW217617   0.590   9.862   2.754
 5887SOL     OW17618   1.576   9.879   2.382
 5887SOL    HW117619   1.540   9.940   2.446
 5887SOL    HW217620   1.627   9.934   2.322
 5888SOL     OW17621   0.998   9.449   3.630
 5888SOL    HW117622   1.059   9.521   3.611
 5888SOL    HW217623   1.047   9.370   3.606
 5889SOL     OW17624   0.506   9.333   3.599
 5889SOL    HW117625   0.457   9.280   3.536
 5889SOL    HW217626   0.456   9.414   3.607
 5890SOL     OW17627   1.199   9.838   2.102
 5890SOL    HW117628   1.218   9.756   2.147
 5890SOL    HW217629   1.158   9.893   2.168
 5891SOL     OW17630   0.302   9.479   3.106
 5891SOL    HW117631   0.264   9.510   3.188
 5891SOL    HW217632   0.276   9.387   3.101
 5892SOL     OW17633   0.709   9.947   2.857
 5892SOL    HW117634   0.793   9.921   2.818
 5892SOL    HW217635   0.695   0.037   2.826
 5893SOL     OW17636   0.372   9.418   2.505
 5893SOL    HW117637   0.346   9.496   2.554
 5893SOL    HW217638   0.355   9.345   2.564
 5894SOL     OW17639   1.614   9.667   2.212
 5894SOL    HW117640   1.662   9.602   2.264
 5894SOL    HW217641   1.585   9.732   2.276
 5895SOL     OW17642   1.515   9.569   1.974
 5895SOL    HW117643   1.461   9.496   2.006
 5895SOL    HW217644   1.550   9.609   2.053
 5896SOL     OW17645   0.294   0.083   2.797
 5896SOL    HW117646   0.370   0.097   2.741
 5896SOL    HW217647   0.312   9.999   2.840
 5897SOL     OW17648   0.328   9.819   2.904
 5897SOL    HW117649   0.280   9.737   2.895
 5897SOL    HW217650   0.397   9.814   2.838
 5898SOL     OW17651   1.148   9.669   3.557
 5898SOL    HW117652   1.092   9.728   3.608
 5898SOL    HW217653   1.229   9.720   3.544
 5899SOL     OW17654   1.158   9.502   3.335
 5899SOL    HW117655   1.148   9.560   3.411
 5899SOL    HW217656   1.204   9.555   3.270
 5900SOL     OW17657   0.055   9.862   2.976
 5900SOL    HW117658   0.149   9.865   2.957
 5900SOL    HW217659   0.050   9.843   3.070
 5901SOL     OW17660   0.207   9.820   3.539
 5901SOL    HW117661   0.289   9.836   3.493
 5901SOL    HW217662   0.181   9.906   3.572
 5902SOL     OW17663   0.729   9.897   2.107
 5902SOL    HW117664   0.770   9.810   2.110
 5902SOL    HW217665   0.689   9.908   2.193
 5903SOL     OW17666   1.630   9.904   3.043
 5903SOL    HW117667   1.615   9.847   3.119
 5903SOL    HW217668   1.713   9.875   3.007
 5904SOL     OW17669   0.687   9.789   3.085
 5904SOL    HW117670   0.637   9.710   3.062
 5904SOL    HW217671   0.683   9.843   3.006
 5905SOL     OW17672   1.749   9.477   2.360
 5905SOL    HW117673   1.809   9.457   2.289
 5905SOL    HW217674   1.723   9.392   2.395
 5906SOL     OW17675   1.842   9.467   2.825
 5906SOL    HW117676   1.871   9.378   2.805
 5906SOL    HW217677   1.754   9.472   2.789
 5907SOL     OW17678   0.273   9.637   2.624
 5907SOL    HW117679   0.187   9.659   2.587
 5907SOL    HW217680   0.254   9.617   2.716
 5908SOL     OW17681   1.034   9.546   2.812
 5908SOL    HW117682   1.034   9.497   2.730
 5908SOL    HW217683   1.025   9.480   2.880
 5909SOL     OW17684   1.754   9.686   3.264
 5909SOL    HW117685   1.816   9.758   3.252
 5909SOL    HW217686   1.781   9.620   3.199
 5910SOL     OW17687   0.683   9.506   3.343
 5910SOL    HW117688   0.768   9.477   3.309
 5910SOL    HW217689   0.703   9.534   3.433
 5911SOL     OW17690   0.103   9.625   1.838
 5911SOL    HW117691   0.007   9.617   1.844
 5911SOL    HW217692   0.116   9.702   1.783
 5912SOL     OW17693   0.079   9.429   2.104
 5912SOL    HW117694   0.106   9.474   2.185
 5912SOL    HW217695   0.160   9.394   2.068
 5913SOL     OW17696   0.737   9.854   3.551
 5913SOL    HW117697   0.805   9.897   3.603
 5913SOL    HW217698   0.743   9.762   3.575
 5914SOL     OW17699   1.221   9.633   2.306
 5914SOL    HW117700   1.280   9.558   2.310
 5914SOL    HW217701   1.243   9.685   2.383
 5915SOL     OW17702   1.740   9.668   3.537
 5915SOL    HW117703   1.744   9.678   3.442
 5915SOL    HW217704   1.666   9.608   3.551
 5916SOL     OW17705   1.127   0.215   1.935
 5916SOL    HW117706   1.152   0.298   1.894
 5916SOL    HW217707   1.205   0.186   1.982
 5917SOL     OW17708   1.812   9.482   3.097
 5917SOL    HW117709   1.812   9.387   3.109
 5917SOL    HW217710   1.822   9.494   3.002
 5918SOL     OW17711   0.406   9.738   2.397
 5918SOL    HW117712   0.490   9.695   2.381
 5918SOL    HW217713   0.383   9.711   2.486
 5919SOL     OW17714   0.343   9.912   3.166
 5919SOL    HW117715   0.400   9.857   3.220
 5919SOL    HW217716   0.356   9.879   3.077
 5920SOL     OW17717   1.421   9.539   2.984
 5920SOL    HW117718   1.432   9.452   3.023
 5920SOL    HW217719   1.376   9.590   3.051
 5921SOL     OW17720   1.009   9.322   2.985
 5921SOL    HW117721   0.955   9.258   2.937
 5921SOL    HW217722   1.096   9.283   2.986
 5922SOL     OW17723   1.379   9.343   2.048
 5922SOL    HW117724   1.418   9.268   2.002
 5922SOL    HW217725   1.287   9.317   2.060
 5923SOL     OW17726   1.289   9.772   2.534
 5923SOL    HW117727   1.325   9.860   2.543
 5923SOL    HW217728   1.284   9.739   2.624
 5924SOL     OW17729   1.578   9.489   2.759
 5924SOL    HW117730   1.526   9.522   2.832
 5924SOL    HW217731   1.581   9.561   2.696
 5925SOL     OW17732   0.195   9.582   4.741
 5925SOL    HW117733   0.235   9.539   4.816
 5925SOL    HW217734   0.102   9.560   4.747
 5926SOL     OW17735   0.029   9.670   4.372
 5926SOL    HW117736   9.935   9.685   4.361
 5926SOL    HW217737   0.052   9.610   4.300
 5927SOL     OW17738   1.624   9.914   3.940
 5927SOL    HW117739   1.658   9.912   3.851
 5927SOL    HW217740   1.637   9.826   3.973
 5928SOL     OW17741   0.455   9.721   5.197
 5928SOL    HW117742   0.536   9.669   5.194
 5928SOL    HW217743   0.385   9.656   5.195
 5929SOL     OW17744   1.606   9.725   4.480
 5929SOL    HW117745   1.582   9.766   4.396
 5929SOL    HW217746   1.570   9.783   4.546
 5930SOL     OW17747   1.590   9.441   5.179
 5930SOL    HW117748   1.633   9.517   5.140
 5930SOL    HW217749   1.557   9.473   5.263
 5931SOL     OW17750   0.118   9.912   4.289
 5931SOL    HW117751   0.088   9.831   4.330
 5931SOL    HW217752   0.092   9.981   4.351
 5932SOL     OW17753   0.852   9.331   4.237
 5932SOL    HW117754   0.890   9.415   4.211
 5932SOL    HW217755   0.758   9.346   4.237
 5933SOL     OW17756   0.357   9.552   5.499
 5933SOL    HW117757   0.388   9.643   5.498
 5933SOL    HW217758   0.264   9.560   5.523
 5934SOL     OW17759   1.275   9.683   4.665
 5934SOL    HW117760   1.186   9.647   4.666
 5934SOL    HW217761   1.325   9.625   4.722
 5935SOL     OW17762   0.850   9.833   5.160
 5935SOL    HW117763   0.802   9.845   5.242
 5935SOL    HW217764   0.782   9.824   5.093
 5936SOL     OW17765   1.405   9.785   5.404
 5936SOL    HW117766   1.453   9.830   5.475
 5936SOL    HW217767   1.438   9.695   5.406
 5937SOL     OW17768   1.014   9.753   4.957
 5937SOL    HW117769   0.962   9.778   5.033
 5937SOL    HW217770   0.955   9.701   4.903
 5938SOL     OW17771   1.097   9.987   4.160
 5938SOL    HW117772   1.152   0.031   4.225
 5938SOL    HW217773   1.008   9.996   4.194
 5939SOL     OW17774   0.061   0.058   4.513
 5939SOL    HW117775   0.143   0.070   4.562
 5939SOL    HW217776   0.002   0.124   4.550
 5940SOL     OW17777   0.893   9.652   3.909
 5940SOL    HW117778   0.933   9.720   3.855
 5940SOL    HW217779   0.905   9.571   3.861
 5941SOL     OW17780   1.677   9.900   5.532
 5941SOL    HW117781   1.723   9.969   5.486
 5941SOL    HW217782   1.706   9.819   5.490
 5942SOL     OW17783   0.558   9.481   4.639
 5942SOL    HW117784   0.562   9.507   4.731
 5942SOL    HW217785   0.551   9.564   4.591
 5943SOL     OW17786   1.483   0.023   4.453
 5943SOL    HW117787   1.474   9.974   4.534
 5943SOL    HW217788   1.524   0.106   4.479
 5944SOL     OW17789   0.208   9.587   5.198
 5944SOL    HW117790   0.160   9.669   5.188
 5944SOL    HW217791   0.200   9.566   5.291
 5945SOL     OW17792   1.395   9.411   4.178
 5945SOL    HW117793   1.395   9.387   4.085
 5945SOL    HW217794   1.487   9.411   4.203
 5946SOL     OW17795   1.501   9.523   5.434
 5946SOL    HW117796   1.512   9.539   5.528
 5946SOL    HW217797   1.435   9.454   5.430
 5947SOL     OW17798   0.641   9.427   3.814
 5947SOL    HW117799   0.693   9.356   3.853
 5947SOL    HW217800   0.595   9.386   3.741
 5948SOL     OW17801   0.760   9.580   5.469
 5948SOL    HW117802   0.844   9.535   5.470
 5948SOL    HW217803   0.713   9.546   5.545
 5949SOL     OW17804   1.377   9.900   5.150
 5949SOL    HW117805   1.378   9.867   5.240
 5949SOL    HW217806   1.430   9.979   5.153
 5950SOL     OW17807   0.929   9.804   4.620
 5950SOL    HW117808   0.899   9.783   4.532
 5950SOL    HW217809   0.969   9.723   4.652
 5951SOL     OW17810   0.588   9.381   4.208
 5951SOL    HW117811   0.519   9.388   4.274
 5951SOL    HW217812   0.571   9.454   4.147
 5952SOL     OW17813   0.314   9.339   3.869
 5952SOL    HW117814   0.373   9.410   3.842
 5952SOL    HW217815   0.367   9.286   3.928
 5953SOL     OW17816   0.950   9.581   4.168
 5953SOL    HW117817   0.925   9.608   4.080
 5953SOL    HW217818   1.044   9.595   4.172
 5954SOL     OW17819   1.071   9.950   5.292
 5954SOL    HW117820   1.007   9.908   5.235
 5954SOL    HW217821   1.115   0.014   5.236
 5955SOL     OW17822   1.023   9.832   3.750
 5955SOL    HW117823   1.001   9.921   3.725
 5955SOL    HW217824   1.090   9.842   3.818
 5956SOL     OW17825   0.096   9.834   5.114
 5956SOL    HW117826   0.181   9.872   5.091
 5956SOL    HW217827   0.059   9.896   5.177
 5957SOL     OW17828   0.559   9.543   4.907
 5957SOL    HW117829   0.607   9.494   4.974
 5957SOL    HW217830   0.467   9.525   4.925
 5958SOL     OW17831   0.858   9.759   4.365
 5958SOL    HW117832   0.857   9.842   4.317
 5958SOL    HW217833   0.886   9.694   4.300
 5959SOL     OW17834   1.027   9.358   4.460
 5959SOL    HW117835   0.967   9.353   4.386
 5959SOL    HW217836   1.000   9.286   4.518
 5960SOL     OW17837   1.477   9.873   4.674
 5960SOL    HW117838   1.401   9.817   4.693
 5960SOL    HW217839   1.519   9.885   4.760
 5961SOL     OW17840   0.523   9.572   4.027
 5961SOL    HW117841   0.570   9.546   3.948
 5961SOL    HW217842   0.448   9.622   3.995
 5962SOL     OW17843   0.922   9.393   5.105
 5962SOL    HW117844   0.944   9.373   5.014
 5962SOL    HW217845   1.001   9.433   5.141
 5963SOL     OW17846   1.271   9.685   5.020
 5963SOL    HW117847   1.308   9.763   5.062
 5963SOL    HW217848   1.184   9.713   4.991
 5964SOL     OW17849   0.517   9.819   4.572
 5964SOL    HW117850   0.494   9.878   4.500
 5964SOL    HW217851   0.590   9.862   4.616
 5965SOL     OW17852   1.576   9.879   4.244
 5965SOL    HW117853   1.540   9.940   4.308
 5965SOL    HW217854   1.627   9.934   4.184
 5966SOL     OW17855   0.998   9.449   5.492
 5966SOL    HW117856   1.059   9.521   5.473
 5966SOL    HW217857   1.046   9.370   5.468
 5967SOL     OW17858   0.506   9.333   5.461
 5967SOL    HW117859   0.457   9.280   5.398
 5967SOL    HW217860   0.456   9.414   5.470
 5968SOL     OW17861   1.199   9.838   3.964
 5968SOL    HW117862   1.218   9.756   4.009
 5968SOL    HW217863   1.159   9.894   4.030
 5969SOL     OW17864   0.302   9.479   4.967
 5969SOL    HW117865   0.265   9.510   5.050
 5969SOL    HW217866   0.276   9.387   4.963
 5970SOL     OW17867   0.709   9.947   4.719
 5970SOL    HW117868   0.793   9.921   4.680
 5970SOL    HW217869   0.695   0.037   4.688
 5971SOL     OW17870   0.372   9.418   4.367
 5971SOL    HW117871   0.346   9.496   4.416
 5971SOL    HW217872   0.355   9.345   4.427
 5972SOL     OW17873   1.614   9.667   4.074
 5972SOL    HW117874   1.661   9.602   4.125
 5972SOL    HW217875   1.585   9.732   4.138
 5973SOL     OW17876   1.515   9.569   3.836
 5973SOL    HW117877   1.461   9.496   3.868
 5973SOL    HW217878   1.550   9.609   3.915
 5974SOL     OW17879   0.295   0.083   4.659
 5974SOL    HW117880   0.372   0.098   4.605
 5974SOL    HW217881   0.312   9.999   4.702
 5975SOL     OW17882   0.328   9.819   4.766
 5975SOL    HW117883   0.280   9.737   4.757
 5975SOL    HW217884   0.397   9.814   4.700
 5976SOL     OW17885   1.148   9.669   5.419
 5976SOL    HW117886   1.092   9.728   5.470
 5976SOL    HW217887   1.229   9.719   5.406
 5977SOL     OW17888   1.158   9.502   5.197
 5977SOL    HW117889   1.148   9.560   5.273
 5977SOL    HW217890   1.204   9.555   5.132
 5978SOL     OW17891   0.055   9.862   4.838
 5978SOL    HW117892   0.149   9.865   4.819
 5978SOL    HW217893   0.050   9.843   4.932
 5979SOL     OW17894   0.207   9.820   5.401
 5979SOL    HW117895   0.289   9.835   5.355
 5979SOL    HW217896   0.181   9.906   5.434
 5980SOL     OW17897   0.729   9.897   3.969
 5980SOL    HW117898   0.770   9.810   3.972
 5980SOL    HW217899   0.689   9.907   4.055
 5981SOL     OW17900   1.630   9.904   4.905
 5981SOL    HW117901   1.616   9.847   4.980
 5981SOL    HW217902   1.713   9.875   4.868
 5982SOL     OW17903   0.687   9.789   4.947
 5982SOL    HW117904   0.637   9.710   4.924
 5982SOL    HW217905   0.683   9.843   4.868
 5983SOL     OW17906   1.749   9.477   4.222
 5983SOL    HW117907   1.809   9.457   4.151
 5983SOL    HW217908   1.723   9.392   4.257
 5984SOL     OW17909   1.842   9.467   4.687
 5984SOL    HW117910   1.872   9.378   4.667
 5984SOL    HW217911   1.754   9.472   4.651
 5985SOL     OW17912   0.272   9.637   4.486
 5985SOL    HW117913   0.187   9.659   4.449
 5985SOL    HW217914   0.254   9.617   4.578
 5986SOL     OW17915   1.034   9.546   4.674
 5986SOL    HW117916   1.034   9.497   4.592
 5986SOL    HW217917   1.024   9.480   4.742
 5987SOL     OW17918   1.754   9.686   5.125
 5987SOL    HW117919   1.816   9.758   5.113
 5987SOL    HW217920   1.781   9.620   5.061
 5988SOL     OW17921   0.683   9.506   5.206
 5988SOL    HW117922   0.767   9.477   5.171
 5988SOL    HW217923   0.703   9.534   5.295
 5989SOL     OW17924   0.102   9.624   3.699
 5989SOL    HW117925   0.007   9.615   3.705
 5989SOL    HW217926   0.116   9.701   3.645
 5990SOL     OW17927   0.079   9.429   3.966
 5990SOL    HW117928   0.106   9.474   4.046
 5990SOL    HW217929   0.160   9.394   3.930
 5991SOL     OW17930   0.737   9.854   5.413
 5991SOL    HW117931   0.806   9.897   5.465
 5991SOL    HW217932   0.743   9.762   5.437
 5992SOL     OW17933   1.221   9.633   4.168
 5992SOL    HW117934   1.280   9.558   4.172
 5992SOL    HW217935   1.243   9.685   4.245
 5993SOL     OW17936   1.740   9.668   5.398
 5993SOL    HW117937   1.744   9.678   5.303
 5993SOL    HW217938   1.666   9.608   5.413
 5994SOL     OW17939   1.127   0.215   3.797
 5994SOL    HW117940   1.152   0.301   3.762
 5994SOL    HW217941   1.205   0.185   3.844
 5995SOL     OW17942   1.812   9.482   4.958
 5995SOL    HW117943   1.812   9.387   4.971
 5995SOL    HW217944   1.822   9.493   4.864
 5996SOL     OW17945   0.405   9.737   4.258
 5996SOL    HW117946   0.490   9.696   4.243
 5996SOL    HW217947   0.382   9.712   4.348
 5997SOL     OW17948   0.343   9.912   5.028
 5997SOL    HW117949   0.400   9.858   5.083
 5997SOL    HW217950   0.356   9.879   4.940
 5998SOL     OW17951   1.421   9.539   4.846
 5998SOL    HW117952   1.432   9.452   4.885
 5998SOL    HW217953   1.376   9.590   4.913
 5999SOL     OW17954   1.009   9.322   4.847
 5999SOL    HW117955   0.955   9.258   4.799
 5999SOL    HW217956   1.096   9.283   4.848
 6000SOL     OW17957   1.379   9.343   3.910
 6000SOL    HW117958   1.418   9.268   3.864
 6000SOL    HW217959   1.287   9.317   3.922
 6001SOL     OW17960   1.289   9.771   4.396
 6001SOL    HW117961   1.325   9.860   4.405
 6001SOL    HW217962   1.284   9.739   4.486
 6002SOL     OW17963   1.578   9.488   4.621
 6002SOL    HW117964   1.526   9.522   4.694
 6002SOL    HW217965   1.581   9.561   4.558
 6003SOL     OW17966   0.195   9.582   6.603
 6003SOL    HW117967   0.235   9.539   6.678
 6003SOL    HW217968   0.102   9.560   6.609
 6004SOL     OW17969   0.029   9.670   6.234
 6004SOL    HW117970   9.935   9.685   6.223
 6004SOL    HW217971   0.052   9.611   6.162
 6005SOL     OW17972   1.623   9.915   5.802
 6005SOL    HW117973   1.658   9.912   5.712
 6005SOL    HW217974   1.637   9.826   5.835
 6006SOL     OW17975   0.455   9.721   7.060
 6006SOL    HW117976   0.535   9.669   7.057
 6006SOL    HW217977   0.384   9.656   7.057
 6007SOL     OW17978   1.606   9.725   6.341
 6007SOL    HW117979   1.582   9.766   6.258
 6007SOL    HW217980   1.570   9.783   6.408
 6008SOL     OW17981   1.590   9.441   7.041
 6008SOL    HW117982   1.633   9.517   7.002
 6008SOL    HW217983   1.557   9.473   7.125
 6009SOL     OW17984   0.117   9.912   6.151
 6009SOL    HW117985   0.087   9.831   6.192
 6009SOL    HW217986   0.092   9.981   6.213
 6010SOL     OW17987   0.852   9.331   6.099
 6010SOL    HW117988   0.890   9.415   6.073
 6010SOL    HW217989   0.758   9.346   6.099
 6011SOL     OW17990   0.358   9.553   7.363
 6011SOL    HW117991   0.388   9.643   7.356
 6011SOL    HW217992   0.265   9.560   7.387
 6012SOL     OW17993   1.275   9.683   6.527
 6012SOL    HW117994   1.186   9.647   6.528
 6012SOL    HW217995   1.325   9.625   6.584
 6013SOL     OW17996   0.849   9.833   7.021
 6013SOL    HW117997   0.802   9.845   7.103
 6013SOL    HW217998   0.781   9.824   6.955
 6014SOL     OW17999   1.406   9.785   7.266
 6014SOL    HW118000   1.455   9.830   7.335
 6014SOL    HW218001   1.439   9.695   7.269
 6015SOL     OW18002   1.014   9.754   6.819
 6015SOL    HW118003   0.961   9.778   6.895
 6015SOL    HW218004   0.955   9.701   6.765
 6016SOL     OW18005   1.097   9.987   6.022
 6016SOL    HW118006   1.152   0.031   6.087
 6016SOL    HW218007   1.008   9.996   6.056
 6017SOL     OW18008   0.061   0.058   6.375
 6017SOL    HW118009   0.143   0.070   6.424
 6017SOL    HW218010   0.002   0.124   6.412
 6018SOL     OW18011   0.893   9.652   5.771
 6018SOL    HW118012   0.933   9.720   5.717
 6018SOL    HW218013   0.906   9.571   5.722
 6019SOL     OW18014   1.675   9.899   7.394
 6019SOL    HW118015   1.723   9.969   7.350
 6019SOL    HW218016   1.705   9.819   7.352
 6020SOL     OW18017   0.558   9.481   6.501
 6020SOL    HW118018   0.562   9.507   6.593
 6020SOL    HW218019   0.551   9.564   6.453
 6021SOL     OW18020   1.482   0.023   6.315
 6021SOL    HW118021   1.474   9.974   6.396
 6021SOL    HW218022   1.523   0.106   6.341
 6022SOL     OW18023   0.207   9.588   7.059
 6022SOL    HW118024   0.159   9.670   7.047
 6022SOL    HW218025   0.198   9.568   7.153
 6023SOL     OW18026   1.395   9.411   6.040
 6023SOL    HW118027   1.395   9.387   5.947
 6023SOL    HW218028   1.487   9.411   6.065
 6024SOL     OW18029   1.501   9.523   7.297
 6024SOL    HW118030   1.512   9.539   7.390
 6024SOL    HW218031   1.435   9.454   7.292
 6025SOL     OW18032   0.641   9.427   5.677
 6025SOL    HW118033   0.693   9.356   5.715
 6025SOL    HW218034   0.596   9.386   5.603
 6026SOL     OW18035   0.759   9.580   7.331
 6026SOL    HW118036   0.844   9.535   7.333
 6026SOL    HW218037   0.713   9.548   7.408
 6027SOL     OW18038   1.376   9.900   7.012
 6027SOL    HW118039   1.378   9.867   7.102
 6027SOL    HW218040   1.430   9.979   7.015
 6028SOL     OW18041   0.929   9.804   6.482
 6028SOL    HW118042   0.899   9.783   6.394
 6028SOL    HW218043   0.969   9.723   6.514
 6029SOL     OW18044   0.588   9.381   6.069
 6029SOL    HW118045   0.519   9.388   6.136
 6029SOL    HW218046   0.571   9.454   6.009
 6030SOL     OW18047   0.314   9.339   5.730
 6030SOL    HW118048   0.373   9.410   5.703
 6030SOL    HW218049   0.367   9.286   5.790
 6031SOL     OW18050   0.950   9.581   6.030
 6031SOL    HW118051   0.925   9.608   5.941
 6031SOL    HW218052   1.044   9.595   6.034
 6032SOL     OW18053   1.070   9.949   7.154
 6032SOL    HW118054   1.006   9.908   7.097
 6032SOL    HW218055   1.115   0.013   7.098
 6033SOL     OW18056   1.023   9.832   5.612
 6033SOL    HW118057   1.001   9.921   5.587
 6033SOL    HW218058   1.090   9.842   5.680
 6034SOL     OW18059   0.096   9.834   6.977
 6034SOL    HW118060   0.181   9.872   6.953
 6034SOL    HW218061   0.057   9.897   7.037
 6035SOL     OW18062   0.559   9.543   6.769
 6035SOL    HW118063   0.607   9.494   6.836
 6035SOL    HW218064   0.467   9.525   6.787
 6036SOL     OW18065   0.858   9.759   6.227
 6036SOL    HW118066   0.857   9.842   6.179
 6036SOL    HW218067   0.886   9.694   6.163
 6037SOL     OW18068   1.027   9.358   6.322
 6037SOL    HW118069   0.967   9.353   6.248
 6037SOL    HW218070   1.000   9.286   6.380
 6038SOL     OW18071   1.477   9.873   6.536
 6038SOL    HW118072   1.401   9.817   6.555
 6038SOL    HW218073   1.519   9.885   6.622
 6039SOL     OW18074   0.522   9.572   5.889
 6039SOL    HW118075   0.569   9.546   5.810
 6039SOL    HW218076   0.447   9.623   5.857
 6040SOL     OW18077   0.922   9.393   6.967
 6040SOL    HW118078   0.944   9.373   6.876
 6040SOL    HW218079   1.001   9.433   7.003
 6041SOL     OW18080   1.270   9.686   6.882
 6041SOL    HW118081   1.308   9.763   6.924
 6041SOL    HW218082   1.184   9.713   6.853
 6042SOL     OW18083   0.517   9.818   6.434
 6042SOL    HW118084   0.495   9.876   6.362
 6042SOL    HW218085   0.590   9.862   6.478
 6043SOL     OW18086   1.576   9.879   6.106
 6043SOL    HW118087   1.540   9.940   6.170
 6043SOL    HW218088   1.628   9.934   6.047
 6044SOL     OW18089   0.998   9.449   7.354
 6044SOL    HW118090   1.059   9.521   7.335
 6044SOL    HW218091   1.046   9.370   7.330
 6045SOL     OW18092   0.507   9.333   7.324
 6045SOL    HW118093   0.457   9.281   7.260
 6045SOL    HW218094   0.457   9.414   7.333
 6046SOL     OW18095   1.199   9.838   5.826
 6046SOL    HW118096   1.218   9.756   5.871
 6046SOL    HW218097   1.159   9.894   5.893
 6047SOL     OW18098   0.302   9.479   6.829
 6047SOL    HW118099   0.265   9.510   6.912
 6047SOL    HW218100   0.276   9.387   6.824
 6048SOL     OW18101   0.709   9.947   6.581
 6048SOL    HW118102   0.793   9.921   6.543
 6048SOL    HW218103   0.695   0.037   6.551
 6049SOL     OW18104   0.372   9.418   6.229
 6049SOL    HW118105   0.346   9.496   6.278
 6049SOL    HW218106   0.355   9.345   6.288
 6050SOL     OW18107   1.614   9.668   5.936
 6050SOL    HW118108   1.661   9.602   5.987
 6050SOL    HW218109   1.585   9.732   6.000
 6051SOL     OW18110   1.515   9.569   5.698
 6051SOL    HW118111   1.461   9.496   5.730
 6051SOL    HW218112   1.550   9.609   5.777
 6052SOL     OW18113   0.295   0.083   6.521
 6052SOL    HW118114   0.371   0.097   6.466
 6052SOL    HW218115   0.312   9.999   6.564
 6053SOL     OW18116   0.328   9.819   6.628
 6053SOL    HW118117   0.280   9.737   6.619
 6053SOL    HW218118   0.397   9.814   6.562
 6054SOL     OW18119   1.149   9.669   7.281
 6054SOL    HW118120   1.093   9.728   7.332
 6054SOL    HW218121   1.230   9.719   7.268
 6055SOL     OW18122   1.158   9.503   7.059
 6055SOL    HW118123   1.149   9.560   7.135
 6055SOL    HW218124   1.204   9.555   6.994
 6056SOL     OW18125   0.055   9.862   6.700
 6056SOL    HW118126   0.149   9.865   6.682
 6056SOL    HW218127   0.050   9.842   6.794
 6057SOL     OW18128   0.209   9.819   7.265
 6057SOL    HW118129   0.290   9.836   7.216
 6057SOL    HW218130   0.183   9.906   7.297
 6058SOL     OW18131   0.729   9.897   5.831
 6058SOL    HW118132   0.770   9.810   5.834
 6058SOL    HW218133   0.689   9.907   5.917
 6059SOL     OW18134   1.630   9.904   6.767
 6059SOL    HW118135   1.616   9.847   6.843
 6059SOL    HW218136   1.714   9.875   6.730
 6060SOL     OW18137   0.686   9.789   6.809
 6060SOL    HW118138   0.637   9.711   6.786
 6060SOL    HW218139   0.682   9.844   6.730
 6061SOL     OW18140   1.749   9.477   6.084
 6061SOL    HW118141   1.809   9.457   6.013
 6061SOL    HW218142   1.722   9.392   6.118
 6062SOL     OW18143   1.842   9.467   6.549
 6062SOL    HW118144   1.872   9.378   6.529
 6062SOL    HW218145   1.754   9.472   6.513
 6063SOL     OW18146   0.272   9.637   6.348
 6063SOL    HW118147   0.187   9.659   6.311
 6063SOL    HW218148   0.254   9.617   6.440
 6064SOL     OW18149   1.034   9.546   6.536
 6064SOL    HW118150   1.034   9.497   6.454
 6064SOL    HW218151   1.025   9.480   6.604
 6065SOL     OW18152   1.754   9.686   6.987
 6065SOL    HW118153   1.816   9.758   6.975
 6065SOL    HW218154   1.781   9.620   6.923
 6066SOL     OW18155   0.683   9.506   7.068
 6066SOL    HW118156   0.767   9.477   7.033
 6066SOL    HW218157   0.703   9.534   7.157
 6067SOL     OW18158   0.102   9.623   5.562
 6067SOL    HW118159   0.007   9.615   5.567
 6067SOL    HW218160   0.117   9.701   5.507
 6068SOL     OW18161   0.079   9.428   5.829
 6068SOL    HW118162   0.106   9.473   5.909
 6068SOL    HW218163   0.160   9.394   5.792
 6069SOL     OW18164   0.737   9.854   7.275
 6069SOL    HW118165   0.806   9.897   7.327
 6069SOL    HW218166   0.743   9.762   7.299
 6070SOL     OW18167   1.221   9.633   6.030
 6070SOL    HW118168   1.280   9.558   6.034
 6070SOL    HW218169   1.243   9.685   6.107
 6071SOL     OW18170   1.740   9.668   7.260
 6071SOL    HW118171   1.744   9.678   7.165
 6071SOL    HW218172   1.667   9.608   7.275
 6072SOL     OW18173   1.128   0.215   5.659
 6072SOL    HW118174   1.153   0.301   5.625
 6072SOL    HW218175   1.205   0.184   5.706
 6073SOL     OW18176   1.811   9.481   6.821
 6073SOL    HW118177   1.812   9.386   6.833
 6073SOL    HW218178   1.822   9.493   6.726
 6074SOL     OW18179   0.406   9.738   6.121
 6074SOL    HW118180   0.490   9.695   6.105
 6074SOL    HW218181   0.383   9.712   6.210
 6075SOL     OW18182   0.343   9.912   6.890
 6075SOL    HW118183   0.401   9.858   6.945
 6075SOL    HW218184   0.356   9.879   6.802
 6076SOL     OW18185   1.421   9.539   6.708
 6076SOL    HW118186   1.432   9.453   6.747
 6076SOL    HW218187   1.376   9.590   6.775
 6077SOL     OW18188   1.009   9.322   6.709
 6077SOL    HW118189   0.955   9.258   6.661
 6077SOL    HW218190   1.096   9.283   6.711
 6078SOL     OW18191   1.379   9.343   5.772
 6078SOL    HW118192   1.418   9.268   5.726
 6078SOL    HW218193   1.287   9.317   5.784
 6079SOL     OW18194   1.289   9.772   6.258
 6079SOL    HW118195   1.325   9.860   6.267
 6079SOL    HW218196   1.284   9.739   6.348
 6080SOL     OW18197   1.578   9.488   6.483
 6080SOL    HW118198   1.526   9.522   6.556
 6080SOL    HW218199   1.581   9.561   6.420
 6081SOL     OW18200   0.195   9.583   8.463
 6081SOL    HW118201   0.236   9.539   8.538
 6081SOL    HW218202   0.103   9.559   8.469
 6082SOL     OW18203   0.029   9.669   8.096
 6082SOL    HW118204   9.935   9.685   8.084
 6082SOL    HW218205   0.053   9.612   8.023
 6083SOL     OW18206   1.623   9.914   7.664
 6083SOL    HW118207   1.657   9.912   7.575
 6083SOL    HW218208   1.637   9.825   7.697
 6084SOL     OW18209   0.455   9.720   8.928
 6084SOL    HW118210   0.533   9.666   8.922
 6084SOL    HW218211   0.382   9.658   8.925
 6085SOL     OW18212   1.607   9.725   8.204
 6085SOL    HW118213   1.583   9.766   8.120
 6085SOL    HW218214   1.570   9.783   8.270
 6086SOL     OW18215   1.589   9.442   8.902
 6086SOL    HW118216   1.633   9.518   8.864
 6086SOL    HW218217   1.556   9.473   8.987
 6087SOL     OW18218   0.116   9.912   8.012
 6087SOL    HW118219   0.087   9.831   8.054
 6087SOL    HW218220   0.092   9.981   8.074
 6088SOL     OW18221   0.853   9.331   7.961
 6088SOL    HW118222   0.890   9.415   7.935
 6088SOL    HW218223   0.758   9.346   7.960
 6089SOL     OW18224   0.366   9.553   9.233
 6089SOL    HW118225   0.395   9.642   9.211
 6089SOL    HW218226   0.272   9.560   9.247
 6090SOL     OW18227   1.274   9.683   8.389
 6090SOL    HW118228   1.186   9.647   8.390
 6090SOL    HW218229   1.325   9.625   8.446
 6091SOL     OW18230   0.847   9.833   8.885
 6091SOL    HW118231   0.799   9.846   8.967
 6091SOL    HW218232   0.778   9.825   8.819
 6092SOL     OW18233   1.406   9.782   9.128
 6092SOL    HW118234   1.453   9.826   9.199
 6092SOL    HW218235   1.439   9.692   9.131
 6093SOL     OW18236   1.012   9.756   8.682
 6093SOL    HW118237   0.959   9.779   8.758
 6093SOL    HW218238   0.953   9.701   8.628
 6094SOL     OW18239   1.097   9.986   7.884
 6094SOL    HW118240   1.152   0.030   7.949
 6094SOL    HW218241   1.008   9.996   7.918
 6095SOL     OW18242   0.062   0.059   8.237
 6095SOL    HW118243   0.143   0.072   8.286
 6095SOL    HW218244   0.001   0.125   8.272
 6096SOL     OW18245   0.893   9.652   7.633
 6096SOL    HW118246   0.933   9.720   7.579
 6096SOL    HW218247   0.908   9.571   7.584
 6097SOL     OW18248   1.678   9.901   9.254
 6097SOL    HW118249   1.719   9.971   9.203
 6097SOL    HW218250   1.707   9.820   9.212
 6098SOL     OW18251   0.558   9.482   8.362
 6098SOL    HW118252   0.563   9.508   8.454
 6098SOL    HW218253   0.551   9.565   8.314
 6099SOL     OW18254   1.481   0.023   8.177
 6099SOL    HW118255   1.473   9.974   8.259
 6099SOL    HW218256   1.522   0.105   8.203
 6100SOL     OW18257   0.212   9.585   8.923
 6100SOL    HW118258   0.158   9.662   8.909
 6100SOL    HW218259   0.185   9.551   9.008
 6101SOL     OW18260   1.395   9.411   7.902
 6101SOL    HW118261   1.395   9.387   7.809
 6101SOL    HW218262   1.487   9.411   7.927
 6102SOL     OW18263   1.503   9.521   9.162
 6102SOL    HW118264   1.514   9.541   9.255
 6102SOL    HW218265   1.442   9.448   9.160
 6103SOL     OW18266   0.640   9.428   7.541
 6103SOL    HW118267   0.694   9.357   7.578
 6103SOL    HW218268   0.596   9.387   7.466
 6104SOL     OW18269   0.757   9.580   9.197
 6104SOL    HW118270   0.841   9.535   9.198
 6104SOL    HW218271   0.712   9.550   9.276
 6105SOL     OW18272   1.375   9.899   8.875
 6105SOL    HW118273   1.378   9.866   8.965
 6105SOL    HW218274   1.430   9.978   8.877
 6106SOL     OW18275   0.929   9.804   8.345
 6106SOL    HW118276   0.899   9.783   8.256
 6106SOL    HW218277   0.968   9.722   8.376
 6107SOL     OW18278   0.588   9.381   7.931
 6107SOL    HW118279   0.520   9.388   7.998
 6107SOL    HW218280   0.572   9.454   7.871
 6108SOL     OW18281   0.314   9.340   7.592
 6108SOL    HW118282   0.374   9.408   7.561
 6108SOL    HW218283   0.367   9.287   7.651
 6109SOL     OW18284   0.950   9.581   7.892
 6109SOL    HW118285   0.925   9.608   7.803
 6109SOL    HW218286   1.044   9.595   7.896
 6110SOL     OW18287   1.068   9.950   9.017
 6110SOL    HW118288   1.004   9.908   8.960
 6110SOL    HW218289   1.114   0.013   8.960
 6111SOL     OW18290   1.023   9.832   7.474
 6111SOL    HW118291   1.001   9.921   7.449
 6111SOL    HW218292   1.090   9.842   7.542
 6112SOL     OW18293   0.095   9.828   8.839
 6112SOL    HW118294   0.181   9.866   8.816
 6112SOL    HW218295   0.061   9.886   8.906
 6113SOL     OW18296   0.561   9.543   8.630
 6113SOL    HW118297   0.609   9.492   8.696
 6113SOL    HW218298   0.469   9.525   8.648
 6114SOL     OW18299   0.858   9.759   8.089
 6114SOL    HW118300   0.857   9.842   8.041
 6114SOL    HW218301   0.886   9.694   8.025
 6115SOL     OW18302   1.027   9.358   8.185
 6115SOL    HW118303   0.967   9.353   8.110
 6115SOL    HW218304   1.000   9.286   8.242
 6116SOL     OW18305   1.477   9.872   8.399
 6116SOL    HW118306   1.401   9.817   8.417
 6116SOL    HW218307   1.519   9.885   8.484
 6117SOL     OW18308   0.520   9.573   7.753
 6117SOL    HW118309   0.568   9.546   7.675
 6117SOL    HW218310   0.446   9.624   7.720
 6118SOL     OW18311   0.920   9.394   8.829
 6118SOL    HW118312   0.942   9.373   8.738
 6118SOL    HW218313   1.000   9.433   8.864
 6119SOL     OW18314   1.269   9.686   8.743
 6119SOL    HW118315   1.307   9.763   8.786
 6119SOL    HW218316   1.182   9.714   8.715
 6120SOL     OW18317   0.519   9.815   8.299
 6120SOL    HW118318   0.498   9.871   8.224
 6120SOL    HW218319   0.591   9.860   8.343
 6121SOL     OW18320   1.576   9.879   7.968
 6121SOL    HW118321   1.539   9.940   8.032
 6121SOL    HW218322   1.627   9.934   7.909
 6122SOL     OW18323   0.997   9.452   9.219
 6122SOL    HW118324   1.058   9.522   9.197
 6122SOL    HW218325   1.043   9.372   9.194
 6123SOL     OW18326   0.513   9.332   9.192
 6123SOL    HW118327   0.462   9.281   9.129
 6123SOL    HW218328   0.465   9.415   9.199
 6124SOL     OW18329   1.199   9.838   7.688
 6124SOL    HW118330   1.218   9.756   7.733
 6124SOL    HW218331   1.158   9.893   7.754
 6125SOL     OW18332   0.304   9.479   8.689
 6125SOL    HW118333   0.269   9.510   8.773
 6125SOL    HW218334   0.277   9.387   8.685
 6126SOL     OW18335   0.709   9.947   8.444
 6126SOL    HW118336   0.793   9.921   8.407
 6126SOL    HW218337   0.696   0.037   8.413
 6127SOL     OW18338   0.372   9.418   8.090
 6127SOL    HW118339   0.346   9.496   8.140
 6127SOL    HW218340   0.355   9.345   8.149
 6128SOL     OW18341   1.614   9.667   7.798
 6128SOL    HW118342   1.661   9.602   7.849
 6128SOL    HW218343   1.585   9.732   7.862
 6129SOL     OW18344   1.515   9.569   7.560
 6129SOL    HW118345   1.461   9.496   7.592
 6129SOL    HW218346   1.550   9.609   7.639
 6130SOL     OW18347   0.296   0.087   8.387
 6130SOL    HW118348   0.367   0.096   8.323
 6130SOL    HW218349   0.311   0.002   8.428
 6131SOL     OW18350   0.327   9.820   8.490
 6131SOL    HW118351   0.279   9.738   8.480
 6131SOL    HW218352   0.397   9.815   8.424
 6132SOL     OW18353   1.148   9.669   9.142
 6132SOL    HW118354   1.093   9.730   9.191
 6132SOL    HW218355   1.231   9.717   9.129
 6133SOL     OW18356   1.157   9.502   8.920
 6133SOL    HW118357   1.148   9.560   8.996
 6133SOL    HW218358   1.203   9.555   8.855
 6134SOL     OW18359   0.056   9.866   8.563
 6134SOL    HW118360   0.149   9.866   8.544
 6134SOL    HW218361   0.050   9.844   8.656
 6135SOL     OW18362   0.205   9.831   9.130
 6135SOL    HW118363   0.289   9.843   9.084
 6135SOL    HW218364   0.184   9.919   9.163
 6136SOL     OW18365   0.729   9.897   7.693
 6136SOL    HW118366   0.770   9.810   7.696
 6136SOL    HW218367   0.689   9.907   7.780
 6137SOL     OW18368   1.630   9.903   8.629
 6137SOL    HW118369   1.616   9.846   8.705
 6137SOL    HW218370   1.714   9.874   8.592
 6138SOL     OW18371   0.682   9.791   8.673
 6138SOL    HW118372   0.635   9.712   8.648
 6138SOL    HW218373   0.681   9.845   8.593
 6139SOL     OW18374   1.749   9.477   7.946
 6139SOL    HW118375   1.809   9.457   7.875
 6139SOL    HW218376   1.723   9.392   7.981
 6140SOL     OW18377   1.842   9.468   8.411
 6140SOL    HW118378   1.872   9.379   8.390
 6140SOL    HW218379   1.754   9.473   8.375
 6141SOL     OW18380   0.273   9.637   8.208
 6141SOL    HW118381   0.187   9.659   8.172
 6141SOL    HW218382   0.255   9.617   8.300
 6142SOL     OW18383   1.034   9.546   8.399
 6142SOL    HW118384   1.034   9.497   8.317
 6142SOL    HW218385   1.025   9.479   8.467
 6143SOL     OW18386   1.754   9.686   8.850
 6143SOL    HW118387   1.816   9.758   8.838
 6143SOL    HW218388   1.781   9.620   8.785
 6144SOL     OW18389   0.682   9.505   8.933
 6144SOL    HW118390   0.766   9.477   8.898
 6144SOL    HW218391   0.702   9.534   9.022
 6145SOL     OW18392   0.103   9.624   7.425
 6145SOL    HW118393   0.008   9.615   7.429
 6145SOL    HW218394   0.118   9.701   7.371
 6146SOL     OW18395   0.078   9.426   7.691
 6146SOL    HW118396   0.104   9.470   7.771
 6146SOL    HW218397   0.160   9.393   7.654
 6147SOL     OW18398   0.735   9.856   9.139
 6147SOL    HW118399   0.803   9.899   9.192
 6147SOL    HW218400   0.741   9.764   9.163
 6148SOL     OW18401   1.221   9.633   7.892
 6148SOL    HW118402   1.280   9.558   7.897
 6148SOL    HW218403   1.243   9.685   7.970
 6149SOL     OW18404   1.740   9.668   9.123
 6149SOL    HW118405   1.744   9.678   9.028
 6149SOL    HW218406   1.667   9.607   9.137
 6150SOL     OW18407   1.127   0.215   7.520
 6150SOL    HW118408   1.152   0.300   7.484
 6150SOL    HW218409   1.205   0.185   7.568
 6151SOL     OW18410   1.812   9.482   8.683
 6151SOL    HW118411   1.814   9.387   8.695
 6151SOL    HW218412   1.822   9.494   8.588
 6152SOL     OW18413   0.412   9.744   7.988
 6152SOL    HW118414   0.489   9.692   7.966
 6152SOL    HW218415   0.384   9.711   8.073
 6153SOL     OW18416   0.342   9.909   8.754
 6153SOL    HW118417   0.401   9.856   8.808
 6153SOL    HW218418   0.356   9.877   8.665
 6154SOL     OW18419   1.421   9.540   8.570
 6154SOL    HW118420   1.433   9.454   8.610
 6154SOL    HW218421   1.375   9.591   8.637
 6155SOL     OW18422   1.008   9.321   8.571
 6155SOL    HW118423   0.956   9.258   8.522
 6155SOL    HW218424   1.096   9.283   8.573
 6156SOL     OW18425   1.379   9.342   7.634
 6156SOL    HW118426   1.418   9.268   7.589
 6156SOL    HW218427   1.287   9.317   7.646
 6157SOL     OW18428   1.289   9.772   8.120
 6157SOL    HW118429   1.326   9.860   8.129
 6157SOL    HW218430   1.284   9.740   8.210
 6158SOL     OW18431   1.578   9.489   8.345
 6158SOL    HW118432   1.526   9.523   8.418
 6158SOL    HW218433   1.581   9.561   8.282
 6159SOL     OW18434   1.631   9.917   9.523
 6159SOL    HW118435   1.661   9.915   9.432
 6159SOL    HW218436   1.641   9.827   9.554
 6160SOL     OW18437   0.015   9.888   9.868
 6160SOL    HW118438   9.933   9.920   9.830
 6160SOL    HW218439   0.036   9.951   9.936
 6161SOL     OW18440   0.847   9.341   9.820
 6161SOL    HW118441   0.886   9.423   9.793
 6161SOL    HW218442   0.753   9.359   9.822
 6162SOL     OW18443   1.092   9.967   9.765
 6162SOL    HW118444   1.121   9.954   9.855
 6162SOL    HW218445   0.998   9.982   9.772
 6163SOL     OW18446   0.049   0.100   0.028
 6163SOL    HW118447   0.050   0.105   0.123
 6163SOL    HW218448   0.023   0.187   9.999
 6164SOL     OW18449   0.902   9.648   9.486
 6164SOL    HW118450   0.944   9.715   9.432
 6164SOL    HW218451   0.918   9.566   9.440
 6165SOL     OW18452   1.429   9.433   9.725
 6165SOL    HW118453   1.424   9.391   9.639
 6165SOL    HW218454   1.523   9.440   9.743
 6166SOL     OW18455   0.641   9.426   9.415
 6166SOL    HW118456   0.695   9.356   9.452
 6166SOL    HW218457   0.599   9.387   9.339
 6167SOL     OW18458   0.579   9.403   9.820
 6167SOL    HW118459   0.497   9.392   9.868
 6167SOL    HW218460   0.565   9.479   9.764
 6168SOL     OW18461   0.314   9.347   9.456
 6168SOL    HW118462   0.373   9.405   9.409
 6168SOL    HW218463   0.370   9.299   9.517
 6169SOL     OW18464   0.954   9.587   9.749
 6169SOL    HW118465   0.928   9.610   9.659
 6169SOL    HW218466   1.049   9.597   9.749
 6170SOL     OW18467   1.029   9.835   9.336
 6170SOL    HW118468   1.004   9.924   9.309
 6170SOL    HW218469   1.095   9.849   9.404
 6171SOL     OW18470   0.872   9.766   9.950
 6171SOL    HW118471   0.837   9.841   9.903
 6171SOL    HW218472   0.892   9.701   9.882
 6172SOL     OW18473   0.520   9.595   9.617
 6172SOL    HW118474   0.573   9.549   9.552
 6172SOL    HW218475   0.456   9.644   9.564
 6173SOL     OW18476   1.611   9.953   9.798
 6173SOL    HW118477   1.533   0.006   9.814
 6173SOL    HW218478   1.624   9.956   9.703
 6174SOL     OW18479   1.202   9.849   9.552
 6174SOL    HW118480   1.220   9.762   9.589
 6174SOL    HW218481   1.163   9.898   9.624
 6175SOL     OW18482   0.346   9.377   9.950
 6175SOL    HW118483   0.253   9.367   9.927
 6175SOL    HW218484   0.356   9.323   0.029
 6176SOL     OW18485   1.612   9.686   9.669
 6176SOL    HW118486   1.646   9.609   9.714
 6176SOL    HW218487   1.588   9.746   9.739
 6177SOL     OW18488   1.514   9.579   9.424
 6177SOL    HW118489   1.462   9.504   9.450
 6177SOL    HW218490   1.543   9.618   9.506
 6178SOL     OW18491   0.459   9.783   0.247
 6178SOL    HW118492   0.373   9.753   0.216
 6178SOL    HW218493   0.505   9.808   0.167
 6179SOL     OW18494   0.754   9.894   9.547
 6179SOL    HW118495   0.791   9.806   9.537
 6179SOL    HW218496   0.783   9.922   9.633
 6180SOL     OW18497   1.708   9.453   9.777
 6180SOL    HW118498   1.781   9.456   9.715
 6180SOL    HW218499   1.725   9.374   9.830
 6181SOL     OW18500   0.109   9.621   9.276
 6181SOL    HW118501   0.015   9.615   9.294
 6181SOL    HW218502   0.118   9.702   9.225
 6182SOL     OW18503   0.082   9.445   9.558
 6182SOL    HW118504   0.111   9.492   9.636
 6182SOL    HW218505   0.162   9.405   9.523
 6183SOL     OW18506   1.229   9.626   9.728
 6183SOL    HW118507   1.294   9.557   9.718
 6183SOL    HW218508   1.261   9.678   9.802
 6184SOL     OW18509   1.124   0.232   9.381
 6184SOL    HW118510   1.133   0.324   9.356
 6184SOL    HW218511   1.198   0.216   9.439
 6185SOL     OW18512   0.483   9.716   9.880
 6185SOL    HW118513   0.511   9.699   9.790
 6185SOL    HW218514   0.403   9.768   9.871
 6186SOL     OW18515   1.380   9.342   9.472
 6186SOL    HW118516   1.419   9.264   9.434
 6186SOL    HW218517   1.290   9.317   9.493
 6187SOL     OW18518   1.332   9.749   9.944
 6187SOL    HW118519   1.264   9.794   9.993
 6187SOL    HW218520   1.385   9.705   0.010
 6188SOL     OW18521   2.048   0.607   0.149
 6188SOL    HW118522   1.970   0.594   0.203
 6188SOL    HW218523   2.033   0.552   0.072
 6189SOL     OW18524   2.054   0.322   1.036
 6189SOL    HW118525   2.098   0.270   1.103
 6189SOL    HW218526   1.986   0.263   1.002
 6190SOL     OW18527   1.850   0.421   0.654
 6190SOL    HW118528   1.767   0.446   0.694
 6190SOL    HW218529   1.830   0.343   0.603
 6191SOL     OW18530   2.437   1.308   1.210
 6191SOL    HW118531   2.355   1.311   1.161
 6191SOL    HW218532   2.454   1.400   1.233
 6192SOL     OW18533   3.452   1.524   0.706
 6192SOL    HW118534   3.405   1.491   0.783
 6192SOL    HW218535   3.386   1.527   0.637
 6193SOL     OW18536   3.001   0.705   0.688
 6193SOL    HW118537   3.045   0.790   0.679
 6193SOL    HW218538   2.949   0.714   0.768
 6194SOL     OW18539   3.639   0.583   0.222
 6194SOL    HW118540   3.578   0.601   0.151
 6194SOL    HW218541   3.598   0.512   0.272
 6195SOL     OW18542   2.590   1.131   1.059
 6195SOL    HW118543   2.531   1.171   1.123
 6195SOL    HW218544   2.632   1.205   1.016
 6196SOL     OW18545   2.747   0.738   1.826
 6196SOL    HW118546   2.732   0.805   1.893
 6196SOL    HW218547   2.765   0.788   1.746
 6197SOL     OW18548   2.547   0.974   0.646
 6197SOL    HW118549   2.614   0.977   0.714
 6197SOL    HW218550   2.480   1.036   0.676
 6198SOL     OW18551   2.573   1.150   1.834
 6198SOL    HW118552   2.625   1.222   1.868
 6198SOL    HW218553   2.498   1.191   1.793
 6199SOL     OW18554   2.204   1.397   1.071
 6199SOL    HW118555   2.128   1.354   1.031
 6199SOL    HW218556   2.239   1.452   1.001
 6200SOL     OW18557   3.315   1.506   1.372
 6200SOL    HW118558   3.370   1.584   1.385
 6200SOL    HW218559   3.243   1.517   1.434
 6201SOL     OW18560   2.319   0.402   1.457
 6201SOL    HW118561   2.396   0.349   1.475
 6201SOL    HW218562   2.245   0.346   1.479
 6202SOL     OW18563   3.447   0.463   0.749
 6202SOL    HW118564   3.375   0.463   0.685
 6202SOL    HW218565   3.424   0.532   0.811
 6203SOL     OW18566   2.089   1.722   0.469
 6203SOL    HW118567   2.106   1.796   0.527
 6203SOL    HW218568   2.174   1.701   0.431
 6204SOL     OW18569   2.997   1.341   1.697
 6204SOL    HW118570   3.042   1.331   1.781
 6204SOL    HW218571   2.944   1.262   1.688
 6205SOL     OW18572   2.072   1.445   0.509
 6205SOL    HW118573   2.063   1.540   0.519
 6205SOL    HW218574   2.032   1.409   0.588
 6206SOL     OW18575   2.143   1.087   0.882
 6206SOL    HW118576   2.145   0.998   0.917
 6206SOL    HW218577   2.088   1.136   0.943
 6207SOL     OW18578   2.436   1.804   1.421
 6207SOL    HW118579   2.359   1.784   1.475
 6207SOL    HW218580   2.468   1.887   1.455
 6208SOL     OW18581   2.429   0.951   0.174
 6208SOL    HW118582   2.403   1.021   0.114
 6208SOL    HW218583   2.487   0.993   0.237
 6209SOL     OW18584   3.404   0.124   1.454
 6209SOL    HW118585   3.468   0.177   1.405
 6209SOL    HW218586   3.394   0.170   1.538
 6210SOL     OW18587   1.984   0.658   0.576
 6210SOL    HW118588   1.944   0.574   0.599
 6210SOL    HW218589   1.976   0.711   0.655
 6211SOL     OW18590   3.723   1.737   0.306
 6211SOL    HW118591   3.793   1.716   0.368
 6211SOL    HW218592   3.738   1.829   0.285
 6212SOL     OW18593   1.927   1.575   0.084
 6212SOL    HW118594   1.902   1.487   0.114
 6212SOL    HW218595   1.902   1.633   0.156
 6213SOL     OW18596   3.562   0.923   0.664
 6213SOL    HW118597   3.643   0.876   0.645
 6213SOL    HW218598   3.543   0.970   0.584
 6214SOL     OW18599   3.525   1.091   0.441
 6214SOL    HW118600   3.606   1.087   0.390
 6214SOL    HW218601   3.540   1.161   0.505
 6215SOL     OW18602   1.969   0.751   1.570
 6215SOL    HW118603   2.050   0.801   1.569
 6215SOL    HW218604   1.901   0.817   1.553
 6216SOL     OW18605   2.478   1.381   0.757
 6216SOL    HW118606   2.436   1.295   0.752
 6216SOL    HW218607   2.474   1.415   0.667
 6217SOL     OW18608   3.132   1.226   1.418
 6217SOL    HW118609   3.159   1.158   1.357
 6217SOL    HW218610   3.194   1.220   1.491
 6218SOL     OW18611   2.673   0.054   0.582
 6218SOL    HW118612   2.705   0.133   0.540
 6218SOL    HW218613   2.579   0.052   0.561
 6219SOL     OW18614   2.048   0.957   1.303
 6219SOL    HW118615   2.137   0.926   1.285
 6219SOL    HW218616   1.996   0.920   1.232
 6220SOL     OW18617   3.347   1.033   0.236
 6220SOL    HW118618   3.294   0.960   0.268
 6220SOL    HW218619   3.413   1.047   0.305
 6221SOL     OW18620   3.042   1.822   1.636
 6221SOL    HW118621   3.043   1.884   1.562
 6221SOL    HW218622   3.058   1.737   1.595
 6222SOL     OW18623   2.180   0.258   1.772
 6222SOL    HW118624   2.238   0.317   1.821
 6222SOL    HW218625   2.098   0.260   1.821
 6223SOL     OW18626   3.334   1.417   0.930
 6223SOL    HW118627   3.271   1.436   0.999
 6223SOL    HW218628   3.316   1.326   0.905
 6224SOL     OW18629   3.505   1.797   0.564
 6224SOL    HW118630   3.489   1.751   0.482
 6224SOL    HW218631   3.504   1.728   0.631
 6225SOL     OW18632   2.449   0.696   0.285
 6225SOL    HW118633   2.452   0.783   0.244
 6225SOL    HW218634   2.383   0.704   0.354
 6226SOL     OW18635   3.144   0.392   0.941
 6226SOL    HW118636   3.055   0.359   0.950
 6226SOL    HW218637   3.198   0.332   0.993
 6227SOL     OW18638   3.452   1.677   0.324
 6227SOL    HW118639   3.546   1.687   0.309
 6227SOL    HW218640   3.416   1.659   0.237
 6228SOL     OW18641   2.656   0.614   1.444
 6228SOL    HW118642   2.629   0.580   1.529
 6228SOL    HW218643   2.632   0.546   1.381
 6229SOL     OW18644   3.260   0.492   1.678
 6229SOL    HW118645   3.265   0.531   1.765
 6229SOL    HW218646   3.306   0.409   1.686
 6230SOL     OW18647   2.807   0.880   1.594
 6230SOL    HW118648   2.864   0.816   1.549
 6230SOL    HW218649   2.759   0.922   1.523
 6231SOL     OW18650   2.876   0.421   1.214
 6231SOL    HW118651   2.784   0.429   1.240
 6231SOL    HW218652   2.873   0.379   1.128
 6232SOL     OW18653   2.928   0.707   0.419
 6232SOL    HW118654   2.950   0.701   0.512
 6232SOL    HW218655   2.841   0.667   0.412
 6233SOL     OW18656   1.957   0.828   0.786
 6233SOL    HW118657   2.038   0.819   0.836
 6233SOL    HW218658   1.910   0.900   0.830
 6234SOL     OW18659   1.972   1.879   1.587
 6234SOL    HW118660   1.978   1.859   1.680
 6234SOL    HW218661   1.886   1.844   1.561
 6235SOL     OW18662   2.702   0.371   0.213
 6235SOL    HW118663   2.685   0.417   0.131
 6235SOL    HW218664   2.713   0.280   0.188
 6236SOL     OW18665   3.553   0.565   1.836
 6236SOL    HW118666   3.528   0.643   1.787
 6236SOL    HW218667   3.575   0.501   1.769
 6237SOL     OW18668   3.258   1.151   0.554
 6237SOL    HW118669   3.336   1.139   0.500
 6237SOL    HW218670   3.203   1.211   0.504
 6238SOL     OW18671   2.401   0.221   0.927
 6238SOL    HW118672   2.422   0.236   1.020
 6238SOL    HW218673   2.413   0.307   0.886
 6239SOL     OW18674   2.862   1.454   0.472
 6239SOL    HW118675   2.837   1.530   0.419
 6239SOL    HW218676   2.829   1.474   0.559
 6240SOL     OW18677   2.215   1.817   0.879
 6240SOL    HW118678   2.260   1.732   0.884
 6240SOL    HW218679   2.283   1.881   0.901
 6241SOL     OW18680   3.667   1.046   0.895
 6241SOL    HW118681   3.620   1.027   0.814
 6241SOL    HW218682   3.597   1.055   0.961
 6242SOL     OW18683   3.079   1.543   1.517
 6242SOL    HW118684   3.068   1.472   1.580
 6242SOL    HW218685   3.012   1.526   1.450
 6243SOL     OW18686   2.171   0.935   0.286
 6243SOL    HW118687   2.255   0.941   0.239
 6243SOL    HW218688   2.162   0.842   0.307
 6244SOL     OW18689   3.344   0.768   0.717
 6244SOL    HW118690   3.343   0.729   0.804
 6244SOL    HW218691   3.425   0.820   0.715
 6245SOL     OW18692   2.335   1.284   1.748
 6245SOL    HW118693   2.311   1.289   1.655
 6245SOL    HW218694   2.252   1.272   1.794
 6246SOL     OW18695   2.966   1.784   0.181
 6246SOL    HW118696   2.910   1.744   0.247
 6246SOL    HW218697   3.005   1.710   0.134
 6247SOL     OW18698   2.081   0.266   1.509
 6247SOL    HW118699   2.011   0.332   1.510
 6247SOL    HW218700   2.104   0.253   1.601
 6248SOL     OW18701   3.491   1.370   0.111
 6248SOL    HW118702   3.450   1.456   0.105
 6248SOL    HW218703   3.425   1.310   0.077
 6249SOL     OW18704   2.349   1.708   0.375
 6249SOL    HW118705   2.385   1.784   0.421
 6249SOL    HW218706   2.415   1.686   0.310
 6250SOL     OW18707   3.259   0.148   0.409
 6250SOL    HW118708   3.253   0.110   0.321
 6250SOL    HW218709   3.312   0.085   0.459
 6251SOL     OW18710   2.114   1.789   1.214
 6251SOL    HW118711   2.163   1.714   1.249
 6251SOL    HW218712   2.099   1.767   1.122
 6252SOL     OW18713   2.808   1.702   0.891
 6252SOL    HW118714   2.892   1.658   0.905
 6252SOL    HW218715   2.766   1.651   0.821
 6253SOL     OW18716   2.242   0.686   0.469
 6253SOL    HW118717   2.264   0.594   0.479
 6253SOL    HW218718   2.153   0.693   0.503
 6254SOL     OW18719   3.364   0.230   1.718
 6254SOL    HW118720   3.378   0.249   1.811
 6254SOL    HW218721   3.291   0.168   1.717
 6255SOL     OW18722   2.488   0.107   0.112
 6255SOL    HW118723   2.583   0.108   0.108
 6255SOL    HW218724   2.460   0.095   0.021
 6256SOL     OW18725   2.621   0.266   1.771
 6256SOL    HW118726   2.696   0.208   1.760
 6256SOL    HW218727   2.573   0.230   1.846
 6257SOL     OW18728   2.732   1.529   1.201
 6257SOL    HW118729   2.713   1.487   1.117
 6257SOL    HW218730   2.799   1.473   1.241
 6258SOL     OW18731   3.200   0.594   1.431
 6258SOL    HW118732   3.232   0.568   1.517
 6258SOL    HW218733   3.232   0.683   1.419
 6259SOL     OW18734   2.679   1.379   0.962
 6259SOL    HW118735   2.765   1.374   0.919
 6259SOL    HW218736   2.617   1.390   0.890
 6260SOL     OW18737   2.797   0.522   0.896
 6260SOL    HW118738   2.770   0.510   0.805
 6260SOL    HW218739   2.820   0.434   0.925
 6261SOL     OW18740   2.414   0.055   0.495
 6261SOL    HW118741   2.332   0.040   0.542
 6261SOL    HW218742   2.392   0.121   0.429
 6262SOL     OW18743   3.284   1.199   0.031
 6262SOL    HW118744   3.310   1.134   0.097
 6262SOL    HW218745   3.204   1.237   0.065
 6263SOL     OW18746   2.169   0.057   0.177
 6263SOL    HW118747   2.211   0.118   0.239
 6263SOL    HW218748   2.184   9.971   0.214
 6264SOL     OW18749   2.804   0.268   0.459
 6264SOL    HW118750   2.767   0.305   0.379
 6264SOL    HW218751   2.897   0.292   0.456
 6265SOL     OW18752   2.941   0.692   1.446
 6265SOL    HW118753   2.876   0.622   1.453
 6265SOL    HW218754   3.025   0.647   1.441
 6266SOL     OW18755   3.067   1.589   0.801
 6266SOL    HW118756   3.083   1.648   0.727
 6266SOL    HW218757   3.140   1.604   0.861
 6267SOL     OW18758   2.342   1.148   0.711
 6267SOL    HW118759   2.278   1.127   0.779
 6267SOL    HW218760   2.292   1.145   0.629
 6268SOL     OW18761   3.115   1.793   0.613
 6268SOL    HW118762   3.163   1.857   0.560
 6268SOL    HW218763   3.045   1.844   0.655
 6269SOL     OW18764   2.964   0.510   9.981
 6269SOL    HW118765   2.868   0.506   9.986
 6269SOL    HW218766   2.991   0.538   0.068
 6270SOL     OW18767   1.964   0.537   1.397
 6270SOL    HW118768   2.053   0.550   1.364
 6270SOL    HW218769   1.950   0.608   1.460
 6271SOL     OW18770   2.429   0.237   1.203
 6271SOL    HW118771   2.471   0.190   1.274
 6271SOL    HW218772   2.335   0.226   1.218
 6272SOL     OW18773   2.730   0.471   0.640
 6272SOL    HW118774   2.695   0.528   0.572
 6272SOL    HW218775   2.751   0.390   0.595
 6273SOL     OW18776   2.834   0.064   0.804
 6273SOL    HW118777   2.777   0.059   0.727
 6273SOL    HW218778   2.844   9.973   0.833
 6274SOL     OW18779   3.293   1.153   0.854
 6274SOL    HW118780   3.225   1.087   0.866
 6274SOL    HW218781   3.304   1.160   0.759
 6275SOL     OW18782   3.318   0.622   0.954
 6275SOL    HW118783   3.257   0.549   0.961
 6275SOL    HW218784   3.373   0.615   1.032
 6276SOL     OW18785   3.722   0.794   0.377
 6276SOL    HW118786   3.768   0.746   0.446
 6276SOL    HW218787   3.679   0.725   0.326
 6277SOL     OW18788   2.366   1.442   0.213
 6277SOL    HW118789   2.284   1.398   0.234
 6277SOL    HW218790   2.408   1.386   0.148
 6278SOL     OW18791   3.573   1.272   0.629
 6278SOL    HW118792   3.665   1.264   0.654
 6278SOL    HW218793   3.548   1.360   0.657
 6279SOL     OW18794   3.273   0.563   0.096
 6279SOL    HW118795   3.200   0.552   0.156
 6279SOL    HW218796   3.314   0.476   0.092
 6280SOL     OW18797   2.350   0.244   0.299
 6280SOL    HW118798   2.403   0.195   0.237
 6280SOL    HW218799   2.334   0.328   0.256
 6281SOL     OW18800   3.597   1.244   1.533
 6281SOL    HW118801   3.685   1.210   1.519
 6281SOL    HW218802   3.610   1.331   1.570
 6282SOL     OW18803   2.904   1.357   1.337
 6282SOL    HW118804   2.826   1.322   1.381
 6282SOL    HW218805   2.977   1.311   1.377
 6283SOL     OW18806   3.470   1.634   1.672
 6283SOL    HW118807   3.458   1.671   1.584
 6283SOL    HW218808   3.548   1.579   1.665
 6284SOL     OW18809   3.012   1.241   1.106
 6284SOL    HW118810   2.950   1.274   1.170
 6284SOL    HW218811   2.979   1.271   1.021
 6285SOL     OW18812   3.468   1.092   1.078
 6285SOL    HW118813   3.460   1.158   1.146
 6285SOL    HW218814   3.399   1.113   1.015
 6286SOL     OW18815   2.748   0.164   1.373
 6286SOL    HW118816   2.774   0.119   1.292
 6286SOL    HW218817   2.831   0.188   1.414
 6287SOL     OW18818   2.841   1.115   1.724
 6287SOL    HW118819   2.751   1.131   1.751
 6287SOL    HW218820   2.837   1.034   1.673
 6288SOL     OW18821   2.585   1.055   0.379
 6288SOL    HW118822   2.570   1.025   0.468
 6288SOL    HW218823   2.665   1.010   0.351
 6289SOL     OW18824   2.292   0.839   1.259
 6289SOL    HW118825   2.360   0.844   1.327
 6289SOL    HW218826   2.258   0.750   1.266
 6290SOL     OW18827   3.133   0.374   1.284
 6290SOL    HW118828   3.164   0.451   1.332
 6290SOL    HW218829   3.044   0.397   1.257
 6291SOL     OW18830   1.940   1.570   1.363
 6291SOL    HW118831   1.909   1.641   1.307
 6291SOL    HW218832   2.035   1.571   1.353
 6292SOL     OW18833   2.177   1.127   0.489
 6292SOL    HW118834   2.176   1.197   0.424
 6292SOL    HW218835   2.183   1.046   0.438
 6293SOL     OW18836   2.421   0.492   0.851
 6293SOL    HW118837   2.424   0.548   0.773
 6293SOL    HW218838   2.480   0.533   0.913
 6294SOL     OW18839   3.111   1.349   0.418
 6294SOL    HW118840   3.166   1.422   0.445
 6294SOL    HW218841   3.022   1.375   0.443
 6295SOL     OW18842   3.172   1.469   1.142
 6295SOL    HW118843   3.218   1.475   1.225
 6295SOL    HW218844   3.120   1.389   1.149
 6296SOL     OW18845   3.396   0.633   0.476
 6296SOL    HW118846   3.374   0.673   0.560
 6296SOL    HW218847   3.354   0.690   0.410
 6297SOL     OW18848   2.206   1.534   1.302
 6297SOL    HW118849   2.199   1.481   1.223
 6297SOL    HW218850   2.300   1.550   1.311
 6298SOL     OW18851   2.306   0.728   1.625
 6298SOL    HW118852   2.356   0.778   1.561
 6298SOL    HW218853   2.358   0.649   1.640
 6299SOL     OW18854   3.488   0.788   1.698
 6299SOL    HW118855   3.400   0.826   1.690
 6299SOL    HW218856   3.537   0.826   1.626
 6300SOL     OW18857   2.823   0.077   1.774
 6300SOL    HW118858   2.891   0.131   1.816
 6300SOL    HW218859   2.866   0.041   1.696
 6301SOL     OW18860   2.332   0.022   1.766
 6301SOL    HW118861   2.389   0.013   1.690
 6301SOL    HW218862   2.284   0.103   1.751
 6302SOL     OW18863   2.453   0.881   1.036
 6302SOL    HW118864   2.493   0.968   1.041
 6302SOL    HW218865   2.396   0.876   1.113
 6303SOL     OW18866   3.168   0.858   1.003
 6303SOL    HW118867   3.079   0.832   0.979
 6303SOL    HW218868   3.221   0.780   0.987
 6304SOL     OW18869   3.046   0.526   0.248
 6304SOL    HW118870   3.058   0.453   0.309
 6304SOL    HW218871   3.007   0.595   0.302
 6305SOL     OW18872   2.162   0.180   1.256
 6305SOL    HW118873   2.127   0.211   1.340
 6305SOL    HW218874   2.173   0.086   1.269
 6306SOL     OW18875   1.911   1.313   1.268
 6306SOL    HW118876   1.941   1.257   1.339
 6306SOL    HW218877   1.914   1.401   1.303
 6307SOL     OW18878   2.571   0.629   1.034
 6307SOL    HW118879   2.652   0.625   0.982
 6307SOL    HW218880   2.541   0.719   1.024
 6308SOL     OW18881   3.614   0.968   1.870
 6308SOL    HW118882   3.573   0.896   1.821
 6308SOL    HW218883   3.550   0.989   1.938
 6309SOL     OW18884   2.163   0.058   0.630
 6309SOL    HW118885   2.142   0.151   0.627
 6309SOL    HW218886   2.175   0.039   0.723
 6310SOL     OW18887   3.491   0.400   0.365
 6310SOL    HW118888   3.515   0.335   0.431
 6310SOL    HW218889   3.454   0.473   0.415
 6311SOL     OW18890   2.898   0.764   0.961
 6311SOL    HW118891   2.876   0.779   1.053
 6311SOL    HW218892   2.870   0.675   0.943
 6312SOL     OW18893   2.842   1.566   1.735
 6312SOL    HW118894   2.821   1.609   1.652
 6312SOL    HW218895   2.881   1.482   1.709
 6313SOL     OW18896   3.700   1.495   1.602
 6313SOL    HW118897   3.727   1.524   1.515
 6313SOL    HW218898   3.779   1.505   1.656
 6314SOL     OW18899   2.212   0.913   1.809
 6314SOL    HW118900   2.286   0.932   1.865
 6314SOL    HW218901   2.244   0.846   1.749
 6315SOL     OW18902   3.357   0.306   0.141
 6315SOL    HW118903   3.330   0.215   0.152
 6315SOL    HW218904   3.402   0.328   0.222
 6316SOL     OW18905   3.184   0.813   0.035
 6316SOL    HW118906   3.218   0.723   0.041
 6316SOL    HW218907   3.249   0.859   9.982
 6317SOL     OW18908   2.931   1.354   0.866
 6317SOL    HW118909   2.941   1.281   0.805
 6317SOL    HW218910   2.984   1.425   0.827
 6318SOL     OW18911   2.184   0.814   0.945
 6318SOL    HW118912   2.277   0.834   0.943
 6318SOL    HW218913   2.179   0.724   0.976
 6319SOL     OW18914   2.211   0.543   1.016
 6319SOL    HW118915   2.153   0.467   1.012
 6319SOL    HW218916   2.281   0.524   0.953
 6320SOL     OW18917   2.998   0.408   1.653
 6320SOL    HW118918   2.951   0.445   1.728
 6320SOL    HW218919   3.085   0.445   1.659
 6321SOL     OW18920   3.005   0.208   1.468
 6321SOL    HW118921   2.996   0.271   1.539
 6321SOL    HW218922   3.060   0.251   1.403
 6322SOL     OW18923   1.878   1.291   0.171
 6322SOL    HW118924   1.788   1.318   0.155
 6322SOL    HW218925   1.870   1.209   0.220
 6323SOL     OW18926   1.955   1.770   0.952
 6323SOL    HW118927   1.921   1.696   0.901
 6323SOL    HW218928   2.042   1.787   0.915
 6324SOL     OW18929   2.346   1.572   0.905
 6324SOL    HW118930   2.417   1.633   0.926
 6324SOL    HW218931   2.388   1.504   0.851
 6325SOL     OW18932   2.812   0.785   1.218
 6325SOL    HW118933   2.874   0.769   1.290
 6325SOL    HW218934   2.733   0.737   1.244
 6326SOL     OW18935   1.879   0.524   1.129
 6326SOL    HW118936   1.936   0.464   1.082
 6326SOL    HW218937   1.923   0.538   1.213
 6327SOL     OW18938   2.047   0.556   1.748
 6327SOL    HW118939   2.133   0.549   1.706
 6327SOL    HW218940   2.001   0.622   1.696
 6328SOL     OW18941   3.253   0.921   1.652
 6328SOL    HW118942   3.270   1.015   1.647
 6328SOL    HW218943   3.244   0.894   1.561
 6329SOL     OW18944   2.684   0.586   0.385
 6329SOL    HW118945   2.689   0.509   0.327
 6329SOL    HW218946   2.605   0.632   0.358
 6330SOL     OW18947   3.488   0.605   1.170
 6330SOL    HW118948   3.469   0.550   1.246
 6330SOL    HW218949   3.576   0.579   1.143
 6331SOL     OW18950   2.088   1.540   1.724
 6331SOL    HW118951   2.064   1.588   1.803
 6331SOL    HW218952   2.100   1.449   1.753
 6332SOL     OW18953   2.600   0.451   1.236
 6332SOL    HW118954   2.538   0.379   1.225
 6332SOL    HW218955   2.580   0.511   1.164
 6333SOL     OW18956   2.766   1.680   1.489
 6333SOL    HW118957   2.745   1.632   1.409
 6333SOL    HW218958   2.768   1.772   1.462
 6334SOL     OW18959   2.312   0.484   0.160
 6334SOL    HW118960   2.374   0.548   0.196
 6334SOL    HW218961   2.227   0.528   0.166
 6335SOL     OW18962   1.991   1.151   1.481
 6335SOL    HW118963   1.996   1.112   1.568
 6335SOL    HW218964   2.012   1.080   1.421
 6336SOL     OW18965   3.165   1.037   1.209
 6336SOL    HW118966   3.173   0.973   1.138
 6336SOL    HW218967   3.111   1.107   1.172
 6337SOL     OW18968   3.187   0.822   0.317
 6337SOL    HW118969   3.102   0.800   0.356
 6337SOL    HW218970   3.173   0.815   0.223
 6338SOL     OW18971   3.650   1.723   1.171
 6338SOL    HW118972   3.711   1.749   1.102
 6338SOL    HW218973   3.617   1.638   1.144
 6339SOL     OW18974   3.103   1.735   1.092
 6339SOL    HW118975   3.187   1.764   1.057
 6339SOL    HW218976   3.117   1.643   1.115
 6340SOL     OW18977   1.967   1.250   1.011
 6340SOL    HW118978   1.939   1.271   1.100
 6340SOL    HW218979   1.897   1.196   0.975
 6341SOL     OW18980   2.549   1.683   1.749
 6341SOL    HW118981   2.486   1.754   1.736
 6341SOL    HW218982   2.622   1.706   1.691
 6342SOL     OW18983   2.758   0.117   0.127
 6342SOL    HW118984   2.845   0.147   0.099
 6342SOL    HW218985   2.776   0.044   0.187
 6343SOL     OW18986   3.633   0.194   0.523
 6343SOL    HW118987   3.649   0.181   0.430
 6343SOL    HW218988   3.674   0.117   0.565
 6344SOL     OW18989   3.262   1.572   0.504
 6344SOL    HW118990   3.319   1.606   0.435
 6344SOL    HW218991   3.209   1.646   0.530
 6345SOL     OW18992   1.995   1.807   1.844
 6345SOL    HW118993   1.955   1.731   1.885
 6345SOL    HW218994   2.046   1.849   1.914
 6346SOL     OW18995   3.139   0.938   0.669
 6346SOL    HW118996   3.212   0.879   0.683
 6346SOL    HW218997   3.175   1.010   0.618
 6347SOL     OW18998   2.645   1.280   1.414
 6347SOL    HW118999   2.619   1.328   1.493
 6347SOL    HW219000   2.571   1.290   1.354
 6348SOL     OW19001   2.547   1.637   0.188
 6348SOL    HW119002   2.550   1.653   0.094
 6348SOL    HW219003   2.491   1.560   0.198
 6349SOL     OW19004   3.478   1.730   1.402
 6349SOL    HW119005   3.535   1.729   1.325
 6349SOL    HW219006   3.462   1.822   1.420
 6350SOL     OW19007   3.714   0.154   0.963
 6350SOL    HW119008   3.745   0.082   0.908
 6350SOL    HW219009   3.628   0.176   0.926
 6351SOL     OW19010   2.107   0.321   0.700
 6351SOL    HW119011   2.021   0.361   0.688
 6351SOL    HW219012   2.115   0.311   0.795
 6352SOL     OW19013   3.078   1.568   0.052
 6352SOL    HW119014   3.066   1.478   0.083
 6352SOL    HW219015   3.091   1.559   9.957
 6353SOL     OW19016   2.686   1.011   1.387
 6353SOL    HW119017   2.724   1.000   1.299
 6353SOL    HW219018   2.675   1.106   1.397
 6354SOL     OW19019   2.806   0.929   0.295
 6354SOL    HW119020   2.854   0.945   0.214
 6354SOL    HW219021   2.852   0.856   0.337
 6355SOL     OW19022   3.351   1.612   0.074
 6355SOL    HW119023   3.256   1.604   0.082
 6355SOL    HW219024   3.367   1.620   9.980
 6356SOL     OW19025   2.224   1.313   1.502
 6356SOL    HW119026   2.217   1.386   1.440
 6356SOL    HW219027   2.147   1.260   1.485
 6357SOL     OW19028   3.460   1.290   1.277
 6357SOL    HW119029   3.515   1.266   1.352
 6357SOL    HW219030   3.401   1.357   1.311
 6358SOL     OW19031   2.936   1.121   0.730
 6358SOL    HW119032   2.860   1.071   0.761
 6358SOL    HW219033   2.998   1.054   0.701
 6359SOL     OW19034   2.889   0.261   0.984
 6359SOL    HW119035   2.873   0.211   0.904
 6359SOL    HW219036   2.884   0.195   1.054
 6360SOL     OW19037   2.483   1.485   0.507
 6360SOL    HW119038   2.524   1.430   0.440
 6360SOL    HW219039   2.414   1.532   0.460
 6361SOL     OW19040   3.603   0.370   1.389
 6361SOL    HW119041   3.676   0.430   1.378
 6361SOL    HW219042   3.617   0.303   1.322
 6362SOL     OW19043   2.131   1.314   0.283
 6362SOL    HW119044   2.047   1.315   0.236
 6362SOL    HW219045   2.115   1.367   0.361
 6363SOL     OW19046   1.984   1.047   1.736
 6363SOL    HW119047   1.907   1.018   1.785
 6363SOL    HW219048   2.055   0.994   1.770
 6364SOL     OW19049   2.523   0.230   1.510
 6364SOL    HW119050   2.602   0.204   1.461
 6364SOL    HW219051   2.555   0.247   1.599
 6365SOL     OW19052   1.951   0.443   9.940
 6365SOL    HW119053   1.878   0.380   9.940
 6365SOL    HW219054   2.021   0.398   9.892
 6366SOL     OW19055   3.276   0.857   1.388
 6366SOL    HW119056   3.223   0.916   1.333
 6366SOL    HW219057   3.364   0.862   1.350
 6367SOL     OW19058   3.057   1.312   0.144
 6367SOL    HW119059   2.966   1.283   0.136
 6367SOL    HW219060   3.075   1.309   0.238
 6368SOL     OW19061   2.489   0.830   1.444
 6368SOL    HW119062   2.548   0.905   1.432
 6368SOL    HW219063   2.548   0.755   1.445
 6369SOL     OW19064   3.349   1.803   0.993
 6369SOL    HW119065   3.376   1.877   0.938
 6369SOL    HW219066   3.430   1.756   1.012
 6370SOL     OW19067   2.580   0.541   1.695
 6370SOL    HW119068   2.628   0.599   1.755
 6370SOL    HW219069   2.595   0.453   1.730
 6371SOL     OW19070   3.330   1.184   1.620
 6371SOL    HW119071   3.323   1.207   1.712
 6371SOL    HW219072   3.420   1.208   1.596
 6372SOL     OW19073   2.216   1.747   1.580
 6372SOL    HW119074   2.134   1.793   1.562
 6372SOL    HW219075   2.189   1.663   1.618
 6373SOL     OW19076   3.516   0.877   1.253
 6373SOL    HW119077   3.512   0.793   1.208
 6373SOL    HW219078   3.504   0.942   1.184
 6374SOL     OW19079   3.071   0.340   0.453
 6374SOL    HW119080   3.136   0.271   0.437
 6374SOL    HW219081   3.104   0.386   0.530
 6375SOL     OW19082   2.435   0.715   0.679
 6375SOL    HW119083   2.480   0.799   0.667
 6375SOL    HW219084   2.370   0.713   0.609
 6376SOL     OW19085   3.602   0.356   1.663
 6376SOL    HW119086   3.604   0.367   1.568
 6376SOL    HW219087   3.523   0.305   1.679
 6377SOL     OW19088   3.620   0.926   1.503
 6377SOL    HW119089   3.604   1.019   1.517
 6377SOL    HW219090   3.592   0.910   1.413
 6378SOL     OW19091   2.762   1.416   0.046
 6378SOL    HW119092   2.677   1.376   0.027
 6378SOL    HW219093   2.753   1.449   0.135
 6379SOL     OW19094   2.529   1.768   0.929
 6379SOL    HW119095   2.512   1.862   0.919
 6379SOL    HW219096   2.625   1.762   0.926
 6380SOL     OW19097   2.734   0.976   0.857
 6380SOL    HW119098   2.786   0.905   0.894
 6380SOL    HW219099   2.689   1.014   0.933
 6381SOL     OW19100   2.959   0.966   0.070
 6381SOL    HW119101   2.956   1.022   9.993
 6381SOL    HW219102   3.035   0.909   0.056
 6382SOL     OW19103   3.693   1.558   0.840
 6382SOL    HW119104   3.617   1.549   0.783
 6382SOL    HW219105   3.673   1.504   0.917
 6383SOL     OW19106   2.074   1.285   1.836
 6383SOL    HW119107   2.043   1.206   1.793
 6383SOL    HW219108   2.015   1.298   1.910
 6384SOL     OW19109   1.980   1.220   0.670
 6384SOL    HW119110   2.009   1.180   0.752
 6384SOL    HW219111   2.040   1.186   0.604
 6385SOL     OW19112   2.553   1.419   1.633
 6385SOL    HW119113   2.476   1.380   1.674
 6385SOL    HW219114   2.557   1.507   1.669
 6386SOL     OW19115   3.623   0.149   1.227
 6386SOL    HW119116   3.573   0.068   1.220
 6386SOL    HW219117   3.666   0.159   1.142
 6387SOL     OW19118   2.285   0.426   0.512
 6387SOL    HW119119   2.311   0.352   0.457
 6387SOL    HW219120   2.232   0.387   0.581
 6388SOL     OW19121   3.556   1.480   1.082
 6388SOL    HW119122   3.479   1.461   1.030
 6388SOL    HW219123   3.557   1.413   1.150
 6389SOL     OW19124   2.207   0.582   1.288
 6389SOL    HW119125   2.261   0.521   1.338
 6389SOL    HW219126   2.222   0.557   1.196
 6390SOL     OW19127   2.697   1.596   0.663
 6390SOL    HW119128   2.686   1.678   0.615
 6390SOL    HW219129   2.621   1.544   0.638
 6391SOL     OW19130   3.296   0.238   1.112
 6391SOL    HW119131   3.331   0.161   1.157
 6391SOL    HW219132   3.246   0.284   1.179
 6392SOL     OW19133   2.887   0.040   1.159
 6392SOL    HW119134   2.856   9.950   1.156
 6392SOL    HW219135   2.981   0.033   1.178
 6393SOL     OW19136   2.639   1.327   0.343
 6393SOL    HW119137   2.617   1.234   0.347
 6393SOL    HW219138   2.724   1.334   0.387
 6394SOL     OW19139   2.477   1.570   1.288
 6394SOL    HW119140   2.472   1.654   1.334
 6394SOL    HW219141   2.567   1.566   1.255
 6395SOL     OW19142   3.235   0.045   0.154
 6395SOL    HW119143   3.251   0.019   0.064
 6395SOL    HW219144   3.188   9.971   0.192
 6396SOL     OW19145   3.162   0.476   0.676
 6396SOL    HW119146   3.110   0.556   0.675
 6396SOL    HW219147   3.153   0.443   0.766
 6397SOL     OW19148   3.463   0.225   0.882
 6397SOL    HW119149   3.405   0.237   0.958
 6397SOL    HW219150   3.459   0.308   0.836
 6398SOL     OW19151   1.905   1.042   0.295
 6398SOL    HW119152   2.001   1.040   0.295
 6398SOL    HW219153   1.880   0.957   0.330
 6399SOL     OW19154   2.768   1.681   0.345
 6399SOL    HW119155   2.689   1.665   0.292
 6399SOL    HW219156   2.743   1.750   0.405
 6400SOL     OW19157   2.073   0.636   2.014
 6400SOL    HW119158   1.986   0.619   2.051
 6400SOL    HW219159   2.063   0.623   1.920
 6401SOL     OW19160   2.054   0.321   2.896
 6401SOL    HW119161   2.099   0.270   2.964
 6401SOL    HW219162   1.986   0.263   2.863
 6402SOL     OW19163   1.850   0.409   2.501
 6402SOL    HW119164   1.767   0.434   2.542
 6402SOL    HW219165   1.828   0.334   2.446
 6403SOL     OW19166   2.437   1.308   3.071
 6403SOL    HW119167   2.355   1.311   3.023
 6403SOL    HW219168   2.454   1.400   3.095
 6404SOL     OW19169   3.450   1.525   2.567
 6404SOL    HW119170   3.403   1.493   2.644
 6404SOL    HW219171   3.384   1.528   2.498
 6405SOL     OW19172   2.999   0.707   2.549
 6405SOL    HW119173   3.045   0.790   2.538
 6405SOL    HW219174   2.949   0.717   2.630
 6406SOL     OW19175   3.666   0.587   2.078
 6406SOL    HW119176   3.629   0.586   1.990
 6406SOL    HW219177   3.625   0.514   2.123
 6407SOL     OW19178   2.590   1.132   2.920
 6407SOL    HW119179   2.531   1.172   2.984
 6407SOL    HW219180   2.632   1.206   2.876
 6408SOL     OW19181   2.746   0.739   3.688
 6408SOL    HW119182   2.731   0.805   3.755
 6408SOL    HW219183   2.764   0.788   3.608
 6409SOL     OW19184   2.547   0.982   2.507
 6409SOL    HW119185   2.614   0.983   2.575
 6409SOL    HW219186   2.480   1.044   2.538
 6410SOL     OW19187   2.574   1.150   3.696
 6410SOL    HW119188   2.626   1.223   3.731
 6410SOL    HW219189   2.498   1.192   3.655
 6411SOL     OW19190   2.205   1.397   2.932
 6411SOL    HW119191   2.129   1.354   2.892
 6411SOL    HW219192   2.241   1.452   2.862
 6412SOL     OW19193   3.316   1.506   3.234
 6412SOL    HW119194   3.370   1.583   3.247
 6412SOL    HW219195   3.243   1.517   3.296
 6413SOL     OW19196   2.319   0.402   3.319
 6413SOL    HW119197   2.396   0.349   3.336
 6413SOL    HW219198   2.245   0.345   3.340
 6414SOL     OW19199   3.451   0.458   2.606
 6414SOL    HW119200   3.380   0.462   2.542
 6414SOL    HW219201   3.434   0.532   2.665
 6415SOL     OW19202   2.080   1.728   2.327
 6415SOL    HW119203   2.107   1.799   2.385
 6415SOL    HW219204   2.153   1.717   2.267
 6416SOL     OW19205   2.997   1.341   3.559
 6416SOL    HW119206   3.042   1.331   3.643
 6416SOL    HW219207   2.944   1.262   3.550
 6417SOL     OW19208   2.095   1.457   2.395
 6417SOL    HW119209   2.074   1.551   2.399
 6417SOL    HW219210   2.045   1.418   2.466
 6418SOL     OW19211   2.147   1.090   2.741
 6418SOL    HW119212   2.148   1.000   2.774
 6418SOL    HW219213   2.091   1.138   2.802
 6419SOL     OW19214   2.437   1.803   3.284
 6419SOL    HW119215   2.360   1.783   3.338
 6419SOL    HW219216   2.469   1.887   3.318
 6420SOL     OW19217   2.426   0.987   2.015
 6420SOL    HW119218   2.477   1.030   1.946
 6420SOL    HW219219   2.466   1.018   2.096
 6421SOL     OW19220   3.404   0.124   3.316
 6421SOL    HW119221   3.468   0.176   3.267
 6421SOL    HW219222   3.394   0.170   3.400
 6422SOL     OW19223   1.982   0.662   2.428
 6422SOL    HW119224   1.948   0.576   2.450
 6422SOL    HW219225   1.976   0.712   2.510
 6423SOL     OW19226   3.708   1.743   2.179
 6423SOL    HW119227   3.780   1.728   2.241
 6423SOL    HW219228   3.715   1.836   2.157
 6424SOL     OW19229   1.922   1.580   1.972
 6424SOL    HW119230   1.901   1.489   1.991
 6424SOL    HW219231   1.890   1.628   2.049
 6425SOL     OW19232   3.561   0.928   2.516
 6425SOL    HW119233   3.642   0.882   2.493
 6425SOL    HW219234   3.539   0.979   2.439
 6426SOL     OW19235   3.519   1.105   2.295
 6426SOL    HW119236   3.603   1.097   2.251
 6426SOL    HW219237   3.533   1.171   2.363
 6427SOL     OW19238   1.969   0.751   3.432
 6427SOL    HW119239   2.051   0.801   3.430
 6427SOL    HW219240   1.901   0.817   3.415
 6428SOL     OW19241   2.485   1.398   2.593
 6428SOL    HW119242   2.443   1.312   2.597
 6428SOL    HW219243   2.469   1.427   2.503
 6429SOL     OW19244   3.132   1.226   3.280
 6429SOL    HW119245   3.159   1.157   3.219
 6429SOL    HW219246   3.194   1.220   3.352
 6430SOL     OW19247   2.680   0.034   2.400
 6430SOL    HW119248   2.710   0.123   2.378
 6430SOL    HW219249   2.584   0.040   2.396
 6431SOL     OW19250   2.048   0.957   3.165
 6431SOL    HW119251   2.137   0.926   3.147
 6431SOL    HW219252   1.996   0.922   3.092
 6432SOL     OW19253   3.398   1.015   2.062
 6432SOL    HW119254   3.329   0.955   2.091
 6432SOL    HW219255   3.439   1.046   2.142
 6433SOL     OW19256   3.042   1.822   3.499
 6433SOL    HW119257   3.043   1.884   3.426
 6433SOL    HW219258   3.059   1.737   3.458
 6434SOL     OW19259   2.180   0.258   3.633
 6434SOL    HW119260   2.238   0.316   3.683
 6434SOL    HW219261   2.097   0.260   3.682
 6435SOL     OW19262   3.334   1.418   2.792
 6435SOL    HW119263   3.271   1.437   2.861
 6435SOL    HW219264   3.316   1.327   2.768
 6436SOL     OW19265   3.500   1.796   2.424
 6436SOL    HW119266   3.483   1.749   2.342
 6436SOL    HW219267   3.499   1.727   2.491
 6437SOL     OW19268   2.447   0.710   2.136
 6437SOL    HW119269   2.447   0.797   2.096
 6437SOL    HW219270   2.382   0.716   2.206
 6438SOL     OW19271   3.144   0.391   2.800
 6438SOL    HW119272   3.055   0.357   2.808
 6438SOL    HW219273   3.198   0.332   2.853
 6439SOL     OW19274   3.441   1.673   2.181
 6439SOL    HW119275   3.535   1.688   2.170
 6439SOL    HW219276   3.408   1.661   2.092
 6440SOL     OW19277   2.657   0.614   3.306
 6440SOL    HW119278   2.630   0.580   3.391
 6440SOL    HW219279   2.633   0.545   3.243
 6441SOL     OW19280   3.260   0.492   3.539
 6441SOL    HW119281   3.265   0.531   3.626
 6441SOL    HW219282   3.306   0.408   3.548
 6442SOL     OW19283   2.807   0.880   3.456
 6442SOL    HW119284   2.863   0.817   3.411
 6442SOL    HW219285   2.758   0.923   3.385
 6443SOL     OW19286   2.876   0.417   3.071
 6443SOL    HW119287   2.785   0.426   3.099
 6443SOL    HW219288   2.871   0.375   2.986
 6444SOL     OW19289   2.917   0.704   2.282
 6444SOL    HW119290   2.939   0.699   2.375
 6444SOL    HW219291   2.831   0.661   2.276
 6445SOL     OW19292   1.956   0.825   2.647
 6445SOL    HW119293   2.037   0.817   2.697
 6445SOL    HW219294   1.909   0.897   2.689
 6446SOL     OW19295   1.971   1.879   3.449
 6446SOL    HW119296   1.978   1.859   3.543
 6446SOL    HW219297   1.886   1.845   3.424
 6447SOL     OW19298   2.749   0.361   2.067
 6447SOL    HW119299   2.791   0.419   2.004
 6447SOL    HW219300   2.752   0.274   2.027
 6448SOL     OW19301   3.554   0.566   3.698
 6448SOL    HW119302   3.529   0.644   3.649
 6448SOL    HW219303   3.576   0.501   3.631
 6449SOL     OW19304   3.255   1.151   2.405
 6449SOL    HW119305   3.335   1.139   2.353
 6449SOL    HW219306   3.202   1.212   2.354
 6450SOL     OW19307   2.405   0.220   2.789
 6450SOL    HW119308   2.424   0.235   2.882
 6450SOL    HW219309   2.415   0.306   2.748
 6451SOL     OW19310   2.859   1.456   2.327
 6451SOL    HW119311   2.835   1.530   2.272
 6451SOL    HW219312   2.829   1.480   2.415
 6452SOL     OW19313   2.215   1.816   2.742
 6452SOL    HW119314   2.261   1.732   2.746
 6452SOL    HW219315   2.283   1.880   2.763
 6453SOL     OW19316   3.667   1.045   2.753
 6453SOL    HW119317   3.620   1.029   2.671
 6453SOL    HW219318   3.598   1.054   2.818
 6454SOL     OW19319   3.080   1.543   3.379
 6454SOL    HW119320   3.068   1.472   3.442
 6454SOL    HW219321   3.012   1.528   3.313
 6455SOL     OW19322   2.160   0.956   2.126
 6455SOL    HW119323   2.243   0.976   2.082
 6455SOL    HW219324   2.139   0.867   2.097
 6456SOL     OW19325   3.347   0.766   2.573
 6456SOL    HW119326   3.344   0.729   2.661
 6456SOL    HW219327   3.426   0.820   2.572
 6457SOL     OW19328   2.335   1.284   3.610
 6457SOL    HW119329   2.311   1.289   3.517
 6457SOL    HW219330   2.251   1.272   3.656
 6458SOL     OW19331   3.002   1.776   2.089
 6458SOL    HW119332   2.919   1.746   2.127
 6458SOL    HW219333   3.021   1.711   2.021
 6459SOL     OW19334   2.081   0.265   3.370
 6459SOL    HW119335   2.012   0.332   3.371
 6459SOL    HW219336   2.104   0.253   3.462
 6460SOL     OW19337   3.500   1.388   1.962
 6460SOL    HW119338   3.459   1.474   1.949
 6460SOL    HW219339   3.433   1.325   1.936
 6461SOL     OW19340   2.321   1.741   2.177
 6461SOL    HW119341   2.370   1.792   2.242
 6461SOL    HW219342   2.388   1.701   2.123
 6462SOL     OW19343   3.268   0.164   2.281
 6462SOL    HW119344   3.261   0.108   2.203
 6462SOL    HW219345   3.360   0.157   2.307
 6463SOL     OW19346   2.113   1.789   3.076
 6463SOL    HW119347   2.162   1.713   3.110
 6463SOL    HW219348   2.098   1.768   2.984
 6464SOL     OW19349   2.810   1.702   2.752
 6464SOL    HW119350   2.895   1.661   2.766
 6464SOL    HW219351   2.771   1.652   2.681
 6465SOL     OW19352   2.256   0.689   2.337
 6465SOL    HW119353   2.272   0.595   2.349
 6465SOL    HW219354   2.163   0.700   2.355
 6466SOL     OW19355   3.364   0.230   3.580
 6466SOL    HW119356   3.378   0.249   3.673
 6466SOL    HW219357   3.292   0.167   3.580
 6467SOL     OW19358   2.504   0.105   1.969
 6467SOL    HW119359   2.540   0.031   2.017
 6467SOL    HW219360   2.443   0.067   1.907
 6468SOL     OW19361   2.621   0.266   3.632
 6468SOL    HW119362   2.696   0.208   3.621
 6468SOL    HW219363   2.573   0.231   3.707
 6469SOL     OW19364   2.731   1.527   3.061
 6469SOL    HW119365   2.713   1.486   2.977
 6469SOL    HW219366   2.798   1.472   3.101
 6470SOL     OW19367   3.199   0.594   3.293
 6470SOL    HW119368   3.231   0.568   3.379
 6470SOL    HW219369   3.231   0.683   3.281
 6471SOL     OW19370   2.678   1.377   2.818
 6471SOL    HW119371   2.766   1.373   2.779
 6471SOL    HW219372   2.620   1.392   2.744
 6472SOL     OW19373   2.797   0.521   2.755
 6472SOL    HW119374   2.769   0.511   2.664
 6472SOL    HW219375   2.820   0.432   2.783
 6473SOL     OW19376   2.413   0.061   2.356
 6473SOL    HW119377   2.332   0.044   2.403
 6473SOL    HW219378   2.391   0.130   2.293
 6474SOL     OW19379   3.296   1.213   1.894
 6474SOL    HW119380   3.326   1.139   1.948
 6474SOL    HW219381   3.211   1.236   1.931
 6475SOL     OW19382   2.158   0.068   2.083
 6475SOL    HW119383   2.228   0.131   2.100
 6475SOL    HW219384   2.189   9.987   2.125
 6476SOL     OW19385   2.800   0.271   2.324
 6476SOL    HW119386   2.773   0.304   2.238
 6476SOL    HW219387   2.894   0.288   2.328
 6477SOL     OW19388   2.940   0.693   3.307
 6477SOL    HW119389   2.875   0.623   3.315
 6477SOL    HW219390   3.024   0.647   3.303
 6478SOL     OW19391   3.068   1.588   2.665
 6478SOL    HW119392   3.082   1.647   2.591
 6478SOL    HW219393   3.141   1.604   2.724
 6479SOL     OW19394   2.344   1.161   2.569
 6479SOL    HW119395   2.282   1.137   2.638
 6479SOL    HW219396   2.294   1.154   2.488
 6480SOL     OW19397   3.113   1.792   2.479
 6480SOL    HW119398   3.163   1.855   2.426
 6480SOL    HW219399   3.042   1.843   2.517
 6481SOL     OW19400   2.900   0.518   1.892
 6481SOL    HW119401   2.852   0.597   1.869
 6481SOL    HW219402   2.958   0.544   1.963
 6482SOL     OW19403   1.964   0.536   3.259
 6482SOL    HW119404   2.053   0.550   3.226
 6482SOL    HW219405   1.950   0.608   3.322
 6483SOL     OW19406   2.429   0.237   3.065
 6483SOL    HW119407   2.471   0.191   3.137
 6483SOL    HW219408   2.335   0.226   3.080
 6484SOL     OW19409   2.725   0.475   2.500
 6484SOL    HW119410   2.682   0.530   2.435
 6484SOL    HW219411   2.747   0.394   2.452
 6485SOL     OW19412   2.825   0.063   2.651
 6485SOL    HW119413   2.772   0.050   2.572
 6485SOL    HW219414   2.837   9.974   2.686
 6486SOL     OW19415   3.295   1.153   2.716
 6486SOL    HW119416   3.226   1.088   2.726
 6486SOL    HW219417   3.309   1.160   2.622
 6487SOL     OW19418   3.319   0.624   2.813
 6487SOL    HW119419   3.258   0.550   2.819
 6487SOL    HW219420   3.374   0.616   2.891
 6488SOL     OW19421   3.687   0.798   2.251
 6488SOL    HW119422   3.749   0.755   2.310
 6488SOL    HW219423   3.676   0.735   2.179
 6489SOL     OW19424   2.360   1.424   2.012
 6489SOL    HW119425   2.285   1.392   2.062
 6489SOL    HW219426   2.356   1.376   1.930
 6490SOL     OW19427   3.570   1.272   2.496
 6490SOL    HW119428   3.663   1.266   2.516
 6490SOL    HW219429   3.546   1.362   2.521
 6491SOL     OW19430   3.256   0.578   1.936
 6491SOL    HW119431   3.198   0.556   2.009
 6491SOL    HW219432   3.343   0.551   1.966
 6492SOL     OW19433   2.362   0.250   2.157
 6492SOL    HW119434   2.427   0.214   2.097
 6492SOL    HW219435   2.340   0.336   2.120
 6493SOL     OW19436   3.597   1.244   3.395
 6493SOL    HW119437   3.685   1.210   3.380
 6493SOL    HW219438   3.610   1.331   3.431
 6494SOL     OW19439   2.903   1.356   3.198
 6494SOL    HW119440   2.826   1.321   3.242
 6494SOL    HW219441   2.977   1.310   3.238
 6495SOL     OW19442   3.470   1.634   3.534
 6495SOL    HW119443   3.459   1.671   3.447
 6495SOL    HW219444   3.548   1.579   3.527
 6496SOL     OW19445   3.013   1.240   2.968
 6496SOL    HW119446   2.951   1.273   3.032
 6496SOL    HW219447   2.980   1.271   2.883
 6497SOL     OW19448   3.470   1.091   2.938
 6497SOL    HW119449   3.462   1.158   3.007
 6497SOL    HW219450   3.401   1.113   2.876
 6498SOL     OW19451   2.748   0.162   3.233
 6498SOL    HW119452   2.774   0.118   3.152
 6498SOL    HW219453   2.831   0.186   3.274
 6499SOL     OW19454   2.842   1.115   3.587
 6499SOL    HW119455   2.751   1.131   3.614
 6499SOL    HW219456   2.837   1.034   3.535
 6500SOL     OW19457   2.574   1.063   2.239
 6500SOL    HW119458   2.559   1.035   2.330
 6500SOL    HW219459   2.648   1.011   2.210
 6501SOL     OW19460   2.292   0.839   3.121
 6501SOL    HW119461   2.360   0.844   3.189
 6501SOL    HW219462   2.258   0.750   3.128
 6502SOL     OW19463   3.133   0.374   3.145
 6502SOL    HW119464   3.163   0.452   3.193
 6502SOL    HW219465   3.044   0.396   3.117
 6503SOL     OW19466   1.939   1.569   3.224
 6503SOL    HW119467   1.909   1.640   3.168
 6503SOL    HW219468   2.035   1.570   3.214
 6504SOL     OW19469   2.179   1.133   2.347
 6504SOL    HW119470   2.180   1.204   2.283
 6504SOL    HW219471   2.176   1.054   2.294
 6505SOL     OW19472   2.422   0.491   2.713
 6505SOL    HW119473   2.426   0.546   2.635
 6505SOL    HW219474   2.481   0.533   2.776
 6506SOL     OW19475   3.109   1.354   2.260
 6506SOL    HW119476   3.165   1.424   2.294
 6506SOL    HW219477   3.021   1.378   2.290
 6507SOL     OW19478   3.172   1.469   3.004
 6507SOL    HW119479   3.219   1.475   3.087
 6507SOL    HW219480   3.120   1.389   3.011
 6508SOL     OW19481   3.438   0.626   2.342
 6508SOL    HW119482   3.387   0.667   2.412
 6508SOL    HW219483   3.490   0.697   2.305
 6509SOL     OW19484   2.206   1.534   3.163
 6509SOL    HW119485   2.199   1.481   3.084
 6509SOL    HW219486   2.300   1.550   3.173
 6510SOL     OW19487   2.306   0.729   3.487
 6510SOL    HW119488   2.356   0.778   3.422
 6510SOL    HW219489   2.357   0.649   3.501
 6511SOL     OW19490   3.488   0.789   3.560
 6511SOL    HW119491   3.400   0.826   3.552
 6511SOL    HW219492   3.538   0.826   3.488
 6512SOL     OW19493   2.823   0.078   3.635
 6512SOL    HW119494   2.891   0.131   3.677
 6512SOL    HW219495   2.866   0.041   3.557
 6513SOL     OW19496   2.333   0.022   3.629
 6513SOL    HW119497   2.390   0.012   3.553
 6513SOL    HW219498   2.284   0.103   3.613
 6514SOL     OW19499   2.454   0.881   2.899
 6514SOL    HW119500   2.493   0.968   2.903
 6514SOL    HW219501   2.397   0.876   2.975
 6515SOL     OW19502   3.167   0.858   2.863
 6515SOL    HW119503   3.078   0.832   2.840
 6515SOL    HW219504   3.221   0.781   2.848
 6516SOL     OW19505   3.055   0.530   2.122
 6516SOL    HW119506   3.064   0.457   2.182
 6516SOL    HW219507   3.014   0.599   2.173
 6517SOL     OW19508   2.162   0.180   3.117
 6517SOL    HW119509   2.127   0.211   3.201
 6517SOL    HW219510   2.173   0.086   3.129
 6518SOL     OW19511   1.911   1.312   3.128
 6518SOL    HW119512   1.941   1.256   3.200
 6518SOL    HW219513   1.914   1.401   3.164
 6519SOL     OW19514   2.573   0.629   2.896
 6519SOL    HW119515   2.652   0.625   2.843
 6519SOL    HW219516   2.541   0.719   2.886
 6520SOL     OW19517   3.614   0.968   3.732
 6520SOL    HW119518   3.574   0.896   3.683
 6520SOL    HW219519   3.550   0.989   3.800
 6521SOL     OW19520   2.160   0.063   2.489
 6521SOL    HW119521   2.140   0.157   2.491
 6521SOL    HW219522   2.174   0.040   2.581
 6522SOL     OW19523   3.498   0.397   2.201
 6522SOL    HW119524   3.537   0.334   2.262
 6522SOL    HW219525   3.469   0.469   2.258
 6523SOL     OW19526   2.898   0.764   2.821
 6523SOL    HW119527   2.876   0.778   2.913
 6523SOL    HW219528   2.870   0.674   2.804
 6524SOL     OW19529   2.843   1.566   3.597
 6524SOL    HW119530   2.821   1.609   3.515
 6524SOL    HW219531   2.882   1.482   3.571
 6525SOL     OW19532   3.700   1.494   3.464
 6525SOL    HW119533   3.727   1.523   3.377
 6525SOL    HW219534   3.779   1.505   3.517
 6526SOL     OW19535   2.212   0.913   3.671
 6526SOL    HW119536   2.287   0.932   3.727
 6526SOL    HW219537   2.244   0.846   3.610
 6527SOL     OW19538   3.379   0.278   1.981
 6527SOL    HW119539   3.339   0.199   2.018
 6527SOL    HW219540   3.424   0.320   2.054
 6528SOL     OW19541   3.143   0.822   1.882
 6528SOL    HW119542   3.185   0.736   1.891
 6528SOL    HW219543   3.178   0.858   1.801
 6529SOL     OW19544   2.932   1.353   2.728
 6529SOL    HW119545   2.943   1.281   2.667
 6529SOL    HW219546   2.984   1.424   2.691
 6530SOL     OW19547   2.184   0.815   2.806
 6530SOL    HW119548   2.277   0.834   2.803
 6530SOL    HW219549   2.178   0.725   2.837
 6531SOL     OW19550   2.211   0.543   2.877
 6531SOL    HW119551   2.154   0.467   2.873
 6531SOL    HW219552   2.281   0.524   2.815
 6532SOL     OW19553   2.998   0.406   3.517
 6532SOL    HW119554   2.951   0.444   3.591
 6532SOL    HW219555   3.086   0.444   3.522
 6533SOL     OW19556   3.004   0.208   3.329
 6533SOL    HW119557   2.996   0.271   3.401
 6533SOL    HW219558   3.059   0.253   3.265
 6534SOL     OW19559   1.886   1.303   2.042
 6534SOL    HW119560   1.797   1.325   2.016
 6534SOL    HW219561   1.879   1.217   2.082
 6535SOL     OW19562   1.955   1.770   2.814
 6535SOL    HW119563   1.921   1.696   2.763
 6535SOL    HW219564   2.042   1.787   2.777
 6536SOL     OW19565   2.347   1.570   2.763
 6536SOL    HW119566   2.418   1.630   2.785
 6536SOL    HW219567   2.387   1.508   2.701
 6537SOL     OW19568   2.813   0.785   3.079
 6537SOL    HW119569   2.874   0.770   3.151
 6537SOL    HW219570   2.734   0.737   3.104
 6538SOL     OW19571   1.879   0.523   2.991
 6538SOL    HW119572   1.937   0.463   2.944
 6538SOL    HW219573   1.923   0.537   3.075
 6539SOL     OW19574   2.047   0.556   3.610
 6539SOL    HW119575   2.133   0.548   3.568
 6539SOL    HW219576   2.001   0.622   3.558
 6540SOL     OW19577   3.253   0.921   3.514
 6540SOL    HW119578   3.270   1.015   3.509
 6540SOL    HW219579   3.244   0.894   3.423
 6541SOL     OW19580   2.675   0.580   2.236
 6541SOL    HW119581   2.681   0.505   2.178
 6541SOL    HW219582   2.598   0.628   2.206
 6542SOL     OW19583   3.487   0.605   3.030
 6542SOL    HW119584   3.468   0.551   3.106
 6542SOL    HW219585   3.576   0.579   3.004
 6543SOL     OW19586   2.088   1.540   3.585
 6543SOL    HW119587   2.064   1.589   3.664
 6543SOL    HW219588   2.100   1.450   3.616
 6544SOL     OW19589   2.601   0.450   3.098
 6544SOL    HW119590   2.538   0.379   3.087
 6544SOL    HW219591   2.581   0.511   3.026
 6545SOL     OW19592   2.767   1.680   3.351
 6545SOL    HW119593   2.745   1.632   3.271
 6545SOL    HW219594   2.770   1.772   3.324
 6546SOL     OW19595   2.307   0.488   2.034
 6546SOL    HW119596   2.370   0.556   2.059
 6546SOL    HW219597   2.222   0.532   2.035
 6547SOL     OW19598   1.991   1.151   3.343
 6547SOL    HW119599   1.996   1.112   3.430
 6547SOL    HW219600   2.012   1.079   3.283
 6548SOL     OW19601   3.165   1.036   3.070
 6548SOL    HW119602   3.174   0.973   2.999
 6548SOL    HW219603   3.112   1.107   3.033
 6549SOL     OW19604   3.188   0.863   2.154
 6549SOL    HW119605   3.116   0.832   2.209
 6549SOL    HW219606   3.157   0.848   2.064
 6550SOL     OW19607   3.650   1.723   3.034
 6550SOL    HW119608   3.711   1.749   2.965
 6550SOL    HW219609   3.617   1.638   3.005
 6551SOL     OW19610   3.103   1.734   2.953
 6551SOL    HW119611   3.187   1.764   2.919
 6551SOL    HW219612   3.117   1.643   2.977
 6552SOL     OW19613   1.969   1.248   2.871
 6552SOL    HW119614   1.940   1.269   2.960
 6552SOL    HW219615   1.898   1.194   2.835
 6553SOL     OW19616   2.549   1.683   3.611
 6553SOL    HW119617   2.485   1.754   3.598
 6553SOL    HW219618   2.621   1.706   3.552
 6554SOL     OW19619   3.625   0.187   2.346
 6554SOL    HW119620   3.678   0.188   2.266
 6554SOL    HW219621   3.659   0.113   2.396
 6555SOL     OW19622   3.259   1.570   2.365
 6555SOL    HW119623   3.314   1.605   2.295
 6555SOL    HW219624   3.204   1.644   2.391
 6556SOL     OW19625   1.995   1.806   3.706
 6556SOL    HW119626   1.955   1.730   3.747
 6556SOL    HW219627   2.046   1.848   3.776
 6557SOL     OW19628   3.141   0.937   2.525
 6557SOL    HW119629   3.214   0.878   2.538
 6557SOL    HW219630   3.177   1.009   2.473
 6558SOL     OW19631   2.645   1.280   3.276
 6558SOL    HW119632   2.619   1.327   3.355
 6558SOL    HW219633   2.571   1.290   3.217
 6559SOL     OW19634   2.530   1.636   2.021
 6559SOL    HW119635   2.545   1.650   1.927
 6559SOL    HW219636   2.478   1.556   2.025
 6560SOL     OW19637   3.478   1.729   3.264
 6560SOL    HW119638   3.535   1.729   3.187
 6560SOL    HW219639   3.462   1.822   3.283
 6561SOL     OW19640   3.714   0.154   2.823
 6561SOL    HW119641   3.745   0.081   2.770
 6561SOL    HW219642   3.628   0.175   2.787
 6562SOL     OW19643   2.106   0.323   2.564
 6562SOL    HW119644   2.019   0.359   2.547
 6562SOL    HW219645   2.110   0.315   2.660
 6563SOL     OW19646   3.072   1.588   1.900
 6563SOL    HW119647   3.061   1.497   1.928
 6563SOL    HW219648   3.002   1.602   1.836
 6564SOL     OW19649   2.686   1.011   3.248
 6564SOL    HW119650   2.723   1.001   3.161
 6564SOL    HW219651   2.675   1.106   3.258
 6565SOL     OW19652   2.780   0.914   2.154
 6565SOL    HW119653   2.838   0.947   2.085
 6565SOL    HW219654   2.831   0.847   2.199
 6566SOL     OW19655   3.346   1.645   1.920
 6566SOL    HW119656   3.253   1.625   1.903
 6566SOL    HW219657   3.386   1.648   1.833
 6567SOL     OW19658   2.225   1.313   3.364
 6567SOL    HW119659   2.217   1.386   3.302
 6567SOL    HW219660   2.147   1.260   3.347
 6568SOL     OW19661   3.461   1.290   3.138
 6568SOL    HW119662   3.515   1.266   3.213
 6568SOL    HW219663   3.402   1.357   3.173
 6569SOL     OW19664   2.939   1.120   2.591
 6569SOL    HW119665   2.863   1.071   2.622
 6569SOL    HW219666   3.001   1.053   2.561
 6570SOL     OW19667   2.886   0.256   2.838
 6570SOL    HW119668   2.867   0.208   2.757
 6570SOL    HW219669   2.882   0.190   2.906
 6571SOL     OW19670   2.466   1.487   2.338
 6571SOL    HW119671   2.521   1.438   2.276
 6571SOL    HW219672   2.384   1.501   2.290
 6572SOL     OW19673   3.604   0.368   3.251
 6572SOL    HW119674   3.677   0.429   3.240
 6572SOL    HW219675   3.618   0.301   3.184
 6573SOL     OW19676   2.142   1.340   2.161
 6573SOL    HW119677   2.055   1.333   2.122
 6573SOL    HW219678   2.128   1.389   2.242
 6574SOL     OW19679   1.984   1.047   3.598
 6574SOL    HW119680   1.907   1.018   3.647
 6574SOL    HW219681   2.055   0.994   3.632
 6575SOL     OW19682   2.524   0.230   3.371
 6575SOL    HW119683   2.602   0.204   3.322
 6575SOL    HW219684   2.555   0.247   3.460
 6576SOL     OW19685   1.934   0.336   1.877
 6576SOL    HW119686   1.853   0.326   1.828
 6576SOL    HW219687   1.969   0.420   1.849
 6577SOL     OW19688   3.276   0.857   3.250
 6577SOL    HW119689   3.223   0.915   3.195
 6577SOL    HW219690   3.364   0.862   3.212
 6578SOL     OW19691   1.922   0.201   2.128
 6578SOL    HW119692   1.920   0.256   2.049
 6578SOL    HW219693   2.000   0.146   2.116
 6579SOL     OW19694   3.045   1.322   1.985
 6579SOL    HW119695   2.954   1.292   1.984
 6579SOL    HW219696   3.068   1.325   2.078
 6580SOL     OW19697   2.490   0.830   3.305
 6580SOL    HW119698   2.548   0.905   3.293
 6580SOL    HW219699   2.548   0.754   3.307
 6581SOL     OW19700   3.348   1.803   2.854
 6581SOL    HW119701   3.374   1.877   2.800
 6581SOL    HW219702   3.431   1.758   2.874
 6582SOL     OW19703   2.580   0.541   3.557
 6582SOL    HW119704   2.628   0.599   3.617
 6582SOL    HW219705   2.595   0.453   3.592
 6583SOL     OW19706   3.331   1.184   3.481
 6583SOL    HW119707   3.323   1.207   3.574
 6583SOL    HW219708   3.420   1.208   3.458
 6584SOL     OW19709   2.216   1.747   3.442
 6584SOL    HW119710   2.134   1.793   3.424
 6584SOL    HW219711   2.188   1.664   3.479
 6585SOL     OW19712   3.516   0.877   3.115
 6585SOL    HW119713   3.513   0.793   3.069
 6585SOL    HW219714   3.505   0.942   3.046
 6586SOL     OW19715   3.068   0.338   2.320
 6586SOL    HW119716   3.137   0.273   2.305
 6586SOL    HW219717   3.099   0.387   2.397
 6587SOL     OW19718   2.444   0.718   2.542
 6587SOL    HW119719   2.486   0.803   2.530
 6587SOL    HW219720   2.379   0.712   2.472
 6588SOL     OW19721   3.602   0.356   3.525
 6588SOL    HW119722   3.604   0.367   3.430
 6588SOL    HW219723   3.523   0.305   3.542
 6589SOL     OW19724   3.620   0.926   3.364
 6589SOL    HW119725   3.604   1.019   3.378
 6589SOL    HW219726   3.592   0.910   3.274
 6590SOL     OW19727   2.733   1.357   1.924
 6590SOL    HW119728   2.695   1.375   2.011
 6590SOL    HW219729   2.743   1.443   1.884
 6591SOL     OW19730   2.531   1.766   2.788
 6591SOL    HW119731   2.511   1.860   2.780
 6591SOL    HW219732   2.626   1.761   2.786
 6592SOL     OW19733   2.734   0.978   2.718
 6592SOL    HW119734   2.785   0.905   2.754
 6592SOL    HW219735   2.689   1.015   2.793
 6593SOL     OW19736   2.937   0.988   1.950
 6593SOL    HW119737   2.914   1.040   1.873
 6593SOL    HW219738   3.010   0.932   1.920
 6594SOL     OW19739   3.692   1.559   2.702
 6594SOL    HW119740   3.616   1.550   2.645
 6594SOL    HW219741   3.670   1.506   2.779
 6595SOL     OW19742   2.074   1.286   3.698
 6595SOL    HW119743   2.043   1.206   3.655
 6595SOL    HW219744   2.015   1.298   3.772
 6596SOL     OW19745   1.980   1.225   2.529
 6596SOL    HW119746   2.010   1.184   2.610
 6596SOL    HW219747   2.038   1.191   2.461
 6597SOL     OW19748   2.553   1.419   3.496
 6597SOL    HW119749   2.475   1.380   3.537
 6597SOL    HW219750   2.557   1.507   3.532
 6598SOL     OW19751   3.624   0.148   3.088
 6598SOL    HW119752   3.573   0.067   3.081
 6598SOL    HW219753   3.667   0.157   3.004
 6599SOL     OW19754   2.291   0.427   2.384
 6599SOL    HW119755   2.316   0.354   2.327
 6599SOL    HW219756   2.236   0.388   2.451
 6600SOL     OW19757   3.557   1.480   2.944
 6600SOL    HW119758   3.479   1.461   2.891
 6600SOL    HW219759   3.558   1.413   3.011
 6601SOL     OW19760   2.207   0.582   3.149
 6601SOL    HW119761   2.261   0.521   3.200
 6601SOL    HW219762   2.222   0.557   3.058
 6602SOL     OW19763   2.700   1.584   2.532
 6602SOL    HW119764   2.669   1.654   2.474
 6602SOL    HW219765   2.625   1.525   2.541
 6603SOL     OW19766   3.296   0.238   2.973
 6603SOL    HW119767   3.330   0.160   3.018
 6603SOL    HW219768   3.246   0.284   3.040
 6604SOL     OW19769   2.889   0.040   3.017
 6604SOL    HW119770   2.862   9.948   3.017
 6604SOL    HW219771   2.981   0.038   3.040
 6605SOL     OW19772   2.642   1.332   2.190
 6605SOL    HW119773   2.617   1.241   2.203
 6605SOL    HW219774   2.722   1.343   2.242
 6606SOL     OW19775   2.477   1.570   3.151
 6606SOL    HW119776   2.473   1.653   3.197
 6606SOL    HW219777   2.567   1.566   3.117
 6607SOL     OW19778   3.251   0.032   2.042
 6607SOL    HW119779   3.334   9.984   2.048
 6607SOL    HW219780   3.184   9.964   2.051
 6608SOL     OW19781   3.160   0.478   2.537
 6608SOL    HW119782   3.109   0.558   2.538
 6608SOL    HW219783   3.153   0.445   2.627
 6609SOL     OW19784   3.462   0.223   2.743
 6609SOL    HW119785   3.405   0.236   2.819
 6609SOL    HW219786   3.459   0.307   2.697
 6610SOL     OW19787   1.899   1.051   2.170
 6610SOL    HW119788   1.991   1.038   2.150
 6610SOL    HW219789   1.866   0.964   2.191
 6611SOL     OW19790   2.757   1.675   2.191
 6611SOL    HW119791   2.679   1.660   2.139
 6611SOL    HW219792   2.731   1.744   2.253
 6612SOL     OW19793   2.073   0.636   3.876
 6612SOL    HW119794   1.986   0.619   3.913
 6612SOL    HW219795   2.063   0.623   3.782
 6613SOL     OW19796   2.054   0.321   4.759
 6613SOL    HW119797   2.098   0.270   4.826
 6613SOL    HW219798   1.986   0.263   4.725
 6614SOL     OW19799   1.850   0.409   4.363
 6614SOL    HW119800   1.767   0.434   4.405
 6614SOL    HW219801   1.828   0.335   4.308
 6615SOL     OW19802   2.437   1.308   4.933
 6615SOL    HW119803   2.355   1.310   4.885
 6615SOL    HW219804   2.454   1.399   4.957
 6616SOL     OW19805   3.448   1.527   4.429
 6616SOL    HW119806   3.401   1.494   4.505
 6616SOL    HW219807   3.382   1.531   4.360
 6617SOL     OW19808   2.999   0.706   4.411
 6617SOL    HW119809   3.045   0.790   4.400
 6617SOL    HW219810   2.949   0.716   4.492
 6618SOL     OW19811   3.665   0.589   3.941
 6618SOL    HW119812   3.628   0.588   3.853
 6618SOL    HW219813   3.624   0.515   3.986
 6619SOL     OW19814   2.590   1.132   4.782
 6619SOL    HW119815   2.532   1.172   4.846
 6619SOL    HW219816   2.632   1.206   4.738
 6620SOL     OW19817   2.747   0.738   5.551
 6620SOL    HW119818   2.731   0.804   5.618
 6620SOL    HW219819   2.764   0.788   5.471
 6621SOL     OW19820   2.547   0.982   4.369
 6621SOL    HW119821   2.614   0.983   4.437
 6621SOL    HW219822   2.480   1.044   4.400
 6622SOL     OW19823   2.574   1.150   5.558
 6622SOL    HW119824   2.626   1.223   5.593
 6622SOL    HW219825   2.498   1.192   5.517
 6623SOL     OW19826   2.205   1.397   4.794
 6623SOL    HW119827   2.129   1.354   4.754
 6623SOL    HW219828   2.241   1.451   4.724
 6624SOL     OW19829   3.316   1.504   5.097
 6624SOL    HW119830   3.369   1.583   5.110
 6624SOL    HW219831   3.242   1.514   5.158
 6625SOL     OW19832   2.319   0.402   5.181
 6625SOL    HW119833   2.396   0.349   5.198
 6625SOL    HW219834   2.245   0.346   5.202
 6626SOL     OW19835   3.451   0.458   4.468
 6626SOL    HW119836   3.381   0.462   4.403
 6626SOL    HW219837   3.433   0.532   4.527
 6627SOL     OW19838   2.080   1.728   4.188
 6627SOL    HW119839   2.107   1.799   4.247
 6627SOL    HW219840   2.153   1.717   4.128
 6628SOL     OW19841   2.996   1.342   5.421
 6628SOL    HW119842   3.040   1.332   5.505
 6628SOL    HW219843   2.943   1.263   5.412
 6629SOL     OW19844   2.096   1.457   4.257
 6629SOL    HW119845   2.074   1.550   4.261
 6629SOL    HW219846   2.045   1.418   4.328
 6630SOL     OW19847   2.148   1.090   4.603
 6630SOL    HW119848   2.148   1.000   4.637
 6630SOL    HW219849   2.091   1.138   4.664
 6631SOL     OW19850   2.440   1.800   5.150
 6631SOL    HW119851   2.361   1.782   5.202
 6631SOL    HW219852   2.470   1.885   5.182
 6632SOL     OW19853   2.426   0.988   3.877
 6632SOL    HW119854   2.477   1.030   3.808
 6632SOL    HW219855   2.466   1.018   3.958
 6633SOL     OW19856   3.403   0.124   5.179
 6633SOL    HW119857   3.466   0.177   5.130
 6633SOL    HW219858   3.393   0.170   5.262
 6634SOL     OW19859   1.982   0.662   4.290
 6634SOL    HW119860   1.948   0.575   4.312
 6634SOL    HW219861   1.976   0.712   4.372
 6635SOL     OW19862   3.708   1.744   4.041
 6635SOL    HW119863   3.780   1.728   4.101
 6635SOL    HW219864   3.715   1.836   4.018
 6636SOL     OW19865   1.921   1.580   3.835
 6636SOL    HW119866   1.901   1.488   3.853
 6636SOL    HW219867   1.889   1.628   3.911
 6637SOL     OW19868   3.562   0.930   4.376
 6637SOL    HW119869   3.637   0.879   4.345
 6637SOL    HW219870   3.536   0.983   4.300
 6638SOL     OW19871   3.517   1.106   4.156
 6638SOL    HW119872   3.602   1.097   4.113
 6638SOL    HW219873   3.530   1.173   4.222
 6639SOL     OW19874   1.969   0.751   5.294
 6639SOL    HW119875   2.051   0.801   5.293
 6639SOL    HW219876   1.901   0.817   5.277
 6640SOL     OW19877   2.485   1.398   4.455
 6640SOL    HW119878   2.443   1.311   4.460
 6640SOL    HW219879   2.469   1.427   4.365
 6641SOL     OW19880   3.131   1.227   5.141
 6641SOL    HW119881   3.159   1.158   5.081
 6641SOL    HW219882   3.192   1.220   5.215
 6642SOL     OW19883   2.680   0.035   4.262
 6642SOL    HW119884   2.710   0.123   4.240
 6642SOL    HW219885   2.584   0.040   4.258
 6643SOL     OW19886   2.049   0.957   5.027
 6643SOL    HW119887   2.138   0.926   5.009
 6643SOL    HW219888   1.996   0.921   4.955
 6644SOL     OW19889   3.397   1.015   3.923
 6644SOL    HW119890   3.329   0.955   3.952
 6644SOL    HW219891   3.439   1.046   4.003
 6645SOL     OW19892   3.046   1.825   5.362
 6645SOL    HW119893   3.044   1.886   5.288
 6645SOL    HW219894   3.061   1.739   5.321
 6646SOL     OW19895   2.179   0.258   5.495
 6646SOL    HW119896   2.238   0.315   5.545
 6646SOL    HW219897   2.097   0.259   5.544
 6647SOL     OW19898   3.334   1.417   4.653
 6647SOL    HW119899   3.270   1.436   4.722
 6647SOL    HW219900   3.316   1.326   4.629
 6648SOL     OW19901   3.503   1.793   4.287
 6648SOL    HW119902   3.484   1.749   4.204
 6648SOL    HW219903   3.499   1.724   4.353
 6649SOL     OW19904   2.447   0.710   3.998
 6649SOL    HW119905   2.446   0.797   3.958
 6649SOL    HW219906   2.382   0.716   4.068
 6650SOL     OW19907   3.144   0.391   4.662
 6650SOL    HW119908   3.055   0.357   4.670
 6650SOL    HW219909   3.198   0.332   4.715
 6651SOL     OW19910   3.441   1.674   4.043
 6651SOL    HW119911   3.535   1.689   4.031
 6651SOL    HW219912   3.407   1.661   3.954
 6652SOL     OW19913   2.658   0.613   5.168
 6652SOL    HW119914   2.631   0.579   5.253
 6652SOL    HW219915   2.634   0.545   5.106
 6653SOL     OW19916   3.260   0.491   5.402
 6653SOL    HW119917   3.265   0.530   5.490
 6653SOL    HW219918   3.306   0.408   5.411
 6654SOL     OW19919   2.807   0.880   5.318
 6654SOL    HW119920   2.863   0.816   5.273
 6654SOL    HW219921   2.758   0.922   5.247
 6655SOL     OW19922   2.877   0.418   4.933
 6655SOL    HW119923   2.786   0.426   4.961
 6655SOL    HW219924   2.871   0.374   4.848
 6656SOL     OW19925   2.917   0.704   4.144
 6656SOL    HW119926   2.939   0.699   4.237
 6656SOL    HW219927   2.831   0.661   4.137
 6657SOL     OW19928   1.956   0.825   4.509
 6657SOL    HW119929   2.037   0.817   4.559
 6657SOL    HW219930   1.909   0.897   4.551
 6658SOL     OW19931   1.971   1.880   5.311
 6658SOL    HW119932   1.979   1.859   5.405
 6658SOL    HW219933   1.885   1.846   5.286
 6659SOL     OW19934   2.750   0.361   3.929
 6659SOL    HW119935   2.791   0.419   3.865
 6659SOL    HW219936   2.754   0.274   3.889
 6660SOL     OW19937   3.557   0.565   5.558
 6660SOL    HW119938   3.532   0.643   5.510
 6660SOL    HW219939   3.578   0.500   5.490
 6661SOL     OW19940   3.254   1.151   4.268
 6661SOL    HW119941   3.333   1.140   4.215
 6661SOL    HW219942   3.200   1.212   4.218
 6662SOL     OW19943   2.406   0.219   4.651
 6662SOL    HW119944   2.424   0.235   4.744
 6662SOL    HW219945   2.416   0.305   4.610
 6663SOL     OW19946   2.859   1.456   4.189
 6663SOL    HW119947   2.834   1.530   4.134
 6663SOL    HW219948   2.828   1.481   4.276
 6664SOL     OW19949   2.215   1.816   4.604
 6664SOL    HW119950   2.261   1.732   4.608
 6664SOL    HW219951   2.282   1.881   4.625
 6665SOL     OW19952   3.671   1.051   4.607
 6665SOL    HW119953   3.624   1.030   4.526
 6665SOL    HW219954   3.603   1.058   4.673
 6666SOL     OW19955   3.081   1.544   5.241
 6666SOL    HW119956   3.068   1.472   5.303
 6666SOL    HW219957   3.007   1.538   5.181
 6667SOL     OW19958   2.160   0.956   3.988
 6667SOL    HW119959   2.243   0.976   3.944
 6667SOL    HW219960   2.139   0.867   3.958
 6668SOL     OW19961   3.348   0.767   4.435
 6668SOL    HW119962   3.344   0.729   4.523
 6668SOL    HW219963   3.427   0.821   4.435
 6669SOL     OW19964   2.335   1.284   5.471
 6669SOL    HW119965   2.311   1.288   5.379
 6669SOL    HW219966   2.252   1.272   5.517
 6670SOL     OW19967   3.002   1.774   3.952
 6670SOL    HW119968   2.919   1.745   3.990
 6670SOL    HW219969   3.021   1.710   3.884
 6671SOL     OW19970   2.081   0.265   5.232
 6671SOL    HW119971   2.011   0.331   5.234
 6671SOL    HW219972   2.104   0.253   5.324
 6672SOL     OW19973   3.501   1.388   3.826
 6672SOL    HW119974   3.461   1.474   3.812
 6672SOL    HW219975   3.434   1.325   3.799
 6673SOL     OW19976   2.321   1.741   4.039
 6673SOL    HW119977   2.370   1.792   4.104
 6673SOL    HW219978   2.388   1.701   3.985
 6674SOL     OW19979   3.268   0.164   4.142
 6674SOL    HW119980   3.261   0.108   4.065
 6674SOL    HW219981   3.359   0.155   4.169
 6675SOL     OW19982   2.113   1.789   4.938
 6675SOL    HW119983   2.161   1.713   4.971
 6675SOL    HW219984   2.096   1.768   4.846
 6676SOL     OW19985   2.809   1.703   4.614
 6676SOL    HW119986   2.894   1.660   4.628
 6676SOL    HW219987   2.770   1.652   4.542
 6677SOL     OW19988   2.256   0.688   4.199
 6677SOL    HW119989   2.272   0.595   4.211
 6677SOL    HW219990   2.163   0.699   4.217
 6678SOL     OW19991   3.365   0.230   5.444
 6678SOL    HW119992   3.380   0.250   5.536
 6678SOL    HW219993   3.293   0.166   5.444
 6679SOL     OW19994   2.505   0.106   3.831
 6679SOL    HW119995   2.541   0.031   3.879
 6679SOL    HW219996   2.443   0.067   3.769
 6680SOL     OW19997   2.621   0.266   5.494
 6680SOL    HW119998   2.696   0.208   5.483
 6680SOL    HW219999   2.573   0.230   5.568
 6681SOL     OW20000   2.731   1.528   4.923
 6681SOL    HW120001   2.713   1.487   4.838
 6681SOL    HW220002   2.798   1.471   4.962
 6682SOL     OW20003   3.199   0.594   5.155
 6682SOL    HW120004   3.231   0.567   5.242
 6682SOL    HW220005   3.232   0.683   5.144
 6683SOL     OW20006   2.678   1.378   4.680
 6683SOL    HW120007   2.765   1.373   4.641
 6683SOL    HW220008   2.620   1.392   4.605
 6684SOL     OW20009   2.797   0.521   4.617
 6684SOL    HW120010   2.769   0.511   4.526
 6684SOL    HW220011   2.820   0.433   4.645
 6685SOL     OW20012   2.413   0.061   4.218
 6685SOL    HW120013   2.332   0.044   4.265
 6685SOL    HW220014   2.391   0.130   4.155
 6686SOL     OW20015   3.297   1.213   3.756
 6686SOL    HW120016   3.326   1.139   3.809
 6686SOL    HW220017   3.211   1.236   3.792
 6687SOL     OW20018   2.158   0.069   3.945
 6687SOL    HW120019   2.228   0.132   3.964
 6687SOL    HW220020   2.189   9.987   3.985
 6688SOL     OW20021   2.800   0.271   4.186
 6688SOL    HW120022   2.774   0.304   4.100
 6688SOL    HW220023   2.894   0.288   4.190
 6689SOL     OW20024   2.940   0.693   5.169
 6689SOL    HW120025   2.874   0.624   5.178
 6689SOL    HW220026   3.023   0.646   5.166
 6690SOL     OW20027   3.068   1.588   4.527
 6690SOL    HW120028   3.082   1.648   4.453
 6690SOL    HW220029   3.140   1.608   4.587
 6691SOL     OW20030   2.344   1.161   4.431
 6691SOL    HW120031   2.282   1.137   4.500
 6691SOL    HW220032   2.294   1.154   4.350
 6692SOL     OW20033   3.113   1.792   4.341
 6692SOL    HW120034   3.163   1.855   4.288
 6692SOL    HW220035   3.042   1.844   4.379
 6693SOL     OW20036   2.899   0.518   3.753
 6693SOL    HW120037   2.852   0.598   3.731
 6693SOL    HW220038   2.957   0.545   3.825
 6694SOL     OW20039   1.963   0.537   5.121
 6694SOL    HW120040   2.052   0.550   5.088
 6694SOL    HW220041   1.950   0.608   5.183
 6695SOL     OW20042   2.429   0.238   4.927
 6695SOL    HW120043   2.471   0.191   5.000
 6695SOL    HW220044   2.335   0.226   4.942
 6696SOL     OW20045   2.726   0.475   4.362
 6696SOL    HW120046   2.682   0.530   4.297
 6696SOL    HW220047   2.747   0.395   4.314
 6697SOL     OW20048   2.826   0.063   4.512
 6697SOL    HW120049   2.772   0.050   4.434
 6697SOL    HW220050   2.837   9.975   4.548
 6698SOL     OW20051   3.296   1.153   4.578
 6698SOL    HW120052   3.226   1.088   4.589
 6698SOL    HW220053   3.307   1.159   4.483
 6699SOL     OW20054   3.319   0.624   4.675
 6699SOL    HW120055   3.258   0.550   4.680
 6699SOL    HW220056   3.373   0.616   4.753
 6700SOL     OW20057   3.687   0.798   4.116
 6700SOL    HW120058   3.750   0.754   4.174
 6700SOL    HW220059   3.675   0.737   4.043
 6701SOL     OW20060   2.360   1.424   3.873
 6701SOL    HW120061   2.285   1.392   3.924
 6701SOL    HW220062   2.356   1.375   3.791
 6702SOL     OW20063   3.565   1.278   4.353
 6702SOL    HW120064   3.658   1.273   4.372
 6702SOL    HW220065   3.540   1.366   4.379
 6703SOL     OW20066   3.256   0.577   3.798
 6703SOL    HW120067   3.198   0.556   3.871
 6703SOL    HW220068   3.343   0.549   3.828
 6704SOL     OW20069   2.362   0.250   4.019
 6704SOL    HW120070   2.427   0.214   3.959
 6704SOL    HW220071   2.340   0.336   3.982
 6705SOL     OW20072   3.597   1.237   5.258
 6705SOL    HW120073   3.686   1.202   5.249
 6705SOL    HW220074   3.608   1.325   5.293
 6706SOL     OW20075   2.901   1.353   5.057
 6706SOL    HW120076   2.824   1.319   5.102
 6706SOL    HW220077   2.975   1.310   5.099
 6707SOL     OW20078   3.468   1.635   5.397
 6707SOL    HW120079   3.456   1.671   5.310
 6707SOL    HW220080   3.543   1.575   5.388
 6708SOL     OW20081   3.014   1.240   4.828
 6708SOL    HW120082   2.952   1.272   4.893
 6708SOL    HW220083   2.980   1.271   4.745
 6709SOL     OW20084   3.477   1.093   4.797
 6709SOL    HW120085   3.467   1.159   4.867
 6709SOL    HW220086   3.406   1.113   4.736
 6710SOL     OW20087   2.749   0.163   5.095
 6710SOL    HW120088   2.774   0.118   5.014
 6710SOL    HW220089   2.832   0.186   5.136
 6711SOL     OW20090   2.842   1.115   5.449
 6711SOL    HW120091   2.751   1.131   5.476
 6711SOL    HW220092   2.837   1.034   5.398
 6712SOL     OW20093   2.574   1.063   4.101
 6712SOL    HW120094   2.559   1.035   4.192
 6712SOL    HW220095   2.648   1.011   4.072
 6713SOL     OW20096   2.293   0.839   4.983
 6713SOL    HW120097   2.360   0.843   5.051
 6713SOL    HW220098   2.258   0.750   4.990
 6714SOL     OW20099   3.134   0.375   5.007
 6714SOL    HW120100   3.163   0.452   5.055
 6714SOL    HW220101   3.045   0.396   4.978
 6715SOL     OW20102   1.939   1.569   5.087
 6715SOL    HW120103   1.908   1.640   5.031
 6715SOL    HW220104   2.034   1.570   5.076
 6716SOL     OW20105   2.179   1.133   4.210
 6716SOL    HW120106   2.180   1.204   4.146
 6716SOL    HW220107   2.176   1.053   4.157
 6717SOL     OW20108   2.422   0.491   4.576
 6717SOL    HW120109   2.427   0.546   4.497
 6717SOL    HW220110   2.481   0.533   4.638
 6718SOL     OW20111   3.109   1.354   4.123
 6718SOL    HW120112   3.165   1.424   4.156
 6718SOL    HW220113   3.021   1.378   4.153
 6719SOL     OW20114   3.172   1.469   4.866
 6719SOL    HW120115   3.218   1.474   4.950
 6719SOL    HW220116   3.120   1.389   4.872
 6720SOL     OW20117   3.435   0.624   4.205
 6720SOL    HW120118   3.385   0.666   4.275
 6720SOL    HW220119   3.484   0.696   4.165
 6721SOL     OW20120   2.206   1.534   5.025
 6721SOL    HW120121   2.199   1.481   4.946
 6721SOL    HW220122   2.300   1.550   5.035
 6722SOL     OW20123   2.305   0.729   5.349
 6722SOL    HW120124   2.356   0.778   5.284
 6722SOL    HW220125   2.356   0.649   5.363
 6723SOL     OW20126   3.491   0.788   5.421
 6723SOL    HW120127   3.402   0.825   5.413
 6723SOL    HW220128   3.539   0.826   5.348
 6724SOL     OW20129   2.824   0.078   5.497
 6724SOL    HW120130   2.893   0.131   5.539
 6724SOL    HW220131   2.866   0.041   5.419
 6725SOL     OW20132   2.333   0.022   5.491
 6725SOL    HW120133   2.390   0.013   5.414
 6725SOL    HW220134   2.285   0.103   5.475
 6726SOL     OW20135   2.454   0.881   4.761
 6726SOL    HW120136   2.493   0.968   4.765
 6726SOL    HW220137   2.397   0.876   4.837
 6727SOL     OW20138   3.168   0.858   4.726
 6727SOL    HW120139   3.078   0.832   4.703
 6727SOL    HW220140   3.220   0.780   4.710
 6728SOL     OW20141   3.055   0.530   3.983
 6728SOL    HW120142   3.064   0.457   4.044
 6728SOL    HW220143   3.014   0.599   4.035
 6729SOL     OW20144   2.162   0.180   4.980
 6729SOL    HW120145   2.128   0.211   5.063
 6729SOL    HW220146   2.173   0.086   4.991
 6730SOL     OW20147   1.912   1.312   4.990
 6730SOL    HW120148   1.941   1.256   5.062
 6730SOL    HW220149   1.914   1.401   5.026
 6731SOL     OW20150   2.573   0.629   4.758
 6731SOL    HW120151   2.653   0.625   4.705
 6731SOL    HW220152   2.541   0.719   4.748
 6732SOL     OW20153   3.613   0.971   5.592
 6732SOL    HW120154   3.574   0.898   5.544
 6732SOL    HW220155   3.549   0.991   5.662
 6733SOL     OW20156   2.160   0.063   4.351
 6733SOL    HW120157   2.140   0.157   4.353
 6733SOL    HW220158   2.174   0.040   4.443
 6734SOL     OW20159   3.499   0.397   4.064
 6734SOL    HW120160   3.537   0.333   4.123
 6734SOL    HW220161   3.468   0.468   4.121
 6735SOL     OW20162   2.898   0.764   4.683
 6735SOL    HW120163   2.876   0.779   4.775
 6735SOL    HW220164   2.870   0.674   4.666
 6736SOL     OW20165   2.843   1.568   5.456
 6736SOL    HW120166   2.823   1.609   5.373
 6736SOL    HW220167   2.880   1.483   5.433
 6737SOL     OW20168   3.695   1.488   5.324
 6737SOL    HW120169   3.722   1.523   5.239
 6737SOL    HW220170   3.771   1.501   5.381
 6738SOL     OW20171   2.212   0.913   5.533
 6738SOL    HW120172   2.287   0.932   5.589
 6738SOL    HW220173   2.244   0.846   5.472
 6739SOL     OW20174   3.378   0.280   3.843
 6739SOL    HW120175   3.339   0.200   3.880
 6739SOL    HW220176   3.424   0.320   3.917
 6740SOL     OW20177   3.144   0.822   3.744
 6740SOL    HW120178   3.186   0.736   3.753
 6740SOL    HW220179   3.179   0.858   3.663
 6741SOL     OW20180   2.932   1.354   4.590
 6741SOL    HW120181   2.943   1.281   4.529
 6741SOL    HW220182   2.984   1.425   4.552
 6742SOL     OW20183   2.184   0.815   4.668
 6742SOL    HW120184   2.277   0.834   4.665
 6742SOL    HW220185   2.178   0.724   4.699
 6743SOL     OW20186   2.211   0.543   4.739
 6743SOL    HW120187   2.154   0.467   4.735
 6743SOL    HW220188   2.281   0.524   4.677
 6744SOL     OW20189   2.997   0.409   5.376
 6744SOL    HW120190   2.951   0.444   5.452
 6744SOL    HW220191   3.085   0.446   5.383
 6745SOL     OW20192   3.004   0.209   5.191
 6745SOL    HW120193   2.995   0.272   5.262
 6745SOL    HW220194   3.059   0.253   5.126
 6746SOL     OW20195   1.886   1.303   3.904
 6746SOL    HW120196   1.797   1.325   3.878
 6746SOL    HW220197   1.879   1.216   3.944
 6747SOL     OW20198   1.956   1.769   4.677
 6747SOL    HW120199   1.921   1.696   4.625
 6747SOL    HW220200   2.042   1.787   4.639
 6748SOL     OW20201   2.347   1.570   4.625
 6748SOL    HW120202   2.417   1.631   4.647
 6748SOL    HW220203   2.387   1.508   4.564
 6749SOL     OW20204   2.813   0.785   4.941
 6749SOL    HW120205   2.873   0.769   5.013
 6749SOL    HW220206   2.733   0.737   4.965
 6750SOL     OW20207   1.879   0.523   4.853
 6750SOL    HW120208   1.937   0.463   4.806
 6750SOL    HW220209   1.922   0.537   4.937
 6751SOL     OW20210   2.047   0.556   5.472
 6751SOL    HW120211   2.132   0.547   5.429
 6751SOL    HW220212   2.001   0.622   5.421
 6752SOL     OW20213   3.254   0.919   5.376
 6752SOL    HW120214   3.269   1.013   5.371
 6752SOL    HW220215   3.245   0.892   5.284
 6753SOL     OW20216   2.675   0.581   4.098
 6753SOL    HW120217   2.681   0.505   4.040
 6753SOL    HW220218   2.598   0.628   4.067
 6754SOL     OW20219   3.487   0.606   4.892
 6754SOL    HW120220   3.467   0.550   4.967
 6754SOL    HW220221   3.575   0.580   4.865
 6755SOL     OW20222   2.088   1.540   5.447
 6755SOL    HW120223   2.064   1.589   5.525
 6755SOL    HW220224   2.100   1.450   5.478
 6756SOL     OW20225   2.601   0.451   4.960
 6756SOL    HW120226   2.539   0.379   4.949
 6756SOL    HW220227   2.581   0.511   4.888
 6757SOL     OW20228   2.778   1.676   5.205
 6757SOL    HW120229   2.750   1.630   5.125
 6757SOL    HW220230   2.775   1.769   5.181
 6758SOL     OW20231   2.307   0.488   3.896
 6758SOL    HW120232   2.369   0.556   3.921
 6758SOL    HW220233   2.222   0.532   3.897
 6759SOL     OW20234   1.992   1.151   5.205
 6759SOL    HW120235   1.996   1.112   5.292
 6759SOL    HW220236   2.013   1.080   5.145
 6760SOL     OW20237   3.168   1.038   4.931
 6760SOL    HW120238   3.175   0.974   4.861
 6760SOL    HW220239   3.114   1.108   4.895
 6761SOL     OW20240   3.188   0.862   4.017
 6761SOL    HW120241   3.115   0.832   4.071
 6761SOL    HW220242   3.158   0.847   3.927
 6762SOL     OW20243   3.649   1.717   4.899
 6762SOL    HW120244   3.709   1.744   4.830
 6762SOL    HW220245   3.613   1.634   4.868
 6763SOL     OW20246   3.102   1.734   4.816
 6763SOL    HW120247   3.185   1.763   4.780
 6763SOL    HW220248   3.117   1.643   4.840
 6764SOL     OW20249   1.969   1.248   4.733
 6764SOL    HW120250   1.940   1.269   4.822
 6764SOL    HW220251   1.898   1.194   4.697
 6765SOL     OW20252   2.547   1.683   5.474
 6765SOL    HW120253   2.483   1.753   5.462
 6765SOL    HW220254   2.621   1.708   5.419
 6766SOL     OW20255   3.626   0.187   4.208
 6766SOL    HW120256   3.679   0.188   4.128
 6766SOL    HW220257   3.659   0.113   4.258
 6767SOL     OW20258   3.259   1.571   4.227
 6767SOL    HW120259   3.313   1.605   4.156
 6767SOL    HW220260   3.203   1.644   4.252
 6768SOL     OW20261   1.996   1.806   5.568
 6768SOL    HW120262   1.955   1.730   5.609
 6768SOL    HW220263   2.046   1.848   5.638
 6769SOL     OW20264   3.140   0.937   4.387
 6769SOL    HW120265   3.214   0.878   4.400
 6769SOL    HW220266   3.176   1.009   4.335
 6770SOL     OW20267   2.644   1.280   5.138
 6770SOL    HW120268   2.618   1.328   5.217
 6770SOL    HW220269   2.570   1.290   5.079
 6771SOL     OW20270   2.530   1.635   3.883
 6771SOL    HW120271   2.545   1.650   3.789
 6771SOL    HW220272   2.478   1.555   3.887
 6772SOL     OW20273   3.477   1.729   5.127
 6772SOL    HW120274   3.531   1.729   5.049
 6772SOL    HW220275   3.462   1.822   5.147
 6773SOL     OW20276   3.714   0.153   4.686
 6773SOL    HW120277   3.744   0.078   4.635
 6773SOL    HW220278   3.628   0.174   4.649
 6774SOL     OW20279   2.106   0.323   4.426
 6774SOL    HW120280   2.019   0.359   4.409
 6774SOL    HW220281   2.110   0.315   4.522
 6775SOL     OW20282   3.072   1.589   3.762
 6775SOL    HW120283   3.062   1.497   3.790
 6775SOL    HW220284   3.003   1.602   3.698
 6776SOL     OW20285   2.685   1.011   5.111
 6776SOL    HW120286   2.723   1.001   5.023
 6776SOL    HW220287   2.674   1.105   5.121
 6777SOL     OW20288   2.780   0.915   4.017
 6777SOL    HW120289   2.838   0.947   3.948
 6777SOL    HW220290   2.832   0.848   4.061
 6778SOL     OW20291   3.346   1.644   3.782
 6778SOL    HW120292   3.254   1.624   3.765
 6778SOL    HW220293   3.386   1.647   3.695
 6779SOL     OW20294   2.225   1.313   5.225
 6779SOL    HW120295   2.217   1.387   5.164
 6779SOL    HW220296   2.147   1.260   5.209
 6780SOL     OW20297   3.465   1.290   5.003
 6780SOL    HW120298   3.515   1.262   5.080
 6780SOL    HW220299   3.404   1.356   5.036
 6781SOL     OW20300   2.939   1.120   4.454
 6781SOL    HW120301   2.863   1.071   4.485
 6781SOL    HW220302   3.000   1.053   4.424
 6782SOL     OW20303   2.886   0.256   4.699
 6782SOL    HW120304   2.868   0.208   4.619
 6782SOL    HW220305   2.882   0.190   4.768
 6783SOL     OW20306   2.467   1.487   4.200
 6783SOL    HW120307   2.521   1.438   4.138
 6783SOL    HW220308   2.384   1.502   4.154
 6784SOL     OW20309   3.602   0.370   5.110
 6784SOL    HW120310   3.676   0.430   5.098
 6784SOL    HW220311   3.617   0.302   5.044
 6785SOL     OW20312   2.142   1.340   4.023
 6785SOL    HW120313   2.055   1.333   3.984
 6785SOL    HW220314   2.128   1.388   4.104
 6786SOL     OW20315   1.984   1.047   5.460
 6786SOL    HW120316   1.907   1.019   5.509
 6786SOL    HW220317   2.055   0.994   5.494
 6787SOL     OW20318   2.524   0.230   5.232
 6787SOL    HW120319   2.603   0.204   5.184
 6787SOL    HW220320   2.555   0.247   5.321
 6788SOL     OW20321   1.934   0.336   3.739
 6788SOL    HW120322   1.852   0.327   3.690
 6788SOL    HW220323   1.969   0.420   3.711
 6789SOL     OW20324   3.277   0.857   5.111
 6789SOL    HW120325   3.224   0.915   5.057
 6789SOL    HW220326   3.365   0.861   5.072
 6790SOL     OW20327   1.922   0.201   3.990
 6790SOL    HW120328   1.920   0.256   3.912
 6790SOL    HW220329   2.000   0.147   3.978
 6791SOL     OW20330   3.044   1.322   3.847
 6791SOL    HW120331   2.953   1.293   3.845
 6791SOL    HW220332   3.067   1.325   3.940
 6792SOL     OW20333   2.490   0.829   5.167
 6792SOL    HW120334   2.548   0.904   5.155
 6792SOL    HW220335   2.549   0.753   5.170
 6793SOL     OW20336   3.345   1.802   4.710
 6793SOL    HW120337   3.370   1.879   4.659
 6793SOL    HW220338   3.426   1.754   4.723
 6794SOL     OW20339   2.581   0.541   5.419
 6794SOL    HW120340   2.628   0.598   5.479
 6794SOL    HW220341   2.596   0.453   5.454
 6795SOL     OW20342   3.328   1.183   5.345
 6795SOL    HW120343   3.319   1.205   5.437
 6795SOL    HW220344   3.418   1.206   5.323
 6796SOL     OW20345   2.216   1.747   5.304
 6796SOL    HW120346   2.134   1.793   5.285
 6796SOL    HW220347   2.188   1.664   5.341
 6797SOL     OW20348   3.518   0.877   4.975
 6797SOL    HW120349   3.513   0.792   4.931
 6797SOL    HW220350   3.507   0.941   4.905
 6798SOL     OW20351   3.069   0.339   4.182
 6798SOL    HW120352   3.136   0.273   4.167
 6798SOL    HW220353   3.099   0.388   4.258
 6799SOL     OW20354   2.445   0.718   4.404
 6799SOL    HW120355   2.486   0.803   4.392
 6799SOL    HW220356   2.379   0.712   4.335
 6800SOL     OW20357   3.602   0.357   5.383
 6800SOL    HW120358   3.601   0.368   5.288
 6800SOL    HW220359   3.523   0.306   5.401
 6801SOL     OW20360   3.621   0.928   5.224
 6801SOL    HW120361   3.596   1.019   5.239
 6801SOL    HW220362   3.593   0.910   5.135
 6802SOL     OW20363   2.735   1.357   3.787
 6802SOL    HW120364   2.696   1.375   3.873
 6802SOL    HW220365   2.744   1.443   3.746
 6803SOL     OW20366   2.530   1.767   4.650
 6803SOL    HW120367   2.510   1.860   4.642
 6803SOL    HW220368   2.626   1.762   4.648
 6804SOL     OW20369   2.735   0.978   4.580
 6804SOL    HW120370   2.785   0.906   4.616
 6804SOL    HW220371   2.689   1.016   4.656
 6805SOL     OW20372   2.938   0.988   3.812
 6805SOL    HW120373   2.915   1.040   3.735
 6805SOL    HW220374   3.010   0.932   3.783
 6806SOL     OW20375   3.687   1.564   4.570
 6806SOL    HW120376   3.614   1.554   4.509
 6806SOL    HW220377   3.663   1.510   4.645
 6807SOL     OW20378   2.075   1.286   5.560
 6807SOL    HW120379   2.043   1.206   5.517
 6807SOL    HW220380   2.016   1.298   5.635
 6808SOL     OW20381   1.979   1.226   4.391
 6808SOL    HW120382   2.009   1.184   4.472
 6808SOL    HW220383   2.038   1.191   4.324
 6809SOL     OW20384   2.553   1.419   5.358
 6809SOL    HW120385   2.475   1.380   5.398
 6809SOL    HW220386   2.556   1.508   5.394
 6810SOL     OW20387   3.624   0.148   4.951
 6810SOL    HW120388   3.573   0.068   4.944
 6810SOL    HW220389   3.667   0.157   4.866
 6811SOL     OW20390   2.292   0.427   4.246
 6811SOL    HW120391   2.316   0.354   4.189
 6811SOL    HW220392   2.236   0.388   4.313
 6812SOL     OW20393   3.555   1.476   4.806
 6812SOL    HW120394   3.477   1.458   4.753
 6812SOL    HW220395   3.553   1.410   4.875
 6813SOL     OW20396   2.207   0.582   5.011
 6813SOL    HW120397   2.261   0.521   5.062
 6813SOL    HW220398   2.222   0.557   4.920
 6814SOL     OW20399   2.700   1.585   4.393
 6814SOL    HW120400   2.670   1.655   4.335
 6814SOL    HW220401   2.624   1.527   4.401
 6815SOL     OW20402   3.296   0.238   4.835
 6815SOL    HW120403   3.328   0.159   4.879
 6815SOL    HW220404   3.246   0.284   4.902
 6816SOL     OW20405   2.888   0.039   4.879
 6816SOL    HW120406   2.860   9.948   4.878
 6816SOL    HW220407   2.981   0.036   4.903
 6817SOL     OW20408   2.642   1.332   4.052
 6817SOL    HW120409   2.616   1.241   4.065
 6817SOL    HW220410   2.722   1.343   4.104
 6818SOL     OW20411   2.477   1.569   5.013
 6818SOL    HW120412   2.473   1.652   5.060
 6818SOL    HW220413   2.567   1.565   4.979
 6819SOL     OW20414   3.250   0.032   3.903
 6819SOL    HW120415   3.334   9.985   3.909
 6819SOL    HW220416   3.184   9.964   3.913
 6820SOL     OW20417   3.161   0.478   4.399
 6820SOL    HW120418   3.109   0.558   4.399
 6820SOL    HW220419   3.154   0.444   4.489
 6821SOL     OW20420   3.462   0.223   4.605
 6821SOL    HW120421   3.405   0.236   4.681
 6821SOL    HW220422   3.459   0.307   4.559
 6822SOL     OW20423   1.899   1.051   4.032
 6822SOL    HW120424   1.991   1.038   4.012
 6822SOL    HW220425   1.866   0.964   4.053
 6823SOL     OW20426   2.756   1.675   4.053
 6823SOL    HW120427   2.678   1.659   4.001
 6823SOL    HW220428   2.731   1.744   4.115
 6824SOL     OW20429   2.073   0.636   5.738
 6824SOL    HW120430   1.987   0.619   5.775
 6824SOL    HW220431   2.063   0.622   5.644
 6825SOL     OW20432   2.054   0.321   6.621
 6825SOL    HW120433   2.099   0.270   6.688
 6825SOL    HW220434   1.986   0.263   6.587
 6826SOL     OW20435   1.850   0.409   6.225
 6826SOL    HW120436   1.767   0.434   6.267
 6826SOL    HW220437   1.828   0.335   6.170
 6827SOL     OW20438   2.437   1.308   6.795
 6827SOL    HW120439   2.355   1.311   6.747
 6827SOL    HW220440   2.454   1.400   6.819
 6828SOL     OW20441   3.449   1.524   6.291
 6828SOL    HW120442   3.403   1.493   6.369
 6828SOL    HW220443   3.382   1.528   6.223
 6829SOL     OW20444   2.999   0.706   6.273
 6829SOL    HW120445   3.044   0.789   6.262
 6829SOL    HW220446   2.949   0.716   6.354
 6830SOL     OW20447   3.668   0.588   5.802
 6830SOL    HW120448   3.631   0.586   5.714
 6830SOL    HW220449   3.626   0.515   5.847
 6831SOL     OW20450   2.590   1.132   6.643
 6831SOL    HW120451   2.531   1.172   6.708
 6831SOL    HW220452   2.632   1.206   6.600
 6832SOL     OW20453   2.747   0.737   7.412
 6832SOL    HW120454   2.732   0.804   7.480
 6832SOL    HW220455   2.765   0.788   7.333
 6833SOL     OW20456   2.547   0.982   6.231
 6833SOL    HW120457   2.614   0.983   6.299
 6833SOL    HW220458   2.481   1.044   6.262
 6834SOL     OW20459   2.573   1.149   7.419
 6834SOL    HW120460   2.625   1.222   7.454
 6834SOL    HW220461   2.497   1.191   7.378
 6835SOL     OW20462   2.205   1.397   6.656
 6835SOL    HW120463   2.129   1.354   6.616
 6835SOL    HW220464   2.241   1.452   6.586
 6836SOL     OW20465   3.316   1.506   6.958
 6836SOL    HW120466   3.370   1.584   6.971
 6836SOL    HW220467   3.244   1.517   7.020
 6837SOL     OW20468   2.319   0.402   7.042
 6837SOL    HW120469   2.396   0.349   7.060
 6837SOL    HW220470   2.245   0.345   7.064
 6838SOL     OW20471   3.451   0.459   6.331
 6838SOL    HW120472   3.380   0.463   6.267
 6838SOL    HW220473   3.432   0.531   6.391
 6839SOL     OW20474   2.080   1.728   6.051
 6839SOL    HW120475   2.106   1.799   6.109
 6839SOL    HW220476   2.153   1.717   5.991
 6840SOL     OW20477   2.997   1.342   7.283
 6840SOL    HW120478   3.042   1.331   7.367
 6840SOL    HW220479   2.943   1.263   7.274
 6841SOL     OW20480   2.096   1.457   6.119
 6841SOL    HW120481   2.074   1.550   6.123
 6841SOL    HW220482   2.046   1.418   6.190
 6842SOL     OW20483   2.148   1.090   6.465
 6842SOL    HW120484   2.148   1.000   6.498
 6842SOL    HW220485   2.091   1.138   6.526
 6843SOL     OW20486   2.437   1.803   7.008
 6843SOL    HW120487   2.360   1.783   7.062
 6843SOL    HW220488   2.469   1.887   7.041
 6844SOL     OW20489   2.426   0.987   5.739
 6844SOL    HW120490   2.477   1.030   5.670
 6844SOL    HW220491   2.466   1.018   5.820
 6845SOL     OW20492   3.403   0.124   7.040
 6845SOL    HW120493   3.467   0.177   6.991
 6845SOL    HW220494   3.394   0.169   7.124
 6846SOL     OW20495   1.982   0.662   6.152
 6846SOL    HW120496   1.948   0.576   6.174
 6846SOL    HW220497   1.976   0.712   6.234
 6847SOL     OW20498   3.708   1.741   5.902
 6847SOL    HW120499   3.779   1.726   5.964
 6847SOL    HW220500   3.714   1.834   5.880
 6848SOL     OW20501   1.921   1.580   5.696
 6848SOL    HW120502   1.900   1.488   5.715
 6848SOL    HW220503   1.889   1.628   5.773
 6849SOL     OW20504   3.561   0.928   6.241
 6849SOL    HW120505   3.642   0.882   6.218
 6849SOL    HW220506   3.539   0.979   6.163
 6850SOL     OW20507   3.519   1.105   6.019
 6850SOL    HW120508   3.604   1.096   5.975
 6850SOL    HW220509   3.534   1.172   6.086
 6851SOL     OW20510   1.969   0.751   7.156
 6851SOL    HW120511   2.051   0.801   7.155
 6851SOL    HW220512   1.901   0.817   7.139
 6852SOL     OW20513   2.485   1.398   6.316
 6852SOL    HW120514   2.444   1.312   6.321
 6852SOL    HW220515   2.469   1.427   6.226
 6853SOL     OW20516   3.132   1.227   7.003
 6853SOL    HW120517   3.160   1.157   6.943
 6853SOL    HW220518   3.194   1.221   7.076
 6854SOL     OW20519   2.680   0.035   6.123
 6854SOL    HW120520   2.710   0.123   6.101
 6854SOL    HW220521   2.584   0.040   6.120
 6855SOL     OW20522   2.048   0.957   6.889
 6855SOL    HW120523   2.137   0.926   6.871
 6855SOL    HW220524   1.996   0.921   6.817
 6856SOL     OW20525   3.398   1.016   5.785
 6856SOL    HW120526   3.329   0.956   5.815
 6856SOL    HW220527   3.440   1.046   5.866
 6857SOL     OW20528   3.043   1.823   7.222
 6857SOL    HW120529   3.043   1.885   7.149
 6857SOL    HW220530   3.059   1.738   7.182
 6858SOL     OW20531   2.180   0.258   7.358
 6858SOL    HW120532   2.239   0.316   7.407
 6858SOL    HW220533   2.098   0.259   7.407
 6859SOL     OW20534   3.335   1.416   6.517
 6859SOL    HW120535   3.271   1.436   6.585
 6859SOL    HW220536   3.316   1.325   6.493
 6860SOL     OW20537   3.502   1.794   6.149
 6860SOL    HW120538   3.482   1.748   6.067
 6860SOL    HW220539   3.500   1.725   6.216
 6861SOL     OW20540   2.446   0.710   5.860
 6861SOL    HW120541   2.446   0.797   5.820
 6861SOL    HW220542   2.382   0.716   5.930
 6862SOL     OW20543   3.144   0.390   6.524
 6862SOL    HW120544   3.055   0.356   6.532
 6862SOL    HW220545   3.198   0.332   6.577
 6863SOL     OW20546   3.440   1.673   5.906
 6863SOL    HW120547   3.534   1.688   5.894
 6863SOL    HW220548   3.407   1.660   5.817
 6864SOL     OW20549   2.656   0.614   7.030
 6864SOL    HW120550   2.629   0.580   7.115
 6864SOL    HW220551   2.633   0.545   6.967
 6865SOL     OW20552   3.259   0.491   7.264
 6865SOL    HW120553   3.265   0.530   7.351
 6865SOL    HW220554   3.306   0.408   7.272
 6866SOL     OW20555   2.807   0.880   7.180
 6866SOL    HW120556   2.864   0.816   7.135
 6866SOL    HW220557   2.758   0.922   7.109
 6867SOL     OW20558   2.876   0.417   6.795
 6867SOL    HW120559   2.785   0.426   6.823
 6867SOL    HW220560   2.871   0.374   6.710
 6868SOL     OW20561   2.916   0.704   6.006
 6868SOL    HW120562   2.938   0.699   6.099
 6868SOL    HW220563   2.831   0.661   6.000
 6869SOL     OW20564   1.956   0.825   6.371
 6869SOL    HW120565   2.037   0.818   6.421
 6869SOL    HW220566   1.909   0.898   6.413
 6870SOL     OW20567   1.972   1.879   7.173
 6870SOL    HW120568   1.979   1.859   7.267
 6870SOL    HW220569   1.886   1.845   7.148
 6871SOL     OW20570   2.748   0.361   5.791
 6871SOL    HW120571   2.791   0.417   5.727
 6871SOL    HW220572   2.744   0.275   5.749
 6872SOL     OW20573   3.553   0.565   7.422
 6872SOL    HW120574   3.529   0.643   7.373
 6872SOL    HW220575   3.575   0.500   7.354
 6873SOL     OW20576   3.255   1.151   6.131
 6873SOL    HW120577   3.335   1.140   6.079
 6873SOL    HW220578   3.202   1.212   6.080
 6874SOL     OW20579   2.404   0.220   6.513
 6874SOL    HW120580   2.423   0.235   6.606
 6874SOL    HW220581   2.415   0.306   6.472
 6875SOL     OW20582   2.859   1.456   6.051
 6875SOL    HW120583   2.834   1.530   5.996
 6875SOL    HW220584   2.829   1.480   6.138
 6876SOL     OW20585   2.215   1.816   6.466
 6876SOL    HW120586   2.261   1.732   6.470
 6876SOL    HW220587   2.282   1.880   6.488
 6877SOL     OW20588   3.667   1.047   6.475
 6877SOL    HW120589   3.619   1.029   6.394
 6877SOL    HW220590   3.598   1.056   6.542
 6878SOL     OW20591   3.080   1.544   7.103
 6878SOL    HW120592   3.069   1.472   7.166
 6878SOL    HW220593   3.010   1.530   7.039
 6879SOL     OW20594   2.160   0.956   5.850
 6879SOL    HW120595   2.243   0.976   5.806
 6879SOL    HW220596   2.139   0.867   5.821
 6880SOL     OW20597   3.346   0.767   6.297
 6880SOL    HW120598   3.343   0.729   6.385
 6880SOL    HW220599   3.425   0.820   6.297
 6881SOL     OW20600   2.335   1.284   7.333
 6881SOL    HW120601   2.311   1.288   7.241
 6881SOL    HW220602   2.252   1.272   7.379
 6882SOL     OW20603   3.001   1.776   5.813
 6882SOL    HW120604   2.919   1.746   5.852
 6882SOL    HW220605   3.021   1.711   5.745
 6883SOL     OW20606   2.081   0.265   7.095
 6883SOL    HW120607   2.011   0.331   7.096
 6883SOL    HW220608   2.104   0.253   7.186
 6884SOL     OW20609   3.500   1.387   5.681
 6884SOL    HW120610   3.459   1.472   5.672
 6884SOL    HW220611   3.432   1.324   5.657
 6885SOL     OW20612   2.320   1.742   5.901
 6885SOL    HW120613   2.369   1.792   5.966
 6885SOL    HW220614   2.388   1.701   5.847
 6886SOL     OW20615   3.269   0.164   6.002
 6886SOL    HW120616   3.262   0.107   5.926
 6886SOL    HW220617   3.358   0.152   6.034
 6887SOL     OW20618   2.113   1.789   6.801
 6887SOL    HW120619   2.162   1.713   6.835
 6887SOL    HW220620   2.098   1.768   6.708
 6888SOL     OW20621   2.810   1.703   6.476
 6888SOL    HW120622   2.894   1.661   6.492
 6888SOL    HW220623   2.771   1.652   6.405
 6889SOL     OW20624   2.256   0.688   6.061
 6889SOL    HW120625   2.272   0.595   6.072
 6889SOL    HW220626   2.163   0.700   6.079
 6890SOL     OW20627   3.364   0.229   7.304
 6890SOL    HW120628   3.379   0.249   7.397
 6890SOL    HW220629   3.292   0.167   7.304
 6891SOL     OW20630   2.506   0.106   5.693
 6891SOL    HW120631   2.542   0.032   5.741
 6891SOL    HW220632   2.444   0.067   5.631
 6892SOL     OW20633   2.620   0.266   7.356
 6892SOL    HW120634   2.696   0.208   7.345
 6892SOL    HW220635   2.573   0.230   7.430
 6893SOL     OW20636   2.731   1.527   6.785
 6893SOL    HW120637   2.713   1.486   6.701
 6893SOL    HW220638   2.798   1.472   6.825
 6894SOL     OW20639   3.200   0.594   7.017
 6894SOL    HW120640   3.231   0.567   7.103
 6894SOL    HW220641   3.232   0.683   7.006
 6895SOL     OW20642   2.678   1.377   6.542
 6895SOL    HW120643   2.766   1.373   6.503
 6895SOL    HW220644   2.620   1.392   6.468
 6896SOL     OW20645   2.797   0.521   6.479
 6896SOL    HW120646   2.769   0.511   6.388
 6896SOL    HW220647   2.820   0.432   6.507
 6897SOL     OW20648   2.413   0.061   6.080
 6897SOL    HW120649   2.332   0.044   6.127
 6897SOL    HW220650   2.390   0.130   6.017
 6898SOL     OW20651   3.294   1.212   5.619
 6898SOL    HW120652   3.324   1.138   5.672
 6898SOL    HW220653   3.209   1.235   5.655
 6899SOL     OW20654   2.158   0.070   5.809
 6899SOL    HW120655   2.227   0.133   5.830
 6899SOL    HW220656   2.190   9.987   5.846
 6900SOL     OW20657   2.801   0.271   6.048
 6900SOL    HW120658   2.774   0.304   5.962
 6900SOL    HW220659   2.895   0.288   6.052
 6901SOL     OW20660   2.940   0.693   7.032
 6901SOL    HW120661   2.876   0.622   7.040
 6901SOL    HW220662   3.025   0.647   7.028
 6902SOL     OW20663   3.068   1.587   6.388
 6902SOL    HW120664   3.083   1.647   6.315
 6902SOL    HW220665   3.139   1.606   6.450
 6903SOL     OW20666   2.344   1.161   6.293
 6903SOL    HW120667   2.282   1.137   6.362
 6903SOL    HW220668   2.294   1.154   6.212
 6904SOL     OW20669   3.114   1.792   6.203
 6904SOL    HW120670   3.163   1.855   6.151
 6904SOL    HW220671   3.042   1.843   6.241
 6905SOL     OW20672   2.899   0.517   5.616
 6905SOL    HW120673   2.852   0.597   5.593
 6905SOL    HW220674   2.957   0.543   5.688
 6906SOL     OW20675   1.964   0.537   6.983
 6906SOL    HW120676   2.053   0.551   6.950
 6906SOL    HW220677   1.950   0.608   7.045
 6907SOL     OW20678   2.429   0.237   6.789
 6907SOL    HW120679   2.471   0.191   6.862
 6907SOL    HW220680   2.335   0.226   6.804
 6908SOL     OW20681   2.726   0.475   6.224
 6908SOL    HW120682   2.681   0.530   6.159
 6908SOL    HW220683   2.747   0.395   6.176
 6909SOL     OW20684   2.826   0.062   6.374
 6909SOL    HW120685   2.773   0.050   6.296
 6909SOL    HW220686   2.837   9.974   6.410
 6910SOL     OW20687   3.293   1.152   6.441
 6910SOL    HW120688   3.225   1.086   6.454
 6910SOL    HW220689   3.303   1.159   6.346
 6911SOL     OW20690   3.319   0.623   6.537
 6911SOL    HW120691   3.258   0.550   6.544
 6911SOL    HW220692   3.374   0.616   6.615
 6912SOL     OW20693   3.688   0.798   5.975
 6912SOL    HW120694   3.749   0.755   6.035
 6912SOL    HW220695   3.676   0.735   5.904
 6913SOL     OW20696   2.360   1.424   5.736
 6913SOL    HW120697   2.285   1.392   5.786
 6913SOL    HW220698   2.356   1.375   5.654
 6914SOL     OW20699   3.572   1.276   6.215
 6914SOL    HW120700   3.664   1.270   6.238
 6914SOL    HW220701   3.545   1.363   6.244
 6915SOL     OW20702   3.256   0.576   5.661
 6915SOL    HW120703   3.196   0.556   5.733
 6915SOL    HW220704   3.342   0.546   5.692
 6916SOL     OW20705   2.361   0.250   5.881
 6916SOL    HW120706   2.426   0.213   5.820
 6916SOL    HW220707   2.340   0.335   5.843
 6917SOL     OW20708   3.597   1.244   7.118
 6917SOL    HW120709   3.685   1.210   7.104
 6917SOL    HW220710   3.610   1.331   7.155
 6918SOL     OW20711   2.903   1.355   6.920
 6918SOL    HW120712   2.826   1.320   6.965
 6918SOL    HW220713   2.977   1.310   6.962
 6919SOL     OW20714   3.470   1.634   7.258
 6919SOL    HW120715   3.458   1.671   7.170
 6919SOL    HW220716   3.547   1.579   7.251
 6920SOL     OW20717   3.013   1.239   6.691
 6920SOL    HW120718   2.951   1.273   6.756
 6920SOL    HW220719   2.979   1.271   6.607
 6921SOL     OW20720   3.472   1.092   6.662
 6921SOL    HW120721   3.464   1.159   6.731
 6921SOL    HW220722   3.401   1.113   6.601
 6922SOL     OW20723   2.748   0.162   6.956
 6922SOL    HW120724   2.774   0.117   6.876
 6922SOL    HW220725   2.831   0.186   6.998
 6923SOL     OW20726   2.841   1.115   7.310
 6923SOL    HW120727   2.751   1.132   7.338
 6923SOL    HW220728   2.837   1.034   7.259
 6924SOL     OW20729   2.574   1.063   5.963
 6924SOL    HW120730   2.559   1.035   6.054
 6924SOL    HW220731   2.648   1.011   5.934
 6925SOL     OW20732   2.292   0.839   6.845
 6925SOL    HW120733   2.360   0.844   6.913
 6925SOL    HW220734   2.258   0.750   6.852
 6926SOL     OW20735   3.134   0.375   6.868
 6926SOL    HW120736   3.163   0.452   6.917
 6926SOL    HW220737   3.045   0.397   6.840
 6927SOL     OW20738   1.939   1.569   6.948
 6927SOL    HW120739   1.909   1.641   6.893
 6927SOL    HW220740   2.035   1.570   6.938
 6928SOL     OW20741   2.179   1.133   6.071
 6928SOL    HW120742   2.180   1.204   6.007
 6928SOL    HW220743   2.176   1.054   6.018
 6929SOL     OW20744   2.422   0.492   6.437
 6929SOL    HW120745   2.427   0.547   6.359
 6929SOL    HW220746   2.481   0.533   6.500
 6930SOL     OW20747   3.109   1.354   5.985
 6930SOL    HW120748   3.164   1.424   6.019
 6930SOL    HW220749   3.021   1.377   6.014
 6931SOL     OW20750   3.172   1.469   6.728
 6931SOL    HW120751   3.219   1.475   6.811
 6931SOL    HW220752   3.120   1.389   6.736
 6932SOL     OW20753   3.436   0.626   6.066
 6932SOL    HW120754   3.385   0.666   6.137
 6932SOL    HW220755   3.485   0.699   6.028
 6933SOL     OW20756   2.206   1.534   6.888
 6933SOL    HW120757   2.199   1.481   6.808
 6933SOL    HW220758   2.300   1.550   6.897
 6934SOL     OW20759   2.306   0.728   7.211
 6934SOL    HW120760   2.356   0.778   7.147
 6934SOL    HW220761   2.358   0.649   7.226
 6935SOL     OW20762   3.488   0.788   7.284
 6935SOL    HW120763   3.400   0.826   7.276
 6935SOL    HW220764   3.537   0.826   7.212
 6936SOL     OW20765   2.824   0.078   7.360
 6936SOL    HW120766   2.892   0.131   7.401
 6936SOL    HW220767   2.866   0.042   7.282
 6937SOL     OW20768   2.331   0.020   7.353
 6937SOL    HW120769   2.389   0.012   7.277
 6937SOL    HW220770   2.284   0.102   7.337
 6938SOL     OW20771   2.454   0.881   6.623
 6938SOL    HW120772   2.493   0.968   6.627
 6938SOL    HW220773   2.397   0.876   6.699
 6939SOL     OW20774   3.168   0.859   6.585
 6939SOL    HW120775   3.078   0.832   6.564
 6939SOL    HW220776   3.221   0.781   6.571
 6940SOL     OW20777   3.054   0.531   5.845
 6940SOL    HW120778   3.064   0.457   5.906
 6940SOL    HW220779   3.013   0.600   5.897
 6941SOL     OW20780   2.162   0.180   6.842
 6941SOL    HW120781   2.128   0.211   6.925
 6941SOL    HW220782   2.173   0.086   6.853
 6942SOL     OW20783   1.911   1.312   6.852
 6942SOL    HW120784   1.941   1.256   6.924
 6942SOL    HW220785   1.914   1.401   6.888
 6943SOL     OW20786   2.572   0.629   6.619
 6943SOL    HW120787   2.653   0.625   6.567
 6943SOL    HW220788   2.541   0.719   6.610
 6944SOL     OW20789   3.614   0.969   7.455
 6944SOL    HW120790   3.573   0.896   7.407
 6944SOL    HW220791   3.551   0.990   7.524
 6945SOL     OW20792   2.160   0.064   6.213
 6945SOL    HW120793   2.140   0.157   6.215
 6945SOL    HW220794   2.174   0.040   6.304
 6946SOL     OW20795   3.501   0.399   5.926
 6946SOL    HW120796   3.537   0.334   5.986
 6946SOL    HW220797   3.470   0.470   5.983
 6947SOL     OW20798   2.898   0.764   6.546
 6947SOL    HW120799   2.876   0.778   6.638
 6947SOL    HW220800   2.870   0.674   6.528
 6948SOL     OW20801   2.842   1.566   7.320
 6948SOL    HW120802   2.822   1.609   7.237
 6948SOL    HW220803   2.881   1.482   7.295
 6949SOL     OW20804   3.700   1.494   7.188
 6949SOL    HW120805   3.727   1.523   7.101
 6949SOL    HW220806   3.778   1.505   7.242
 6950SOL     OW20807   2.212   0.913   7.395
 6950SOL    HW120808   2.286   0.933   7.451
 6950SOL    HW220809   2.244   0.846   7.335
 6951SOL     OW20810   3.380   0.281   5.706
 6951SOL    HW120811   3.339   0.202   5.743
 6951SOL    HW220812   3.426   0.321   5.780
 6952SOL     OW20813   3.143   0.821   5.606
 6952SOL    HW120814   3.185   0.735   5.616
 6952SOL    HW220815   3.179   0.856   5.525
 6953SOL     OW20816   2.932   1.353   6.452
 6953SOL    HW120817   2.943   1.280   6.390
 6953SOL    HW220818   2.984   1.424   6.414
 6954SOL     OW20819   2.184   0.815   6.530
 6954SOL    HW120820   2.277   0.834   6.528
 6954SOL    HW220821   2.178   0.725   6.561
 6955SOL     OW20822   2.211   0.543   6.601
 6955SOL    HW120823   2.154   0.467   6.597
 6955SOL    HW220824   2.281   0.524   6.538
 6956SOL     OW20825   2.996   0.410   7.237
 6956SOL    HW120826   2.950   0.445   7.313
 6956SOL    HW220827   3.085   0.445   7.244
 6957SOL     OW20828   3.004   0.209   7.052
 6957SOL    HW120829   2.995   0.272   7.123
 6957SOL    HW220830   3.059   0.253   6.988
 6958SOL     OW20831   1.886   1.303   5.765
 6958SOL    HW120832   1.797   1.325   5.740
 6958SOL    HW220833   1.879   1.216   5.806
 6959SOL     OW20834   1.955   1.770   6.538
 6959SOL    HW120835   1.921   1.696   6.487
 6959SOL    HW220836   2.042   1.787   6.501
 6960SOL     OW20837   2.347   1.569   6.487
 6960SOL    HW120838   2.417   1.630   6.509
 6960SOL    HW220839   2.387   1.508   6.425
 6961SOL     OW20840   2.813   0.785   6.803
 6961SOL    HW120841   2.874   0.769   6.875
 6961SOL    HW220842   2.733   0.737   6.829
 6962SOL     OW20843   1.879   0.523   6.715
 6962SOL    HW120844   1.937   0.463   6.668
 6962SOL    HW220845   1.922   0.538   6.799
 6963SOL     OW20846   2.047   0.556   7.334
 6963SOL    HW120847   2.133   0.548   7.292
 6963SOL    HW220848   2.001   0.622   7.282
 6964SOL     OW20849   3.253   0.921   7.238
 6964SOL    HW120850   3.270   1.015   7.233
 6964SOL    HW220851   3.244   0.894   7.147
 6965SOL     OW20852   2.675   0.581   5.960
 6965SOL    HW120853   2.681   0.505   5.902
 6965SOL    HW220854   2.597   0.628   5.929
 6966SOL     OW20855   3.487   0.606   6.754
 6966SOL    HW120856   3.468   0.552   6.830
 6966SOL    HW220857   3.576   0.580   6.728
 6967SOL     OW20858   2.088   1.540   7.309
 6967SOL    HW120859   2.064   1.589   7.387
 6967SOL    HW220860   2.100   1.450   7.340
 6968SOL     OW20861   2.601   0.450   6.822
 6968SOL    HW120862   2.539   0.379   6.811
 6968SOL    HW220863   2.581   0.511   6.750
 6969SOL     OW20864   2.770   1.679   7.073
 6969SOL    HW120865   2.746   1.632   6.993
 6969SOL    HW220866   2.771   1.771   7.047
 6970SOL     OW20867   2.307   0.488   5.758
 6970SOL    HW120868   2.369   0.556   5.783
 6970SOL    HW220869   2.222   0.532   5.759
 6971SOL     OW20870   1.991   1.151   7.067
 6971SOL    HW120871   1.996   1.112   7.154
 6971SOL    HW220872   2.012   1.079   7.007
 6972SOL     OW20873   3.166   1.036   6.794
 6972SOL    HW120874   3.174   0.973   6.722
 6972SOL    HW220875   3.112   1.107   6.757
 6973SOL     OW20876   3.189   0.863   5.878
 6973SOL    HW120877   3.117   0.833   5.934
 6973SOL    HW220878   3.157   0.848   5.789
 6974SOL     OW20879   3.648   1.724   6.757
 6974SOL    HW120880   3.710   1.750   6.688
 6974SOL    HW220881   3.616   1.638   6.729
 6975SOL     OW20882   3.102   1.733   6.674
 6975SOL    HW120883   3.187   1.763   6.642
 6975SOL    HW220884   3.117   1.642   6.700
 6976SOL     OW20885   1.969   1.248   6.595
 6976SOL    HW120886   1.940   1.269   6.684
 6976SOL    HW220887   1.898   1.194   6.559
 6977SOL     OW20888   2.549   1.683   7.336
 6977SOL    HW120889   2.485   1.754   7.323
 6977SOL    HW220890   2.623   1.707   7.279
 6978SOL     OW20891   3.625   0.187   6.072
 6978SOL    HW120892   3.678   0.188   5.992
 6978SOL    HW220893   3.659   0.113   6.122
 6979SOL     OW20894   3.258   1.570   6.089
 6979SOL    HW120895   3.313   1.605   6.019
 6979SOL    HW220896   3.203   1.643   6.116
 6980SOL     OW20897   1.996   1.806   7.430
 6980SOL    HW120898   1.955   1.730   7.472
 6980SOL    HW220899   2.046   1.848   7.500
 6981SOL     OW20900   3.140   0.937   6.247
 6981SOL    HW120901   3.213   0.877   6.261
 6981SOL    HW220902   3.176   1.009   6.197
 6982SOL     OW20903   2.645   1.280   7.000
 6982SOL    HW120904   2.619   1.328   7.078
 6982SOL    HW220905   2.571   1.290   6.940
 6983SOL     OW20906   2.530   1.635   5.746
 6983SOL    HW120907   2.544   1.650   5.652
 6983SOL    HW220908   2.478   1.555   5.750
 6984SOL     OW20909   3.477   1.730   6.988
 6984SOL    HW120910   3.534   1.730   6.911
 6984SOL    HW220911   3.462   1.823   7.007
 6985SOL     OW20912   3.714   0.154   6.548
 6985SOL    HW120913   3.745   0.079   6.497
 6985SOL    HW220914   3.629   0.175   6.511
 6986SOL     OW20915   2.106   0.324   6.288
 6986SOL    HW120916   2.019   0.359   6.271
 6986SOL    HW220917   2.110   0.315   6.384
 6987SOL     OW20918   3.071   1.589   5.624
 6987SOL    HW120919   3.060   1.498   5.652
 6987SOL    HW220920   3.002   1.602   5.560
 6988SOL     OW20921   2.686   1.011   6.973
 6988SOL    HW120922   2.724   1.001   6.885
 6988SOL    HW220923   2.675   1.105   6.983
 6989SOL     OW20924   2.780   0.914   5.877
 6989SOL    HW120925   2.839   0.947   5.809
 6989SOL    HW220926   2.831   0.847   5.923
 6990SOL     OW20927   3.345   1.644   5.645
 6990SOL    HW120928   3.252   1.625   5.629
 6990SOL    HW220929   3.384   1.648   5.558
 6991SOL     OW20930   2.225   1.313   7.087
 6991SOL    HW120931   2.217   1.386   7.026
 6991SOL    HW220932   2.147   1.260   7.071
 6992SOL     OW20933   3.462   1.290   6.863
 6992SOL    HW120934   3.515   1.265   6.939
 6992SOL    HW220935   3.402   1.357   6.896
 6993SOL     OW20936   2.939   1.120   6.315
 6993SOL    HW120937   2.863   1.071   6.346
 6993SOL    HW220938   3.000   1.053   6.285
 6994SOL     OW20939   2.886   0.256   6.561
 6994SOL    HW120940   2.868   0.208   6.480
 6994SOL    HW220941   2.883   0.189   6.630
 6995SOL     OW20942   2.466   1.486   6.061
 6995SOL    HW120943   2.520   1.437   5.999
 6995SOL    HW220944   2.384   1.501   6.015
 6996SOL     OW20945   3.603   0.370   6.974
 6996SOL    HW120946   3.676   0.431   6.963
 6996SOL    HW220947   3.617   0.303   6.908
 6997SOL     OW20948   2.142   1.341   5.885
 6997SOL    HW120949   2.055   1.333   5.846
 6997SOL    HW220950   2.128   1.389   5.966
 6998SOL     OW20951   1.984   1.047   7.322
 6998SOL    HW120952   1.907   1.019   7.371
 6998SOL    HW220953   2.055   0.994   7.356
 6999SOL     OW20954   2.524   0.230   7.094
 6999SOL    HW120955   2.603   0.204   7.046
 6999SOL    HW220956   2.555   0.247   7.183
 7000SOL     OW20957   1.933   0.336   5.602
 7000SOL    HW120958   1.852   0.326   5.553
 7000SOL    HW220959   1.969   0.420   5.573
 7001SOL     OW20960   3.276   0.857   6.974
 7001SOL    HW120961   3.224   0.916   6.919
 7001SOL    HW220962   3.364   0.862   6.936
 7002SOL     OW20963   1.922   0.201   5.852
 7002SOL    HW120964   1.920   0.256   5.773
 7002SOL    HW220965   2.000   0.147   5.841
 7003SOL     OW20966   3.043   1.323   5.709
 7003SOL    HW120967   2.952   1.294   5.708
 7003SOL    HW220968   3.066   1.326   5.802
 7004SOL     OW20969   2.489   0.830   7.030
 7004SOL    HW120970   2.548   0.905   7.018
 7004SOL    HW220971   2.548   0.754   7.032
 7005SOL     OW20972   3.349   1.803   6.579
 7005SOL    HW120973   3.375   1.877   6.524
 7005SOL    HW220974   3.431   1.760   6.602
 7006SOL     OW20975   2.580   0.541   7.281
 7006SOL    HW120976   2.628   0.599   7.341
 7006SOL    HW220977   2.595   0.453   7.316
 7007SOL     OW20978   3.330   1.184   7.205
 7007SOL    HW120979   3.323   1.206   7.298
 7007SOL    HW220980   3.420   1.208   7.182
 7008SOL     OW20981   2.216   1.747   7.165
 7008SOL    HW120982   2.134   1.793   7.148
 7008SOL    HW220983   2.189   1.664   7.203
 7009SOL     OW20984   3.516   0.877   6.839
 7009SOL    HW120985   3.513   0.793   6.793
 7009SOL    HW220986   3.505   0.943   6.770
 7010SOL     OW20987   3.069   0.339   6.043
 7010SOL    HW120988   3.137   0.273   6.028
 7010SOL    HW220989   3.100   0.387   6.120
 7011SOL     OW20990   2.445   0.717   6.265
 7011SOL    HW120991   2.486   0.803   6.253
 7011SOL    HW220992   2.379   0.712   6.196
 7012SOL     OW20993   3.602   0.356   7.247
 7012SOL    HW120994   3.603   0.368   7.152
 7012SOL    HW220995   3.523   0.305   7.265
 7013SOL     OW20996   3.620   0.926   7.089
 7013SOL    HW120997   3.604   1.019   7.103
 7013SOL    HW220998   3.592   0.910   6.999
 7014SOL     OW20999   2.735   1.357   5.650
 7014SOL    HW121000   2.696   1.372   5.736
 7014SOL    HW221001   2.741   1.444   5.610
 7015SOL     OW21002   2.530   1.766   6.511
 7015SOL    HW121003   2.511   1.860   6.504
 7015SOL    HW221004   2.626   1.762   6.510
 7016SOL     OW21005   2.735   0.978   6.442
 7016SOL    HW121006   2.785   0.906   6.478
 7016SOL    HW221007   2.689   1.015   6.517
 7017SOL     OW21008   2.940   0.989   5.674
 7017SOL    HW121009   2.916   1.041   5.597
 7017SOL    HW221010   3.011   0.933   5.644
 7018SOL     OW21011   3.691   1.558   6.426
 7018SOL    HW121012   3.615   1.550   6.369
 7018SOL    HW221013   3.669   1.507   6.504
 7019SOL     OW21014   2.075   1.286   7.422
 7019SOL    HW121015   2.043   1.206   7.379
 7019SOL    HW221016   2.016   1.298   7.497
 7020SOL     OW21017   1.980   1.226   6.253
 7020SOL    HW121018   2.009   1.184   6.334
 7020SOL    HW221019   2.038   1.191   6.186
 7021SOL     OW21020   2.552   1.419   7.218
 7021SOL    HW121021   2.476   1.380   7.260
 7021SOL    HW221022   2.557   1.507   7.255
 7022SOL     OW21023   3.623   0.149   6.812
 7022SOL    HW121024   3.573   0.068   6.805
 7022SOL    HW221025   3.667   0.158   6.728
 7023SOL     OW21026   2.291   0.427   6.107
 7023SOL    HW121027   2.315   0.354   6.051
 7023SOL    HW221028   2.235   0.388   6.174
 7024SOL     OW21029   3.558   1.479   6.667
 7024SOL    HW121030   3.480   1.460   6.616
 7024SOL    HW221031   3.560   1.412   6.735
 7025SOL     OW21032   2.207   0.582   6.873
 7025SOL    HW121033   2.261   0.521   6.924
 7025SOL    HW221034   2.222   0.557   6.782
 7026SOL     OW21035   2.700   1.583   6.256
 7026SOL    HW121036   2.669   1.653   6.199
 7026SOL    HW221037   2.625   1.524   6.266
 7027SOL     OW21038   3.296   0.238   6.697
 7027SOL    HW121039   3.331   0.161   6.742
 7027SOL    HW221040   3.246   0.285   6.764
 7028SOL     OW21041   2.889   0.040   6.741
 7028SOL    HW121042   2.863   9.947   6.741
 7028SOL    HW221043   2.981   0.038   6.766
 7029SOL     OW21044   2.642   1.332   5.913
 7029SOL    HW121045   2.617   1.240   5.927
 7029SOL    HW221046   2.721   1.343   5.966
 7030SOL     OW21047   2.477   1.570   6.874
 7030SOL    HW121048   2.473   1.654   6.920
 7030SOL    HW221049   2.567   1.566   6.841
 7031SOL     OW21050   3.250   0.033   5.763
 7031SOL    HW121051   3.333   9.986   5.769
 7031SOL    HW221052   3.183   9.965   5.773
 7032SOL     OW21053   3.161   0.477   6.261
 7032SOL    HW121054   3.109   0.558   6.261
 7032SOL    HW221055   3.154   0.444   6.351
 7033SOL     OW21056   3.463   0.224   6.468
 7033SOL    HW121057   3.406   0.236   6.544
 7033SOL    HW221058   3.460   0.308   6.422
 7034SOL     OW21059   1.899   1.051   5.894
 7034SOL    HW121060   1.992   1.038   5.874
 7034SOL    HW221061   1.866   0.964   5.915
 7035SOL     OW21062   2.757   1.676   5.915
 7035SOL    HW121063   2.678   1.660   5.863
 7035SOL    HW221064   2.731   1.744   5.978
 7036SOL     OW21065   2.073   0.635   7.600
 7036SOL    HW121066   1.986   0.619   7.637
 7036SOL    HW221067   2.063   0.622   7.506
 7037SOL     OW21068   2.054   0.321   8.482
 7037SOL    HW121069   2.099   0.270   8.549
 7037SOL    HW221070   1.986   0.263   8.449
 7038SOL     OW21071   1.850   0.409   8.088
 7038SOL    HW121072   1.767   0.434   8.129
 7038SOL    HW221073   1.828   0.334   8.032
 7039SOL     OW21074   2.437   1.309   8.657
 7039SOL    HW121075   2.355   1.311   8.609
 7039SOL    HW221076   2.454   1.400   8.681
 7040SOL     OW21077   3.450   1.524   8.153
 7040SOL    HW121078   3.403   1.493   8.231
 7040SOL    HW221079   3.383   1.528   8.085
 7041SOL     OW21080   2.999   0.707   8.135
 7041SOL    HW121081   3.045   0.790   8.124
 7041SOL    HW221082   2.949   0.717   8.216
 7042SOL     OW21083   3.667   0.587   7.664
 7042SOL    HW121084   3.629   0.586   7.576
 7042SOL    HW221085   3.625   0.514   7.709
 7043SOL     OW21086   2.589   1.131   8.505
 7043SOL    HW121087   2.531   1.171   8.570
 7043SOL    HW221088   2.631   1.206   8.462
 7044SOL     OW21089   2.748   0.737   9.272
 7044SOL    HW121090   2.739   0.804   9.340
 7044SOL    HW221091   2.765   0.786   9.192
 7045SOL     OW21092   2.547   0.982   8.093
 7045SOL    HW121093   2.614   0.983   8.161
 7045SOL    HW221094   2.480   1.044   8.124
 7046SOL     OW21095   2.573   1.151   9.273
 7046SOL    HW121096   2.625   1.224   9.307
 7046SOL    HW221097   2.496   1.192   9.235
 7047SOL     OW21098   2.205   1.397   8.518
 7047SOL    HW121099   2.129   1.355   8.478
 7047SOL    HW221100   2.241   1.452   8.448
 7048SOL     OW21101   3.315   1.507   8.819
 7048SOL    HW121102   3.370   1.584   8.831
 7048SOL    HW221103   3.244   1.518   8.882
 7049SOL     OW21104   2.319   0.401   8.903
 7049SOL    HW121105   2.397   0.348   8.922
 7049SOL    HW221106   2.245   0.345   8.926
 7050SOL     OW21107   3.451   0.459   8.193
 7050SOL    HW121108   3.380   0.463   8.128
 7050SOL    HW221109   3.434   0.532   8.252
 7051SOL     OW21110   2.080   1.728   7.913
 7051SOL    HW121111   2.107   1.799   7.971
 7051SOL    HW221112   2.153   1.717   7.853
 7052SOL     OW21113   2.996   1.343   9.142
 7052SOL    HW121114   3.040   1.334   9.227
 7052SOL    HW221115   2.944   1.263   9.133
 7053SOL     OW21116   2.095   1.457   7.981
 7053SOL    HW121117   2.073   1.551   7.985
 7053SOL    HW221118   2.045   1.418   8.053
 7054SOL     OW21119   2.147   1.090   8.326
 7054SOL    HW121120   2.148   1.000   8.360
 7054SOL    HW221121   2.091   1.138   8.387
 7055SOL     OW21122   2.436   1.805   8.867
 7055SOL    HW121123   2.360   1.784   8.922
 7055SOL    HW221124   2.469   1.888   8.902
 7056SOL     OW21125   2.426   0.988   7.601
 7056SOL    HW121126   2.477   1.030   7.532
 7056SOL    HW221127   2.466   1.019   7.682
 7057SOL     OW21128   3.406   0.122   8.902
 7057SOL    HW121129   3.469   0.174   8.852
 7057SOL    HW221130   3.397   0.168   8.985
 7058SOL     OW21131   1.981   0.663   8.014
 7058SOL    HW121132   1.948   0.576   8.036
 7058SOL    HW221133   1.976   0.712   8.096
 7059SOL     OW21134   3.708   1.743   7.765
 7059SOL    HW121135   3.780   1.728   7.827
 7059SOL    HW221136   3.715   1.836   7.743
 7060SOL     OW21137   1.921   1.580   7.558
 7060SOL    HW121138   1.900   1.488   7.577
 7060SOL    HW221139   1.889   1.628   7.635
 7061SOL     OW21140   3.560   0.928   8.102
 7061SOL    HW121141   3.642   0.883   8.080
 7061SOL    HW221142   3.539   0.979   8.025
 7062SOL     OW21143   3.519   1.105   7.881
 7062SOL    HW121144   3.604   1.097   7.837
 7062SOL    HW221145   3.533   1.171   7.949
 7063SOL     OW21146   1.967   0.751   9.018
 7063SOL    HW121147   2.048   0.802   9.019
 7063SOL    HW221148   1.899   0.816   9.002
 7064SOL     OW21149   2.485   1.398   8.178
 7064SOL    HW121150   2.444   1.312   8.183
 7064SOL    HW221151   2.469   1.427   8.088
 7065SOL     OW21152   3.133   1.227   8.865
 7065SOL    HW121153   3.161   1.158   8.806
 7065SOL    HW221154   3.193   1.222   8.939
 7066SOL     OW21155   2.680   0.034   7.986
 7066SOL    HW121156   2.710   0.122   7.964
 7066SOL    HW221157   2.584   0.040   7.982
 7067SOL     OW21158   2.048   0.957   8.750
 7067SOL    HW121159   2.137   0.926   8.733
 7067SOL    HW221160   1.997   0.922   8.677
 7068SOL     OW21161   3.398   1.015   7.647
 7068SOL    HW121162   3.329   0.955   7.677
 7068SOL    HW221163   3.440   1.046   7.728
 7069SOL     OW21164   3.040   1.823   9.084
 7069SOL    HW121165   3.041   1.885   9.011
 7069SOL    HW221166   3.057   1.738   9.044
 7070SOL     OW21167   2.179   0.258   9.223
 7070SOL    HW121168   2.236   0.318   9.270
 7070SOL    HW221169   2.096   0.263   9.269
 7071SOL     OW21170   3.334   1.417   8.379
 7071SOL    HW121171   3.271   1.437   8.448
 7071SOL    HW221172   3.316   1.326   8.355
 7072SOL     OW21173   3.500   1.796   8.010
 7072SOL    HW121174   3.482   1.749   7.929
 7072SOL    HW221175   3.499   1.727   8.078
 7073SOL     OW21176   2.447   0.710   7.722
 7073SOL    HW121177   2.447   0.797   7.682
 7073SOL    HW221178   2.382   0.716   7.792
 7074SOL     OW21179   3.144   0.391   8.386
 7074SOL    HW121180   3.055   0.356   8.394
 7074SOL    HW221181   3.198   0.332   8.439
 7075SOL     OW21182   3.441   1.673   7.767
 7075SOL    HW121183   3.535   1.688   7.756
 7075SOL    HW221184   3.408   1.660   7.678
 7076SOL     OW21185   2.655   0.614   8.892
 7076SOL    HW121186   2.628   0.579   8.977
 7076SOL    HW221187   2.632   0.545   8.830
 7077SOL     OW21188   3.259   0.493   9.122
 7077SOL    HW121189   3.262   0.534   9.209
 7077SOL    HW221190   3.310   0.413   9.133
 7078SOL     OW21191   2.808   0.879   9.041
 7078SOL    HW121192   2.864   0.816   8.996
 7078SOL    HW221193   2.759   0.922   8.970
 7079SOL     OW21194   2.876   0.416   8.657
 7079SOL    HW121195   2.785   0.426   8.685
 7079SOL    HW221196   2.870   0.374   8.571
 7080SOL     OW21197   2.916   0.704   7.868
 7080SOL    HW121198   2.939   0.699   7.961
 7080SOL    HW221199   2.831   0.661   7.862
 7081SOL     OW21200   1.956   0.826   8.233
 7081SOL    HW121201   2.037   0.818   8.282
 7081SOL    HW221202   1.909   0.898   8.275
 7082SOL     OW21203   1.972   1.878   9.041
 7082SOL    HW121204   1.982   1.857   9.133
 7082SOL    HW221205   1.887   1.842   9.016
 7083SOL     OW21206   2.748   0.361   7.653
 7083SOL    HW121207   2.791   0.418   7.590
 7083SOL    HW221208   2.748   0.275   7.612
 7084SOL     OW21209   3.543   0.558   9.284
 7084SOL    HW121210   3.524   0.639   9.237
 7084SOL    HW221211   3.572   0.497   9.216
 7085SOL     OW21212   3.255   1.151   7.992
 7085SOL    HW121213   3.335   1.140   7.940
 7085SOL    HW221214   3.202   1.212   7.941
 7086SOL     OW21215   2.402   0.221   8.375
 7086SOL    HW121216   2.422   0.235   8.467
 7086SOL    HW221217   2.414   0.307   8.334
 7087SOL     OW21218   2.859   1.456   7.913
 7087SOL    HW121219   2.835   1.530   7.858
 7087SOL    HW221220   2.829   1.480   8.001
 7088SOL     OW21221   2.215   1.816   8.328
 7088SOL    HW121222   2.261   1.732   8.332
 7088SOL    HW221223   2.283   1.880   8.350
 7089SOL     OW21224   3.667   1.045   8.338
 7089SOL    HW121225   3.619   1.029   8.257
 7089SOL    HW221226   3.598   1.055   8.405
 7090SOL     OW21227   3.080   1.545   8.964
 7090SOL    HW121228   3.069   1.474   9.027
 7090SOL    HW221229   3.011   1.532   8.900
 7091SOL     OW21230   2.160   0.956   7.712
 7091SOL    HW121231   2.243   0.976   7.668
 7091SOL    HW221232   2.139   0.867   7.683
 7092SOL     OW21233   3.346   0.766   8.159
 7092SOL    HW121234   3.344   0.729   8.247
 7092SOL    HW221235   3.426   0.820   8.158
 7093SOL     OW21236   2.334   1.286   9.195
 7093SOL    HW121237   2.309   1.289   9.102
 7093SOL    HW221238   2.250   1.276   9.241
 7094SOL     OW21239   3.001   1.776   7.674
 7094SOL    HW121240   2.919   1.746   7.713
 7094SOL    HW221241   3.021   1.711   7.607
 7095SOL     OW21242   2.080   0.267   8.957
 7095SOL    HW121243   2.014   0.335   8.956
 7095SOL    HW221244   2.102   0.255   9.049
 7096SOL     OW21245   3.500   1.388   7.548
 7096SOL    HW121246   3.459   1.474   7.535
 7096SOL    HW221247   3.433   1.325   7.521
 7097SOL     OW21248   2.321   1.742   7.764
 7097SOL    HW121249   2.369   1.792   7.828
 7097SOL    HW221250   2.388   1.701   7.709
 7098SOL     OW21251   3.268   0.164   7.866
 7098SOL    HW121252   3.261   0.108   7.789
 7098SOL    HW221253   3.360   0.156   7.893
 7099SOL     OW21254   2.113   1.788   8.663
 7099SOL    HW121255   2.162   1.714   8.698
 7099SOL    HW221256   2.101   1.767   8.570
 7100SOL     OW21257   2.810   1.703   8.338
 7100SOL    HW121258   2.895   1.661   8.354
 7100SOL    HW221259   2.771   1.651   8.267
 7101SOL     OW21260   2.256   0.689   7.923
 7101SOL    HW121261   2.271   0.595   7.934
 7101SOL    HW221262   2.163   0.700   7.940
 7102SOL     OW21263   3.366   0.232   9.164
 7102SOL    HW121264   3.382   0.248   9.257
 7102SOL    HW221265   3.285   0.180   9.162
 7103SOL     OW21266   2.504   0.105   7.554
 7103SOL    HW121267   2.540   0.031   7.603
 7103SOL    HW221268   2.442   0.066   7.493
 7104SOL     OW21269   2.617   0.264   9.222
 7104SOL    HW121270   2.691   0.205   9.213
 7104SOL    HW221271   2.571   0.234   9.301
 7105SOL     OW21272   2.731   1.527   8.647
 7105SOL    HW121273   2.713   1.486   8.563
 7105SOL    HW221274   2.798   1.472   8.687
 7106SOL     OW21275   3.200   0.595   8.876
 7106SOL    HW121276   3.231   0.569   8.963
 7106SOL    HW221277   3.232   0.684   8.865
 7107SOL     OW21278   2.678   1.377   8.404
 7107SOL    HW121279   2.766   1.373   8.365
 7107SOL    HW221280   2.620   1.392   8.330
 7108SOL     OW21281   2.797   0.520   8.341
 7108SOL    HW121282   2.769   0.511   8.250
 7108SOL    HW221283   2.820   0.432   8.369
 7109SOL     OW21284   2.413   0.061   7.942
 7109SOL    HW121285   2.332   0.044   7.989
 7109SOL    HW221286   2.391   0.130   7.879
 7110SOL     OW21287   3.296   1.212   7.480
 7110SOL    HW121288   3.326   1.139   7.533
 7110SOL    HW221289   3.211   1.236   7.517
 7111SOL     OW21290   2.158   0.070   7.671
 7111SOL    HW121291   2.227   0.133   7.691
 7111SOL    HW221292   2.190   9.987   7.708
 7112SOL     OW21293   2.800   0.271   7.910
 7112SOL    HW121294   2.774   0.304   7.824
 7112SOL    HW221295   2.894   0.288   7.914
 7113SOL     OW21296   2.941   0.692   8.892
 7113SOL    HW121297   2.877   0.621   8.902
 7113SOL    HW221298   3.025   0.648   8.888
 7114SOL     OW21299   3.068   1.587   8.250
 7114SOL    HW121300   3.083   1.647   8.177
 7114SOL    HW221301   3.140   1.604   8.311
 7115SOL     OW21302   2.344   1.161   8.155
 7115SOL    HW121303   2.282   1.137   8.224
 7115SOL    HW221304   2.294   1.154   8.074
 7116SOL     OW21305   3.114   1.792   8.065
 7116SOL    HW121306   3.163   1.855   8.012
 7116SOL    HW221307   3.042   1.843   8.104
 7117SOL     OW21308   2.900   0.517   7.478
 7117SOL    HW121309   2.852   0.597   7.455
 7117SOL    HW221310   2.958   0.543   7.549
 7118SOL     OW21311   1.965   0.536   8.846
 7118SOL    HW121312   2.054   0.551   8.813
 7118SOL    HW221313   1.951   0.608   8.908
 7119SOL     OW21314   2.429   0.236   8.650
 7119SOL    HW121315   2.471   0.191   8.723
 7119SOL    HW221316   2.336   0.226   8.666
 7120SOL     OW21317   2.725   0.474   8.086
 7120SOL    HW121318   2.682   0.530   8.021
 7120SOL    HW221319   2.747   0.394   8.038
 7121SOL     OW21320   2.825   0.062   8.237
 7121SOL    HW121321   2.772   0.050   8.158
 7121SOL    HW221322   2.837   9.974   8.272
 7122SOL     OW21323   3.295   1.153   8.303
 7122SOL    HW121324   3.226   1.087   8.315
 7122SOL    HW221325   3.307   1.159   8.209
 7123SOL     OW21326   3.319   0.624   8.399
 7123SOL    HW121327   3.258   0.550   8.405
 7123SOL    HW221328   3.374   0.617   8.477
 7124SOL     OW21329   3.687   0.798   7.837
 7124SOL    HW121330   3.749   0.755   7.896
 7124SOL    HW221331   3.676   0.735   7.765
 7125SOL     OW21332   2.360   1.424   7.598
 7125SOL    HW121333   2.285   1.392   7.649
 7125SOL    HW221334   2.356   1.375   7.516
 7126SOL     OW21335   3.571   1.273   8.080
 7126SOL    HW121336   3.664   1.267   8.102
 7126SOL    HW221337   3.546   1.362   8.107
 7127SOL     OW21338   3.256   0.578   7.522
 7127SOL    HW121339   3.198   0.556   7.595
 7127SOL    HW221340   3.343   0.551   7.552
 7128SOL     OW21341   2.362   0.250   7.743
 7128SOL    HW121342   2.426   0.213   7.682
 7128SOL    HW221343   2.340   0.335   7.706
 7129SOL     OW21344   3.596   1.243   8.980
 7129SOL    HW121345   3.685   1.209   8.966
 7129SOL    HW221346   3.610   1.330   9.017
 7130SOL     OW21347   2.903   1.355   8.782
 7130SOL    HW121348   2.826   1.320   8.828
 7130SOL    HW221349   2.977   1.311   8.824
 7131SOL     OW21350   3.469   1.635   9.112
 7131SOL    HW121351   3.461   1.671   9.024
 7131SOL    HW221352   3.547   1.579   9.108
 7132SOL     OW21353   3.012   1.239   8.553
 7132SOL    HW121354   2.951   1.273   8.618
 7132SOL    HW221355   2.979   1.271   8.469
 7133SOL     OW21356   3.472   1.093   8.525
 7133SOL    HW121357   3.464   1.159   8.594
 7133SOL    HW221358   3.401   1.114   8.463
 7134SOL     OW21359   2.748   0.161   8.820
 7134SOL    HW121360   2.774   0.117   8.738
 7134SOL    HW221361   2.831   0.186   8.860
 7135SOL     OW21362   2.842   1.115   9.171
 7135SOL    HW121363   2.751   1.132   9.196
 7135SOL    HW221364   2.838   1.034   9.120
 7136SOL     OW21365   2.574   1.063   7.825
 7136SOL    HW121366   2.559   1.035   7.916
 7136SOL    HW221367   2.648   1.010   7.796
 7137SOL     OW21368   2.292   0.839   8.707
 7137SOL    HW121369   2.360   0.844   8.775
 7137SOL    HW221370   2.258   0.750   8.714
 7138SOL     OW21371   3.133   0.375   8.730
 7138SOL    HW121372   3.163   0.452   8.777
 7138SOL    HW221373   3.044   0.396   8.702
 7139SOL     OW21374   1.940   1.570   8.809
 7139SOL    HW121375   1.910   1.642   8.753
 7139SOL    HW221376   2.035   1.570   8.800
 7140SOL     OW21377   2.179   1.133   7.933
 7140SOL    HW121378   2.180   1.205   7.869
 7140SOL    HW221379   2.176   1.054   7.880
 7141SOL     OW21380   2.422   0.492   8.299
 7141SOL    HW121381   2.427   0.547   8.221
 7141SOL    HW221382   2.481   0.533   8.361
 7142SOL     OW21383   3.109   1.355   7.846
 7142SOL    HW121384   3.165   1.424   7.880
 7142SOL    HW221385   3.021   1.378   7.876
 7143SOL     OW21386   3.171   1.469   8.590
 7143SOL    HW121387   3.218   1.476   8.673
 7143SOL    HW221388   3.120   1.389   8.598
 7144SOL     OW21389   3.438   0.626   7.928
 7144SOL    HW121390   3.387   0.667   7.998
 7144SOL    HW221391   3.490   0.697   7.892
 7145SOL     OW21392   2.206   1.533   8.750
 7145SOL    HW121393   2.199   1.481   8.670
 7145SOL    HW221394   2.300   1.550   8.760
 7146SOL     OW21395   2.308   0.725   9.074
 7146SOL    HW121396   2.356   0.776   9.009
 7146SOL    HW221397   2.362   0.648   9.090
 7147SOL     OW21398   3.487   0.787   9.150
 7147SOL    HW121399   3.400   0.825   9.141
 7147SOL    HW221400   3.538   0.825   9.078
 7148SOL     OW21401   2.824   0.080   9.224
 7148SOL    HW121402   2.891   0.136   9.264
 7148SOL    HW221403   2.866   0.045   9.146
 7149SOL     OW21404   2.329   0.022   9.230
 7149SOL    HW121405   2.388   0.002   9.158
 7149SOL    HW221406   2.285   0.103   9.204
 7150SOL     OW21407   2.453   0.881   8.485
 7150SOL    HW121408   2.493   0.968   8.489
 7150SOL    HW221409   2.397   0.876   8.561
 7151SOL     OW21410   3.167   0.859   8.447
 7151SOL    HW121411   3.078   0.832   8.425
 7151SOL    HW221412   3.221   0.781   8.432
 7152SOL     OW21413   3.055   0.530   7.708
 7152SOL    HW121414   3.064   0.457   7.768
 7152SOL    HW221415   3.014   0.599   7.759
 7153SOL     OW21416   2.162   0.180   8.704
 7153SOL    HW121417   2.127   0.211   8.787
 7153SOL    HW221418   2.173   0.085   8.716
 7154SOL     OW21419   1.912   1.312   8.713
 7154SOL    HW121420   1.940   1.256   8.786
 7154SOL    HW221421   1.914   1.401   8.749
 7155SOL     OW21422   2.572   0.629   8.482
 7155SOL    HW121423   2.652   0.625   8.430
 7155SOL    HW221424   2.541   0.719   8.472
 7156SOL     OW21425   3.618   0.972   9.314
 7156SOL    HW121426   3.573   0.899   9.272
 7156SOL    HW221427   3.563   0.995   9.389
 7157SOL     OW21428   2.160   0.064   8.075
 7157SOL    HW121429   2.140   0.157   8.078
 7157SOL    HW221430   2.174   0.039   8.167
 7158SOL     OW21431   3.498   0.398   7.788
 7158SOL    HW121432   3.537   0.334   7.848
 7158SOL    HW221433   3.469   0.469   7.844
 7159SOL     OW21434   2.898   0.763   8.407
 7159SOL    HW121435   2.876   0.778   8.499
 7159SOL    HW221436   2.870   0.673   8.390
 7160SOL     OW21437   2.842   1.568   9.180
 7160SOL    HW121438   2.822   1.610   9.097
 7160SOL    HW221439   2.881   1.484   9.156
 7161SOL     OW21440   3.700   1.494   9.048
 7161SOL    HW121441   3.728   1.523   8.961
 7161SOL    HW221442   3.778   1.505   9.103
 7162SOL     OW21443   2.213   0.910   9.258
 7162SOL    HW121444   2.289   0.933   9.311
 7162SOL    HW221445   2.245   0.843   9.198
 7163SOL     OW21446   3.379   0.279   7.567
 7163SOL    HW121447   3.339   0.200   7.604
 7163SOL    HW221448   3.424   0.320   7.640
 7164SOL     OW21449   3.142   0.821   7.468
 7164SOL    HW121450   3.185   0.736   7.477
 7164SOL    HW221451   3.178   0.857   7.387
 7165SOL     OW21452   2.932   1.353   8.314
 7165SOL    HW121453   2.943   1.280   8.252
 7165SOL    HW221454   2.984   1.424   8.276
 7166SOL     OW21455   2.184   0.816   8.392
 7166SOL    HW121456   2.277   0.835   8.390
 7166SOL    HW221457   2.179   0.725   8.423
 7167SOL     OW21458   2.211   0.543   8.463
 7167SOL    HW121459   2.154   0.467   8.459
 7167SOL    HW221460   2.281   0.525   8.400
 7168SOL     OW21461   2.996   0.412   9.095
 7168SOL    HW121462   2.950   0.449   9.171
 7168SOL    HW221463   3.085   0.447   9.102
 7169SOL     OW21464   3.005   0.208   8.914
 7169SOL    HW121465   2.995   0.273   8.984
 7169SOL    HW221466   3.059   0.252   8.849
 7170SOL     OW21467   1.886   1.303   7.627
 7170SOL    HW121468   1.797   1.325   7.602
 7170SOL    HW221469   1.879   1.216   7.668
 7171SOL     OW21470   1.954   1.770   8.398
 7171SOL    HW121471   1.921   1.696   8.347
 7171SOL    HW221472   2.041   1.787   8.362
 7172SOL     OW21473   2.347   1.569   8.348
 7172SOL    HW121474   2.417   1.630   8.371
 7172SOL    HW221475   2.387   1.508   8.287
 7173SOL     OW21476   2.813   0.784   8.665
 7173SOL    HW121477   2.874   0.768   8.736
 7173SOL    HW221478   2.733   0.739   8.691
 7174SOL     OW21479   1.879   0.522   8.578
 7174SOL    HW121480   1.937   0.463   8.530
 7174SOL    HW221481   1.924   0.538   8.661
 7175SOL     OW21482   2.046   0.553   9.192
 7175SOL    HW121483   2.133   0.551   9.152
 7175SOL    HW221484   1.999   0.620   9.142
 7176SOL     OW21485   3.254   0.921   9.097
 7176SOL    HW121486   3.271   1.015   9.094
 7176SOL    HW221487   3.247   0.894   9.006
 7177SOL     OW21488   2.675   0.580   7.822
 7177SOL    HW121489   2.681   0.505   7.764
 7177SOL    HW221490   2.598   0.628   7.792
 7178SOL     OW21491   3.488   0.606   8.615
 7178SOL    HW121492   3.468   0.553   8.692
 7178SOL    HW221493   3.576   0.579   8.590
 7179SOL     OW21494   2.087   1.543   9.168
 7179SOL    HW121495   2.068   1.599   9.243
 7179SOL    HW221496   2.097   1.455   9.206
 7180SOL     OW21497   2.601   0.450   8.684
 7180SOL    HW121498   2.538   0.378   8.673
 7180SOL    HW221499   2.581   0.511   8.612
 7181SOL     OW21500   2.770   1.679   8.933
 7181SOL    HW121501   2.746   1.632   8.853
 7181SOL    HW221502   2.771   1.771   8.907
 7182SOL     OW21503   2.307   0.488   7.620
 7182SOL    HW121504   2.370   0.556   7.645
 7182SOL    HW221505   2.222   0.532   7.621
 7183SOL     OW21506   1.991   1.151   8.928
 7183SOL    HW121507   1.996   1.112   9.016
 7183SOL    HW221508   2.012   1.079   8.869
 7184SOL     OW21509   3.166   1.037   8.655
 7184SOL    HW121510   3.174   0.974   8.583
 7184SOL    HW221511   3.112   1.107   8.619
 7185SOL     OW21512   3.188   0.863   7.740
 7185SOL    HW121513   3.116   0.833   7.795
 7185SOL    HW221514   3.157   0.848   7.650
 7186SOL     OW21515   3.649   1.724   8.617
 7186SOL    HW121516   3.710   1.750   8.549
 7186SOL    HW221517   3.617   1.638   8.590
 7187SOL     OW21518   3.102   1.733   8.537
 7187SOL    HW121519   3.186   1.763   8.504
 7187SOL    HW221520   3.117   1.642   8.562
 7188SOL     OW21521   1.969   1.249   8.457
 7188SOL    HW121522   1.941   1.270   8.546
 7188SOL    HW221523   1.898   1.195   8.421
 7189SOL     OW21524   2.550   1.682   9.201
 7189SOL    HW121525   2.488   1.754   9.187
 7189SOL    HW221526   2.625   1.705   9.147
 7190SOL     OW21527   3.625   0.187   7.932
 7190SOL    HW121528   3.677   0.188   7.852
 7190SOL    HW221529   3.659   0.113   7.983
 7191SOL     OW21530   3.259   1.570   7.951
 7191SOL    HW121531   3.314   1.605   7.881
 7191SOL    HW221532   3.204   1.644   7.978
 7192SOL     OW21533   2.003   1.801   9.296
 7192SOL    HW121534   1.957   1.730   9.341
 7192SOL    HW221535   2.052   1.845   9.365
 7193SOL     OW21536   3.140   0.937   8.110
 7193SOL    HW121537   3.214   0.878   8.123
 7193SOL    HW221538   3.176   1.009   8.059
 7194SOL     OW21539   2.644   1.280   8.861
 7194SOL    HW121540   2.618   1.328   8.940
 7194SOL    HW221541   2.570   1.289   8.801
 7195SOL     OW21542   2.530   1.636   7.607
 7195SOL    HW121543   2.545   1.650   7.514
 7195SOL    HW221544   2.478   1.555   7.612
 7196SOL     OW21545   3.477   1.731   8.846
 7196SOL    HW121546   3.535   1.731   8.769
 7196SOL    HW221547   3.462   1.824   8.864
 7197SOL     OW21548   3.714   0.153   8.409
 7197SOL    HW121549   3.745   0.081   8.355
 7197SOL    HW221550   3.628   0.175   8.373
 7198SOL     OW21551   2.106   0.323   8.151
 7198SOL    HW121552   2.019   0.359   8.133
 7198SOL    HW221553   2.111   0.316   8.246
 7199SOL     OW21554   3.071   1.588   7.486
 7199SOL    HW121555   3.061   1.497   7.514
 7199SOL    HW221556   3.002   1.602   7.422
 7200SOL     OW21557   2.686   1.011   8.834
 7200SOL    HW121558   2.724   1.002   8.747
 7200SOL    HW221559   2.674   1.105   8.845
 7201SOL     OW21560   2.779   0.913   7.739
 7201SOL    HW121561   2.837   0.947   7.671
 7201SOL    HW221562   2.831   0.847   7.785
 7202SOL     OW21563   3.346   1.644   7.506
 7202SOL    HW121564   3.253   1.625   7.489
 7202SOL    HW221565   3.386   1.648   7.419
 7203SOL     OW21566   2.224   1.312   8.948
 7203SOL    HW121567   2.216   1.386   8.888
 7203SOL    HW221568   2.145   1.260   8.933
 7204SOL     OW21569   3.461   1.290   8.726
 7204SOL    HW121570   3.514   1.265   8.801
 7204SOL    HW221571   3.402   1.358   8.759
 7205SOL     OW21572   2.939   1.120   8.176
 7205SOL    HW121573   2.863   1.070   8.208
 7205SOL    HW221574   3.000   1.053   8.147
 7206SOL     OW21575   2.886   0.256   8.423
 7206SOL    HW121576   2.867   0.208   8.342
 7206SOL    HW221577   2.882   0.190   8.492
 7207SOL     OW21578   2.466   1.486   7.923
 7207SOL    HW121579   2.521   1.437   7.861
 7207SOL    HW221580   2.384   1.501   7.875
 7208SOL     OW21581   3.604   0.368   8.836
 7208SOL    HW121582   3.677   0.429   8.825
 7208SOL    HW221583   3.619   0.301   8.769
 7209SOL     OW21584   2.141   1.341   7.747
 7209SOL    HW121585   2.054   1.333   7.708
 7209SOL    HW221586   2.127   1.389   7.828
 7210SOL     OW21587   1.987   1.049   9.183
 7210SOL    HW121588   1.909   1.021   9.232
 7210SOL    HW221589   2.058   0.995   9.218
 7211SOL     OW21590   2.524   0.230   8.958
 7211SOL    HW121591   2.603   0.203   8.910
 7211SOL    HW221592   2.555   0.246   9.047
 7212SOL     OW21593   1.934   0.336   7.463
 7212SOL    HW121594   1.852   0.326   7.413
 7212SOL    HW221595   1.970   0.420   7.435
 7213SOL     OW21596   3.277   0.857   8.833
 7213SOL    HW121597   3.225   0.916   8.779
 7213SOL    HW221598   3.365   0.863   8.797
 7214SOL     OW21599   1.921   0.201   7.713
 7214SOL    HW121600   1.919   0.256   7.635
 7214SOL    HW221601   2.000   0.147   7.703
 7215SOL     OW21602   3.045   1.322   7.571
 7215SOL    HW121603   2.954   1.291   7.571
 7215SOL    HW221604   3.068   1.326   7.664
 7216SOL     OW21605   2.489   0.830   8.892
 7216SOL    HW121606   2.547   0.905   8.880
 7216SOL    HW221607   2.548   0.755   8.894
 7217SOL     OW21608   3.349   1.803   8.441
 7217SOL    HW121609   3.375   1.877   8.386
 7217SOL    HW221610   3.431   1.759   8.463
 7218SOL     OW21611   2.577   0.541   9.144
 7218SOL    HW121612   2.626   0.600   9.202
 7218SOL    HW221613   2.592   0.454   9.180
 7219SOL     OW21614   3.330   1.184   9.069
 7219SOL    HW121615   3.324   1.204   9.163
 7219SOL    HW221616   3.420   1.208   9.046
 7220SOL     OW21617   2.217   1.748   9.026
 7220SOL    HW121618   2.135   1.795   9.011
 7220SOL    HW221619   2.191   1.664   9.063
 7221SOL     OW21620   3.518   0.878   8.701
 7221SOL    HW121621   3.514   0.794   8.655
 7221SOL    HW221622   3.506   0.944   8.632
 7222SOL     OW21623   3.069   0.338   7.906
 7222SOL    HW121624   3.137   0.273   7.891
 7222SOL    HW221625   3.099   0.387   7.982
 7223SOL     OW21626   2.445   0.717   8.127
 7223SOL    HW121627   2.486   0.803   8.115
 7223SOL    HW221628   2.379   0.712   8.058
 7224SOL     OW21629   3.606   0.352   9.109
 7224SOL    HW121630   3.608   0.365   9.014
 7224SOL    HW221631   3.526   0.304   9.125
 7225SOL     OW21632   3.618   0.925   8.953
 7225SOL    HW121633   3.603   1.018   8.968
 7225SOL    HW221634   3.591   0.910   8.862
 7226SOL     OW21635   2.732   1.357   7.510
 7226SOL    HW121636   2.695   1.374   7.597
 7226SOL    HW221637   2.742   1.443   7.471
 7227SOL     OW21638   2.530   1.766   8.373
 7227SOL    HW121639   2.511   1.860   8.366
 7227SOL    HW221640   2.626   1.761   8.372
 7228SOL     OW21641   2.735   0.978   8.304
 7228SOL    HW121642   2.785   0.905   8.340
 7228SOL    HW221643   2.689   1.015   8.379
 7229SOL     OW21644   2.937   0.988   7.536
 7229SOL    HW121645   2.914   1.040   7.459
 7229SOL    HW221646   3.009   0.932   7.506
 7230SOL     OW21647   3.692   1.558   8.288
 7230SOL    HW121648   3.615   1.550   8.231
 7230SOL    HW221649   3.671   1.506   8.365
 7231SOL     OW21650   2.073   1.290   9.284
 7231SOL    HW121651   2.043   1.210   9.242
 7231SOL    HW221652   2.012   1.305   9.356
 7232SOL     OW21653   1.980   1.225   8.115
 7232SOL    HW121654   2.011   1.183   8.196
 7232SOL    HW221655   2.038   1.191   8.047
 7233SOL     OW21656   2.549   1.421   9.078
 7233SOL    HW121657   2.473   1.382   9.120
 7233SOL    HW221658   2.556   1.508   9.116
 7234SOL     OW21659   3.625   0.147   8.675
 7234SOL    HW121660   3.574   0.066   8.667
 7234SOL    HW221661   3.668   0.156   8.589
 7235SOL     OW21662   2.291   0.427   7.969
 7235SOL    HW121663   2.316   0.354   7.913
 7235SOL    HW221664   2.235   0.388   8.036
 7236SOL     OW21665   3.558   1.480   8.530
 7236SOL    HW121666   3.480   1.461   8.478
 7236SOL    HW221667   3.559   1.413   8.598
 7237SOL     OW21668   2.207   0.582   8.735
 7237SOL    HW121669   2.261   0.520   8.785
 7237SOL    HW221670   2.223   0.558   8.644
 7238SOL     OW21671   2.700   1.583   8.119
 7238SOL    HW121672   2.669   1.652   8.060
 7238SOL    HW221673   2.625   1.524   8.128
 7239SOL     OW21674   3.296   0.237   8.559
 7239SOL    HW121675   3.330   0.160   8.604
 7239SOL    HW221676   3.246   0.284   8.625
 7240SOL     OW21677   2.889   0.040   8.604
 7240SOL    HW121678   2.863   9.948   8.605
 7240SOL    HW221679   2.982   0.039   8.626
 7241SOL     OW21680   2.642   1.332   7.776
 7241SOL    HW121681   2.618   1.241   7.789
 7241SOL    HW221682   2.722   1.343   7.828
 7242SOL     OW21683   2.477   1.571   8.735
 7242SOL    HW121684   2.472   1.655   8.780
 7242SOL    HW221685   2.567   1.566   8.702
 7243SOL     OW21686   3.251   0.032   7.627
 7243SOL    HW121687   3.334   9.985   7.634
 7243SOL    HW221688   3.184   9.964   7.637
 7244SOL     OW21689   3.160   0.478   8.123
 7244SOL    HW121690   3.108   0.558   8.123
 7244SOL    HW221691   3.153   0.444   8.213
 7245SOL     OW21692   3.462   0.224   8.329
 7245SOL    HW121693   3.405   0.236   8.405
 7245SOL    HW221694   3.459   0.307   8.283
 7246SOL     OW21695   1.899   1.051   7.755
 7246SOL    HW121696   1.991   1.038   7.736
 7246SOL    HW221697   1.866   0.963   7.777
 7247SOL     OW21698   2.757   1.676   7.778
 7247SOL    HW121699   2.679   1.660   7.725
 7247SOL    HW221700   2.732   1.744   7.840
 7248SOL     OW21701   2.074   0.618   9.461
 7248SOL    HW121702   1.986   0.605   9.497
 7248SOL    HW221703   2.061   0.613   9.366
 7249SOL     OW21704   3.667   0.570   9.522
 7249SOL    HW121705   3.622   0.565   9.437
 7249SOL    HW221706   3.624   0.503   9.575
 7250SOL     OW21707   2.071   1.748   9.761
 7250SOL    HW121708   2.094   1.818   9.822
 7250SOL    HW221709   2.152   1.729   9.713
 7251SOL     OW21710   2.089   1.463   9.846
 7251SOL    HW121711   2.062   1.548   9.882
 7251SOL    HW221712   2.020   1.402   9.875
 7252SOL     OW21713   2.430   0.984   9.451
 7252SOL    HW121714   2.481   1.028   9.382
 7252SOL    HW221715   2.470   1.015   9.532
 7253SOL     OW21716   1.984   0.702   9.848
 7253SOL    HW121717   1.958   0.614   9.876
 7253SOL    HW221718   1.953   0.759   9.919
 7254SOL     OW21719   3.690   1.754   9.640
 7254SOL    HW121720   3.767   1.735   9.693
 7254SOL    HW221721   3.705   1.842   9.606
 7255SOL     OW21722   1.910   1.590   9.432
 7255SOL    HW121723   1.896   1.497   9.449
 7255SOL    HW221724   1.873   1.634   9.509
 7256SOL     OW21725   3.519   0.854   9.915
 7256SOL    HW121726   3.599   0.860   9.967
 7256SOL    HW221727   3.521   0.932   9.859
 7257SOL     OW21728   3.554   1.094   9.759
 7257SOL    HW121729   3.639   1.095   9.715
 7257SOL    HW221730   3.555   1.172   9.815
 7258SOL     OW21731   2.505   1.340   9.992
 7258SOL    HW121732   2.447   1.265   9.990
 7258SOL    HW221733   2.483   1.390   9.914
 7259SOL     OW21734   2.665   0.010   9.803
 7259SOL    HW121735   2.703   0.098   9.803
 7259SOL    HW221736   2.572   0.024   9.821
 7260SOL     OW21737   3.422   1.024   9.519
 7260SOL    HW121738   3.359   0.957   9.544
 7260SOL    HW221739   3.462   1.051   9.601
 7261SOL     OW21740   2.445   0.707   9.585
 7261SOL    HW121741   2.449   0.794   9.545
 7261SOL    HW221742   2.385   0.717   9.659
 7262SOL     OW21743   3.424   1.674   9.627
 7262SOL    HW121744   3.517   1.696   9.633
 7262SOL    HW221745   3.409   1.661   9.533
 7263SOL     OW21746   2.908   0.688   9.735
 7263SOL    HW121747   2.939   0.664   9.822
 7263SOL    HW221748   2.820   0.649   9.730
 7264SOL     OW21749   1.903   0.854   0.065
 7264SOL    HW121750   1.958   0.791   0.112
 7264SOL    HW221751   1.892   0.926   0.127
 7265SOL     OW21752   2.746   0.363   9.515
 7265SOL    HW121753   2.788   0.422   9.453
 7265SOL    HW221754   2.753   0.276   9.475
 7266SOL     OW21755   3.174   1.094   9.788
 7266SOL    HW121756   3.226   1.120   9.864
 7266SOL    HW221757   3.149   1.176   9.746
 7267SOL     OW21758   2.854   1.435   9.783
 7267SOL    HW121759   2.823   1.520   9.751
 7267SOL    HW221760   2.827   1.432   9.875
 7268SOL     OW21761   2.213   1.854   0.167
 7268SOL    HW121762   2.217   1.772   0.217
 7268SOL    HW221763   2.304   1.884   0.164
 7269SOL     OW21764   2.176   0.956   9.575
 7269SOL    HW121765   2.256   0.970   9.524
 7269SOL    HW221766   2.140   0.874   9.541
 7270SOL     OW21767   2.999   1.775   9.546
 7270SOL    HW121768   2.920   1.741   9.587
 7270SOL    HW221769   3.020   1.711   9.478
 7271SOL     OW21770   3.500   1.392   9.403
 7271SOL    HW121771   3.456   1.476   9.391
 7271SOL    HW221772   3.433   1.327   9.380
 7272SOL     OW21773   2.330   1.762   9.634
 7272SOL    HW121774   2.380   1.789   9.712
 7272SOL    HW221775   2.394   1.714   9.581
 7273SOL     OW21776   3.278   0.162   9.755
 7273SOL    HW121777   3.259   0.122   9.670
 7273SOL    HW221778   3.340   0.232   9.735
 7274SOL     OW21779   2.260   0.667   9.803
 7274SOL    HW121780   2.254   0.573   9.818
 7274SOL    HW221781   2.169   0.698   9.808
 7275SOL     OW21782   2.500   0.108   9.431
 7275SOL    HW121783   2.541   0.033   9.473
 7275SOL    HW221784   2.444   0.070   9.364
 7276SOL     OW21785   2.406   0.085   9.843
 7276SOL    HW121786   2.314   0.061   9.860
 7276SOL    HW221787   2.401   0.149   9.772
 7277SOL     OW21788   3.302   1.207   9.345
 7277SOL    HW121789   3.337   1.140   9.403
 7277SOL    HW221790   3.215   1.227   9.381
 7278SOL     OW21791   2.159   0.044   9.517
 7278SOL    HW121792   2.227   0.054   9.450
 7278SOL    HW221793   2.195   9.981   9.579
 7279SOL     OW21794   2.784   0.257   9.770
 7279SOL    HW121795   2.762   0.298   9.686
 7279SOL    HW221796   2.879   0.268   9.778
 7280SOL     OW21797   2.305   1.154   0.033
 7280SOL    HW121798   2.234   1.185   0.090
 7280SOL    HW221799   2.263   1.137   9.949
 7281SOL     OW21800   3.161   1.836   9.900
 7281SOL    HW121801   3.205   1.901   9.845
 7281SOL    HW221802   3.069   1.860   9.896
 7282SOL     OW21803   2.900   0.516   9.338
 7282SOL    HW121804   2.852   0.596   9.314
 7282SOL    HW221805   2.958   0.544   9.408
 7283SOL     OW21806   2.694   0.455   9.948
 7283SOL    HW121807   2.662   0.514   9.879
 7283SOL    HW221808   2.715   0.374   9.901
 7284SOL     OW21809   3.722   0.812   9.633
 7284SOL    HW121810   3.769   0.778   9.710
 7284SOL    HW221811   3.694   0.733   9.586
 7285SOL     OW21812   2.357   1.427   9.464
 7285SOL    HW121813   2.282   1.393   9.512
 7285SOL    HW221814   2.357   1.378   9.382
 7286SOL     OW21815   3.252   0.585   9.378
 7286SOL    HW121816   3.197   0.564   9.453
 7286SOL    HW221817   3.342   0.568   9.408
 7287SOL     OW21818   2.398   0.271   9.640
 7287SOL    HW121819   2.443   0.220   9.573
 7287SOL    HW221820   2.360   0.345   9.593
 7288SOL     OW21821   2.566   1.051   9.684
 7288SOL    HW121822   2.531   1.004   9.759
 7288SOL    HW221823   2.646   1.004   9.661
 7289SOL     OW21824   2.173   1.126   9.797
 7289SOL    HW121825   2.173   1.201   9.738
 7289SOL    HW221826   2.179   1.050   9.739
 7290SOL     OW21827   3.099   1.355   9.691
 7290SOL    HW121828   3.155   1.426   9.722
 7290SOL    HW221829   3.013   1.375   9.726
 7291SOL     OW21830   3.467   0.620   9.766
 7291SOL    HW121831   3.475   0.674   9.845
 7291SOL    HW221832   3.459   0.683   9.694
 7292SOL     OW21833   3.057   0.531   9.565
 7292SOL    HW121834   3.061   0.457   9.625
 7292SOL    HW221835   3.019   0.602   9.617
 7293SOL     OW21836   2.134   0.101   9.917
 7293SOL    HW121837   2.144   0.195   9.904
 7293SOL    HW221838   2.142   0.089   0.012
 7294SOL     OW21839   3.464   0.359   9.683
 7294SOL    HW121840   3.532   0.317   9.736
 7294SOL    HW221841   3.456   0.447   9.721
 7295SOL     OW21842   3.383   0.271   9.429
 7295SOL    HW121843   3.337   0.192   9.459
 7295SOL    HW221844   3.420   0.309   9.509
 7296SOL     OW21845   3.133   0.826   9.324
 7296SOL    HW121846   3.177   0.742   9.338
 7296SOL    HW221847   3.172   0.861   9.244
 7297SOL     OW21848   1.887   1.316   9.484
 7297SOL    HW121849   1.796   1.334   9.459
 7297SOL    HW221850   1.883   1.229   9.525
 7298SOL     OW21851   2.662   0.568   9.693
 7298SOL    HW121852   2.672   0.499   9.628
 7298SOL    HW221853   2.591   0.623   9.658
 7299SOL     OW21854   2.309   0.483   9.492
 7299SOL    HW121855   2.368   0.555   9.513
 7299SOL    HW221856   2.222   0.524   9.487
 7300SOL     OW21857   3.223   0.858   9.603
 7300SOL    HW121858   3.181   0.915   9.667
 7300SOL    HW221859   3.160   0.855   9.530
 7301SOL     OW21860   3.653   0.210   9.819
 7301SOL    HW121861   3.710   0.200   9.743
 7301SOL    HW221862   3.618   0.122   9.834
 7302SOL     OW21863   3.226   1.589   9.794
 7302SOL    HW121864   3.296   1.606   9.732
 7302SOL    HW221865   3.198   1.676   9.823
 7303SOL     OW21866   2.529   1.639   9.475
 7303SOL    HW121867   2.545   1.652   9.381
 7303SOL    HW221868   2.476   1.560   9.479
 7304SOL     OW21869   3.665   0.145   0.264
 7304SOL    HW121870   3.659   0.052   0.241
 7304SOL    HW221871   3.652   0.191   0.181
 7305SOL     OW21872   3.070   1.594   9.349
 7305SOL    HW121873   3.062   1.502   9.373
 7305SOL    HW221874   3.001   1.608   9.285
 7306SOL     OW21875   2.784   0.910   9.613
 7306SOL    HW121876   2.840   0.942   9.542
 7306SOL    HW221877   2.836   0.843   9.656
 7307SOL     OW21878   3.347   1.645   9.360
 7307SOL    HW121879   3.254   1.627   9.344
 7307SOL    HW221880   3.386   1.648   9.272
 7308SOL     OW21881   2.455   1.479   9.763
 7308SOL    HW121882   2.513   1.435   9.701
 7308SOL    HW221883   2.370   1.482   9.718
 7309SOL     OW21884   2.141   1.343   9.614
 7309SOL    HW121885   2.055   1.337   9.573
 7309SOL    HW221886   2.127   1.394   9.694
 7310SOL     OW21887   1.934   0.332   9.327
 7310SOL    HW121888   1.854   0.320   9.276
 7310SOL    HW221889   1.968   0.417   9.300
 7311SOL     OW21890   1.942   0.200   9.589
 7311SOL    HW121891   1.934   0.253   9.510
 7311SOL    HW221892   2.017   0.144   9.572
 7312SOL     OW21893   3.043   1.323   9.422
 7312SOL    HW121894   2.952   1.293   9.422
 7312SOL    HW221895   3.066   1.329   9.515
 7313SOL     OW21896   3.056   0.337   9.761
 7313SOL    HW121897   3.123   0.271   9.779
 7313SOL    HW221898   3.055   0.392   9.840
 7314SOL     OW21899   2.461   0.849   9.883
 7314SOL    HW121900   2.470   0.850   9.978
 7314SOL    HW221901   2.393   0.784   9.866
 7315SOL     OW21902   2.732   1.357   9.364
 7315SOL    HW121903   2.696   1.371   9.452
 7315SOL    HW221904   2.742   1.445   9.327
 7316SOL     OW21905   2.930   0.985   9.399
 7316SOL    HW121906   2.909   1.040   9.324
 7316SOL    HW221907   3.002   0.930   9.369
 7317SOL     OW21908   1.925   1.246   9.900
 7317SOL    HW121909   1.914   1.249   9.995
 7317SOL    HW221910   1.993   1.181   9.886
 7318SOL     OW21911   2.247   0.382   9.872
 7318SOL    HW121912   2.310   0.350   9.808
 7318SOL    HW221913   2.299   0.396   9.952
 7319SOL     OW21914   2.643   1.326   9.627
 7319SOL    HW121915   2.617   1.236   9.645
 7319SOL    HW221916   2.720   1.340   9.683
 7320SOL     OW21917   3.254   0.042   9.507
 7320SOL    HW121918   3.336   9.992   9.507
 7320SOL    HW221919   3.185   9.976   9.512
 7321SOL     OW21920   1.919   1.069   9.597
 7321SOL    HW121921   2.013   1.057   9.591
 7321SOL    HW221922   1.883   0.981   9.600
 7322SOL     OW21923   2.756   1.672   9.664
 7322SOL    HW121924   2.680   1.654   9.608
 7322SOL    HW221925   2.727   1.741   9.724
 7323SOL     OW21926   2.059   2.473   0.126
 7323SOL    HW121927   1.976   2.458   0.171
 7323SOL    HW221928   2.035   2.485   0.034
 7324SOL     OW21929   2.081   2.151   0.990
 7324SOL    HW121930   2.112   2.115   1.073
 7324SOL    HW221931   1.994   2.112   0.978
 7325SOL     OW21932   1.845   2.260   0.647
 7325SOL    HW121933   1.764   2.282   0.692
 7325SOL    HW221934   1.823   2.185   0.593
 7326SOL     OW21935   2.437   3.170   1.209
 7326SOL    HW121936   2.355   3.173   1.160
 7326SOL    HW221937   2.454   3.261   1.233
 7327SOL     OW21938   3.451   3.386   0.706
 7327SOL    HW121939   3.404   3.354   0.783
 7327SOL    HW221940   3.385   3.389   0.637
 7328SOL     OW21941   3.001   2.562   0.686
 7328SOL    HW121942   3.047   2.646   0.676
 7328SOL    HW221943   2.951   2.572   0.766
 7329SOL     OW21944   3.636   2.445   0.200
 7329SOL    HW121945   3.562   2.475   0.148
 7329SOL    HW221946   3.601   2.373   0.252
 7330SOL     OW21947   2.589   2.991   1.058
 7330SOL    HW121948   2.530   3.031   1.122
 7330SOL    HW221949   2.632   3.065   1.015
 7331SOL     OW21950   2.750   2.604   1.828
 7331SOL    HW121951   2.741   2.671   1.896
 7331SOL    HW221952   2.766   2.653   1.748
 7332SOL     OW21953   2.548   2.839   0.645
 7332SOL    HW121954   2.615   2.841   0.713
 7332SOL    HW221955   2.481   2.901   0.676
 7333SOL     OW21956   2.574   3.012   1.833
 7333SOL    HW121957   2.625   3.085   1.868
 7333SOL    HW221958   2.498   3.053   1.792
 7334SOL     OW21959   2.204   3.258   1.071
 7334SOL    HW121960   2.128   3.216   1.031
 7334SOL    HW221961   2.240   3.314   1.001
 7335SOL     OW21962   3.315   3.369   1.372
 7335SOL    HW121963   3.370   3.446   1.385
 7335SOL    HW221964   3.243   3.379   1.434
 7336SOL     OW21965   2.320   2.236   1.456
 7336SOL    HW121966   2.395   2.178   1.471
 7336SOL    HW221967   2.244   2.185   1.482
 7337SOL     OW21968   3.442   2.294   0.752
 7337SOL    HW121969   3.368   2.302   0.692
 7337SOL    HW221970   3.428   2.364   0.816
 7338SOL     OW21971   2.089   3.582   0.470
 7338SOL    HW121972   2.106   3.657   0.527
 7338SOL    HW221973   2.175   3.562   0.431
 7339SOL     OW21974   2.997   3.204   1.697
 7339SOL    HW121975   3.042   3.193   1.780
 7339SOL    HW221976   2.943   3.125   1.688
 7340SOL     OW21977   2.072   3.306   0.507
 7340SOL    HW121978   2.064   3.401   0.517
 7340SOL    HW221979   2.032   3.271   0.587
 7341SOL     OW21980   2.142   2.948   0.881
 7341SOL    HW121981   2.144   2.860   0.917
 7341SOL    HW221982   2.088   2.998   0.942
 7342SOL     OW21983   2.436   3.665   1.421
 7342SOL    HW121984   2.359   3.645   1.475
 7342SOL    HW221985   2.468   3.749   1.455
 7343SOL     OW21986   2.430   2.809   0.174
 7343SOL    HW121987   2.403   2.879   0.114
 7343SOL    HW221988   2.488   2.852   0.237
 7344SOL     OW21989   3.454   1.995   1.459
 7344SOL    HW121990   3.492   2.071   1.416
 7344SOL    HW221991   3.422   2.028   1.544
 7345SOL     OW21992   1.976   2.515   0.573
 7345SOL    HW121993   1.941   2.430   0.597
 7345SOL    HW221994   1.969   2.568   0.653
 7346SOL     OW21995   3.724   3.599   0.306
 7346SOL    HW121996   3.793   3.578   0.368
 7346SOL    HW221997   3.738   3.692   0.285
 7347SOL     OW21998   1.922   3.436   0.085
 7347SOL    HW121999   1.899   3.349   0.117
 7347SOL    HW222000   1.900   3.495   0.157
 7348SOL     OW22001   3.560   2.782   0.664
 7348SOL    HW122002   3.643   2.738   0.646
 7348SOL    HW222003   3.540   2.832   0.584
 7349SOL     OW22004   3.524   2.953   0.443
 7349SOL    HW122005   3.605   2.949   0.393
 7349SOL    HW222006   3.538   3.023   0.507
 7350SOL     OW22007   1.983   2.611   1.578
 7350SOL    HW122008   2.068   2.655   1.582
 7350SOL    HW222009   1.920   2.682   1.564
 7351SOL     OW22010   2.478   3.243   0.757
 7351SOL    HW122011   2.436   3.157   0.752
 7351SOL    HW222012   2.474   3.277   0.668
 7352SOL     OW22013   3.132   3.088   1.417
 7352SOL    HW122014   3.160   3.019   1.357
 7352SOL    HW222015   3.194   3.082   1.490
 7353SOL     OW22016   2.694   1.878   0.529
 7353SOL    HW122017   2.735   1.958   0.497
 7353SOL    HW222018   2.600   1.897   0.529
 7354SOL     OW22019   2.049   2.818   1.302
 7354SOL    HW122020   2.136   2.783   1.285
 7354SOL    HW222021   1.994   2.782   1.233
 7355SOL     OW22022   3.353   2.890   0.236
 7355SOL    HW122023   3.299   2.818   0.267
 7355SOL    HW222024   3.415   2.906   0.307
 7356SOL     OW22025   3.042   3.685   1.636
 7356SOL    HW122026   3.043   3.746   1.562
 7356SOL    HW222027   3.058   3.599   1.596
 7357SOL     OW22028   2.221   2.115   1.876
 7357SOL    HW122029   2.257   2.196   1.914
 7357SOL    HW222030   2.127   2.130   1.873
 7358SOL     OW22031   3.334   3.278   0.931
 7358SOL    HW122032   3.271   3.298   0.999
 7358SOL    HW222033   3.316   3.188   0.906
 7359SOL     OW22034   3.506   3.658   0.565
 7359SOL    HW122035   3.489   3.613   0.482
 7359SOL    HW222036   3.504   3.589   0.631
 7360SOL     OW22037   2.454   2.553   0.285
 7360SOL    HW122038   2.460   2.639   0.244
 7360SOL    HW222039   2.388   2.563   0.353
 7361SOL     OW22040   3.144   2.253   0.941
 7361SOL    HW122041   3.055   2.219   0.947
 7361SOL    HW222042   3.195   2.195   0.997
 7362SOL     OW22043   3.452   3.539   0.324
 7362SOL    HW122044   3.546   3.550   0.309
 7362SOL    HW222045   3.416   3.521   0.237
 7363SOL     OW22046   2.652   2.475   1.430
 7363SOL    HW122047   2.629   2.446   1.519
 7363SOL    HW222048   2.627   2.402   1.374
 7364SOL     OW22049   3.254   2.339   1.674
 7364SOL    HW122050   3.259   2.382   1.759
 7364SOL    HW222051   3.304   2.258   1.685
 7365SOL     OW22052   2.806   2.743   1.593
 7365SOL    HW122053   2.862   2.679   1.549
 7365SOL    HW222054   2.758   2.785   1.523
 7366SOL     OW22055   2.870   2.259   1.209
 7366SOL    HW122056   2.778   2.273   1.232
 7366SOL    HW222057   2.867   2.215   1.125
 7367SOL     OW22058   2.928   2.559   0.416
 7367SOL    HW122059   2.948   2.555   0.510
 7367SOL    HW222060   2.843   2.516   0.408
 7368SOL     OW22061   1.955   2.689   0.783
 7368SOL    HW122062   2.037   2.682   0.831
 7368SOL    HW222063   1.907   2.760   0.826
 7369SOL     OW22064   1.971   3.741   1.587
 7369SOL    HW122065   1.979   3.721   1.681
 7369SOL    HW222066   1.886   3.707   1.562
 7370SOL     OW22067   2.723   2.201   0.200
 7370SOL    HW122068   2.710   2.251   0.119
 7370SOL    HW222069   2.732   2.110   0.171
 7371SOL     OW22070   3.549   2.424   1.840
 7371SOL    HW122071   3.527   2.502   1.788
 7371SOL    HW222072   3.577   2.360   1.775
 7372SOL     OW22073   3.258   3.011   0.556
 7372SOL    HW122074   3.336   3.001   0.502
 7372SOL    HW222075   3.202   3.072   0.508
 7373SOL     OW22076   2.414   2.025   0.914
 7373SOL    HW122077   2.419   2.053   1.006
 7373SOL    HW222078   2.409   2.107   0.865
 7374SOL     OW22079   2.862   3.315   0.472
 7374SOL    HW122080   2.837   3.391   0.419
 7374SOL    HW222081   2.829   3.335   0.559
 7375SOL     OW22082   2.215   3.679   0.879
 7375SOL    HW122083   2.260   3.595   0.884
 7375SOL    HW222084   2.283   3.743   0.901
 7376SOL     OW22085   3.665   2.906   0.894
 7376SOL    HW122086   3.617   2.888   0.814
 7376SOL    HW222087   3.598   2.916   0.961
 7377SOL     OW22088   3.080   3.405   1.517
 7377SOL    HW122089   3.069   3.334   1.580
 7377SOL    HW222090   3.011   3.391   1.452
 7378SOL     OW22091   2.174   2.790   0.290
 7378SOL    HW122092   2.256   2.798   0.240
 7378SOL    HW222093   2.176   2.702   0.326
 7379SOL     OW22094   3.347   2.619   0.713
 7379SOL    HW122095   3.347   2.578   0.799
 7379SOL    HW222096   3.425   2.674   0.712
 7380SOL     OW22097   2.335   3.146   1.748
 7380SOL    HW122098   2.311   3.150   1.655
 7380SOL    HW222099   2.252   3.134   1.794
 7381SOL     OW22100   2.966   3.646   0.181
 7381SOL    HW122101   2.909   3.605   0.247
 7381SOL    HW222102   3.005   3.572   0.134
 7382SOL     OW22103   2.070   2.118   1.498
 7382SOL    HW122104   1.998   2.178   1.515
 7382SOL    HW222105   2.040   2.034   1.532
 7383SOL     OW22106   3.493   3.234   0.112
 7383SOL    HW122107   3.451   3.320   0.105
 7383SOL    HW222108   3.427   3.173   0.078
 7384SOL     OW22109   2.349   3.570   0.376
 7384SOL    HW122110   2.385   3.646   0.421
 7384SOL    HW222111   2.416   3.548   0.310
 7385SOL     OW22112   3.257   1.965   0.447
 7385SOL    HW122113   3.254   1.945   0.354
 7385SOL    HW222114   3.349   1.952   0.472
 7386SOL     OW22115   2.114   3.651   1.214
 7386SOL    HW122116   2.163   3.576   1.249
 7386SOL    HW222117   2.099   3.629   1.122
 7387SOL     OW22118   2.808   3.564   0.891
 7387SOL    HW122119   2.892   3.520   0.905
 7387SOL    HW222120   2.766   3.513   0.821
 7388SOL     OW22121   2.236   2.555   0.464
 7388SOL    HW122122   2.259   2.462   0.476
 7388SOL    HW222123   2.147   2.562   0.499
 7389SOL     OW22124   3.370   2.085   1.717
 7389SOL    HW122125   3.383   2.103   1.810
 7389SOL    HW222126   3.304   2.015   1.715
 7390SOL     OW22127   2.469   1.954   0.117
 7390SOL    HW122128   2.564   1.944   0.127
 7390SOL    HW222129   2.455   1.960   0.023
 7391SOL     OW22130   2.621   2.136   1.752
 7391SOL    HW122131   2.706   2.090   1.751
 7391SOL    HW222132   2.574   2.096   1.826
 7392SOL     OW22133   2.732   3.390   1.201
 7392SOL    HW122134   2.713   3.348   1.117
 7392SOL    HW222135   2.799   3.334   1.241
 7393SOL     OW22136   3.192   2.453   1.433
 7393SOL    HW122137   3.224   2.423   1.518
 7393SOL    HW222138   3.230   2.540   1.422
 7394SOL     OW22139   2.679   3.239   0.961
 7394SOL    HW122140   2.765   3.235   0.919
 7394SOL    HW222141   2.617   3.251   0.890
 7395SOL     OW22142   2.793   2.377   0.890
 7395SOL    HW122143   2.768   2.364   0.798
 7395SOL    HW222144   2.820   2.290   0.920
 7396SOL     OW22145   2.427   1.938   0.502
 7396SOL    HW122146   2.347   1.936   0.556
 7396SOL    HW222147   2.413   2.010   0.441
 7397SOL     OW22148   3.288   3.061   0.035
 7397SOL    HW122149   3.313   2.995   0.100
 7397SOL    HW222150   3.207   3.099   0.069
 7398SOL     OW22151   2.814   2.113   0.450
 7398SOL    HW122152   2.782   2.149   0.367
 7398SOL    HW222153   2.907   2.134   0.451
 7399SOL     OW22154   2.938   2.556   1.445
 7399SOL    HW122155   2.874   2.484   1.450
 7399SOL    HW222156   3.023   2.512   1.442
 7400SOL     OW22157   3.067   3.450   0.800
 7400SOL    HW122158   3.083   3.509   0.727
 7400SOL    HW222159   3.138   3.468   0.862
 7401SOL     OW22160   2.341   3.010   0.710
 7401SOL    HW122161   2.278   2.989   0.779
 7401SOL    HW222162   2.291   3.007   0.629
 7402SOL     OW22163   3.115   3.655   0.613
 7402SOL    HW122164   3.163   3.719   0.560
 7402SOL    HW222165   3.045   3.706   0.655
 7403SOL     OW22166   2.956   2.424   9.980
 7403SOL    HW122167   2.868   2.386   9.986
 7403SOL    HW222168   2.992   2.416   0.068
 7404SOL     OW22169   1.962   2.413   1.391
 7404SOL    HW122170   2.054   2.415   1.365
 7404SOL    HW222171   1.954   2.482   1.457
 7405SOL     OW22172   2.421   2.083   1.185
 7405SOL    HW122173   2.459   2.018   1.244
 7405SOL    HW222174   2.328   2.084   1.205
 7406SOL     OW22175   2.735   2.314   0.633
 7406SOL    HW122176   2.700   2.371   0.564
 7406SOL    HW222177   2.759   2.234   0.587
 7407SOL     OW22178   2.887   1.919   0.742
 7407SOL    HW122179   2.823   1.915   0.671
 7407SOL    HW222180   2.862   1.847   0.800
 7408SOL     OW22181   3.292   3.015   0.854
 7408SOL    HW122182   3.225   2.948   0.867
 7408SOL    HW222183   3.302   3.021   0.759
 7409SOL     OW22184   3.323   2.477   0.952
 7409SOL    HW122185   3.260   2.407   0.962
 7409SOL    HW222186   3.379   2.471   1.029
 7410SOL     OW22187   3.723   2.651   0.368
 7410SOL    HW122188   3.764   2.601   0.439
 7410SOL    HW222189   3.683   2.584   0.313
 7411SOL     OW22190   2.366   3.305   0.214
 7411SOL    HW122191   2.285   3.259   0.234
 7411SOL    HW222192   2.408   3.249   0.148
 7412SOL     OW22193   3.573   3.135   0.630
 7412SOL    HW122194   3.665   3.127   0.655
 7412SOL    HW222195   3.548   3.223   0.658
 7413SOL     OW22196   3.280   2.428   0.095
 7413SOL    HW122197   3.203   2.416   0.151
 7413SOL    HW222198   3.317   2.340   0.086
 7414SOL     OW22199   2.370   2.126   0.310
 7414SOL    HW122200   2.408   2.067   0.244
 7414SOL    HW222201   2.348   2.205   0.261
 7415SOL     OW22202   3.597   3.106   1.532
 7415SOL    HW122203   3.685   3.072   1.519
 7415SOL    HW222204   3.610   3.193   1.570
 7416SOL     OW22205   2.904   3.217   1.335
 7416SOL    HW122206   2.826   3.182   1.380
 7416SOL    HW222207   2.977   3.172   1.376
 7417SOL     OW22208   3.470   3.497   1.672
 7417SOL    HW122209   3.459   3.533   1.584
 7417SOL    HW222210   3.547   3.441   1.665
 7418SOL     OW22211   3.013   3.100   1.105
 7418SOL    HW122212   2.951   3.134   1.170
 7418SOL    HW222213   2.979   3.132   1.021
 7419SOL     OW22214   3.469   2.954   1.078
 7419SOL    HW122215   3.462   3.020   1.147
 7419SOL    HW222216   3.400   2.975   1.016
 7420SOL     OW22217   2.780   1.943   1.383
 7420SOL    HW122218   2.802   1.928   1.291
 7420SOL    HW222219   2.859   1.984   1.419
 7421SOL     OW22220   2.841   2.978   1.724
 7421SOL    HW122221   2.751   2.994   1.752
 7421SOL    HW222222   2.836   2.897   1.673
 7422SOL     OW22223   2.586   2.915   0.377
 7422SOL    HW122224   2.572   2.887   0.468
 7422SOL    HW222225   2.666   2.870   0.351
 7423SOL     OW22226   2.288   2.690   1.259
 7423SOL    HW122227   2.356   2.700   1.326
 7423SOL    HW222228   2.258   2.599   1.269
 7424SOL     OW22229   3.127   2.230   1.291
 7424SOL    HW122230   3.154   2.310   1.336
 7424SOL    HW222231   3.037   2.248   1.262
 7425SOL     OW22232   1.940   3.432   1.363
 7425SOL    HW122233   1.909   3.503   1.307
 7425SOL    HW222234   2.035   3.433   1.353
 7426SOL     OW22235   2.177   2.987   0.488
 7426SOL    HW122236   2.177   3.058   0.423
 7426SOL    HW222237   2.185   2.907   0.436
 7427SOL     OW22238   2.395   2.376   0.858
 7427SOL    HW122239   2.406   2.434   0.783
 7427SOL    HW222240   2.463   2.403   0.919
 7428SOL     OW22241   3.111   3.210   0.420
 7428SOL    HW122242   3.167   3.283   0.447
 7428SOL    HW222243   3.023   3.236   0.444
 7429SOL     OW22244   3.171   3.331   1.142
 7429SOL    HW122245   3.218   3.337   1.225
 7429SOL    HW222246   3.120   3.250   1.150
 7430SOL     OW22247   3.400   2.484   0.472
 7430SOL    HW122248   3.380   2.523   0.557
 7430SOL    HW222249   3.355   2.540   0.409
 7431SOL     OW22250   2.206   3.395   1.302
 7431SOL    HW122251   2.199   3.342   1.223
 7431SOL    HW222252   2.300   3.412   1.312
 7432SOL     OW22253   2.294   2.609   1.618
 7432SOL    HW122254   2.353   2.652   1.556
 7432SOL    HW222255   2.337   2.526   1.638
 7433SOL     OW22256   3.489   2.648   1.698
 7433SOL    HW122257   3.402   2.686   1.689
 7433SOL    HW222258   3.540   2.686   1.626
 7434SOL     OW22259   2.857   2.003   1.758
 7434SOL    HW122260   2.916   2.076   1.739
 7434SOL    HW222261   2.909   1.925   1.736
 7435SOL     OW22262   2.357   1.897   1.763
 7435SOL    HW122263   2.302   1.847   1.702
 7435SOL    HW222264   2.304   1.974   1.784
 7436SOL     OW22265   2.452   2.737   1.038
 7436SOL    HW122266   2.491   2.824   1.041
 7436SOL    HW222267   2.395   2.733   1.115
 7437SOL     OW22268   3.171   2.716   1.003
 7437SOL    HW122269   3.082   2.689   0.978
 7437SOL    HW222270   3.225   2.639   0.986
 7438SOL     OW22271   3.053   2.381   0.246
 7438SOL    HW122272   3.065   2.305   0.303
 7438SOL    HW222273   3.012   2.447   0.301
 7439SOL     OW22274   2.154   2.056   1.239
 7439SOL    HW122275   2.119   2.084   1.323
 7439SOL    HW222276   2.137   1.962   1.236
 7440SOL     OW22277   1.912   3.175   1.267
 7440SOL    HW122278   1.941   3.119   1.339
 7440SOL    HW222279   1.915   3.263   1.303
 7441SOL     OW22280   2.571   2.483   1.038
 7441SOL    HW122281   2.651   2.477   0.984
 7441SOL    HW222282   2.544   2.574   1.029
 7442SOL     OW22283   3.613   2.830   1.869
 7442SOL    HW122284   3.573   2.757   1.821
 7442SOL    HW222285   3.550   2.850   1.938
 7443SOL     OW22286   2.181   1.926   0.630
 7443SOL    HW122287   2.150   2.014   0.649
 7443SOL    HW222288   2.188   1.884   0.716
 7444SOL     OW22289   3.499   2.255   0.352
 7444SOL    HW122290   3.532   2.191   0.415
 7444SOL    HW222291   3.463   2.326   0.406
 7445SOL     OW22292   2.897   2.620   0.958
 7445SOL    HW122293   2.875   2.635   1.050
 7445SOL    HW222294   2.867   2.531   0.940
 7446SOL     OW22295   2.842   3.428   1.734
 7446SOL    HW122296   2.822   3.471   1.651
 7446SOL    HW222297   2.881   3.344   1.709
 7447SOL     OW22298   3.700   3.357   1.602
 7447SOL    HW122299   3.727   3.386   1.515
 7447SOL    HW222300   3.778   3.367   1.656
 7448SOL     OW22301   2.211   2.781   1.816
 7448SOL    HW122302   2.288   2.798   1.871
 7448SOL    HW222303   2.242   2.718   1.751
 7449SOL     OW22304   3.362   2.167   0.128
 7449SOL    HW122305   3.313   2.087   0.150
 7449SOL    HW222306   3.410   2.188   0.208
 7450SOL     OW22307   3.184   2.680   0.040
 7450SOL    HW122308   3.218   2.591   0.041
 7450SOL    HW222309   3.240   2.727   9.979
 7451SOL     OW22310   2.932   3.215   0.865
 7451SOL    HW122311   2.943   3.142   0.805
 7451SOL    HW222312   2.984   3.286   0.827
 7452SOL     OW22313   2.180   2.676   0.944
 7452SOL    HW122314   2.274   2.691   0.944
 7452SOL    HW222315   2.170   2.586   0.975
 7453SOL     OW22316   2.175   2.399   1.011
 7453SOL    HW122317   2.136   2.313   1.002
 7453SOL    HW222318   2.252   2.397   0.954
 7454SOL     OW22319   3.001   2.229   1.685
 7454SOL    HW122320   2.955   2.280   1.752
 7454SOL    HW222321   3.086   2.272   1.677
 7455SOL     OW22322   3.018   2.052   1.473
 7455SOL    HW122323   3.006   2.113   1.546
 7455SOL    HW222324   3.064   2.101   1.406
 7456SOL     OW22325   1.879   3.152   0.170
 7456SOL    HW122326   1.789   3.181   0.154
 7456SOL    HW222327   1.869   3.073   0.223
 7457SOL     OW22328   1.955   3.632   0.952
 7457SOL    HW122329   1.921   3.558   0.901
 7457SOL    HW222330   2.042   3.648   0.915
 7458SOL     OW22331   2.346   3.434   0.905
 7458SOL    HW122332   2.416   3.495   0.925
 7458SOL    HW222333   2.388   3.366   0.851
 7459SOL     OW22334   2.810   2.642   1.216
 7459SOL    HW122335   2.873   2.631   1.287
 7459SOL    HW222336   2.731   2.597   1.246
 7460SOL     OW22337   1.902   2.435   1.121
 7460SOL    HW122338   1.983   2.431   1.071
 7460SOL    HW222339   1.929   2.427   1.212
 7461SOL     OW22340   2.048   2.400   1.744
 7461SOL    HW122341   2.119   2.367   1.690
 7461SOL    HW222342   2.012   2.474   1.694
 7462SOL     OW22343   3.254   2.782   1.651
 7462SOL    HW122344   3.271   2.877   1.646
 7462SOL    HW222345   3.246   2.755   1.560
 7463SOL     OW22346   2.689   2.426   0.374
 7463SOL    HW122347   2.695   2.351   0.315
 7463SOL    HW222348   2.611   2.473   0.346
 7464SOL     OW22349   3.498   2.463   1.164
 7464SOL    HW122350   3.489   2.404   1.239
 7464SOL    HW222351   3.589   2.452   1.136
 7465SOL     OW22352   2.088   3.402   1.723
 7465SOL    HW122353   2.064   3.450   1.802
 7465SOL    HW222354   2.100   3.312   1.753
 7466SOL     OW22355   2.596   2.295   1.233
 7466SOL    HW122356   2.532   2.225   1.219
 7466SOL    HW222357   2.577   2.359   1.164
 7467SOL     OW22358   2.769   3.540   1.486
 7467SOL    HW122359   2.746   3.493   1.406
 7467SOL    HW222360   2.771   3.633   1.460
 7468SOL     OW22361   2.313   2.348   0.155
 7468SOL    HW122362   2.372   2.414   0.191
 7468SOL    HW222363   2.228   2.392   0.151
 7469SOL     OW22364   1.992   3.013   1.481
 7469SOL    HW122365   1.996   2.973   1.568
 7469SOL    HW222366   2.013   2.941   1.421
 7470SOL     OW22367   3.166   2.896   1.208
 7470SOL    HW122368   3.175   2.833   1.138
 7470SOL    HW222369   3.112   2.966   1.171
 7471SOL     OW22370   3.189   2.680   0.319
 7471SOL    HW122371   3.104   2.658   0.356
 7471SOL    HW222372   3.176   2.676   0.224
 7472SOL     OW22373   3.648   3.586   1.170
 7472SOL    HW122374   3.710   3.611   1.102
 7472SOL    HW222375   3.617   3.500   1.143
 7473SOL     OW22376   3.102   3.595   1.089
 7473SOL    HW122377   3.187   3.625   1.057
 7473SOL    HW222378   3.117   3.504   1.114
 7474SOL     OW22379   1.968   3.110   1.011
 7474SOL    HW122380   1.940   3.132   1.100
 7474SOL    HW222381   1.896   3.058   0.976
 7475SOL     OW22382   2.549   3.545   1.750
 7475SOL    HW122383   2.486   3.616   1.737
 7475SOL    HW222384   2.623   3.568   1.693
 7476SOL     OW22385   2.748   1.941   0.099
 7476SOL    HW122386   2.742   1.914   0.007
 7476SOL    HW222387   2.826   1.895   0.132
 7477SOL     OW22388   3.617   2.044   0.496
 7477SOL    HW122389   3.677   2.021   0.425
 7477SOL    HW222390   3.586   1.960   0.530
 7478SOL     OW22391   3.262   3.434   0.504
 7478SOL    HW122392   3.319   3.468   0.435
 7478SOL    HW222393   3.209   3.508   0.530
 7479SOL     OW22394   1.996   3.669   1.844
 7479SOL    HW122395   1.955   3.593   1.885
 7479SOL    HW222396   2.046   3.711   1.914
 7480SOL     OW22397   3.141   2.794   0.669
 7480SOL    HW122398   3.215   2.734   0.681
 7480SOL    HW222399   3.178   2.867   0.619
 7481SOL     OW22400   2.645   3.142   1.414
 7481SOL    HW122401   2.619   3.190   1.493
 7481SOL    HW222402   2.571   3.152   1.355
 7482SOL     OW22403   2.547   3.500   0.188
 7482SOL    HW122404   2.551   3.515   0.094
 7482SOL    HW222405   2.491   3.423   0.198
 7483SOL     OW22406   3.478   3.592   1.402
 7483SOL    HW122407   3.535   3.592   1.325
 7483SOL    HW222408   3.462   3.685   1.420
 7484SOL     OW22409   3.707   2.022   0.964
 7484SOL    HW122410   3.735   1.932   0.944
 7484SOL    HW222411   3.619   2.028   0.926
 7485SOL     OW22412   2.104   2.175   0.709
 7485SOL    HW122413   2.017   2.210   0.689
 7485SOL    HW222414   2.108   2.174   0.805
 7486SOL     OW22415   3.078   3.429   0.053
 7486SOL    HW122416   3.066   3.340   0.084
 7486SOL    HW222417   3.091   3.420   9.958
 7487SOL     OW22418   2.685   2.873   1.385
 7487SOL    HW122419   2.722   2.864   1.297
 7487SOL    HW222420   2.674   2.968   1.397
 7488SOL     OW22421   2.805   2.785   0.296
 7488SOL    HW122422   2.854   2.805   0.216
 7488SOL    HW222423   2.852   2.710   0.334
 7489SOL     OW22424   3.351   3.473   0.074
 7489SOL    HW122425   3.256   3.466   0.082
 7489SOL    HW222426   3.367   3.482   9.980
 7490SOL     OW22427   2.225   3.175   1.502
 7490SOL    HW122428   2.217   3.248   1.441
 7490SOL    HW222429   2.147   3.122   1.485
 7491SOL     OW22430   3.461   3.153   1.277
 7491SOL    HW122431   3.515   3.128   1.353
 7491SOL    HW222432   3.402   3.220   1.311
 7492SOL     OW22433   2.939   2.980   0.731
 7492SOL    HW122434   2.863   2.931   0.762
 7492SOL    HW222435   3.000   2.913   0.702
 7493SOL     OW22436   2.895   2.111   0.961
 7493SOL    HW122437   2.894   2.068   0.876
 7493SOL    HW222438   2.888   2.038   1.024
 7494SOL     OW22439   2.484   3.347   0.507
 7494SOL    HW122440   2.524   3.292   0.440
 7494SOL    HW222441   2.415   3.394   0.461
 7495SOL     OW22442   3.607   2.244   1.388
 7495SOL    HW122443   3.678   2.308   1.384
 7495SOL    HW222444   3.634   2.175   1.327
 7496SOL     OW22445   2.131   3.175   0.282
 7496SOL    HW122446   2.048   3.177   0.234
 7496SOL    HW222447   2.115   3.228   0.360
 7497SOL     OW22448   1.983   2.909   1.736
 7497SOL    HW122449   1.905   2.880   1.785
 7497SOL    HW222450   2.055   2.858   1.773
 7498SOL     OW22451   2.541   2.051   1.495
 7498SOL    HW122452   2.625   2.025   1.457
 7498SOL    HW222453   2.564   2.084   1.582
 7499SOL     OW22454   1.950   2.137   0.021
 7499SOL    HW122455   1.860   2.154   9.992
 7499SOL    HW222456   1.997   2.218   9.999
 7500SOL     OW22457   3.277   2.716   1.388
 7500SOL    HW122458   3.224   2.775   1.333
 7500SOL    HW222459   3.365   2.720   1.350
 7501SOL     OW22460   1.937   2.003   0.278
 7501SOL    HW122461   1.930   2.052   0.196
 7501SOL    HW222462   2.031   1.990   0.290
 7502SOL     OW22463   3.059   3.173   0.146
 7502SOL    HW122464   2.971   3.136   0.137
 7502SOL    HW222465   3.077   3.172   0.240
 7503SOL     OW22466   2.487   2.693   1.441
 7503SOL    HW122467   2.546   2.768   1.430
 7503SOL    HW222468   2.545   2.617   1.440
 7504SOL     OW22469   3.349   3.665   0.993
 7504SOL    HW122470   3.376   3.739   0.939
 7504SOL    HW222471   3.431   3.620   1.015
 7505SOL     OW22472   2.588   2.410   1.686
 7505SOL    HW122473   2.634   2.464   1.750
 7505SOL    HW222474   2.597   2.320   1.718
 7506SOL     OW22475   3.330   3.046   1.619
 7506SOL    HW122476   3.323   3.068   1.712
 7506SOL    HW222477   3.420   3.070   1.596
 7507SOL     OW22478   2.216   3.609   1.580
 7507SOL    HW122479   2.134   3.655   1.562
 7507SOL    HW222480   2.189   3.525   1.618
 7508SOL     OW22481   3.517   2.737   1.253
 7508SOL    HW122482   3.515   2.654   1.206
 7508SOL    HW222483   3.504   2.803   1.185
 7509SOL     OW22484   3.083   2.186   0.451
 7509SOL    HW122485   3.143   2.111   0.449
 7509SOL    HW222486   3.111   2.237   0.527
 7510SOL     OW22487   2.428   2.586   0.678
 7510SOL    HW122488   2.476   2.668   0.666
 7510SOL    HW222489   2.365   2.584   0.606
 7511SOL     OW22490   3.609   2.217   1.664
 7511SOL    HW122491   3.605   2.233   1.570
 7511SOL    HW222492   3.532   2.164   1.682
 7512SOL     OW22493   3.622   2.787   1.504
 7512SOL    HW122494   3.605   2.880   1.517
 7512SOL    HW222495   3.595   2.770   1.414
 7513SOL     OW22496   2.760   3.280   0.043
 7513SOL    HW122497   2.675   3.239   0.026
 7513SOL    HW222498   2.754   3.312   0.133
 7514SOL     OW22499   2.529   3.631   0.928
 7514SOL    HW122500   2.511   3.724   0.919
 7514SOL    HW222501   2.625   3.624   0.925
 7515SOL     OW22502   2.734   2.838   0.857
 7515SOL    HW122503   2.785   2.765   0.893
 7515SOL    HW222504   2.689   2.875   0.932
 7516SOL     OW22505   2.958   2.835   0.074
 7516SOL    HW122506   2.951   2.882   9.991
 7516SOL    HW222507   3.033   2.776   0.062
 7517SOL     OW22508   3.692   3.420   0.841
 7517SOL    HW122509   3.615   3.411   0.784
 7517SOL    HW222510   3.669   3.369   0.919
 7518SOL     OW22511   2.074   3.147   1.836
 7518SOL    HW122512   2.042   3.068   1.793
 7518SOL    HW222513   2.015   3.160   1.910
 7519SOL     OW22514   1.980   3.081   0.670
 7519SOL    HW122515   2.009   3.041   0.752
 7519SOL    HW222516   2.040   3.047   0.604
 7520SOL     OW22517   2.552   3.281   1.633
 7520SOL    HW122518   2.475   3.242   1.674
 7520SOL    HW222519   2.557   3.369   1.669
 7521SOL     OW22520   3.673   2.033   1.234
 7521SOL    HW122521   3.674   1.939   1.247
 7521SOL    HW222522   3.687   2.045   1.140
 7522SOL     OW22523   2.276   2.296   0.516
 7522SOL    HW122524   2.309   2.226   0.460
 7522SOL    HW222525   2.227   2.250   0.585
 7523SOL     OW22526   3.558   3.341   1.081
 7523SOL    HW122527   3.479   3.322   1.030
 7523SOL    HW222528   3.559   3.274   1.150
 7524SOL     OW22529   2.215   2.427   1.292
 7524SOL    HW122530   2.263   2.363   1.342
 7524SOL    HW222531   2.222   2.397   1.201
 7525SOL     OW22532   2.697   3.459   0.662
 7525SOL    HW122533   2.688   3.542   0.615
 7525SOL    HW222534   2.621   3.407   0.636
 7526SOL     OW22535   3.283   2.094   1.115
 7526SOL    HW122536   3.291   2.004   1.147
 7526SOL    HW222537   3.238   2.141   1.185
 7527SOL     OW22538   2.872   1.879   1.120
 7527SOL    HW122539   2.818   1.816   1.073
 7527SOL    HW222540   2.959   1.839   1.123
 7528SOL     OW22541   2.638   3.188   0.343
 7528SOL    HW122542   2.617   3.094   0.347
 7528SOL    HW222543   2.723   3.195   0.386
 7529SOL     OW22544   2.477   3.431   1.288
 7529SOL    HW122545   2.473   3.515   1.334
 7529SOL    HW222546   2.567   3.427   1.255
 7530SOL     OW22547   3.214   1.919   0.177
 7530SOL    HW122548   3.238   1.882   0.092
 7530SOL    HW222549   3.124   1.890   0.192
 7531SOL     OW22550   3.162   2.330   0.675
 7531SOL    HW122551   3.112   2.411   0.671
 7531SOL    HW222552   3.153   2.300   0.765
 7532SOL     OW22553   3.445   2.050   0.893
 7532SOL    HW122554   3.392   2.079   0.968
 7532SOL    HW222555   3.443   2.124   0.833
 7533SOL     OW22556   1.904   2.906   0.303
 7533SOL    HW122557   2.000   2.907   0.307
 7533SOL    HW222558   1.880   2.818   0.331
 7534SOL     OW22559   2.768   3.542   0.345
 7534SOL    HW122560   2.690   3.527   0.292
 7534SOL    HW222561   2.743   3.612   0.405
 7535SOL     OW22562   2.070   2.484   2.009
 7535SOL    HW122563   1.982   2.471   2.046
 7535SOL    HW222564   2.059   2.470   1.915
 7536SOL     OW22565   2.081   2.151   2.852
 7536SOL    HW122566   2.112   2.115   2.935
 7536SOL    HW222567   1.994   2.113   2.840
 7537SOL     OW22568   1.849   2.258   2.508
 7537SOL    HW122569   1.769   2.283   2.555
 7537SOL    HW222570   1.822   2.184   2.453
 7538SOL     OW22571   2.437   3.170   3.071
 7538SOL    HW122572   2.355   3.173   3.022
 7538SOL    HW222573   2.454   3.261   3.094
 7539SOL     OW22574   3.449   3.386   2.567
 7539SOL    HW122575   3.402   3.355   2.644
 7539SOL    HW222576   3.383   3.389   2.498
 7540SOL     OW22577   3.000   2.566   2.548
 7540SOL    HW122578   3.046   2.649   2.537
 7540SOL    HW222579   2.951   2.577   2.630
 7541SOL     OW22580   3.663   2.443   2.082
 7541SOL    HW122581   3.625   2.442   1.994
 7541SOL    HW222582   3.619   2.371   2.128
 7542SOL     OW22583   2.589   2.992   2.919
 7542SOL    HW122584   2.530   3.032   2.984
 7542SOL    HW222585   2.631   3.065   2.875
 7543SOL     OW22586   2.749   2.604   3.689
 7543SOL    HW122587   2.742   2.671   3.757
 7543SOL    HW222588   2.766   2.653   3.609
 7544SOL     OW22589   2.548   2.847   2.506
 7544SOL    HW122590   2.615   2.847   2.574
 7544SOL    HW222591   2.482   2.909   2.537
 7545SOL     OW22592   2.574   3.012   3.695
 7545SOL    HW122593   2.625   3.085   3.730
 7545SOL    HW222594   2.498   3.054   3.654
 7546SOL     OW22595   2.205   3.259   2.932
 7546SOL    HW122596   2.129   3.216   2.892
 7546SOL    HW222597   2.241   3.314   2.862
 7547SOL     OW22598   3.316   3.368   3.234
 7547SOL    HW122599   3.371   3.445   3.246
 7547SOL    HW222600   3.244   3.379   3.296
 7548SOL     OW22601   2.320   2.237   3.317
 7548SOL    HW122602   2.395   2.178   3.333
 7548SOL    HW222603   2.244   2.186   3.344
 7549SOL     OW22604   3.446   2.294   2.617
 7549SOL    HW122605   3.379   2.304   2.549
 7549SOL    HW222606   3.428   2.364   2.679
 7550SOL     OW22607   2.080   3.590   2.327
 7550SOL    HW122608   2.107   3.661   2.385
 7550SOL    HW222609   2.153   3.579   2.267
 7551SOL     OW22610   2.997   3.204   3.558
 7551SOL    HW122611   3.043   3.193   3.642
 7551SOL    HW222612   2.944   3.124   3.550
 7552SOL     OW22613   2.094   3.319   2.395
 7552SOL    HW122614   2.073   3.413   2.399
 7552SOL    HW222615   2.044   3.280   2.467
 7553SOL     OW22616   2.147   2.951   2.741
 7553SOL    HW122617   2.148   2.862   2.774
 7553SOL    HW222618   2.091   2.999   2.801
 7554SOL     OW22619   2.435   3.666   3.282
 7554SOL    HW122620   2.359   3.646   3.336
 7554SOL    HW222621   2.468   3.749   3.316
 7555SOL     OW22622   2.427   2.849   2.014
 7555SOL    HW122623   2.479   2.892   1.945
 7555SOL    HW222624   2.468   2.879   2.096
 7556SOL     OW22625   3.454   1.994   3.322
 7556SOL    HW122626   3.493   2.070   3.279
 7556SOL    HW222627   3.422   2.028   3.406
 7557SOL     OW22628   1.981   2.521   2.429
 7557SOL    HW122629   1.948   2.434   2.453
 7557SOL    HW222630   1.975   2.571   2.510
 7558SOL     OW22631   3.708   3.605   2.180
 7558SOL    HW122632   3.780   3.590   2.241
 7558SOL    HW222633   3.715   3.698   2.157
 7559SOL     OW22634   1.922   3.442   1.972
 7559SOL    HW122635   1.901   3.351   1.991
 7559SOL    HW222636   1.890   3.490   2.048
 7560SOL     OW22637   3.559   2.787   2.514
 7560SOL    HW122638   3.641   2.743   2.491
 7560SOL    HW222639   3.538   2.840   2.437
 7561SOL     OW22640   3.519   2.967   2.295
 7561SOL    HW122641   3.604   2.959   2.251
 7561SOL    HW222642   3.533   3.033   2.363
 7562SOL     OW22643   1.983   2.611   3.440
 7562SOL    HW122644   2.068   2.655   3.444
 7562SOL    HW222645   1.920   2.682   3.426
 7563SOL     OW22646   2.485   3.260   2.592
 7563SOL    HW122647   2.443   3.174   2.597
 7563SOL    HW222648   2.469   3.289   2.502
 7564SOL     OW22649   3.132   3.088   3.278
 7564SOL    HW122650   3.160   3.018   3.218
 7564SOL    HW222651   3.194   3.082   3.351
 7565SOL     OW22652   2.693   1.873   2.381
 7565SOL    HW122653   2.733   1.956   2.353
 7565SOL    HW222654   2.599   1.891   2.381
 7566SOL     OW22655   2.049   2.818   3.164
 7566SOL    HW122656   2.136   2.783   3.147
 7566SOL    HW222657   1.995   2.784   3.092
 7567SOL     OW22658   3.397   2.877   2.061
 7567SOL    HW122659   3.329   2.817   2.091
 7567SOL    HW222660   3.439   2.907   2.142
 7568SOL     OW22661   3.039   3.684   3.498
 7568SOL    HW122662   3.042   3.746   3.425
 7568SOL    HW222663   3.058   3.599   3.458
 7569SOL     OW22664   2.221   2.115   3.738
 7569SOL    HW122665   2.257   2.195   3.776
 7569SOL    HW222666   2.127   2.130   3.734
 7570SOL     OW22667   3.334   3.279   2.793
 7570SOL    HW122668   3.271   3.299   2.862
 7570SOL    HW222669   3.316   3.188   2.769
 7571SOL     OW22670   3.499   3.658   2.424
 7571SOL    HW122671   3.482   3.611   2.343
 7571SOL    HW222672   3.499   3.590   2.492
 7572SOL     OW22673   2.449   2.561   2.134
 7572SOL    HW122674   2.452   2.649   2.095
 7572SOL    HW222675   2.384   2.568   2.204
 7573SOL     OW22676   3.144   2.255   2.803
 7573SOL    HW122677   3.055   2.220   2.808
 7573SOL    HW222678   3.196   2.197   2.858
 7574SOL     OW22679   3.441   3.535   2.181
 7574SOL    HW122680   3.535   3.550   2.170
 7574SOL    HW222681   3.408   3.522   2.092
 7575SOL     OW22682   2.653   2.475   3.293
 7575SOL    HW122683   2.629   2.446   3.381
 7575SOL    HW222684   2.628   2.402   3.236
 7576SOL     OW22685   3.253   2.339   3.535
 7576SOL    HW122686   3.258   2.383   3.621
 7576SOL    HW222687   3.304   2.259   3.546
 7577SOL     OW22688   2.806   2.743   3.455
 7577SOL    HW122689   2.862   2.679   3.411
 7577SOL    HW222690   2.757   2.785   3.384
 7578SOL     OW22691   2.870   2.259   3.071
 7578SOL    HW122692   2.777   2.272   3.094
 7578SOL    HW222693   2.867   2.216   2.985
 7579SOL     OW22694   2.920   2.559   2.280
 7579SOL    HW122695   2.941   2.556   2.374
 7579SOL    HW222696   2.835   2.515   2.273
 7580SOL     OW22697   1.955   2.687   2.645
 7580SOL    HW122698   2.037   2.682   2.694
 7580SOL    HW222699   1.907   2.759   2.686
 7581SOL     OW22700   1.971   3.741   3.450
 7581SOL    HW122701   1.979   3.721   3.543
 7581SOL    HW222702   1.885   3.707   3.425
 7582SOL     OW22703   2.751   2.212   2.062
 7582SOL    HW122704   2.802   2.266   2.001
 7582SOL    HW222705   2.727   2.135   2.011
 7583SOL     OW22706   3.547   2.425   3.703
 7583SOL    HW122707   3.526   2.502   3.650
 7583SOL    HW222708   3.576   2.360   3.638
 7584SOL     OW22709   3.255   3.012   2.405
 7584SOL    HW122710   3.334   3.001   2.353
 7584SOL    HW222711   3.201   3.073   2.354
 7585SOL     OW22712   2.413   2.022   2.777
 7585SOL    HW122713   2.419   2.051   2.868
 7585SOL    HW222714   2.409   2.104   2.726
 7586SOL     OW22715   2.859   3.318   2.327
 7586SOL    HW122716   2.835   3.392   2.272
 7586SOL    HW222717   2.829   3.342   2.415
 7587SOL     OW22718   2.215   3.678   2.742
 7587SOL    HW122719   2.261   3.594   2.746
 7587SOL    HW222720   2.282   3.742   2.764
 7588SOL     OW22721   3.665   2.905   2.751
 7588SOL    HW122722   3.618   2.890   2.670
 7588SOL    HW222723   3.597   2.914   2.818
 7589SOL     OW22724   3.080   3.405   3.379
 7589SOL    HW122725   3.069   3.334   3.442
 7589SOL    HW222726   3.011   3.391   3.314
 7590SOL     OW22727   2.162   2.821   2.128
 7590SOL    HW122728   2.245   2.842   2.084
 7590SOL    HW222729   2.139   2.734   2.095
 7591SOL     OW22730   3.346   2.625   2.572
 7591SOL    HW122731   3.348   2.582   2.658
 7591SOL    HW222732   3.425   2.679   2.570
 7592SOL     OW22733   2.335   3.146   3.610
 7592SOL    HW122734   2.311   3.150   3.517
 7592SOL    HW222735   2.251   3.134   3.655
 7593SOL     OW22736   3.001   3.638   2.088
 7593SOL    HW122737   2.919   3.608   2.127
 7593SOL    HW222738   3.021   3.573   2.020
 7594SOL     OW22739   2.071   2.118   3.360
 7594SOL    HW122740   1.998   2.179   3.377
 7594SOL    HW222741   2.040   2.034   3.394
 7595SOL     OW22742   3.500   3.250   1.961
 7595SOL    HW122743   3.459   3.336   1.949
 7595SOL    HW222744   3.433   3.187   1.935
 7596SOL     OW22745   2.321   3.603   2.178
 7596SOL    HW122746   2.370   3.654   2.242
 7596SOL    HW222747   2.388   3.563   2.123
 7597SOL     OW22748   3.259   1.967   2.321
 7597SOL    HW122749   3.259   1.943   2.228
 7597SOL    HW222750   3.350   1.956   2.348
 7598SOL     OW22751   2.113   3.650   3.077
 7598SOL    HW122752   2.162   3.576   3.112
 7598SOL    HW222753   2.100   3.629   2.985
 7599SOL     OW22754   2.810   3.565   2.752
 7599SOL    HW122755   2.895   3.523   2.768
 7599SOL    HW222756   2.771   3.514   2.681
 7600SOL     OW22757   2.257   2.547   2.335
 7600SOL    HW122758   2.269   2.453   2.347
 7600SOL    HW222759   2.164   2.562   2.352
 7601SOL     OW22760   3.369   2.085   3.579
 7601SOL    HW122761   3.382   2.103   3.672
 7601SOL    HW222762   3.302   2.017   3.576
 7602SOL     OW22763   2.525   1.971   1.965
 7602SOL    HW122764   2.572   1.892   1.991
 7602SOL    HW222765   2.464   1.941   1.897
 7603SOL     OW22766   2.621   2.135   3.614
 7603SOL    HW122767   2.706   2.090   3.613
 7603SOL    HW222768   2.574   2.096   3.688
 7604SOL     OW22769   2.731   3.388   3.061
 7604SOL    HW122770   2.713   3.347   2.977
 7604SOL    HW222771   2.798   3.333   3.101
 7605SOL     OW22772   3.191   2.454   3.294
 7605SOL    HW122773   3.224   2.424   3.379
 7605SOL    HW222774   3.230   2.540   3.283
 7606SOL     OW22775   2.678   3.238   2.818
 7606SOL    HW122776   2.766   3.233   2.780
 7606SOL    HW222777   2.620   3.253   2.744
 7607SOL     OW22778   2.792   2.377   2.750
 7607SOL    HW122779   2.767   2.365   2.658
 7607SOL    HW222780   2.820   2.290   2.778
 7608SOL     OW22781   2.426   1.925   2.352
 7608SOL    HW122782   2.348   1.926   2.408
 7608SOL    HW222783   2.414   2.000   2.293
 7609SOL     OW22784   3.296   3.074   1.894
 7609SOL    HW122785   3.326   3.000   1.947
 7609SOL    HW222786   3.211   3.098   1.931
 7610SOL     OW22787   2.144   1.910   2.050
 7610SOL    HW122788   2.197   1.977   2.007
 7610SOL    HW222789   2.208   1.852   2.092
 7611SOL     OW22790   2.814   2.112   2.312
 7611SOL    HW122791   2.788   2.148   2.227
 7611SOL    HW222792   2.908   2.130   2.318
 7612SOL     OW22793   2.937   2.556   3.307
 7612SOL    HW122794   2.874   2.485   3.311
 7612SOL    HW222795   3.022   2.513   3.303
 7613SOL     OW22796   3.068   3.449   2.664
 7613SOL    HW122797   3.083   3.509   2.591
 7613SOL    HW222798   3.139   3.467   2.725
 7614SOL     OW22799   2.344   3.024   2.570
 7614SOL    HW122800   2.282   2.999   2.638
 7614SOL    HW222801   2.294   3.017   2.489
 7615SOL     OW22802   3.114   3.654   2.479
 7615SOL    HW122803   3.163   3.717   2.426
 7615SOL    HW222804   3.043   3.705   2.518
 7616SOL     OW22805   2.894   2.377   1.892
 7616SOL    HW122806   2.851   2.460   1.873
 7616SOL    HW222807   2.958   2.397   1.960
 7617SOL     OW22808   1.962   2.413   3.254
 7617SOL    HW122809   2.054   2.415   3.227
 7617SOL    HW222810   1.954   2.482   3.319
 7618SOL     OW22811   2.421   2.083   3.046
 7618SOL    HW122812   2.458   2.020   3.107
 7618SOL    HW222813   2.328   2.084   3.067
 7619SOL     OW22814   2.732   2.316   2.492
 7619SOL    HW122815   2.692   2.372   2.425
 7619SOL    HW222816   2.757   2.237   2.445
 7620SOL     OW22817   2.884   1.921   2.602
 7620SOL    HW122818   2.823   1.915   2.528
 7620SOL    HW222819   2.859   1.848   2.659
 7621SOL     OW22820   3.296   3.015   2.716
 7621SOL    HW122821   3.226   2.950   2.725
 7621SOL    HW222822   3.310   3.022   2.622
 7622SOL     OW22823   3.325   2.478   2.810
 7622SOL    HW122824   3.261   2.408   2.821
 7622SOL    HW222825   3.380   2.472   2.888
 7623SOL     OW22826   3.691   2.658   2.249
 7623SOL    HW122827   3.751   2.615   2.309
 7623SOL    HW222828   3.677   2.594   2.179
 7624SOL     OW22829   2.360   3.286   2.012
 7624SOL    HW122830   2.285   3.254   2.063
 7624SOL    HW222831   2.356   3.237   1.930
 7625SOL     OW22832   3.570   3.134   2.496
 7625SOL    HW122833   3.663   3.127   2.517
 7625SOL    HW222834   3.546   3.223   2.522
 7626SOL     OW22835   3.254   2.437   1.928
 7626SOL    HW122836   3.198   2.411   2.000
 7626SOL    HW222837   3.343   2.414   1.956
 7627SOL     OW22838   2.389   2.119   2.164
 7627SOL    HW122839   2.443   2.077   2.097
 7627SOL    HW222840   2.357   2.199   2.123
 7628SOL     OW22841   3.596   3.106   3.394
 7628SOL    HW122842   3.685   3.072   3.380
 7628SOL    HW222843   3.610   3.194   3.431
 7629SOL     OW22844   2.903   3.217   3.196
 7629SOL    HW122845   2.826   3.182   3.242
 7629SOL    HW222846   2.977   3.172   3.237
 7630SOL     OW22847   3.469   3.496   3.533
 7630SOL    HW122848   3.459   3.533   3.445
 7630SOL    HW222849   3.547   3.441   3.526
 7631SOL     OW22850   3.013   3.099   2.967
 7631SOL    HW122851   2.951   3.133   3.032
 7631SOL    HW222852   2.980   3.131   2.883
 7632SOL     OW22853   3.471   2.953   2.939
 7632SOL    HW122854   3.463   3.020   3.007
 7632SOL    HW222855   3.401   2.975   2.876
 7633SOL     OW22856   2.781   1.943   3.245
 7633SOL    HW122857   2.802   1.928   3.153
 7633SOL    HW222858   2.860   1.984   3.281
 7634SOL     OW22859   2.841   2.977   3.586
 7634SOL    HW122860   2.751   2.994   3.614
 7634SOL    HW222861   2.836   2.897   3.535
 7635SOL     OW22862   2.576   2.924   2.238
 7635SOL    HW122863   2.561   2.898   2.329
 7635SOL    HW222864   2.650   2.871   2.210
 7636SOL     OW22865   2.288   2.690   3.122
 7636SOL    HW122866   2.356   2.700   3.188
 7636SOL    HW222867   2.258   2.600   3.131
 7637SOL     OW22868   3.126   2.229   3.154
 7637SOL    HW122869   3.154   2.310   3.198
 7637SOL    HW222870   3.037   2.248   3.124
 7638SOL     OW22871   1.940   3.431   3.224
 7638SOL    HW122872   1.910   3.503   3.168
 7638SOL    HW222873   2.035   3.431   3.214
 7639SOL     OW22874   2.179   2.997   2.348
 7639SOL    HW122875   2.180   3.068   2.285
 7639SOL    HW222876   2.176   2.917   2.294
 7640SOL     OW22877   2.396   2.379   2.721
 7640SOL    HW122878   2.408   2.437   2.646
 7640SOL    HW222879   2.464   2.404   2.783
 7641SOL     OW22880   3.109   3.216   2.260
 7641SOL    HW122881   3.165   3.286   2.294
 7641SOL    HW222882   3.021   3.239   2.290
 7642SOL     OW22883   3.171   3.330   3.005
 7642SOL    HW122884   3.219   3.337   3.087
 7642SOL    HW222885   3.120   3.249   3.013
 7643SOL     OW22886   3.437   2.479   2.347
 7643SOL    HW122887   3.386   2.520   2.417
 7643SOL    HW222888   3.486   2.552   2.308
 7644SOL     OW22889   2.206   3.395   3.164
 7644SOL    HW122890   2.199   3.342   3.084
 7644SOL    HW222891   2.300   3.411   3.174
 7645SOL     OW22892   2.294   2.608   3.480
 7645SOL    HW122893   2.353   2.652   3.418
 7645SOL    HW222894   2.338   2.526   3.501
 7646SOL     OW22895   3.489   2.648   3.560
 7646SOL    HW122896   3.402   2.686   3.551
 7646SOL    HW222897   3.539   2.686   3.488
 7647SOL     OW22898   2.858   2.002   3.621
 7647SOL    HW122899   2.916   2.076   3.602
 7647SOL    HW222900   2.909   1.925   3.599
 7648SOL     OW22901   2.356   1.897   3.625
 7648SOL    HW122902   2.301   1.847   3.564
 7648SOL    HW222903   2.304   1.974   3.647
 7649SOL     OW22904   2.454   2.737   2.901
 7649SOL    HW122905   2.491   2.825   2.904
 7649SOL    HW222906   2.396   2.733   2.977
 7650SOL     OW22907   3.170   2.715   2.864
 7650SOL    HW122908   3.082   2.688   2.839
 7650SOL    HW222909   3.225   2.639   2.845
 7651SOL     OW22910   3.061   2.385   2.119
 7651SOL    HW122911   3.071   2.308   2.176
 7651SOL    HW222912   3.019   2.451   2.175
 7652SOL     OW22913   2.154   2.056   3.101
 7652SOL    HW122914   2.119   2.084   3.185
 7652SOL    HW222915   2.137   1.962   3.098
 7653SOL     OW22916   1.911   3.174   3.128
 7653SOL    HW122917   1.941   3.118   3.200
 7653SOL    HW222918   1.914   3.262   3.163
 7654SOL     OW22919   2.574   2.484   2.901
 7654SOL    HW122920   2.651   2.477   2.845
 7654SOL    HW222921   2.545   2.575   2.891
 7655SOL     OW22922   3.614   2.829   3.732
 7655SOL    HW122923   3.573   2.757   3.683
 7655SOL    HW222924   3.550   2.850   3.800
 7656SOL     OW22925   2.187   1.922   2.490
 7656SOL    HW122926   2.153   2.010   2.508
 7656SOL    HW222927   2.193   1.880   2.576
 7657SOL     OW22928   3.494   2.252   2.206
 7657SOL    HW122929   3.525   2.187   2.268
 7657SOL    HW222930   3.464   2.325   2.260
 7658SOL     OW22931   2.896   2.620   2.818
 7658SOL    HW122932   2.875   2.635   2.910
 7658SOL    HW222933   2.866   2.531   2.800
 7659SOL     OW22934   2.842   3.427   3.597
 7659SOL    HW122935   2.821   3.471   3.514
 7659SOL    HW222936   2.881   3.344   3.571
 7660SOL     OW22937   3.700   3.357   3.463
 7660SOL    HW122938   3.726   3.386   3.376
 7660SOL    HW222939   3.778   3.367   3.517
 7661SOL     OW22940   2.211   2.780   3.678
 7661SOL    HW122941   2.288   2.798   3.732
 7661SOL    HW222942   2.242   2.718   3.613
 7662SOL     OW22943   3.383   2.130   1.981
 7662SOL    HW122944   3.331   2.059   2.018
 7662SOL    HW222945   3.423   2.174   2.056
 7663SOL     OW22946   3.142   2.683   1.881
 7663SOL    HW122947   3.182   2.597   1.889
 7663SOL    HW222948   3.179   2.719   1.800
 7664SOL     OW22949   2.932   3.215   2.728
 7664SOL    HW122950   2.943   3.142   2.667
 7664SOL    HW222951   2.984   3.286   2.691
 7665SOL     OW22952   2.180   2.678   2.806
 7665SOL    HW122953   2.275   2.692   2.805
 7665SOL    HW222954   2.170   2.588   2.837
 7666SOL     OW22955   2.175   2.400   2.873
 7666SOL    HW122956   2.136   2.313   2.863
 7666SOL    HW222957   2.252   2.398   2.817
 7667SOL     OW22958   3.001   2.229   3.548
 7667SOL    HW122959   2.955   2.281   3.615
 7667SOL    HW222960   3.085   2.272   3.539
 7668SOL     OW22961   3.018   2.051   3.336
 7668SOL    HW122962   3.006   2.114   3.408
 7668SOL    HW222963   3.064   2.101   3.269
 7669SOL     OW22964   1.886   3.165   2.041
 7669SOL    HW122965   1.796   3.187   2.016
 7669SOL    HW222966   1.879   3.079   2.082
 7670SOL     OW22967   1.954   3.632   2.813
 7670SOL    HW122968   1.921   3.559   2.762
 7670SOL    HW222969   2.041   3.649   2.777
 7671SOL     OW22970   2.347   3.432   2.763
 7671SOL    HW122971   2.417   3.492   2.785
 7671SOL    HW222972   2.387   3.370   2.701
 7672SOL     OW22973   2.811   2.643   3.076
 7672SOL    HW122974   2.873   2.631   3.148
 7672SOL    HW222975   2.732   2.597   3.105
 7673SOL     OW22976   1.901   2.434   2.983
 7673SOL    HW122977   1.982   2.431   2.933
 7673SOL    HW222978   1.929   2.426   3.074
 7674SOL     OW22979   2.048   2.400   3.605
 7674SOL    HW122980   2.120   2.368   3.551
 7674SOL    HW222981   2.013   2.474   3.556
 7675SOL     OW22982   3.254   2.783   3.513
 7675SOL    HW122983   3.271   2.877   3.508
 7675SOL    HW222984   3.246   2.755   3.422
 7676SOL     OW22985   2.680   2.431   2.234
 7676SOL    HW122986   2.689   2.356   2.174
 7676SOL    HW222987   2.603   2.478   2.202
 7677SOL     OW22988   3.497   2.464   3.024
 7677SOL    HW122989   3.487   2.405   3.099
 7677SOL    HW222990   3.588   2.452   2.997
 7678SOL     OW22991   2.088   3.402   3.584
 7678SOL    HW122992   2.065   3.452   3.663
 7678SOL    HW222993   2.100   3.312   3.615
 7679SOL     OW22994   2.596   2.295   3.096
 7679SOL    HW122995   2.532   2.226   3.081
 7679SOL    HW222996   2.578   2.359   3.027
 7680SOL     OW22997   2.768   3.541   3.349
 7680SOL    HW122998   2.745   3.494   3.269
 7680SOL    HW222999   2.771   3.633   3.323
 7681SOL     OW23000   2.305   2.343   2.026
 7681SOL    HW123001   2.369   2.409   2.051
 7681SOL    HW223002   2.221   2.389   2.029
 7682SOL     OW23003   1.991   3.012   3.343
 7682SOL    HW123004   1.996   2.973   3.430
 7682SOL    HW223005   2.013   2.941   3.283
 7683SOL     OW23006   3.165   2.895   3.070
 7683SOL    HW123007   3.175   2.832   2.999
 7683SOL    HW223008   3.112   2.965   3.033
 7684SOL     OW23009   3.188   2.723   2.153
 7684SOL    HW123010   3.118   2.688   2.208
 7684SOL    HW223011   3.159   2.707   2.063
 7685SOL     OW23012   3.646   3.586   3.030
 7685SOL    HW123013   3.709   3.612   2.963
 7685SOL    HW223014   3.616   3.499   3.003
 7686SOL     OW23015   3.102   3.594   2.950
 7686SOL    HW123016   3.187   3.625   2.918
 7686SOL    HW223017   3.117   3.504   2.975
 7687SOL     OW23018   1.969   3.109   2.871
 7687SOL    HW123019   1.940   3.131   2.960
 7687SOL    HW223020   1.897   3.056   2.836
 7688SOL     OW23021   2.549   3.545   3.612
 7688SOL    HW123022   2.486   3.616   3.599
 7688SOL    HW223023   2.623   3.568   3.556
 7689SOL     OW23024   3.606   2.046   2.358
 7689SOL    HW123025   3.665   2.026   2.286
 7689SOL    HW223026   3.579   1.960   2.392
 7690SOL     OW23027   3.258   3.432   2.365
 7690SOL    HW123028   3.314   3.466   2.295
 7690SOL    HW223029   3.204   3.506   2.391
 7691SOL     OW23030   1.996   3.668   3.706
 7691SOL    HW123031   1.956   3.592   3.748
 7691SOL    HW223032   2.047   3.710   3.776
 7692SOL     OW23033   3.141   2.798   2.526
 7692SOL    HW123034   3.214   2.738   2.539
 7692SOL    HW223035   3.177   2.870   2.473
 7693SOL     OW23036   2.645   3.142   3.276
 7693SOL    HW123037   2.619   3.190   3.355
 7693SOL    HW223038   2.571   3.152   3.217
 7694SOL     OW23039   2.530   3.498   2.021
 7694SOL    HW123040   2.544   3.512   1.928
 7694SOL    HW223041   2.478   3.417   2.026
 7695SOL     OW23042   3.477   3.592   3.263
 7695SOL    HW123043   3.534   3.592   3.186
 7695SOL    HW223044   3.462   3.685   3.281
 7696SOL     OW23045   3.707   2.022   2.827
 7696SOL    HW123046   3.735   1.933   2.806
 7696SOL    HW223047   3.620   2.029   2.789
 7697SOL     OW23048   2.105   2.168   2.570
 7697SOL    HW123049   2.019   2.205   2.549
 7697SOL    HW223050   2.109   2.170   2.666
 7698SOL     OW23051   3.071   3.450   1.900
 7698SOL    HW123052   3.061   3.359   1.928
 7698SOL    HW223053   3.002   3.464   1.836
 7699SOL     OW23054   2.685   2.873   3.247
 7699SOL    HW123055   2.723   2.865   3.159
 7699SOL    HW223056   2.674   2.968   3.259
 7700SOL     OW23057   2.782   2.772   2.156
 7700SOL    HW123058   2.839   2.805   2.087
 7700SOL    HW223059   2.834   2.705   2.200
 7701SOL     OW23060   3.345   3.507   1.920
 7701SOL    HW123061   3.253   3.487   1.903
 7701SOL    HW223062   3.386   3.510   1.833
 7702SOL     OW23063   2.225   3.174   3.363
 7702SOL    HW123064   2.217   3.248   3.303
 7702SOL    HW223065   2.147   3.121   3.347
 7703SOL     OW23066   3.461   3.152   3.138
 7703SOL    HW123067   3.515   3.128   3.213
 7703SOL    HW223068   3.402   3.219   3.172
 7704SOL     OW23069   2.939   2.981   2.591
 7704SOL    HW123070   2.863   2.932   2.622
 7704SOL    HW223071   3.001   2.915   2.561
 7705SOL     OW23072   2.895   2.111   2.822
 7705SOL    HW123073   2.894   2.069   2.736
 7705SOL    HW223074   2.888   2.039   2.885
 7706SOL     OW23075   2.466   3.348   2.337
 7706SOL    HW123076   2.521   3.299   2.275
 7706SOL    HW223077   2.384   3.363   2.289
 7707SOL     OW23078   3.608   2.243   3.252
 7707SOL    HW123079   3.679   2.308   3.247
 7707SOL    HW223080   3.635   2.174   3.190
 7708SOL     OW23081   2.141   3.203   2.161
 7708SOL    HW123082   2.054   3.196   2.121
 7708SOL    HW223083   2.127   3.251   2.242
 7709SOL     OW23084   1.983   2.909   3.598
 7709SOL    HW123085   1.906   2.880   3.647
 7709SOL    HW223086   2.055   2.858   3.635
 7710SOL     OW23087   2.541   2.050   3.357
 7710SOL    HW123088   2.625   2.025   3.318
 7710SOL    HW223089   2.564   2.084   3.443
 7711SOL     OW23090   1.948   2.179   1.876
 7711SOL    HW123091   1.870   2.158   1.824
 7711SOL    HW223092   1.975   2.265   1.845
 7712SOL     OW23093   3.277   2.716   3.250
 7712SOL    HW123094   3.224   2.774   3.195
 7712SOL    HW223095   3.365   2.720   3.212
 7713SOL     OW23096   1.905   2.011   2.134
 7713SOL    HW123097   1.893   2.081   2.070
 7713SOL    HW223098   1.994   1.979   2.118
 7714SOL     OW23099   3.045   3.184   1.985
 7714SOL    HW123100   2.954   3.154   1.984
 7714SOL    HW223101   3.068   3.188   2.078
 7715SOL     OW23102   2.488   2.693   3.303
 7715SOL    HW123103   2.547   2.768   3.292
 7715SOL    HW223104   2.546   2.617   3.302
 7716SOL     OW23105   3.351   3.665   2.857
 7716SOL    HW123106   3.376   3.738   2.801
 7716SOL    HW223107   3.434   3.625   2.883
 7717SOL     OW23108   2.586   2.410   3.548
 7717SOL    HW123109   2.633   2.464   3.612
 7717SOL    HW223110   2.597   2.320   3.580
 7718SOL     OW23111   3.330   3.046   3.481
 7718SOL    HW123112   3.323   3.068   3.573
 7718SOL    HW223113   3.420   3.070   3.457
 7719SOL     OW23114   2.216   3.609   3.441
 7719SOL    HW123115   2.134   3.655   3.424
 7719SOL    HW223116   2.189   3.526   3.479
 7720SOL     OW23117   3.517   2.737   3.115
 7720SOL    HW123118   3.515   2.654   3.068
 7720SOL    HW223119   3.505   2.804   3.047
 7721SOL     OW23120   3.083   2.185   2.318
 7721SOL    HW123121   3.142   2.110   2.317
 7721SOL    HW223122   3.111   2.237   2.393
 7722SOL     OW23123   2.438   2.588   2.543
 7722SOL    HW123124   2.482   2.672   2.528
 7722SOL    HW223125   2.377   2.579   2.470
 7723SOL     OW23126   3.609   2.216   3.528
 7723SOL    HW123127   3.606   2.232   3.433
 7723SOL    HW223128   3.531   2.164   3.545
 7724SOL     OW23129   3.622   2.787   3.366
 7724SOL    HW123130   3.605   2.880   3.379
 7724SOL    HW223131   3.595   2.770   3.276
 7725SOL     OW23132   2.732   3.219   1.924
 7725SOL    HW123133   2.695   3.236   2.011
 7725SOL    HW223134   2.742   3.306   1.884
 7726SOL     OW23135   2.531   3.628   2.787
 7726SOL    HW123136   2.511   3.722   2.780
 7726SOL    HW223137   2.626   3.623   2.786
 7727SOL     OW23138   2.734   2.839   2.718
 7727SOL    HW123139   2.784   2.766   2.753
 7727SOL    HW223140   2.689   2.876   2.793
 7728SOL     OW23141   2.935   2.847   1.949
 7728SOL    HW123142   2.914   2.900   1.872
 7728SOL    HW223143   3.008   2.792   1.920
 7729SOL     OW23144   3.691   3.419   2.702
 7729SOL    HW123145   3.615   3.411   2.645
 7729SOL    HW223146   3.668   3.370   2.780
 7730SOL     OW23147   2.074   3.148   3.698
 7730SOL    HW123148   2.042   3.068   3.655
 7730SOL    HW223149   2.015   3.160   3.772
 7731SOL     OW23150   1.979   3.087   2.530
 7731SOL    HW123151   2.009   3.045   2.610
 7731SOL    HW223152   2.038   3.054   2.462
 7732SOL     OW23153   2.552   3.281   3.495
 7732SOL    HW123154   2.475   3.242   3.537
 7732SOL    HW223155   2.557   3.369   3.531
 7733SOL     OW23156   3.673   2.032   3.097
 7733SOL    HW123157   3.674   1.937   3.109
 7733SOL    HW223158   3.686   2.045   3.003
 7734SOL     OW23159   2.280   2.285   2.380
 7734SOL    HW123160   2.314   2.213   2.326
 7734SOL    HW223161   2.228   2.240   2.447
 7735SOL     OW23162   3.559   3.340   2.942
 7735SOL    HW123163   3.480   3.322   2.891
 7735SOL    HW223164   3.561   3.273   3.010
 7736SOL     OW23165   2.214   2.428   3.153
 7736SOL    HW123166   2.263   2.363   3.204
 7736SOL    HW223167   2.221   2.398   3.063
 7737SOL     OW23168   2.700   3.446   2.532
 7737SOL    HW123169   2.669   3.515   2.475
 7737SOL    HW223170   2.625   3.387   2.542
 7738SOL     OW23171   3.283   2.095   2.977
 7738SOL    HW123172   3.291   2.005   3.009
 7738SOL    HW223173   3.237   2.141   3.047
 7739SOL     OW23174   2.872   1.880   2.981
 7739SOL    HW123175   2.818   1.817   2.933
 7739SOL    HW223176   2.959   1.839   2.985
 7740SOL     OW23177   2.643   3.194   2.190
 7740SOL    HW123178   2.618   3.102   2.202
 7740SOL    HW223179   2.722   3.205   2.242
 7741SOL     OW23180   2.477   3.432   3.150
 7741SOL    HW123181   2.472   3.516   3.195
 7741SOL    HW223182   2.567   3.427   3.117
 7742SOL     OW23183   3.242   1.900   2.054
 7742SOL    HW123184   3.282   1.828   2.006
 7742SOL    HW223185   3.151   1.874   2.065
 7743SOL     OW23186   3.160   2.333   2.536
 7743SOL    HW123187   3.109   2.414   2.534
 7743SOL    HW223188   3.153   2.304   2.627
 7744SOL     OW23189   3.444   2.050   2.755
 7744SOL    HW123190   3.392   2.080   2.830
 7744SOL    HW223191   3.445   2.124   2.695
 7745SOL     OW23192   1.899   2.913   2.170
 7745SOL    HW123193   1.992   2.902   2.152
 7745SOL    HW223194   1.867   2.825   2.190
 7746SOL     OW23195   2.757   3.538   2.191
 7746SOL    HW123196   2.679   3.522   2.139
 7746SOL    HW223197   2.732   3.606   2.253
 7747SOL     OW23198   2.070   2.483   3.872
 7747SOL    HW123199   1.982   2.471   3.908
 7747SOL    HW223200   2.059   2.469   3.777
 7748SOL     OW23201   2.081   2.150   4.713
 7748SOL    HW123202   2.112   2.115   4.797
 7748SOL    HW223203   1.994   2.113   4.702
 7749SOL     OW23204   1.849   2.258   4.370
 7749SOL    HW123205   1.769   2.283   4.417
 7749SOL    HW223206   1.822   2.184   4.315
 7750SOL     OW23207   2.437   3.170   4.932
 7750SOL    HW123208   2.355   3.173   4.883
 7750SOL    HW223209   2.454   3.261   4.956
 7751SOL     OW23210   3.447   3.384   4.427
 7751SOL    HW123211   3.400   3.355   4.505
 7751SOL    HW223212   3.381   3.389   4.359
 7752SOL     OW23213   3.000   2.566   4.410
 7752SOL    HW123214   3.046   2.649   4.398
 7752SOL    HW223215   2.951   2.577   4.492
 7753SOL     OW23216   3.663   2.442   3.944
 7753SOL    HW123217   3.624   2.443   3.856
 7753SOL    HW223218   3.618   2.371   3.989
 7754SOL     OW23219   2.589   2.992   4.781
 7754SOL    HW123220   2.531   3.032   4.845
 7754SOL    HW223221   2.631   3.065   4.737
 7755SOL     OW23222   2.749   2.604   5.551
 7755SOL    HW123223   2.742   2.671   5.619
 7755SOL    HW223224   2.766   2.653   5.471
 7756SOL     OW23225   2.547   2.846   4.368
 7756SOL    HW123226   2.615   2.847   4.436
 7756SOL    HW223227   2.481   2.908   4.399
 7757SOL     OW23228   2.574   3.013   5.558
 7757SOL    HW123229   2.626   3.085   5.593
 7757SOL    HW223230   2.499   3.055   5.517
 7758SOL     OW23231   2.205   3.259   4.793
 7758SOL    HW123232   2.129   3.217   4.753
 7758SOL    HW223233   2.241   3.314   4.724
 7759SOL     OW23234   3.315   3.365   5.096
 7759SOL    HW123235   3.371   3.441   5.108
 7759SOL    HW223236   3.243   3.377   5.158
 7760SOL     OW23237   2.320   2.236   5.179
 7760SOL    HW123238   2.395   2.178   5.195
 7760SOL    HW223239   2.244   2.186   5.206
 7761SOL     OW23240   3.446   2.293   4.479
 7761SOL    HW123241   3.379   2.304   4.411
 7761SOL    HW223242   3.428   2.364   4.541
 7762SOL     OW23243   2.080   3.590   4.189
 7762SOL    HW123244   2.107   3.661   4.247
 7762SOL    HW223245   2.154   3.579   4.129
 7763SOL     OW23246   2.997   3.203   5.420
 7763SOL    HW123247   3.043   3.193   5.504
 7763SOL    HW223248   2.944   3.124   5.412
 7764SOL     OW23249   2.093   3.319   4.257
 7764SOL    HW123250   2.073   3.413   4.260
 7764SOL    HW223251   2.044   3.282   4.329
 7765SOL     OW23252   2.146   2.951   4.602
 7765SOL    HW123253   2.147   2.862   4.636
 7765SOL    HW223254   2.090   2.999   4.663
 7766SOL     OW23255   2.436   3.665   5.144
 7766SOL    HW123256   2.359   3.646   5.199
 7766SOL    HW223257   2.469   3.748   5.178
 7767SOL     OW23258   2.427   2.850   3.876
 7767SOL    HW123259   2.478   2.892   3.807
 7767SOL    HW223260   2.468   2.879   3.958
 7768SOL     OW23261   3.458   1.993   5.188
 7768SOL    HW123262   3.493   2.071   5.144
 7768SOL    HW223263   3.423   2.026   5.270
 7769SOL     OW23264   1.981   2.520   4.291
 7769SOL    HW123265   1.948   2.433   4.315
 7769SOL    HW223266   1.975   2.571   4.372
 7770SOL     OW23267   3.710   3.605   4.044
 7770SOL    HW123268   3.782   3.590   4.106
 7770SOL    HW223269   3.718   3.698   4.020
 7771SOL     OW23270   1.921   3.442   3.835
 7771SOL    HW123271   1.900   3.351   3.854
 7771SOL    HW223272   1.889   3.490   3.911
 7772SOL     OW23273   3.558   2.787   4.373
 7772SOL    HW123274   3.639   2.743   4.347
 7772SOL    HW223275   3.536   2.842   4.298
 7773SOL     OW23276   3.518   2.968   4.156
 7773SOL    HW123277   3.603   2.961   4.113
 7773SOL    HW223278   3.532   3.033   4.226
 7774SOL     OW23279   1.982   2.612   5.302
 7774SOL    HW123280   2.067   2.656   5.305
 7774SOL    HW223281   1.919   2.682   5.288
 7775SOL     OW23282   2.484   3.260   4.455
 7775SOL    HW123283   2.443   3.174   4.460
 7775SOL    HW223284   2.469   3.289   4.365
 7776SOL     OW23285   3.132   3.086   5.141
 7776SOL    HW123286   3.160   3.017   5.081
 7776SOL    HW223287   3.194   3.082   5.213
 7777SOL     OW23288   2.693   1.873   4.243
 7777SOL    HW123289   2.733   1.955   4.215
 7777SOL    HW223290   2.599   1.891   4.243
 7778SOL     OW23291   2.049   2.818   5.026
 7778SOL    HW123292   2.136   2.783   5.010
 7778SOL    HW223293   1.996   2.785   4.954
 7779SOL     OW23294   3.397   2.877   3.923
 7779SOL    HW123295   3.329   2.817   3.953
 7779SOL    HW223296   3.439   2.908   4.003
 7780SOL     OW23297   3.034   3.683   5.360
 7780SOL    HW123298   3.041   3.747   5.289
 7780SOL    HW223299   3.057   3.599   5.319
 7781SOL     OW23300   2.222   2.115   5.600
 7781SOL    HW123301   2.257   2.196   5.638
 7781SOL    HW223302   2.127   2.130   5.596
 7782SOL     OW23303   3.331   3.278   4.654
 7782SOL    HW123304   3.268   3.298   4.722
 7782SOL    HW223305   3.313   3.187   4.630
 7783SOL     OW23306   3.502   3.655   4.288
 7783SOL    HW123307   3.484   3.610   4.206
 7783SOL    HW223308   3.499   3.587   4.355
 7784SOL     OW23309   2.449   2.561   3.996
 7784SOL    HW123310   2.452   2.649   3.957
 7784SOL    HW223311   2.384   2.569   4.066
 7785SOL     OW23312   3.144   2.255   4.665
 7785SOL    HW123313   3.055   2.221   4.669
 7785SOL    HW223314   3.196   2.196   4.720
 7786SOL     OW23315   3.443   3.534   4.043
 7786SOL    HW123316   3.536   3.550   4.033
 7786SOL    HW223317   3.410   3.522   3.954
 7787SOL     OW23318   2.654   2.474   5.155
 7787SOL    HW123319   2.630   2.446   5.243
 7787SOL    HW223320   2.629   2.402   5.098
 7788SOL     OW23321   3.254   2.340   5.398
 7788SOL    HW123322   3.258   2.383   5.484
 7788SOL    HW223323   3.303   2.259   5.410
 7789SOL     OW23324   2.805   2.743   5.317
 7789SOL    HW123325   2.862   2.680   5.272
 7789SOL    HW223326   2.757   2.786   5.246
 7790SOL     OW23327   2.870   2.258   4.933
 7790SOL    HW123328   2.778   2.272   4.956
 7790SOL    HW223329   2.867   2.217   4.847
 7791SOL     OW23330   2.920   2.558   4.142
 7791SOL    HW123331   2.941   2.556   4.236
 7791SOL    HW223332   2.835   2.515   4.135
 7792SOL     OW23333   1.955   2.686   4.507
 7792SOL    HW123334   2.037   2.681   4.556
 7792SOL    HW223335   1.906   2.758   4.548
 7793SOL     OW23336   1.971   3.741   5.312
 7793SOL    HW123337   1.979   3.721   5.405
 7793SOL    HW223338   1.885   3.707   5.287
 7794SOL     OW23339   2.751   2.212   3.924
 7794SOL    HW123340   2.802   2.267   3.864
 7794SOL    HW223341   2.727   2.135   3.873
 7795SOL     OW23342   3.550   2.424   5.564
 7795SOL    HW123343   3.528   2.502   5.512
 7795SOL    HW223344   3.578   2.360   5.499
 7796SOL     OW23345   3.253   3.011   4.264
 7796SOL    HW123346   3.333   3.001   4.212
 7796SOL    HW223347   3.200   3.073   4.214
 7797SOL     OW23348   2.414   2.023   4.639
 7797SOL    HW123349   2.419   2.052   4.730
 7797SOL    HW223350   2.409   2.104   4.588
 7798SOL     OW23351   2.858   3.317   4.189
 7798SOL    HW123352   2.834   3.392   4.134
 7798SOL    HW223353   2.830   3.342   4.277
 7799SOL     OW23354   2.215   3.678   4.605
 7799SOL    HW123355   2.261   3.594   4.609
 7799SOL    HW223356   2.282   3.743   4.626
 7800SOL     OW23357   3.666   2.902   4.613
 7800SOL    HW123358   3.618   2.889   4.531
 7800SOL    HW223359   3.597   2.913   4.679
 7801SOL     OW23360   3.080   3.405   5.241
 7801SOL    HW123361   3.068   3.333   5.303
 7801SOL    HW223362   3.010   3.394   5.177
 7802SOL     OW23363   2.162   2.821   3.989
 7802SOL    HW123364   2.245   2.842   3.946
 7802SOL    HW223365   2.139   2.734   3.956
 7803SOL     OW23366   3.346   2.625   4.434
 7803SOL    HW123367   3.349   2.582   4.519
 7803SOL    HW223368   3.425   2.678   4.431
 7804SOL     OW23369   2.334   3.146   5.472
 7804SOL    HW123370   2.311   3.150   5.379
 7804SOL    HW223371   2.251   3.134   5.518
 7805SOL     OW23372   3.001   3.638   3.949
 7805SOL    HW123373   2.919   3.608   3.988
 7805SOL    HW223374   3.021   3.573   3.882
 7806SOL     OW23375   2.071   2.119   5.222
 7806SOL    HW123376   1.999   2.179   5.238
 7806SOL    HW223377   2.040   2.035   5.256
 7807SOL     OW23378   3.499   3.249   3.824
 7807SOL    HW123379   3.459   3.335   3.811
 7807SOL    HW223380   3.432   3.187   3.797
 7808SOL     OW23381   2.321   3.603   4.040
 7808SOL    HW123382   2.370   3.654   4.104
 7808SOL    HW223383   2.388   3.563   3.985
 7809SOL     OW23384   3.259   1.968   4.182
 7809SOL    HW123385   3.257   1.943   4.090
 7809SOL    HW223386   3.351   1.960   4.208
 7810SOL     OW23387   2.113   3.649   4.939
 7810SOL    HW123388   2.162   3.575   4.974
 7810SOL    HW223389   2.101   3.630   4.846
 7811SOL     OW23390   2.810   3.565   4.615
 7811SOL    HW123391   2.895   3.524   4.631
 7811SOL    HW223392   2.772   3.514   4.543
 7812SOL     OW23393   2.257   2.547   4.197
 7812SOL    HW123394   2.270   2.453   4.210
 7812SOL    HW223395   2.164   2.562   4.214
 7813SOL     OW23396   3.367   2.085   5.441
 7813SOL    HW123397   3.382   2.102   5.534
 7813SOL    HW223398   3.297   2.019   5.439
 7814SOL     OW23399   2.525   1.971   3.826
 7814SOL    HW123400   2.573   1.892   3.852
 7814SOL    HW223401   2.463   1.941   3.759
 7815SOL     OW23402   2.621   2.135   5.476
 7815SOL    HW123403   2.706   2.090   5.475
 7815SOL    HW223404   2.574   2.096   5.550
 7816SOL     OW23405   2.730   3.387   4.923
 7816SOL    HW123406   2.713   3.347   4.838
 7816SOL    HW223407   2.798   3.332   4.962
 7817SOL     OW23408   3.191   2.453   5.156
 7817SOL    HW123409   3.224   2.424   5.242
 7817SOL    HW223410   3.229   2.540   5.145
 7818SOL     OW23411   2.678   3.237   4.679
 7818SOL    HW123412   2.766   3.234   4.641
 7818SOL    HW223413   2.621   3.254   4.605
 7819SOL     OW23414   2.792   2.376   4.612
 7819SOL    HW123415   2.767   2.365   4.520
 7819SOL    HW223416   2.820   2.289   4.640
 7820SOL     OW23417   2.426   1.925   4.214
 7820SOL    HW123418   2.348   1.925   4.269
 7820SOL    HW223419   2.414   2.000   4.156
 7821SOL     OW23420   3.295   3.074   3.755
 7821SOL    HW123421   3.325   3.000   3.809
 7821SOL    HW223422   3.210   3.097   3.792
 7822SOL     OW23423   2.144   1.910   3.912
 7822SOL    HW123424   2.196   1.977   3.869
 7822SOL    HW223425   2.208   1.852   3.954
 7823SOL     OW23426   2.813   2.112   4.174
 7823SOL    HW123427   2.787   2.147   4.089
 7823SOL    HW223428   2.907   2.130   4.180
 7824SOL     OW23429   2.937   2.557   5.169
 7824SOL    HW123430   2.873   2.486   5.173
 7824SOL    HW223431   3.022   2.512   5.165
 7825SOL     OW23432   3.068   3.450   4.525
 7825SOL    HW123433   3.084   3.509   4.452
 7825SOL    HW223434   3.136   3.473   4.589
 7826SOL     OW23435   2.344   3.023   4.432
 7826SOL    HW123436   2.281   2.999   4.500
 7826SOL    HW223437   2.294   3.016   4.350
 7827SOL     OW23438   3.115   3.655   4.340
 7827SOL    HW123439   3.165   3.718   4.288
 7827SOL    HW223440   3.044   3.707   4.379
 7828SOL     OW23441   2.894   2.377   3.754
 7828SOL    HW123442   2.851   2.461   3.735
 7828SOL    HW223443   2.958   2.398   3.822
 7829SOL     OW23444   1.962   2.413   5.116
 7829SOL    HW123445   2.054   2.415   5.089
 7829SOL    HW223446   1.954   2.482   5.181
 7830SOL     OW23447   2.421   2.084   4.909
 7830SOL    HW123448   2.459   2.021   4.970
 7830SOL    HW223449   2.328   2.085   4.929
 7831SOL     OW23450   2.732   2.316   4.354
 7831SOL    HW123451   2.692   2.372   4.287
 7831SOL    HW223452   2.757   2.237   4.306
 7832SOL     OW23453   2.884   1.920   4.463
 7832SOL    HW123454   2.823   1.915   4.390
 7832SOL    HW223455   2.859   1.848   4.520
 7833SOL     OW23456   3.298   3.014   4.578
 7833SOL    HW123457   3.226   2.951   4.583
 7833SOL    HW223458   3.316   3.022   4.484
 7834SOL     OW23459   3.325   2.478   4.672
 7834SOL    HW123460   3.261   2.408   4.682
 7834SOL    HW223461   3.380   2.472   4.750
 7835SOL     OW23462   3.691   2.658   4.112
 7835SOL    HW123463   3.752   2.614   4.172
 7835SOL    HW223464   3.678   2.594   4.041
 7836SOL     OW23465   2.360   3.286   3.874
 7836SOL    HW123466   2.285   3.254   3.924
 7836SOL    HW223467   2.356   3.237   3.792
 7837SOL     OW23468   3.566   3.130   4.363
 7837SOL    HW123469   3.660   3.124   4.382
 7837SOL    HW223470   3.543   3.220   4.386
 7838SOL     OW23471   3.254   2.438   3.789
 7838SOL    HW123472   3.199   2.411   3.862
 7838SOL    HW223473   3.343   2.416   3.817
 7839SOL     OW23474   2.389   2.119   4.026
 7839SOL    HW123475   2.443   2.077   3.959
 7839SOL    HW223476   2.357   2.199   3.985
 7840SOL     OW23477   3.598   3.107   5.259
 7840SOL    HW123478   3.686   3.073   5.245
 7840SOL    HW223479   3.612   3.194   5.298
 7841SOL     OW23480   2.903   3.215   5.057
 7841SOL    HW123481   2.826   3.182   5.103
 7841SOL    HW223482   2.977   3.171   5.099
 7842SOL     OW23483   3.472   3.489   5.396
 7842SOL    HW123484   3.463   3.527   5.309
 7842SOL    HW223485   3.552   3.438   5.392
 7843SOL     OW23486   3.012   3.097   4.829
 7843SOL    HW123487   2.951   3.132   4.894
 7843SOL    HW223488   2.980   3.131   4.745
 7844SOL     OW23489   3.471   2.952   4.800
 7844SOL    HW123490   3.463   3.019   4.869
 7844SOL    HW223491   3.402   2.974   4.738
 7845SOL     OW23492   2.781   1.943   5.107
 7845SOL    HW123493   2.802   1.929   5.015
 7845SOL    HW223494   2.860   1.984   5.143
 7846SOL     OW23495   2.841   2.977   5.449
 7846SOL    HW123496   2.751   2.994   5.476
 7846SOL    HW223497   2.836   2.897   5.397
 7847SOL     OW23498   2.576   2.924   4.100
 7847SOL    HW123499   2.561   2.898   4.191
 7847SOL    HW223500   2.650   2.871   4.072
 7848SOL     OW23501   2.289   2.690   4.984
 7848SOL    HW123502   2.357   2.700   5.050
 7848SOL    HW223503   2.258   2.600   4.993
 7849SOL     OW23504   3.126   2.229   5.016
 7849SOL    HW123505   3.154   2.310   5.059
 7849SOL    HW223506   3.037   2.247   4.986
 7850SOL     OW23507   1.940   3.431   5.086
 7850SOL    HW123508   1.910   3.503   5.030
 7850SOL    HW223509   2.035   3.431   5.076
 7851SOL     OW23510   2.179   2.997   4.210
 7851SOL    HW123511   2.180   3.069   4.147
 7851SOL    HW223512   2.176   2.917   4.156
 7852SOL     OW23513   2.396   2.378   4.583
 7852SOL    HW123514   2.409   2.436   4.508
 7852SOL    HW223515   2.465   2.404   4.645
 7853SOL     OW23516   3.108   3.217   4.122
 7853SOL    HW123517   3.165   3.286   4.155
 7853SOL    HW223518   3.021   3.240   4.152
 7854SOL     OW23519   3.170   3.329   4.867
 7854SOL    HW123520   3.218   3.337   4.950
 7854SOL    HW223521   3.119   3.249   4.876
 7855SOL     OW23522   3.438   2.479   4.210
 7855SOL    HW123523   3.386   2.520   4.279
 7855SOL    HW223524   3.486   2.551   4.170
 7856SOL     OW23525   2.207   3.394   5.026
 7856SOL    HW123526   2.199   3.342   4.946
 7856SOL    HW223527   2.300   3.411   5.036
 7857SOL     OW23528   2.295   2.609   5.342
 7857SOL    HW123529   2.354   2.652   5.280
 7857SOL    HW223530   2.338   2.526   5.362
 7858SOL     OW23531   3.489   2.647   5.422
 7858SOL    HW123532   3.402   2.686   5.413
 7858SOL    HW223533   3.539   2.686   5.350
 7859SOL     OW23534   2.858   2.003   5.483
 7859SOL    HW123535   2.916   2.076   5.464
 7859SOL    HW223536   2.910   1.925   5.462
 7860SOL     OW23537   2.356   1.897   5.487
 7860SOL    HW123538   2.301   1.847   5.426
 7860SOL    HW223539   2.304   1.974   5.509
 7861SOL     OW23540   2.454   2.737   4.763
 7861SOL    HW123541   2.491   2.825   4.766
 7861SOL    HW223542   2.396   2.734   4.839
 7862SOL     OW23543   3.170   2.713   4.728
 7862SOL    HW123544   3.082   2.687   4.702
 7862SOL    HW223545   3.225   2.638   4.707
 7863SOL     OW23546   3.061   2.385   3.981
 7863SOL    HW123547   3.071   2.308   4.038
 7863SOL    HW223548   3.020   2.451   4.037
 7864SOL     OW23549   2.154   2.056   4.963
 7864SOL    HW123550   2.119   2.084   5.047
 7864SOL    HW223551   2.137   1.962   4.960
 7865SOL     OW23552   1.911   3.174   4.990
 7865SOL    HW123553   1.941   3.118   5.062
 7865SOL    HW223554   1.914   3.263   5.025
 7866SOL     OW23555   2.574   2.485   4.763
 7866SOL    HW123556   2.651   2.478   4.707
 7866SOL    HW223557   2.545   2.575   4.754
 7867SOL     OW23558   3.614   2.828   5.594
 7867SOL    HW123559   3.573   2.756   5.545
 7867SOL    HW223560   3.550   2.850   5.662
 7868SOL     OW23561   2.187   1.922   4.352
 7868SOL    HW123562   2.153   2.009   4.370
 7868SOL    HW223563   2.193   1.880   4.438
 7869SOL     OW23564   3.493   2.251   4.068
 7869SOL    HW123565   3.525   2.186   4.130
 7869SOL    HW223566   3.464   2.325   4.122
 7870SOL     OW23567   2.897   2.620   4.679
 7870SOL    HW123568   2.875   2.635   4.771
 7870SOL    HW223569   2.866   2.531   4.662
 7871SOL     OW23570   2.841   3.426   5.459
 7871SOL    HW123571   2.822   3.470   5.376
 7871SOL    HW223572   2.881   3.343   5.433
 7872SOL     OW23573   3.708   3.354   5.334
 7872SOL    HW123574   3.732   3.384   5.247
 7872SOL    HW223575   3.788   3.364   5.386
 7873SOL     OW23576   2.211   2.780   5.541
 7873SOL    HW123577   2.288   2.798   5.594
 7873SOL    HW223578   2.242   2.718   5.475
 7874SOL     OW23579   3.384   2.129   3.843
 7874SOL    HW123580   3.331   2.059   3.881
 7874SOL    HW223581   3.423   2.173   3.918
 7875SOL     OW23582   3.143   2.684   3.743
 7875SOL    HW123583   3.182   2.597   3.750
 7875SOL    HW223584   3.179   2.720   3.662
 7876SOL     OW23585   2.933   3.216   4.591
 7876SOL    HW123586   2.944   3.143   4.529
 7876SOL    HW223587   2.985   3.287   4.553
 7877SOL     OW23588   2.180   2.678   4.668
 7877SOL    HW123589   2.275   2.692   4.667
 7877SOL    HW223590   2.170   2.588   4.699
 7878SOL     OW23591   2.175   2.400   4.735
 7878SOL    HW123592   2.136   2.313   4.725
 7878SOL    HW223593   2.253   2.398   4.679
 7879SOL     OW23594   3.001   2.229   5.410
 7879SOL    HW123595   2.955   2.281   5.476
 7879SOL    HW223596   3.086   2.273   5.401
 7880SOL     OW23597   3.018   2.052   5.198
 7880SOL    HW123598   3.006   2.114   5.270
 7880SOL    HW223599   3.064   2.102   5.130
 7881SOL     OW23600   1.886   3.165   3.903
 7881SOL    HW123601   1.796   3.187   3.878
 7881SOL    HW223602   1.878   3.079   3.944
 7882SOL     OW23603   1.954   3.633   4.675
 7882SOL    HW123604   1.921   3.559   4.624
 7882SOL    HW223605   2.041   3.649   4.639
 7883SOL     OW23606   2.347   3.432   4.625
 7883SOL    HW123607   2.417   3.493   4.647
 7883SOL    HW223608   2.387   3.370   4.564
 7884SOL     OW23609   2.811   2.642   4.937
 7884SOL    HW123610   2.873   2.632   5.010
 7884SOL    HW223611   2.732   2.597   4.967
 7885SOL     OW23612   1.901   2.433   4.845
 7885SOL    HW123613   1.982   2.430   4.795
 7885SOL    HW223614   1.929   2.426   4.937
 7886SOL     OW23615   2.048   2.401   5.467
 7886SOL    HW123616   2.120   2.368   5.413
 7886SOL    HW223617   2.012   2.475   5.418
 7887SOL     OW23618   3.255   2.782   5.375
 7887SOL    HW123619   3.272   2.876   5.370
 7887SOL    HW223620   3.246   2.755   5.284
 7888SOL     OW23621   2.680   2.431   4.096
 7888SOL    HW123622   2.688   2.357   4.036
 7888SOL    HW223623   2.603   2.478   4.065
 7889SOL     OW23624   3.496   2.463   4.887
 7889SOL    HW123625   3.485   2.405   4.962
 7889SOL    HW223626   3.587   2.450   4.860
 7890SOL     OW23627   2.088   3.402   5.446
 7890SOL    HW123628   2.065   3.452   5.524
 7890SOL    HW223629   2.099   3.312   5.478
 7891SOL     OW23630   2.596   2.296   4.958
 7891SOL    HW123631   2.532   2.226   4.943
 7891SOL    HW223632   2.578   2.360   4.889
 7892SOL     OW23633   2.769   3.539   5.210
 7892SOL    HW123634   2.746   3.493   5.129
 7892SOL    HW223635   2.773   3.631   5.185
 7893SOL     OW23636   2.305   2.343   3.888
 7893SOL    HW123637   2.369   2.409   3.913
 7893SOL    HW223638   2.221   2.389   3.892
 7894SOL     OW23639   1.991   3.012   5.205
 7894SOL    HW123640   1.996   2.973   5.292
 7894SOL    HW223641   2.013   2.941   5.145
 7895SOL     OW23642   3.166   2.895   4.932
 7895SOL    HW123643   3.175   2.831   4.861
 7895SOL    HW223644   3.112   2.965   4.895
 7896SOL     OW23645   3.189   2.721   4.015
 7896SOL    HW123646   3.117   2.688   4.069
 7896SOL    HW223647   3.159   2.707   3.925
 7897SOL     OW23648   3.647   3.566   4.896
 7897SOL    HW123649   3.702   3.603   4.827
 7897SOL    HW223650   3.616   3.483   4.860
 7898SOL     OW23651   3.101   3.592   4.807
 7898SOL    HW123652   3.187   3.624   4.777
 7898SOL    HW223653   3.118   3.502   4.835
 7899SOL     OW23654   1.969   3.108   4.734
 7899SOL    HW123655   1.940   3.130   4.823
 7899SOL    HW223656   1.897   3.056   4.698
 7900SOL     OW23657   2.549   3.545   5.474
 7900SOL    HW123658   2.486   3.616   5.461
 7900SOL    HW223659   2.623   3.569   5.418
 7901SOL     OW23660   3.605   2.045   4.221
 7901SOL    HW123661   3.664   2.025   4.148
 7901SOL    HW223662   3.580   1.959   4.254
 7902SOL     OW23663   3.258   3.432   4.225
 7902SOL    HW123664   3.314   3.467   4.156
 7902SOL    HW223665   3.204   3.506   4.252
 7903SOL     OW23666   1.997   3.667   5.568
 7903SOL    HW123667   1.956   3.591   5.610
 7903SOL    HW223668   2.047   3.709   5.638
 7904SOL     OW23669   3.141   2.798   4.387
 7904SOL    HW123670   3.215   2.739   4.400
 7904SOL    HW223671   3.176   2.870   4.334
 7905SOL     OW23672   2.645   3.142   5.140
 7905SOL    HW123673   2.620   3.190   5.218
 7905SOL    HW223674   2.571   3.153   5.080
 7906SOL     OW23675   2.530   3.497   3.883
 7906SOL    HW123676   2.544   3.512   3.790
 7906SOL    HW223677   2.478   3.417   3.887
 7907SOL     OW23678   3.479   3.584   5.125
 7907SOL    HW123679   3.537   3.585   5.049
 7907SOL    HW223680   3.462   3.676   5.143
 7908SOL     OW23681   3.707   2.019   4.690
 7908SOL    HW123682   3.735   1.930   4.668
 7908SOL    HW223683   3.620   2.027   4.652
 7909SOL     OW23684   2.105   2.168   4.432
 7909SOL    HW123685   2.019   2.205   4.411
 7909SOL    HW223686   2.109   2.170   4.528
 7910SOL     OW23687   3.072   3.451   3.762
 7910SOL    HW123688   3.062   3.360   3.789
 7910SOL    HW223689   3.002   3.464   3.697
 7911SOL     OW23690   2.685   2.874   5.108
 7911SOL    HW123691   2.722   2.866   5.020
 7911SOL    HW223692   2.674   2.968   5.121
 7912SOL     OW23693   2.781   2.772   4.019
 7912SOL    HW123694   2.838   2.805   3.949
 7912SOL    HW223695   2.834   2.704   4.062
 7913SOL     OW23696   3.346   3.505   3.782
 7913SOL    HW123697   3.254   3.486   3.765
 7913SOL    HW223698   3.386   3.509   3.695
 7914SOL     OW23699   2.225   3.174   5.226
 7914SOL    HW123700   2.218   3.248   5.165
 7914SOL    HW223701   2.147   3.121   5.209
 7915SOL     OW23702   3.463   3.151   5.001
 7915SOL    HW123703   3.517   3.128   5.076
 7915SOL    HW223704   3.403   3.218   5.034
 7916SOL     OW23705   2.940   2.982   4.454
 7916SOL    HW123706   2.864   2.933   4.485
 7916SOL    HW223707   3.001   2.915   4.423
 7917SOL     OW23708   2.896   2.111   4.683
 7917SOL    HW123709   2.894   2.068   4.598
 7917SOL    HW223710   2.888   2.039   4.746
 7918SOL     OW23711   2.467   3.348   4.200
 7918SOL    HW123712   2.521   3.299   4.138
 7918SOL    HW223713   2.386   3.366   4.152
 7919SOL     OW23714   3.607   2.243   5.114
 7919SOL    HW123715   3.677   2.308   5.110
 7919SOL    HW223716   3.634   2.175   5.053
 7920SOL     OW23717   2.141   3.203   4.023
 7920SOL    HW123718   2.054   3.196   3.983
 7920SOL    HW223719   2.127   3.251   4.104
 7921SOL     OW23720   1.983   2.909   5.460
 7921SOL    HW123721   1.906   2.880   5.509
 7921SOL    HW223722   2.055   2.858   5.497
 7922SOL     OW23723   2.541   2.050   5.219
 7922SOL    HW123724   2.625   2.025   5.180
 7922SOL    HW223725   2.564   2.084   5.305
 7923SOL     OW23726   1.948   2.180   3.737
 7923SOL    HW123727   1.871   2.159   3.685
 7923SOL    HW223728   1.976   2.266   3.706
 7924SOL     OW23729   3.277   2.715   5.111
 7924SOL    HW123730   3.224   2.773   5.057
 7924SOL    HW223731   3.365   2.720   5.074
 7925SOL     OW23732   1.905   2.011   3.996
 7925SOL    HW123733   1.892   2.081   3.932
 7925SOL    HW223734   1.994   1.979   3.979
 7926SOL     OW23735   3.044   3.184   3.847
 7926SOL    HW123736   2.953   3.156   3.846
 7926SOL    HW223737   3.067   3.188   3.939
 7927SOL     OW23738   2.489   2.693   5.165
 7927SOL    HW123739   2.547   2.768   5.153
 7927SOL    HW223740   2.547   2.617   5.165
 7928SOL     OW23741   3.350   3.662   4.715
 7928SOL    HW123742   3.374   3.737   4.662
 7928SOL    HW223743   3.434   3.628   4.748
 7929SOL     OW23744   2.586   2.410   5.410
 7929SOL    HW123745   2.633   2.464   5.474
 7929SOL    HW223746   2.597   2.320   5.442
 7930SOL     OW23747   3.331   3.045   5.343
 7930SOL    HW123748   3.322   3.068   5.435
 7930SOL    HW223749   3.420   3.071   5.320
 7931SOL     OW23750   2.215   3.610   5.303
 7931SOL    HW123751   2.133   3.656   5.285
 7931SOL    HW223752   2.188   3.526   5.340
 7932SOL     OW23753   3.517   2.737   4.977
 7932SOL    HW123754   3.515   2.654   4.929
 7932SOL    HW223755   3.505   2.804   4.909
 7933SOL     OW23756   3.082   2.184   4.180
 7933SOL    HW123757   3.142   2.110   4.179
 7933SOL    HW223758   3.110   2.237   4.255
 7934SOL     OW23759   2.439   2.587   4.405
 7934SOL    HW123760   2.482   2.671   4.390
 7934SOL    HW223761   2.377   2.579   4.332
 7935SOL     OW23762   3.609   2.214   5.390
 7935SOL    HW123763   3.605   2.231   5.295
 7935SOL    HW223764   3.530   2.163   5.407
 7936SOL     OW23765   3.622   2.787   5.228
 7936SOL    HW123766   3.604   2.880   5.241
 7936SOL    HW223767   3.595   2.770   5.137
 7937SOL     OW23768   2.733   3.219   3.786
 7937SOL    HW123769   2.695   3.237   3.872
 7937SOL    HW223770   2.743   3.305   3.746
 7938SOL     OW23771   2.530   3.628   4.649
 7938SOL    HW123772   2.511   3.722   4.642
 7938SOL    HW223773   2.626   3.623   4.649
 7939SOL     OW23774   2.735   2.840   4.579
 7939SOL    HW123775   2.785   2.766   4.615
 7939SOL    HW223776   2.689   2.877   4.655
 7940SOL     OW23777   2.933   2.845   3.810
 7940SOL    HW123778   2.913   2.900   3.735
 7940SOL    HW223779   3.007   2.791   3.782
 7941SOL     OW23780   3.686   3.423   4.566
 7941SOL    HW123781   3.612   3.414   4.506
 7941SOL    HW223782   3.662   3.371   4.642
 7942SOL     OW23783   2.073   3.148   5.560
 7942SOL    HW123784   2.042   3.068   5.517
 7942SOL    HW223785   2.014   3.160   5.634
 7943SOL     OW23786   1.978   3.085   4.392
 7943SOL    HW123787   2.010   3.044   4.472
 7943SOL    HW223788   2.037   3.053   4.323
 7944SOL     OW23789   2.552   3.281   5.358
 7944SOL    HW123790   2.475   3.243   5.399
 7944SOL    HW223791   2.558   3.369   5.394
 7945SOL     OW23792   3.677   2.033   4.961
 7945SOL    HW123793   3.676   1.938   4.974
 7945SOL    HW223794   3.689   2.044   4.866
 7946SOL     OW23795   2.280   2.284   4.242
 7946SOL    HW123796   2.314   2.213   4.188
 7946SOL    HW223797   2.228   2.240   4.309
 7947SOL     OW23798   3.559   3.328   4.797
 7947SOL    HW123799   3.479   3.313   4.748
 7947SOL    HW223800   3.556   3.263   4.868
 7948SOL     OW23801   2.214   2.428   5.015
 7948SOL    HW123802   2.263   2.363   5.065
 7948SOL    HW223803   2.221   2.399   4.925
 7949SOL     OW23804   2.701   3.449   4.393
 7949SOL    HW123805   2.674   3.521   4.337
 7949SOL    HW223806   2.624   3.392   4.398
 7950SOL     OW23807   3.282   2.093   4.839
 7950SOL    HW123808   3.285   2.003   4.870
 7950SOL    HW223809   3.236   2.141   4.908
 7951SOL     OW23810   2.872   1.880   4.843
 7951SOL    HW123811   2.817   1.817   4.795
 7951SOL    HW223812   2.958   1.839   4.847
 7952SOL     OW23813   2.642   3.194   4.052
 7952SOL    HW123814   2.618   3.102   4.064
 7952SOL    HW223815   2.722   3.205   4.104
 7953SOL     OW23816   2.477   3.431   5.012
 7953SOL    HW123817   2.473   3.515   5.058
 7953SOL    HW223818   2.567   3.426   4.979
 7954SOL     OW23819   3.241   1.900   3.916
 7954SOL    HW123820   3.281   1.829   3.867
 7954SOL    HW223821   3.150   1.874   3.928
 7955SOL     OW23822   3.160   2.333   4.398
 7955SOL    HW123823   3.110   2.414   4.395
 7955SOL    HW223824   3.154   2.304   4.489
 7956SOL     OW23825   3.445   2.050   4.618
 7956SOL    HW123826   3.393   2.080   4.693
 7956SOL    HW223827   3.445   2.124   4.558
 7957SOL     OW23828   1.899   2.913   4.032
 7957SOL    HW123829   1.992   2.902   4.014
 7957SOL    HW223830   1.867   2.825   4.052
 7958SOL     OW23831   2.757   3.537   4.053
 7958SOL    HW123832   2.678   3.521   4.001
 7958SOL    HW223833   2.731   3.605   4.115
 7959SOL     OW23834   2.070   2.482   5.734
 7959SOL    HW123835   1.982   2.471   5.770
 7959SOL    HW223836   2.059   2.469   5.639
 7960SOL     OW23837   2.081   2.150   6.575
 7960SOL    HW123838   2.112   2.115   6.659
 7960SOL    HW223839   1.994   2.113   6.564
 7961SOL     OW23840   1.849   2.258   6.232
 7961SOL    HW123841   1.769   2.283   6.279
 7961SOL    HW223842   1.822   2.184   6.177
 7962SOL     OW23843   2.437   3.170   6.795
 7962SOL    HW123844   2.355   3.173   6.746
 7962SOL    HW223845   2.454   3.261   6.819
 7963SOL     OW23846   3.449   3.386   6.290
 7963SOL    HW123847   3.402   3.355   6.368
 7963SOL    HW223848   3.382   3.389   6.222
 7964SOL     OW23849   3.000   2.565   6.272
 7964SOL    HW123850   3.046   2.648   6.260
 7964SOL    HW223851   2.951   2.576   6.354
 7965SOL     OW23852   3.664   2.441   5.805
 7965SOL    HW123853   3.626   2.441   5.718
 7965SOL    HW223854   3.618   2.371   5.852
 7966SOL     OW23855   2.589   2.992   6.643
 7966SOL    HW123856   2.531   3.032   6.708
 7966SOL    HW223857   2.631   3.066   6.599
 7967SOL     OW23858   2.749   2.604   7.414
 7967SOL    HW123859   2.742   2.671   7.481
 7967SOL    HW223860   2.766   2.653   7.333
 7968SOL     OW23861   2.547   2.846   6.231
 7968SOL    HW123862   2.615   2.847   6.299
 7968SOL    HW223863   2.481   2.908   6.262
 7969SOL     OW23864   2.574   3.012   7.419
 7969SOL    HW123865   2.626   3.085   7.454
 7969SOL    HW223866   2.498   3.054   7.378
 7970SOL     OW23867   2.205   3.259   6.656
 7970SOL    HW123868   2.129   3.216   6.615
 7970SOL    HW223869   2.241   3.314   6.586
 7971SOL     OW23870   3.316   3.368   6.958
 7971SOL    HW123871   3.371   3.445   6.971
 7971SOL    HW223872   3.244   3.379   7.020
 7972SOL     OW23873   2.320   2.236   7.041
 7972SOL    HW123874   2.395   2.178   7.057
 7972SOL    HW223875   2.244   2.186   7.068
 7973SOL     OW23876   3.444   2.294   6.341
 7973SOL    HW123877   3.375   2.303   6.275
 7973SOL    HW223878   3.428   2.364   6.404
 7974SOL     OW23879   2.080   3.590   6.051
 7974SOL    HW123880   2.107   3.661   6.109
 7974SOL    HW223881   2.154   3.579   5.991
 7975SOL     OW23882   2.997   3.204   7.283
 7975SOL    HW123883   3.043   3.193   7.366
 7975SOL    HW223884   2.944   3.125   7.274
 7976SOL     OW23885   2.093   3.319   6.119
 7976SOL    HW123886   2.073   3.413   6.122
 7976SOL    HW223887   2.044   3.282   6.192
 7977SOL     OW23888   2.146   2.951   6.464
 7977SOL    HW123889   2.147   2.862   6.498
 7977SOL    HW223890   2.090   2.999   6.525
 7978SOL     OW23891   2.436   3.665   7.008
 7978SOL    HW123892   2.360   3.645   7.062
 7978SOL    HW223893   2.469   3.748   7.041
 7979SOL     OW23894   2.427   2.850   5.738
 7979SOL    HW123895   2.478   2.893   5.669
 7979SOL    HW223896   2.468   2.879   5.820
 7980SOL     OW23897   3.454   1.995   7.046
 7980SOL    HW123898   3.492   2.071   7.003
 7980SOL    HW223899   3.422   2.027   7.130
 7981SOL     OW23900   1.981   2.520   6.153
 7981SOL    HW123901   1.948   2.433   6.177
 7981SOL    HW223902   1.975   2.571   6.234
 7982SOL     OW23903   3.707   3.605   5.909
 7982SOL    HW123904   3.780   3.587   5.968
 7982SOL    HW223905   3.716   3.697   5.886
 7983SOL     OW23906   1.920   3.442   5.697
 7983SOL    HW123907   1.900   3.350   5.716
 7983SOL    HW223908   1.889   3.490   5.774
 7984SOL     OW23909   3.559   2.787   6.237
 7984SOL    HW123910   3.641   2.744   6.214
 7984SOL    HW223911   3.537   2.841   6.161
 7985SOL     OW23912   3.518   2.967   6.019
 7985SOL    HW123913   3.603   2.959   5.976
 7985SOL    HW223914   3.532   3.032   6.087
 7986SOL     OW23915   1.983   2.611   7.164
 7986SOL    HW123916   2.068   2.655   7.168
 7986SOL    HW223917   1.920   2.682   7.150
 7987SOL     OW23918   2.483   3.259   6.318
 7987SOL    HW123919   2.442   3.173   6.322
 7987SOL    HW223920   2.469   3.289   6.228
 7988SOL     OW23921   3.132   3.088   7.003
 7988SOL    HW123922   3.160   3.018   6.943
 7988SOL    HW223923   3.194   3.082   7.075
 7989SOL     OW23924   2.693   1.873   6.104
 7989SOL    HW123925   2.733   1.956   6.077
 7989SOL    HW223926   2.599   1.891   6.105
 7990SOL     OW23927   2.049   2.818   6.888
 7990SOL    HW123928   2.136   2.783   6.871
 7990SOL    HW223929   1.995   2.784   6.816
 7991SOL     OW23930   3.397   2.876   5.785
 7991SOL    HW123931   3.329   2.816   5.815
 7991SOL    HW223932   3.439   2.908   5.865
 7992SOL     OW23933   3.041   3.684   7.223
 7992SOL    HW123934   3.042   3.746   7.150
 7992SOL    HW223935   3.059   3.599   7.182
 7993SOL     OW23936   2.222   2.115   7.461
 7993SOL    HW123937   2.257   2.195   7.499
 7993SOL    HW223938   2.127   2.130   7.458
 7994SOL     OW23939   3.334   3.280   6.517
 7994SOL    HW123940   3.270   3.299   6.586
 7994SOL    HW223941   3.316   3.189   6.493
 7995SOL     OW23942   3.501   3.652   6.152
 7995SOL    HW123943   3.483   3.608   6.069
 7995SOL    HW223944   3.498   3.582   6.217
 7996SOL     OW23945   2.449   2.561   5.858
 7996SOL    HW123946   2.452   2.649   5.819
 7996SOL    HW223947   2.384   2.569   5.928
 7997SOL     OW23948   3.144   2.255   6.527
 7997SOL    HW123949   3.055   2.220   6.532
 7997SOL    HW223950   3.196   2.196   6.582
 7998SOL     OW23951   3.440   3.534   5.906
 7998SOL    HW123952   3.534   3.551   5.895
 7998SOL    HW223953   3.408   3.521   5.816
 7999SOL     OW23954   2.653   2.475   7.017
 7999SOL    HW123955   2.629   2.446   7.105
 7999SOL    HW223956   2.628   2.402   6.960
 8000SOL     OW23957   3.254   2.339   7.260
 8000SOL    HW123958   3.258   2.382   7.345
 8000SOL    HW223959   3.304   2.258   7.271
 8001SOL     OW23960   2.806   2.743   7.179
 8001SOL    HW123961   2.862   2.679   7.135
 8001SOL    HW223962   2.757   2.785   7.108
 8002SOL     OW23963   2.870   2.259   6.795
 8002SOL    HW123964   2.778   2.273   6.818
 8002SOL    HW223965   2.867   2.216   6.709
 8003SOL     OW23966   2.920   2.558   6.005
 8003SOL    HW123967   2.941   2.556   6.098
 8003SOL    HW223968   2.835   2.515   5.998
 8004SOL     OW23969   1.955   2.686   6.369
 8004SOL    HW123970   2.037   2.681   6.418
 8004SOL    HW223971   1.906   2.758   6.410
 8005SOL     OW23972   1.971   3.741   7.174
 8005SOL    HW123973   1.978   3.721   7.267
 8005SOL    HW223974   1.885   3.707   7.148
 8006SOL     OW23975   2.750   2.213   5.786
 8006SOL    HW123976   2.801   2.266   5.725
 8006SOL    HW223977   2.726   2.135   5.735
 8007SOL     OW23978   3.549   2.425   7.426
 8007SOL    HW123979   3.527   2.502   7.374
 8007SOL    HW223980   3.577   2.360   7.362
 8008SOL     OW23981   3.254   3.011   6.128
 8008SOL    HW123982   3.333   3.001   6.076
 8008SOL    HW223983   3.200   3.073   6.078
 8009SOL     OW23984   2.413   2.023   6.502
 8009SOL    HW123985   2.419   2.051   6.593
 8009SOL    HW223986   2.409   2.104   6.451
 8010SOL     OW23987   2.858   3.317   6.051
 8010SOL    HW123988   2.834   3.391   5.995
 8010SOL    HW223989   2.829   3.342   6.138
 8011SOL     OW23990   2.215   3.678   6.467
 8011SOL    HW123991   2.261   3.594   6.471
 8011SOL    HW223992   2.282   3.743   6.488
 8012SOL     OW23993   3.666   2.903   6.476
 8012SOL    HW123994   3.618   2.890   6.394
 8012SOL    HW223995   3.597   2.913   6.542
 8013SOL     OW23996   3.080   3.406   7.103
 8013SOL    HW123997   3.068   3.334   7.166
 8013SOL    HW223998   3.011   3.392   7.038
 8014SOL     OW23999   2.162   2.821   5.851
 8014SOL    HW124000   2.245   2.843   5.808
 8014SOL    HW224001   2.139   2.735   5.818
 8015SOL     OW24002   3.346   2.624   6.296
 8015SOL    HW124003   3.348   2.582   6.382
 8015SOL    HW224004   3.425   2.678   6.294
 8016SOL     OW24005   2.335   3.146   7.334
 8016SOL    HW124006   2.311   3.150   7.241
 8016SOL    HW224007   2.251   3.134   7.380
 8017SOL     OW24008   3.000   3.636   5.813
 8017SOL    HW124009   2.917   3.605   5.851
 8017SOL    HW224010   3.021   3.572   5.745
 8018SOL     OW24011   2.071   2.118   7.084
 8018SOL    HW124012   1.999   2.179   7.101
 8018SOL    HW224013   2.040   2.034   7.118
 8019SOL     OW24014   3.499   3.246   5.688
 8019SOL    HW124015   3.461   3.332   5.674
 8019SOL    HW224016   3.431   3.185   5.659
 8020SOL     OW24017   2.321   3.603   5.902
 8020SOL    HW124018   2.370   3.654   5.966
 8020SOL    HW224019   2.389   3.563   5.847
 8021SOL     OW24020   3.259   1.968   6.045
 8021SOL    HW124021   3.258   1.943   5.952
 8021SOL    HW224022   3.350   1.959   6.071
 8022SOL     OW24023   2.113   3.650   6.801
 8022SOL    HW124024   2.162   3.575   6.835
 8022SOL    HW224025   2.100   3.630   6.708
 8023SOL     OW24026   2.810   3.565   6.476
 8023SOL    HW124027   2.895   3.523   6.490
 8023SOL    HW224028   2.771   3.514   6.405
 8024SOL     OW24029   2.257   2.547   6.059
 8024SOL    HW124030   2.269   2.453   6.072
 8024SOL    HW224031   2.164   2.562   6.076
 8025SOL     OW24032   3.369   2.085   7.303
 8025SOL    HW124033   3.383   2.103   7.396
 8025SOL    HW224034   3.303   2.016   7.301
 8026SOL     OW24035   2.525   1.971   5.688
 8026SOL    HW124036   2.572   1.892   5.715
 8026SOL    HW224037   2.463   1.941   5.622
 8027SOL     OW24038   2.621   2.135   7.338
 8027SOL    HW124039   2.705   2.090   7.336
 8027SOL    HW224040   2.574   2.096   7.412
 8028SOL     OW24041   2.731   3.388   6.785
 8028SOL    HW124042   2.713   3.347   6.700
 8028SOL    HW224043   2.798   3.333   6.824
 8029SOL     OW24044   3.191   2.453   7.019
 8029SOL    HW124045   3.224   2.423   7.104
 8029SOL    HW224046   3.230   2.540   7.008
 8030SOL     OW24047   2.678   3.238   6.541
 8030SOL    HW124048   2.765   3.234   6.503
 8030SOL    HW224049   2.620   3.254   6.467
 8031SOL     OW24050   2.793   2.377   6.474
 8031SOL    HW124051   2.767   2.365   6.382
 8031SOL    HW224052   2.820   2.290   6.502
 8032SOL     OW24053   2.426   1.925   6.076
 8032SOL    HW124054   2.348   1.925   6.132
 8032SOL    HW224055   2.414   2.000   6.018
 8033SOL     OW24056   3.294   3.073   5.617
 8033SOL    HW124057   3.323   2.999   5.671
 8033SOL    HW224058   3.209   3.097   5.654
 8034SOL     OW24059   2.144   1.910   5.774
 8034SOL    HW124060   2.196   1.977   5.731
 8034SOL    HW224061   2.208   1.852   5.816
 8035SOL     OW24062   2.813   2.113   6.036
 8035SOL    HW124063   2.788   2.148   5.951
 8035SOL    HW224064   2.907   2.130   6.042
 8036SOL     OW24065   2.937   2.556   7.031
 8036SOL    HW124066   2.874   2.485   7.036
 8036SOL    HW224067   3.022   2.513   7.028
 8037SOL     OW24068   3.067   3.450   6.389
 8037SOL    HW124069   3.082   3.510   6.315
 8037SOL    HW224070   3.140   3.468   6.449
 8038SOL     OW24071   2.344   3.023   6.294
 8038SOL    HW124072   2.281   2.998   6.362
 8038SOL    HW224073   2.294   3.016   6.212
 8039SOL     OW24074   3.114   3.654   6.204
 8039SOL    HW124075   3.164   3.717   6.151
 8039SOL    HW224076   3.043   3.706   6.242
 8040SOL     OW24077   2.893   2.377   5.616
 8040SOL    HW124078   2.851   2.461   5.597
 8040SOL    HW224079   2.957   2.398   5.684
 8041SOL     OW24080   1.962   2.413   6.978
 8041SOL    HW124081   2.054   2.415   6.951
 8041SOL    HW224082   1.954   2.482   7.043
 8042SOL     OW24083   2.421   2.083   6.771
 8042SOL    HW124084   2.459   2.020   6.833
 8042SOL    HW224085   2.328   2.084   6.791
 8043SOL     OW24086   2.732   2.316   6.216
 8043SOL    HW124087   2.692   2.372   6.149
 8043SOL    HW224088   2.757   2.237   6.168
 8044SOL     OW24089   2.884   1.920   6.325
 8044SOL    HW124090   2.823   1.915   6.252
 8044SOL    HW224091   2.859   1.847   6.383
 8045SOL     OW24092   3.297   3.016   6.440
 8045SOL    HW124093   3.226   2.953   6.448
 8045SOL    HW224094   3.313   3.023   6.346
 8046SOL     OW24095   3.325   2.478   6.534
 8046SOL    HW124096   3.261   2.408   6.545
 8046SOL    HW224097   3.380   2.472   6.612
 8047SOL     OW24098   3.691   2.656   5.973
 8047SOL    HW124099   3.751   2.613   6.034
 8047SOL    HW224100   3.678   2.592   5.903
 8048SOL     OW24101   2.360   3.285   5.735
 8048SOL    HW124102   2.285   3.254   5.786
 8048SOL    HW224103   2.355   3.236   5.653
 8049SOL     OW24104   3.567   3.132   6.222
 8049SOL    HW124105   3.660   3.124   6.242
 8049SOL    HW224106   3.544   3.222   6.246
 8050SOL     OW24107   3.254   2.437   5.652
 8050SOL    HW124108   3.197   2.412   5.725
 8050SOL    HW224109   3.343   2.416   5.682
 8051SOL     OW24110   2.389   2.119   5.888
 8051SOL    HW124111   2.443   2.077   5.821
 8051SOL    HW224112   2.357   2.200   5.847
 8052SOL     OW24113   3.597   3.106   7.118
 8052SOL    HW124114   3.685   3.072   7.105
 8052SOL    HW224115   3.610   3.193   7.155
 8053SOL     OW24116   2.903   3.216   6.920
 8053SOL    HW124117   2.826   3.182   6.965
 8053SOL    HW224118   2.977   3.171   6.961
 8054SOL     OW24119   3.470   3.496   7.258
 8054SOL    HW124120   3.459   3.533   7.171
 8054SOL    HW224121   3.548   3.441   7.251
 8055SOL     OW24122   3.013   3.099   6.691
 8055SOL    HW124123   2.952   3.133   6.756
 8055SOL    HW224124   2.980   3.132   6.607
 8056SOL     OW24125   3.471   2.953   6.663
 8056SOL    HW124126   3.464   3.020   6.731
 8056SOL    HW224127   3.402   2.975   6.600
 8057SOL     OW24128   2.781   1.943   6.969
 8057SOL    HW124129   2.802   1.929   6.877
 8057SOL    HW224130   2.860   1.984   7.005
 8058SOL     OW24131   2.841   2.977   7.310
 8058SOL    HW124132   2.751   2.994   7.338
 8058SOL    HW224133   2.836   2.897   7.259
 8059SOL     OW24134   2.575   2.924   5.962
 8059SOL    HW124135   2.560   2.898   6.053
 8059SOL    HW224136   2.650   2.871   5.934
 8060SOL     OW24137   2.288   2.690   6.846
 8060SOL    HW124138   2.356   2.700   6.912
 8060SOL    HW224139   2.258   2.600   6.855
 8061SOL     OW24140   3.126   2.230   6.878
 8061SOL    HW124141   3.154   2.310   6.922
 8061SOL    HW224142   3.037   2.248   6.848
 8062SOL     OW24143   1.940   3.431   6.948
 8062SOL    HW124144   1.910   3.503   6.892
 8062SOL    HW224145   2.035   3.431   6.938
 8063SOL     OW24146   2.179   2.996   6.072
 8063SOL    HW124147   2.180   3.068   6.009
 8063SOL    HW224148   2.176   2.917   6.018
 8064SOL     OW24149   2.396   2.378   6.445
 8064SOL    HW124150   2.409   2.436   6.370
 8064SOL    HW224151   2.464   2.404   6.507
 8065SOL     OW24152   3.108   3.216   5.984
 8065SOL    HW124153   3.164   3.286   6.017
 8065SOL    HW224154   3.020   3.239   6.014
 8066SOL     OW24155   3.171   3.331   6.729
 8066SOL    HW124156   3.219   3.337   6.812
 8066SOL    HW224157   3.120   3.250   6.737
 8067SOL     OW24158   3.438   2.481   6.069
 8067SOL    HW124159   3.386   2.520   6.140
 8067SOL    HW224160   3.487   2.554   6.032
 8068SOL     OW24161   2.206   3.395   6.888
 8068SOL    HW124162   2.199   3.342   6.808
 8068SOL    HW224163   2.300   3.411   6.898
 8069SOL     OW24164   2.294   2.608   7.204
 8069SOL    HW124165   2.353   2.652   7.142
 8069SOL    HW224166   2.338   2.525   7.225
 8070SOL     OW24167   3.489   2.648   7.284
 8070SOL    HW124168   3.402   2.686   7.275
 8070SOL    HW224169   3.540   2.686   7.212
 8071SOL     OW24170   2.857   2.003   7.344
 8071SOL    HW124171   2.916   2.076   7.325
 8071SOL    HW224172   2.909   1.925   7.322
 8072SOL     OW24173   2.357   1.897   7.349
 8072SOL    HW124174   2.302   1.847   7.288
 8072SOL    HW224175   2.305   1.974   7.370
 8073SOL     OW24176   2.454   2.737   6.625
 8073SOL    HW124177   2.491   2.825   6.628
 8073SOL    HW224178   2.396   2.733   6.701
 8074SOL     OW24179   3.170   2.714   6.589
 8074SOL    HW124180   3.082   2.687   6.564
 8074SOL    HW224181   3.225   2.638   6.570
 8075SOL     OW24182   3.061   2.385   5.843
 8075SOL    HW124183   3.071   2.309   5.900
 8075SOL    HW224184   3.019   2.451   5.899
 8076SOL     OW24185   2.154   2.056   6.825
 8076SOL    HW124186   2.119   2.084   6.909
 8076SOL    HW224187   2.137   1.962   6.822
 8077SOL     OW24188   1.911   3.174   6.852
 8077SOL    HW124189   1.941   3.118   6.924
 8077SOL    HW224190   1.914   3.263   6.888
 8078SOL     OW24191   2.574   2.484   6.625
 8078SOL    HW124192   2.651   2.478   6.570
 8078SOL    HW224193   2.545   2.575   6.616
 8079SOL     OW24194   3.613   2.829   7.456
 8079SOL    HW124195   3.573   2.757   7.407
 8079SOL    HW224196   3.550   2.850   7.524
 8080SOL     OW24197   2.187   1.922   6.214
 8080SOL    HW124198   2.153   2.009   6.232
 8080SOL    HW224199   2.193   1.880   6.300
 8081SOL     OW24200   3.494   2.253   5.930
 8081SOL    HW124201   3.525   2.188   5.993
 8081SOL    HW224202   3.465   2.326   5.984
 8082SOL     OW24203   2.897   2.620   6.542
 8082SOL    HW124204   2.875   2.635   6.634
 8082SOL    HW224205   2.867   2.531   6.524
 8083SOL     OW24206   2.842   3.427   7.320
 8083SOL    HW124207   2.822   3.471   7.238
 8083SOL    HW224208   2.881   3.344   7.295
 8084SOL     OW24209   3.700   3.356   7.188
 8084SOL    HW124210   3.727   3.385   7.100
 8084SOL    HW224211   3.779   3.367   7.241
 8085SOL     OW24212   2.211   2.781   7.402
 8085SOL    HW124213   2.288   2.798   7.456
 8085SOL    HW224214   2.242   2.718   7.337
 8086SOL     OW24215   3.387   2.127   5.705
 8086SOL    HW124216   3.333   2.058   5.743
 8086SOL    HW224217   3.425   2.173   5.780
 8087SOL     OW24218   3.143   2.684   5.605
 8087SOL    HW124219   3.183   2.597   5.612
 8087SOL    HW224220   3.179   2.720   5.524
 8088SOL     OW24221   2.932   3.215   6.452
 8088SOL    HW124222   2.944   3.143   6.391
 8088SOL    HW224223   2.984   3.287   6.415
 8089SOL     OW24224   2.180   2.678   6.530
 8089SOL    HW124225   2.275   2.692   6.529
 8089SOL    HW224226   2.170   2.588   6.561
 8090SOL     OW24227   2.175   2.400   6.597
 8090SOL    HW124228   2.136   2.313   6.587
 8090SOL    HW224229   2.252   2.398   6.541
 8091SOL     OW24230   3.001   2.229   7.272
 8091SOL    HW124231   2.955   2.281   7.338
 8091SOL    HW224232   3.086   2.272   7.263
 8092SOL     OW24233   3.018   2.052   7.060
 8092SOL    HW124234   3.007   2.114   7.132
 8092SOL    HW224235   3.064   2.102   6.992
 8093SOL     OW24236   1.886   3.165   5.766
 8093SOL    HW124237   1.796   3.187   5.740
 8093SOL    HW224238   1.878   3.078   5.806
 8094SOL     OW24239   1.954   3.632   6.537
 8094SOL    HW124240   1.921   3.559   6.486
 8094SOL    HW224241   2.041   3.649   6.501
 8095SOL     OW24242   2.347   3.432   6.487
 8095SOL    HW124243   2.417   3.493   6.510
 8095SOL    HW224244   2.387   3.370   6.426
 8096SOL     OW24245   2.811   2.642   6.800
 8096SOL    HW124246   2.873   2.631   6.872
 8096SOL    HW224247   2.732   2.597   6.830
 8097SOL     OW24248   1.901   2.433   6.707
 8097SOL    HW124249   1.982   2.431   6.657
 8097SOL    HW224250   1.929   2.426   6.798
 8098SOL     OW24251   2.048   2.401   7.330
 8098SOL    HW124252   2.120   2.368   7.276
 8098SOL    HW224253   2.013   2.474   7.280
 8099SOL     OW24254   3.254   2.782   7.237
 8099SOL    HW124255   3.271   2.877   7.232
 8099SOL    HW224256   3.246   2.755   7.146
 8100SOL     OW24257   2.680   2.431   5.958
 8100SOL    HW124258   2.688   2.357   5.898
 8100SOL    HW224259   2.603   2.479   5.927
 8101SOL     OW24260   3.497   2.463   6.749
 8101SOL    HW124261   3.487   2.405   6.824
 8101SOL    HW224262   3.588   2.452   6.721
 8102SOL     OW24263   2.088   3.402   7.309
 8102SOL    HW124264   2.065   3.451   7.387
 8102SOL    HW224265   2.100   3.312   7.339
 8103SOL     OW24266   2.596   2.295   6.820
 8103SOL    HW124267   2.532   2.226   6.805
 8103SOL    HW224268   2.578   2.359   6.751
 8104SOL     OW24269   2.769   3.540   7.073
 8104SOL    HW124270   2.746   3.493   6.993
 8104SOL    HW224271   2.771   3.632   7.047
 8105SOL     OW24272   2.305   2.343   5.750
 8105SOL    HW124273   2.369   2.410   5.775
 8105SOL    HW224274   2.221   2.388   5.754
 8106SOL     OW24275   1.992   3.012   7.067
 8106SOL    HW124276   1.996   2.973   7.154
 8106SOL    HW224277   2.013   2.941   7.007
 8107SOL     OW24278   3.166   2.896   6.794
 8107SOL    HW124279   3.175   2.832   6.723
 8107SOL    HW224280   3.112   2.966   6.757
 8108SOL     OW24281   3.189   2.722   5.877
 8108SOL    HW124282   3.117   2.689   5.931
 8108SOL    HW224283   3.159   2.707   5.787
 8109SOL     OW24284   3.648   3.585   6.758
 8109SOL    HW124285   3.709   3.612   6.689
 8109SOL    HW224286   3.616   3.500   6.729
 8110SOL     OW24287   3.103   3.595   6.676
 8110SOL    HW124288   3.187   3.626   6.643
 8110SOL    HW224289   3.118   3.504   6.701
 8111SOL     OW24290   1.968   3.109   6.596
 8111SOL    HW124291   1.940   3.130   6.684
 8111SOL    HW224292   1.897   3.056   6.560
 8112SOL     OW24293   2.549   3.545   7.335
 8112SOL    HW124294   2.485   3.616   7.323
 8112SOL    HW224295   2.622   3.569   7.279
 8113SOL     OW24296   3.604   2.044   6.083
 8113SOL    HW124297   3.664   2.024   6.010
 8113SOL    HW224298   3.578   1.959   6.117
 8114SOL     OW24299   3.258   3.431   6.089
 8114SOL    HW124300   3.313   3.466   6.019
 8114SOL    HW224301   3.203   3.506   6.115
 8115SOL     OW24302   1.996   3.668   7.430
 8115SOL    HW124303   1.955   3.592   7.472
 8115SOL    HW224304   2.046   3.710   7.500
 8116SOL     OW24305   3.141   2.797   6.249
 8116SOL    HW124306   3.215   2.738   6.262
 8116SOL    HW224307   3.177   2.869   6.197
 8117SOL     OW24308   2.645   3.142   7.001
 8117SOL    HW124309   2.619   3.190   7.080
 8117SOL    HW224310   2.571   3.152   6.941
 8118SOL     OW24311   2.530   3.496   5.745
 8118SOL    HW124312   2.544   3.511   5.652
 8118SOL    HW224313   2.477   3.416   5.749
 8119SOL     OW24314   3.478   3.592   6.988
 8119SOL    HW124315   3.535   3.592   6.911
 8119SOL    HW224316   3.462   3.684   7.007
 8120SOL     OW24317   3.707   2.022   6.550
 8120SOL    HW124318   3.735   1.933   6.529
 8120SOL    HW224319   3.619   2.029   6.513
 8121SOL     OW24320   2.105   2.168   6.294
 8121SOL    HW124321   2.019   2.205   6.273
 8121SOL    HW224322   2.109   2.170   6.390
 8122SOL     OW24323   3.072   3.451   5.624
 8122SOL    HW124324   3.061   3.360   5.650
 8122SOL    HW224325   3.003   3.466   5.559
 8123SOL     OW24326   2.685   2.873   6.971
 8123SOL    HW124327   2.722   2.865   6.883
 8123SOL    HW224328   2.674   2.968   6.983
 8124SOL     OW24329   2.781   2.772   5.882
 8124SOL    HW124330   2.837   2.804   5.811
 8124SOL    HW224331   2.834   2.704   5.925
 8125SOL     OW24332   3.348   3.502   5.644
 8125SOL    HW124333   3.255   3.484   5.627
 8125SOL    HW224334   3.388   3.505   5.557
 8126SOL     OW24335   2.225   3.175   7.088
 8126SOL    HW124336   2.217   3.248   7.027
 8126SOL    HW224337   2.147   3.122   7.071
 8127SOL     OW24338   3.461   3.152   6.862
 8127SOL    HW124339   3.516   3.128   6.937
 8127SOL    HW224340   3.402   3.219   6.896
 8128SOL     OW24341   2.940   2.981   6.316
 8128SOL    HW124342   2.864   2.932   6.347
 8128SOL    HW224343   3.001   2.914   6.285
 8129SOL     OW24344   2.895   2.111   6.546
 8129SOL    HW124345   2.894   2.068   6.460
 8129SOL    HW224346   2.888   2.039   6.609
 8130SOL     OW24347   2.467   3.349   6.063
 8130SOL    HW124348   2.521   3.300   6.001
 8130SOL    HW224349   2.387   3.367   6.015
 8131SOL     OW24350   3.607   2.244   6.975
 8131SOL    HW124351   3.678   2.308   6.971
 8131SOL    HW224352   3.634   2.175   6.914
 8132SOL     OW24353   2.141   3.203   5.885
 8132SOL    HW124354   2.054   3.195   5.845
 8132SOL    HW224355   2.127   3.251   5.966
 8133SOL     OW24356   1.983   2.909   7.322
 8133SOL    HW124357   1.906   2.880   7.371
 8133SOL    HW224358   2.055   2.858   7.359
 8134SOL     OW24359   2.541   2.050   7.081
 8134SOL    HW124360   2.625   2.025   7.042
 8134SOL    HW224361   2.564   2.084   7.167
 8135SOL     OW24362   1.948   2.179   5.599
 8135SOL    HW124363   1.871   2.159   5.547
 8135SOL    HW224364   1.976   2.266   5.568
 8136SOL     OW24365   3.277   2.715   6.974
 8136SOL    HW124366   3.224   2.774   6.919
 8136SOL    HW224367   3.365   2.720   6.936
 8137SOL     OW24368   1.905   2.011   5.858
 8137SOL    HW124369   1.892   2.081   5.794
 8137SOL    HW224370   1.993   1.979   5.841
 8138SOL     OW24371   3.043   3.185   5.708
 8138SOL    HW124372   2.951   3.158   5.707
 8138SOL    HW224373   3.066   3.188   5.801
 8139SOL     OW24374   2.488   2.693   7.027
 8139SOL    HW124375   2.547   2.768   7.016
 8139SOL    HW224376   2.546   2.617   7.027
 8140SOL     OW24377   3.348   3.666   6.578
 8140SOL    HW124378   3.373   3.740   6.523
 8140SOL    HW224379   3.431   3.623   6.599
 8141SOL     OW24380   2.586   2.410   7.272
 8141SOL    HW124381   2.633   2.464   7.336
 8141SOL    HW224382   2.597   2.320   7.304
 8142SOL     OW24383   3.330   3.046   7.205
 8142SOL    HW124384   3.323   3.068   7.298
 8142SOL    HW224385   3.420   3.070   7.181
 8143SOL     OW24386   2.216   3.609   7.165
 8143SOL    HW124387   2.134   3.655   7.148
 8143SOL    HW224388   2.188   3.526   7.203
 8144SOL     OW24389   3.517   2.738   6.839
 8144SOL    HW124390   3.515   2.654   6.792
 8144SOL    HW224391   3.505   2.804   6.771
 8145SOL     OW24392   3.082   2.185   6.042
 8145SOL    HW124393   3.142   2.110   6.041
 8145SOL    HW224394   3.111   2.237   6.117
 8146SOL     OW24395   2.439   2.587   6.266
 8146SOL    HW124396   2.482   2.671   6.252
 8146SOL    HW224397   2.377   2.579   6.193
 8147SOL     OW24398   3.609   2.216   7.251
 8147SOL    HW124399   3.606   2.233   7.157
 8147SOL    HW224400   3.531   2.164   7.269
 8148SOL     OW24401   3.622   2.787   7.090
 8148SOL    HW124402   3.605   2.880   7.103
 8148SOL    HW224403   3.595   2.770   6.999
 8149SOL     OW24404   2.736   3.219   5.649
 8149SOL    HW124405   2.696   3.239   5.734
 8149SOL    HW224406   2.745   3.304   5.607
 8150SOL     OW24407   2.530   3.628   6.512
 8150SOL    HW124408   2.511   3.722   6.504
 8150SOL    HW224409   2.626   3.623   6.511
 8151SOL     OW24410   2.735   2.839   6.442
 8151SOL    HW124411   2.785   2.766   6.477
 8151SOL    HW224412   2.689   2.876   6.517
 8152SOL     OW24413   2.933   2.844   5.672
 8152SOL    HW124414   2.913   2.900   5.597
 8152SOL    HW224415   3.007   2.791   5.644
 8153SOL     OW24416   3.691   3.418   6.426
 8153SOL    HW124417   3.615   3.411   6.368
 8153SOL    HW224418   3.667   3.370   6.505
 8154SOL     OW24419   2.074   3.148   7.422
 8154SOL    HW124420   2.042   3.068   7.379
 8154SOL    HW224421   2.015   3.160   7.496
 8155SOL     OW24422   1.978   3.086   6.254
 8155SOL    HW124423   2.009   3.044   6.334
 8155SOL    HW224424   2.037   3.054   6.186
 8156SOL     OW24425   2.552   3.281   7.219
 8156SOL    HW124426   2.475   3.242   7.261
 8156SOL    HW224427   2.557   3.369   7.256
 8157SOL     OW24428   3.673   2.033   6.820
 8157SOL    HW124429   3.674   1.938   6.833
 8157SOL    HW224430   3.687   2.045   6.726
 8158SOL     OW24431   2.280   2.284   6.104
 8158SOL    HW124432   2.314   2.213   6.050
 8158SOL    HW224433   2.228   2.241   6.172
 8159SOL     OW24434   3.558   3.341   6.666
 8159SOL    HW124435   3.479   3.323   6.615
 8159SOL    HW224436   3.559   3.274   6.734
 8160SOL     OW24437   2.214   2.428   6.877
 8160SOL    HW124438   2.263   2.363   6.928
 8160SOL    HW224439   2.221   2.398   6.787
 8161SOL     OW24440   2.701   3.450   6.254
 8161SOL    HW124441   2.674   3.522   6.197
 8161SOL    HW224442   2.624   3.393   6.258
 8162SOL     OW24443   3.283   2.095   6.701
 8162SOL    HW124444   3.292   2.006   6.735
 8162SOL    HW224445   3.237   2.142   6.771
 8163SOL     OW24446   2.872   1.880   6.705
 8163SOL    HW124447   2.818   1.817   6.658
 8163SOL    HW224448   2.959   1.839   6.708
 8164SOL     OW24449   2.641   3.194   5.914
 8164SOL    HW124450   2.617   3.102   5.926
 8164SOL    HW224451   2.721   3.205   5.966
 8165SOL     OW24452   2.477   3.431   6.874
 8165SOL    HW124453   2.473   3.515   6.920
 8165SOL    HW224454   2.567   3.427   6.841
 8166SOL     OW24455   3.242   1.901   5.778
 8166SOL    HW124456   3.281   1.828   5.730
 8166SOL    HW224457   3.150   1.875   5.790
 8167SOL     OW24458   3.161   2.333   6.261
 8167SOL    HW124459   3.111   2.414   6.258
 8167SOL    HW224460   3.154   2.303   6.352
 8168SOL     OW24461   3.444   2.050   6.480
 8168SOL    HW124462   3.392   2.079   6.554
 8168SOL    HW224463   3.444   2.124   6.419
 8169SOL     OW24464   1.899   2.913   5.894
 8169SOL    HW124465   1.992   2.902   5.876
 8169SOL    HW224466   1.867   2.825   5.915
 8170SOL     OW24467   2.756   3.536   5.915
 8170SOL    HW124468   2.677   3.520   5.862
 8170SOL    HW224469   2.730   3.605   5.977
 8171SOL     OW24470   2.070   2.484   7.596
 8171SOL    HW124471   1.982   2.471   7.632
 8171SOL    HW224472   2.059   2.470   7.502
 8172SOL     OW24473   2.081   2.150   8.438
 8172SOL    HW124474   2.111   2.115   8.521
 8172SOL    HW224475   1.994   2.113   8.426
 8173SOL     OW24476   1.849   2.258   8.094
 8173SOL    HW124477   1.769   2.283   8.141
 8173SOL    HW224478   1.822   2.184   8.039
 8174SOL     OW24479   2.437   3.170   8.657
 8174SOL    HW124480   2.355   3.173   8.608
 8174SOL    HW224481   2.454   3.261   8.680
 8175SOL     OW24482   3.450   3.387   8.153
 8175SOL    HW124483   3.403   3.355   8.230
 8175SOL    HW224484   3.383   3.390   8.084
 8176SOL     OW24485   3.000   2.566   8.134
 8176SOL    HW124486   3.046   2.649   8.123
 8176SOL    HW224487   2.951   2.576   8.216
 8177SOL     OW24488   3.663   2.443   7.668
 8177SOL    HW124489   3.624   2.443   7.580
 8177SOL    HW224490   3.619   2.372   7.714
 8178SOL     OW24491   2.589   2.992   8.505
 8178SOL    HW124492   2.530   3.032   8.570
 8178SOL    HW224493   2.631   3.066   8.461
 8179SOL     OW24494   2.750   2.606   9.275
 8179SOL    HW124495   2.750   2.674   9.343
 8179SOL    HW224496   2.766   2.653   9.193
 8180SOL     OW24497   2.547   2.847   8.092
 8180SOL    HW124498   2.615   2.847   8.160
 8180SOL    HW224499   2.481   2.909   8.124
 8181SOL     OW24500   2.574   3.014   9.273
 8181SOL    HW124501   2.626   3.087   9.307
 8181SOL    HW224502   2.496   3.055   9.234
 8182SOL     OW24503   2.205   3.259   8.517
 8182SOL    HW124504   2.129   3.216   8.477
 8182SOL    HW224505   2.241   3.314   8.448
 8183SOL     OW24506   3.316   3.369   8.819
 8183SOL    HW124507   3.370   3.446   8.831
 8183SOL    HW224508   3.244   3.380   8.882
 8184SOL     OW24509   2.319   2.236   8.904
 8184SOL    HW124510   2.394   2.178   8.920
 8184SOL    HW224511   2.243   2.184   8.931
 8185SOL     OW24512   3.446   2.294   8.203
 8185SOL    HW124513   3.378   2.304   8.136
 8185SOL    HW224514   3.428   2.364   8.265
 8186SOL     OW24515   2.080   3.590   7.913
 8186SOL    HW124516   2.107   3.661   7.971
 8186SOL    HW224517   2.154   3.579   7.853
 8187SOL     OW24518   2.996   3.205   9.142
 8187SOL    HW124519   3.040   3.195   9.226
 8187SOL    HW224520   2.944   3.125   9.132
 8188SOL     OW24521   2.094   3.319   7.981
 8188SOL    HW124522   2.073   3.413   7.984
 8188SOL    HW224523   2.044   3.281   8.053
 8189SOL     OW24524   2.147   2.951   8.326
 8189SOL    HW124525   2.148   2.862   8.360
 8189SOL    HW224526   2.091   2.999   8.387
 8190SOL     OW24527   2.436   3.666   8.867
 8190SOL    HW124528   2.360   3.646   8.922
 8190SOL    HW224529   2.469   3.749   8.902
 8191SOL     OW24530   2.427   2.850   7.600
 8191SOL    HW124531   2.478   2.892   7.531
 8191SOL    HW224532   2.468   2.879   7.682
 8192SOL     OW24533   3.452   1.996   8.904
 8192SOL    HW124534   3.491   2.073   8.863
 8192SOL    HW224535   3.420   2.027   8.989
 8193SOL     OW24536   1.980   2.521   8.015
 8193SOL    HW124537   1.949   2.434   8.039
 8193SOL    HW224538   1.975   2.571   8.096
 8194SOL     OW24539   3.708   3.605   7.766
 8194SOL    HW124540   3.780   3.590   7.827
 8194SOL    HW224541   3.715   3.698   7.743
 8195SOL     OW24542   1.921   3.442   7.559
 8195SOL    HW124543   1.900   3.350   7.578
 8195SOL    HW224544   1.889   3.490   7.635
 8196SOL     OW24545   3.559   2.788   8.100
 8196SOL    HW124546   3.640   2.743   8.075
 8196SOL    HW224547   3.537   2.841   8.023
 8197SOL     OW24548   3.518   2.967   7.880
 8197SOL    HW124549   3.603   2.959   7.837
 8197SOL    HW224550   3.533   3.033   7.948
 8198SOL     OW24551   1.983   2.611   9.026
 8198SOL    HW124552   2.068   2.654   9.030
 8198SOL    HW224553   1.920   2.682   9.014
 8199SOL     OW24554   2.485   3.260   8.178
 8199SOL    HW124555   2.443   3.174   8.183
 8199SOL    HW224556   2.469   3.289   8.089
 8200SOL     OW24557   3.133   3.088   8.865
 8200SOL    HW124558   3.161   3.019   8.805
 8200SOL    HW224559   3.194   3.083   8.938
 8201SOL     OW24560   2.693   1.873   7.966
 8201SOL    HW124561   2.733   1.956   7.939
 8201SOL    HW224562   2.599   1.891   7.967
 8202SOL     OW24563   2.049   2.818   8.749
 8202SOL    HW124564   2.136   2.783   8.733
 8202SOL    HW224565   1.995   2.783   8.678
 8203SOL     OW24566   3.397   2.877   7.647
 8203SOL    HW124567   3.328   2.817   7.677
 8203SOL    HW224568   3.439   2.907   7.728
 8204SOL     OW24569   3.039   3.685   9.084
 8204SOL    HW124570   3.041   3.747   9.011
 8204SOL    HW224571   3.057   3.600   9.044
 8205SOL     OW24572   2.223   2.116   9.322
 8205SOL    HW124573   2.259   2.195   9.363
 8205SOL    HW224574   2.128   2.132   9.319
 8206SOL     OW24575   3.334   3.280   8.379
 8206SOL    HW124576   3.270   3.299   8.447
 8206SOL    HW224577   3.317   3.189   8.354
 8207SOL     OW24578   3.500   3.657   8.011
 8207SOL    HW124579   3.483   3.611   7.929
 8207SOL    HW224580   3.499   3.589   8.077
 8208SOL     OW24581   2.449   2.561   7.719
 8208SOL    HW124582   2.452   2.649   7.681
 8208SOL    HW224583   2.384   2.568   7.790
 8209SOL     OW24584   3.144   2.255   8.389
 8209SOL    HW124585   3.055   2.220   8.394
 8209SOL    HW224586   3.196   2.197   8.444
 8210SOL     OW24587   3.441   3.535   7.767
 8210SOL    HW124588   3.535   3.550   7.756
 8210SOL    HW224589   3.408   3.523   7.678
 8211SOL     OW24590   2.651   2.475   8.879
 8211SOL    HW124591   2.628   2.446   8.967
 8211SOL    HW224592   2.627   2.402   8.823
 8212SOL     OW24593   3.254   2.337   9.118
 8212SOL    HW124594   3.258   2.381   9.204
 8212SOL    HW224595   3.303   2.256   9.131
 8213SOL     OW24596   2.806   2.742   9.040
 8213SOL    HW124597   2.862   2.679   8.995
 8213SOL    HW224598   2.758   2.785   8.969
 8214SOL     OW24599   2.869   2.259   8.657
 8214SOL    HW124600   2.777   2.273   8.680
 8214SOL    HW224601   2.867   2.216   8.571
 8215SOL     OW24602   2.920   2.559   7.866
 8215SOL    HW124603   2.941   2.556   7.960
 8215SOL    HW224604   2.835   2.515   7.859
 8216SOL     OW24605   1.955   2.687   8.231
 8216SOL    HW124606   2.037   2.682   8.280
 8216SOL    HW224607   1.907   2.759   8.272
 8217SOL     OW24608   1.972   3.741   9.040
 8217SOL    HW124609   1.981   3.719   9.133
 8217SOL    HW224610   1.887   3.704   9.016
 8218SOL     OW24611   2.751   2.212   7.648
 8218SOL    HW124612   2.802   2.266   7.587
 8218SOL    HW224613   2.728   2.134   7.597
 8219SOL     OW24614   3.545   2.423   9.285
 8219SOL    HW124615   3.525   2.502   9.234
 8219SOL    HW224616   3.574   2.359   9.219
 8220SOL     OW24617   3.255   3.012   7.992
 8220SOL    HW124618   3.334   3.001   7.939
 8220SOL    HW224619   3.201   3.073   7.941
 8221SOL     OW24620   2.413   2.023   8.364
 8221SOL    HW124621   2.419   2.051   8.455
 8221SOL    HW224622   2.409   2.104   8.313
 8222SOL     OW24623   2.859   3.318   7.913
 8222SOL    HW124624   2.834   3.392   7.858
 8222SOL    HW224625   2.829   3.342   8.001
 8223SOL     OW24626   2.216   3.678   8.328
 8223SOL    HW124627   2.261   3.594   8.332
 8223SOL    HW224628   2.283   3.743   8.350
 8224SOL     OW24629   3.666   2.906   8.336
 8224SOL    HW124630   3.618   2.890   8.255
 8224SOL    HW224631   3.598   2.915   8.403
 8225SOL     OW24632   3.080   3.407   8.964
 8225SOL    HW124633   3.069   3.335   9.027
 8225SOL    HW224634   3.011   3.394   8.899
 8226SOL     OW24635   2.162   2.821   7.713
 8226SOL    HW124636   2.245   2.842   7.670
 8226SOL    HW224637   2.140   2.734   7.681
 8227SOL     OW24638   3.346   2.625   8.158
 8227SOL    HW124639   3.348   2.582   8.244
 8227SOL    HW224640   3.426   2.679   8.157
 8228SOL     OW24641   2.333   3.148   9.196
 8228SOL    HW124642   2.309   3.152   9.103
 8228SOL    HW224643   2.250   3.138   9.242
 8229SOL     OW24644   3.001   3.638   7.675
 8229SOL    HW124645   2.919   3.607   7.713
 8229SOL    HW224646   3.021   3.573   7.607
 8230SOL     OW24647   2.070   2.117   8.947
 8230SOL    HW124648   1.997   2.177   8.964
 8230SOL    HW224649   2.040   2.033   8.982
 8231SOL     OW24650   3.500   3.250   7.549
 8231SOL    HW124651   3.460   3.335   7.535
 8231SOL    HW224652   3.433   3.187   7.521
 8232SOL     OW24653   2.321   3.603   7.764
 8232SOL    HW124654   2.370   3.654   7.828
 8232SOL    HW224655   2.388   3.563   7.709
 8233SOL     OW24656   3.259   1.967   7.907
 8233SOL    HW124657   3.259   1.943   7.814
 8233SOL    HW224658   3.350   1.955   7.934
 8234SOL     OW24659   2.113   3.650   8.663
 8234SOL    HW124660   2.162   3.576   8.697
 8234SOL    HW224661   2.101   3.630   8.570
 8235SOL     OW24662   2.810   3.565   8.338
 8235SOL    HW124663   2.895   3.523   8.353
 8235SOL    HW224664   2.771   3.514   8.267
 8236SOL     OW24665   2.257   2.547   7.920
 8236SOL    HW124666   2.269   2.453   7.933
 8236SOL    HW224667   2.164   2.562   7.938
 8237SOL     OW24668   3.370   2.082   9.163
 8237SOL    HW124669   3.382   2.103   9.255
 8237SOL    HW224670   3.306   2.011   9.162
 8238SOL     OW24671   2.525   1.971   7.551
 8238SOL    HW124672   2.572   1.892   7.577
 8238SOL    HW224673   2.464   1.941   7.483
 8239SOL     OW24674   2.619   2.134   9.202
 8239SOL    HW124675   2.704   2.089   9.200
 8239SOL    HW224676   2.573   2.096   9.276
 8240SOL     OW24677   2.731   3.389   8.647
 8240SOL    HW124678   2.713   3.347   8.563
 8240SOL    HW224679   2.798   3.333   8.687
 8241SOL     OW24680   3.192   2.454   8.879
 8241SOL    HW124681   3.225   2.423   8.964
 8241SOL    HW224682   3.231   2.541   8.869
 8242SOL     OW24683   2.678   3.238   8.404
 8242SOL    HW124684   2.765   3.234   8.366
 8242SOL    HW224685   2.620   3.254   8.330
 8243SOL     OW24686   2.792   2.377   8.336
 8243SOL    HW124687   2.767   2.366   8.244
 8243SOL    HW224688   2.820   2.290   8.364
 8244SOL     OW24689   2.426   1.925   7.938
 8244SOL    HW124690   2.348   1.926   7.994
 8244SOL    HW224691   2.414   2.000   7.880
 8245SOL     OW24692   3.296   3.075   7.480
 8245SOL    HW124693   3.325   3.001   7.533
 8245SOL    HW224694   3.211   3.098   7.516
 8246SOL     OW24695   2.144   1.910   7.636
 8246SOL    HW124696   2.197   1.977   7.593
 8246SOL    HW224697   2.208   1.852   7.678
 8247SOL     OW24698   2.814   2.113   7.898
 8247SOL    HW124699   2.788   2.148   7.813
 8247SOL    HW224700   2.908   2.130   7.904
 8248SOL     OW24701   2.937   2.555   8.892
 8248SOL    HW124702   2.875   2.483   8.897
 8248SOL    HW224703   3.023   2.513   8.888
 8249SOL     OW24704   3.068   3.449   8.250
 8249SOL    HW124705   3.083   3.509   8.177
 8249SOL    HW224706   3.140   3.466   8.311
 8250SOL     OW24707   2.344   3.024   8.156
 8250SOL    HW124708   2.282   2.999   8.224
 8250SOL    HW224709   2.294   3.017   8.074
 8251SOL     OW24710   3.114   3.654   8.065
 8251SOL    HW124711   3.163   3.717   8.012
 8251SOL    HW224712   3.042   3.705   8.104
 8252SOL     OW24713   2.894   2.377   7.478
 8252SOL    HW124714   2.851   2.460   7.459
 8252SOL    HW224715   2.957   2.397   7.546
 8253SOL     OW24716   1.961   2.413   8.839
 8253SOL    HW124717   2.054   2.415   8.813
 8253SOL    HW224718   1.954   2.482   8.905
 8254SOL     OW24719   2.421   2.083   8.633
 8254SOL    HW124720   2.458   2.019   8.694
 8254SOL    HW224721   2.328   2.084   8.654
 8255SOL     OW24722   2.732   2.316   8.078
 8255SOL    HW124723   2.692   2.372   8.011
 8255SOL    HW224724   2.757   2.237   8.031
 8256SOL     OW24725   2.884   1.920   8.187
 8256SOL    HW124726   2.823   1.915   8.114
 8256SOL    HW224727   2.859   1.848   8.245
 8257SOL     OW24728   3.296   3.016   8.302
 8257SOL    HW124729   3.226   2.951   8.312
 8257SOL    HW224730   3.310   3.022   8.208
 8258SOL     OW24731   3.324   2.478   8.396
 8258SOL    HW124732   3.261   2.408   8.407
 8258SOL    HW224733   3.380   2.472   8.474
 8259SOL     OW24734   3.691   2.658   7.836
 8259SOL    HW124735   3.751   2.615   7.896
 8259SOL    HW224736   3.677   2.594   7.766
 8260SOL     OW24737   2.360   3.286   7.598
 8260SOL    HW124738   2.285   3.254   7.648
 8260SOL    HW224739   2.356   3.237   7.516
 8261SOL     OW24740   3.569   3.135   8.081
 8261SOL    HW124741   3.662   3.128   8.102
 8261SOL    HW224742   3.545   3.224   8.107
 8262SOL     OW24743   3.254   2.437   7.514
 8262SOL    HW124744   3.198   2.411   7.586
 8262SOL    HW224745   3.343   2.414   7.542
 8263SOL     OW24746   2.389   2.119   7.750
 8263SOL    HW124747   2.443   2.077   7.683
 8263SOL    HW224748   2.357   2.199   7.709
 8264SOL     OW24749   3.597   3.105   8.979
 8264SOL    HW124750   3.685   3.071   8.966
 8264SOL    HW224751   3.610   3.192   9.017
 8265SOL     OW24752   2.903   3.216   8.782
 8265SOL    HW124753   2.826   3.182   8.828
 8265SOL    HW224754   2.977   3.172   8.823
 8266SOL     OW24755   3.470   3.497   9.113
 8266SOL    HW124756   3.461   3.533   9.024
 8266SOL    HW224757   3.547   3.440   9.108
 8267SOL     OW24758   3.013   3.100   8.553
 8267SOL    HW124759   2.952   3.133   8.618
 8267SOL    HW224760   2.980   3.132   8.469
 8268SOL     OW24761   3.473   2.954   8.525
 8268SOL    HW124762   3.465   3.020   8.593
 8268SOL    HW224763   3.402   2.975   8.463
 8269SOL     OW24764   2.781   1.944   8.831
 8269SOL    HW124765   2.802   1.929   8.738
 8269SOL    HW224766   2.859   1.984   8.867
 8270SOL     OW24767   2.843   2.977   9.171
 8270SOL    HW124768   2.753   2.994   9.197
 8270SOL    HW224769   2.839   2.896   9.120
 8271SOL     OW24770   2.576   2.924   7.824
 8271SOL    HW124771   2.561   2.898   7.915
 8271SOL    HW224772   2.650   2.871   7.796
 8272SOL     OW24773   2.288   2.690   8.707
 8272SOL    HW124774   2.356   2.700   8.774
 8272SOL    HW224775   2.258   2.599   8.717
 8273SOL     OW24776   3.126   2.230   8.739
 8273SOL    HW124777   3.154   2.311   8.783
 8273SOL    HW224778   3.037   2.248   8.709
 8274SOL     OW24779   1.940   3.431   8.809
 8274SOL    HW124780   1.910   3.503   8.753
 8274SOL    HW224781   2.035   3.431   8.799
 8275SOL     OW24782   2.179   2.996   7.934
 8275SOL    HW124783   2.180   3.068   7.871
 8275SOL    HW224784   2.176   2.917   7.880
 8276SOL     OW24785   2.396   2.378   8.307
 8276SOL    HW124786   2.408   2.437   8.232
 8276SOL    HW224787   2.464   2.404   8.369
 8277SOL     OW24788   3.109   3.216   7.846
 8277SOL    HW124789   3.165   3.286   7.880
 8277SOL    HW224790   3.021   3.240   7.876
 8278SOL     OW24791   3.171   3.331   8.590
 8278SOL    HW124792   3.218   3.337   8.673
 8278SOL    HW224793   3.120   3.250   8.598
 8279SOL     OW24794   3.436   2.479   7.933
 8279SOL    HW124795   3.385   2.520   8.003
 8279SOL    HW224796   3.485   2.552   7.894
 8280SOL     OW24797   2.206   3.395   8.750
 8280SOL    HW124798   2.199   3.342   8.670
 8280SOL    HW224799   2.300   3.411   8.760
 8281SOL     OW24800   2.292   2.609   9.065
 8281SOL    HW124801   2.352   2.652   9.004
 8281SOL    HW224802   2.335   2.526   9.086
 8282SOL     OW24803   3.489   2.650   9.148
 8282SOL    HW124804   3.401   2.688   9.138
 8282SOL    HW224805   3.540   2.688   9.077
 8283SOL     OW24806   2.857   2.004   9.209
 8283SOL    HW124807   2.915   2.077   9.188
 8283SOL    HW224808   2.908   1.926   9.186
 8284SOL     OW24809   2.358   1.897   9.210
 8284SOL    HW124810   2.304   1.847   9.150
 8284SOL    HW224811   2.306   1.975   9.231
 8285SOL     OW24812   2.453   2.737   8.487
 8285SOL    HW124813   2.491   2.824   8.490
 8285SOL    HW224814   2.396   2.733   8.563
 8286SOL     OW24815   3.170   2.715   8.450
 8286SOL    HW124816   3.082   2.688   8.425
 8286SOL    HW224817   3.225   2.639   8.431
 8287SOL     OW24818   3.061   2.385   7.705
 8287SOL    HW124819   3.071   2.308   7.762
 8287SOL    HW224820   3.019   2.450   7.761
 8288SOL     OW24821   2.153   2.056   8.687
 8288SOL    HW124822   2.119   2.084   8.772
 8288SOL    HW224823   2.137   1.961   8.684
 8289SOL     OW24824   1.912   3.174   8.713
 8289SOL    HW124825   1.941   3.118   8.786
 8289SOL    HW224826   1.914   3.262   8.749
 8290SOL     OW24827   2.573   2.484   8.487
 8290SOL    HW124828   2.651   2.477   8.432
 8290SOL    HW224829   2.545   2.575   8.477
 8291SOL     OW24830   3.617   2.833   9.317
 8291SOL    HW124831   3.573   2.761   9.273
 8291SOL    HW224832   3.560   2.856   9.389
 8292SOL     OW24833   2.187   1.922   8.076
 8292SOL    HW124834   2.153   2.010   8.095
 8292SOL    HW224835   2.193   1.880   8.162
 8293SOL     OW24836   3.494   2.252   7.792
 8293SOL    HW124837   3.526   2.187   7.854
 8293SOL    HW224838   3.464   2.325   7.846
 8294SOL     OW24839   2.896   2.620   8.404
 8294SOL    HW124840   2.874   2.635   8.496
 8294SOL    HW224841   2.866   2.531   8.386
 8295SOL     OW24842   2.842   3.429   9.180
 8295SOL    HW124843   2.822   3.472   9.097
 8295SOL    HW224844   2.882   3.346   9.156
 8296SOL     OW24845   3.700   3.355   9.048
 8296SOL    HW124846   3.727   3.384   8.961
 8296SOL    HW224847   3.778   3.367   9.103
 8297SOL     OW24848   2.212   2.778   9.267
 8297SOL    HW124849   2.291   2.798   9.317
 8297SOL    HW224850   2.241   2.716   9.200
 8298SOL     OW24851   3.384   2.130   7.567
 8298SOL    HW124852   3.331   2.059   7.604
 8298SOL    HW224853   3.423   2.174   7.642
 8299SOL     OW24854   3.143   2.683   7.467
 8299SOL    HW124855   3.183   2.597   7.475
 8299SOL    HW224856   3.179   2.720   7.386
 8300SOL     OW24857   2.932   3.215   8.314
 8300SOL    HW124858   2.943   3.142   8.253
 8300SOL    HW224859   2.984   3.286   8.277
 8301SOL     OW24860   2.180   2.678   8.392
 8301SOL    HW124861   2.275   2.692   8.391
 8301SOL    HW224862   2.170   2.588   8.423
 8302SOL     OW24863   2.175   2.400   8.459
 8302SOL    HW124864   2.136   2.313   8.449
 8302SOL    HW224865   2.252   2.398   8.403
 8303SOL     OW24866   3.000   2.230   9.132
 8303SOL    HW124867   2.955   2.282   9.199
 8303SOL    HW224868   3.085   2.272   9.123
 8304SOL     OW24869   3.017   2.052   8.921
 8304SOL    HW124870   3.006   2.114   8.993
 8304SOL    HW224871   3.064   2.101   8.854
 8305SOL     OW24872   1.886   3.165   7.628
 8305SOL    HW124873   1.796   3.187   7.602
 8305SOL    HW224874   1.879   3.078   7.668
 8306SOL     OW24875   1.954   3.632   8.398
 8306SOL    HW124876   1.921   3.559   8.347
 8306SOL    HW224877   2.042   3.649   8.362
 8307SOL     OW24878   2.347   3.432   8.349
 8307SOL    HW124879   2.417   3.492   8.371
 8307SOL    HW224880   2.387   3.370   8.287
 8308SOL     OW24881   2.810   2.643   8.662
 8308SOL    HW124882   2.872   2.631   8.734
 8308SOL    HW224883   2.731   2.598   8.691
 8309SOL     OW24884   1.901   2.434   8.569
 8309SOL    HW124885   1.983   2.431   8.519
 8309SOL    HW224886   1.929   2.427   8.660
 8310SOL     OW24887   2.049   2.396   9.187
 8310SOL    HW124888   2.119   2.362   9.131
 8310SOL    HW224889   2.014   2.471   9.139
 8311SOL     OW24890   3.254   2.782   9.098
 8311SOL    HW124891   3.270   2.877   9.094
 8311SOL    HW224892   3.246   2.755   9.007
 8312SOL     OW24893   2.680   2.431   7.820
 8312SOL    HW124894   2.689   2.357   7.760
 8312SOL    HW224895   2.603   2.478   7.788
 8313SOL     OW24896   3.497   2.464   8.611
 8313SOL    HW124897   3.487   2.405   8.685
 8313SOL    HW224898   3.588   2.452   8.583
 8314SOL     OW24899   2.087   3.405   9.168
 8314SOL    HW124900   2.068   3.461   9.244
 8314SOL    HW224901   2.097   3.317   9.206
 8315SOL     OW24902   2.596   2.295   8.682
 8315SOL    HW124903   2.532   2.225   8.667
 8315SOL    HW224904   2.578   2.359   8.613
 8316SOL     OW24905   2.770   3.541   8.933
 8316SOL    HW124906   2.746   3.494   8.853
 8316SOL    HW224907   2.771   3.633   8.907
 8317SOL     OW24908   2.305   2.343   7.612
 8317SOL    HW124909   2.369   2.409   7.637
 8317SOL    HW224910   2.221   2.389   7.615
 8318SOL     OW24911   1.991   3.012   8.928
 8318SOL    HW124912   1.996   2.973   9.015
 8318SOL    HW224913   2.013   2.940   8.869
 8319SOL     OW24914   3.167   2.896   8.656
 8319SOL    HW124915   3.175   2.833   8.585
 8319SOL    HW224916   3.113   2.966   8.619
 8320SOL     OW24917   3.188   2.722   7.739
 8320SOL    HW124918   3.118   2.687   7.794
 8320SOL    HW224919   3.159   2.707   7.649
 8321SOL     OW24920   3.649   3.586   8.618
 8321SOL    HW124921   3.711   3.611   8.549
 8321SOL    HW224922   3.617   3.500   8.591
 8322SOL     OW24923   3.102   3.595   8.538
 8322SOL    HW124924   3.186   3.625   8.504
 8322SOL    HW224925   3.117   3.504   8.563
 8323SOL     OW24926   1.968   3.110   8.457
 8323SOL    HW124927   1.941   3.131   8.546
 8323SOL    HW224928   1.897   3.056   8.421
 8324SOL     OW24929   2.550   3.545   9.201
 8324SOL    HW124930   2.487   3.616   9.187
 8324SOL    HW224931   2.625   3.567   9.147
 8325SOL     OW24932   3.606   2.046   7.944
 8325SOL    HW124933   3.665   2.026   7.872
 8325SOL    HW224934   3.579   1.960   7.978
 8326SOL     OW24935   3.259   3.432   7.951
 8326SOL    HW124936   3.314   3.467   7.881
 8326SOL    HW224937   3.204   3.506   7.977
 8327SOL     OW24938   2.003   3.663   9.296
 8327SOL    HW124939   1.957   3.592   9.340
 8327SOL    HW224940   2.052   3.707   9.365
 8328SOL     OW24941   3.141   2.798   8.111
 8328SOL    HW124942   3.214   2.738   8.125
 8328SOL    HW224943   3.177   2.869   8.060
 8329SOL     OW24944   2.644   3.142   8.862
 8329SOL    HW124945   2.618   3.190   8.940
 8329SOL    HW224946   2.571   3.152   8.802
 8330SOL     OW24947   2.530   3.497   7.607
 8330SOL    HW124948   2.545   3.512   7.514
 8330SOL    HW224949   2.478   3.417   7.611
 8331SOL     OW24950   3.477   3.593   8.846
 8331SOL    HW124951   3.535   3.593   8.770
 8331SOL    HW224952   3.462   3.685   8.865
 8332SOL     OW24953   3.707   2.022   8.412
 8332SOL    HW124954   3.735   1.933   8.391
 8332SOL    HW224955   3.620   2.029   8.374
 8333SOL     OW24956   2.105   2.168   8.156
 8333SOL    HW124957   2.019   2.205   8.135
 8333SOL    HW224958   2.109   2.170   8.252
 8334SOL     OW24959   3.072   3.451   7.486
 8334SOL    HW124960   3.061   3.359   7.513
 8334SOL    HW224961   3.002   3.464   7.422
 8335SOL     OW24962   2.685   2.873   8.833
 8335SOL    HW124963   2.722   2.865   8.745
 8335SOL    HW224964   2.674   2.968   8.845
 8336SOL     OW24965   2.782   2.772   7.743
 8336SOL    HW124966   2.838   2.805   7.673
 8336SOL    HW224967   2.834   2.705   7.786
 8337SOL     OW24968   3.346   3.506   7.506
 8337SOL    HW124969   3.254   3.487   7.489
 8337SOL    HW224970   3.386   3.510   7.419
 8338SOL     OW24971   2.224   3.174   8.949
 8338SOL    HW124972   2.216   3.248   8.888
 8338SOL    HW224973   2.146   3.122   8.933
 8339SOL     OW24974   3.462   3.152   8.725
 8339SOL    HW124975   3.515   3.127   8.801
 8339SOL    HW224976   3.402   3.219   8.759
 8340SOL     OW24977   2.939   2.981   8.178
 8340SOL    HW124978   2.863   2.932   8.209
 8340SOL    HW224979   3.001   2.915   8.148
 8341SOL     OW24980   2.895   2.111   8.408
 8341SOL    HW124981   2.894   2.069   8.322
 8341SOL    HW224982   2.888   2.039   8.471
 8342SOL     OW24983   2.466   3.348   7.923
 8342SOL    HW124984   2.521   3.299   7.862
 8342SOL    HW224985   2.385   3.364   7.875
 8343SOL     OW24986   3.607   2.244   8.835
 8343SOL    HW124987   3.678   2.308   8.831
 8343SOL    HW224988   3.634   2.175   8.774
 8344SOL     OW24989   2.141   3.203   7.747
 8344SOL    HW124990   2.054   3.195   7.707
 8344SOL    HW224991   2.127   3.251   7.828
 8345SOL     OW24992   1.986   2.910   9.184
 8345SOL    HW124993   1.908   2.883   9.232
 8345SOL    HW224994   2.057   2.858   9.221
 8346SOL     OW24995   2.541   2.051   8.943
 8346SOL    HW124996   2.625   2.026   8.905
 8346SOL    HW224997   2.563   2.084   9.030
 8347SOL     OW24998   1.948   2.180   7.462
 8347SOL    HW124999   1.871   2.159   7.409
 8347SOL    HW225000   1.976   2.266   7.431
 8348SOL     OW25001   3.278   2.716   8.835
 8348SOL    HW125002   3.226   2.775   8.780
 8348SOL    HW225003   3.366   2.721   8.798
 8349SOL     OW25004   1.905   2.011   7.720
 8349SOL    HW125005   1.893   2.081   7.656
 8349SOL    HW225006   1.994   1.979   7.703
 8350SOL     OW25007   3.044   3.184   7.571
 8350SOL    HW125008   2.953   3.155   7.570
 8350SOL    HW225009   3.068   3.187   7.663
 8351SOL     OW25010   2.487   2.694   8.890
 8351SOL    HW125011   2.546   2.768   8.878
 8351SOL    HW225012   2.545   2.617   8.889
 8352SOL     OW25013   3.348   3.665   8.440
 8352SOL    HW125014   3.374   3.739   8.386
 8352SOL    HW225015   3.430   3.620   8.461
 8353SOL     OW25016   2.586   2.410   9.135
 8353SOL    HW125017   2.632   2.464   9.199
 8353SOL    HW225018   2.596   2.320   9.167
 8354SOL     OW25019   3.330   3.046   9.069
 8354SOL    HW125020   3.324   3.066   9.162
 8354SOL    HW225021   3.420   3.070   9.045
 8355SOL     OW25022   2.217   3.610   9.026
 8355SOL    HW125023   2.135   3.657   9.010
 8355SOL    HW225024   2.190   3.526   9.063
 8356SOL     OW25025   3.518   2.738   8.701
 8356SOL    HW125026   3.516   2.654   8.654
 8356SOL    HW225027   3.507   2.804   8.632
 8357SOL     OW25028   3.083   2.185   7.904
 8357SOL    HW125029   3.142   2.110   7.903
 8357SOL    HW225030   3.111   2.237   7.979
 8358SOL     OW25031   2.438   2.588   8.128
 8358SOL    HW125032   2.482   2.672   8.114
 8358SOL    HW225033   2.377   2.579   8.055
 8359SOL     OW25034   3.609   2.215   9.110
 8359SOL    HW125035   3.605   2.231   9.016
 8359SOL    HW225036   3.532   2.161   9.128
 8360SOL     OW25037   3.622   2.786   8.952
 8360SOL    HW125038   3.605   2.879   8.966
 8360SOL    HW225039   3.595   2.769   8.862
 8361SOL     OW25040   2.733   3.219   7.511
 8361SOL    HW125041   2.695   3.237   7.596
 8361SOL    HW225042   2.743   3.305   7.470
 8362SOL     OW25043   2.530   3.628   8.374
 8362SOL    HW125044   2.511   3.722   8.366
 8362SOL    HW225045   2.626   3.623   8.372
 8363SOL     OW25046   2.734   2.839   8.304
 8363SOL    HW125047   2.784   2.766   8.339
 8363SOL    HW225048   2.689   2.876   8.379
 8364SOL     OW25049   2.934   2.845   7.534
 8364SOL    HW125050   2.913   2.900   7.458
 8364SOL    HW225051   3.008   2.792   7.506
 8365SOL     OW25052   3.691   3.421   8.289
 8365SOL    HW125053   3.615   3.412   8.231
 8365SOL    HW225054   3.669   3.369   8.366
 8366SOL     OW25055   2.073   3.152   9.283
 8366SOL    HW125056   2.042   3.072   9.242
 8366SOL    HW225057   2.011   3.167   9.355
 8367SOL     OW25058   1.979   3.086   8.116
 8367SOL    HW125059   2.009   3.045   8.196
 8367SOL    HW225060   2.038   3.053   8.048
 8368SOL     OW25061   2.549   3.283   9.078
 8368SOL    HW125062   2.473   3.244   9.120
 8368SOL    HW225063   2.556   3.371   9.117
 8369SOL     OW25064   3.675   2.033   8.682
 8369SOL    HW125065   3.676   1.939   8.695
 8369SOL    HW225066   3.688   2.045   8.588
 8370SOL     OW25067   2.280   2.285   7.966
 8370SOL    HW125068   2.314   2.214   7.912
 8370SOL    HW225069   2.228   2.241   8.034
 8371SOL     OW25070   3.558   3.342   8.530
 8371SOL    HW125071   3.479   3.323   8.478
 8371SOL    HW225072   3.558   3.274   8.598
 8372SOL     OW25073   2.214   2.427   8.740
 8372SOL    HW125074   2.263   2.362   8.790
 8372SOL    HW225075   2.222   2.398   8.649
 8373SOL     OW25076   2.700   3.446   8.118
 8373SOL    HW125077   2.670   3.516   8.060
 8373SOL    HW225078   2.625   3.388   8.126
 8374SOL     OW25079   3.283   2.095   8.563
 8374SOL    HW125080   3.292   2.005   8.596
 8374SOL    HW225081   3.237   2.142   8.632
 8375SOL     OW25082   2.872   1.880   8.567
 8375SOL    HW125083   2.818   1.817   8.520
 8375SOL    HW225084   2.959   1.839   8.570
 8376SOL     OW25085   2.642   3.194   7.776
 8376SOL    HW125086   2.618   3.102   7.788
 8376SOL    HW225087   2.722   3.205   7.828
 8377SOL     OW25088   2.477   3.432   8.735
 8377SOL    HW125089   2.473   3.516   8.781
 8377SOL    HW225090   2.567   3.427   8.703
 8378SOL     OW25091   3.242   1.901   7.640
 8378SOL    HW125092   3.282   1.828   7.592
 8378SOL    HW225093   3.151   1.874   7.651
 8379SOL     OW25094   3.160   2.333   8.123
 8379SOL    HW125095   3.109   2.414   8.120
 8379SOL    HW225096   3.153   2.304   8.213
 8380SOL     OW25097   3.444   2.050   8.341
 8380SOL    HW125098   3.392   2.079   8.416
 8380SOL    HW225099   3.445   2.124   8.281
 8381SOL     OW25100   1.899   2.913   7.756
 8381SOL    HW125101   1.992   2.902   7.738
 8381SOL    HW225102   1.867   2.825   7.776
 8382SOL     OW25103   2.757   3.537   7.777
 8382SOL    HW125104   2.678   3.522   7.725
 8382SOL    HW225105   2.731   3.606   7.839
 8383SOL     OW25106   2.073   2.467   9.454
 8383SOL    HW125107   1.984   2.457   9.488
 8383SOL    HW225108   2.064   2.460   9.359
 8384SOL     OW25109   3.669   2.431   9.521
 8384SOL    HW125110   3.627   2.433   9.435
 8384SOL    HW225111   3.620   2.366   9.570
 8385SOL     OW25112   2.074   3.605   9.763
 8385SOL    HW125113   2.095   3.677   9.823
 8385SOL    HW225114   2.154   3.591   9.713
 8386SOL     OW25115   2.085   3.324   9.845
 8386SOL    HW125116   2.064   3.415   9.869
 8386SOL    HW225117   2.011   3.273   9.878
 8387SOL     OW25118   2.433   2.847   9.451
 8387SOL    HW125119   2.483   2.891   9.382
 8387SOL    HW225120   2.473   2.877   9.533
 8388SOL     OW25121   1.928   2.538   9.883
 8388SOL    HW125122   1.841   2.504   9.860
 8388SOL    HW225123   1.909   2.616   9.936
 8389SOL     OW25124   3.692   3.615   9.641
 8389SOL    HW125125   3.769   3.596   9.695
 8389SOL    HW225126   3.706   3.704   9.608
 8390SOL     OW25127   1.910   3.453   9.433
 8390SOL    HW125128   1.896   3.359   9.449
 8390SOL    HW225129   1.874   3.496   9.510
 8391SOL     OW25130   3.537   2.732   9.918
 8391SOL    HW125131   3.609   2.754   9.978
 8391SOL    HW225132   3.529   2.809   9.862
 8392SOL     OW25133   3.555   2.962   9.758
 8392SOL    HW125134   3.639   2.960   9.711
 8392SOL    HW225135   3.560   3.040   9.813
 8393SOL     OW25136   2.503   3.202   9.993
 8393SOL    HW125137   2.446   3.125   9.990
 8393SOL    HW225138   2.481   3.251   9.914
 8394SOL     OW25139   2.680   1.891   9.828
 8394SOL    HW125140   2.725   1.970   9.798
 8394SOL    HW225141   2.588   1.916   9.830
 8395SOL     OW25142   3.420   2.887   9.520
 8395SOL    HW125143   3.359   2.817   9.547
 8395SOL    HW225144   3.458   2.917   9.602
 8396SOL     OW25145   2.447   2.560   9.583
 8396SOL    HW125146   2.455   2.647   9.542
 8396SOL    HW225147   2.388   2.575   9.658
 8397SOL     OW25148   3.425   3.535   9.627
 8397SOL    HW125149   3.517   3.558   9.634
 8397SOL    HW225150   3.409   3.523   9.533
 8398SOL     OW25151   2.908   2.552   9.734
 8398SOL    HW125152   2.936   2.528   9.823
 8398SOL    HW225153   2.822   2.510   9.724
 8399SOL     OW25154   1.914   2.744   0.069
 8399SOL    HW125155   1.987   2.698   0.110
 8399SOL    HW225156   1.892   2.814   0.131
 8400SOL     OW25157   2.752   2.210   9.503
 8400SOL    HW125158   2.802   2.266   9.443
 8400SOL    HW225159   2.737   2.130   9.453
 8401SOL     OW25160   3.176   2.957   9.796
 8401SOL    HW125161   3.228   2.987   9.871
 8401SOL    HW225162   3.151   3.038   9.751
 8402SOL     OW25163   2.855   3.297   9.783
 8402SOL    HW125164   2.824   3.382   9.751
 8402SOL    HW225165   2.828   3.295   9.874
 8403SOL     OW25166   2.214   3.715   0.167
 8403SOL    HW125167   2.219   3.635   0.218
 8403SOL    HW225168   2.305   3.746   0.163
 8404SOL     OW25169   2.178   2.821   9.577
 8404SOL    HW125170   2.259   2.836   9.528
 8404SOL    HW225171   2.139   2.745   9.535
 8405SOL     OW25172   2.999   3.637   9.547
 8405SOL    HW125173   2.920   3.603   9.587
 8405SOL    HW225174   3.020   3.573   9.478
 8406SOL     OW25175   3.500   3.254   9.403
 8406SOL    HW125176   3.456   3.339   9.391
 8406SOL    HW225177   3.433   3.189   9.380
 8407SOL     OW25178   2.330   3.624   9.634
 8407SOL    HW125179   2.380   3.653   9.711
 8407SOL    HW225180   2.394   3.577   9.581
 8408SOL     OW25181   3.286   2.013   9.738
 8408SOL    HW125182   3.275   1.971   9.653
 8408SOL    HW225183   3.381   2.016   9.751
 8409SOL     OW25184   2.258   2.550   9.800
 8409SOL    HW125185   2.262   2.457   9.820
 8409SOL    HW225186   2.165   2.570   9.794
 8410SOL     OW25187   2.523   1.969   9.416
 8410SOL    HW125188   2.567   1.889   9.445
 8410SOL    HW225189   2.462   1.941   9.348
 8411SOL     OW25190   2.408   1.962   9.841
 8411SOL    HW125191   2.316   1.956   9.866
 8411SOL    HW225192   2.408   2.019   9.764
 8412SOL     OW25193   3.302   3.070   9.345
 8412SOL    HW125194   3.336   3.002   9.403
 8412SOL    HW225195   3.215   3.091   9.380
 8413SOL     OW25196   2.147   1.916   9.499
 8413SOL    HW125197   2.198   1.981   9.452
 8413SOL    HW225198   2.212   1.864   9.546
 8414SOL     OW25199   2.810   2.123   9.758
 8414SOL    HW125200   2.785   2.154   9.670
 8414SOL    HW225201   2.904   2.142   9.764
 8415SOL     OW25202   2.304   3.013   0.034
 8415SOL    HW125203   2.235   3.048   0.091
 8415SOL    HW225204   2.261   2.998   9.950
 8416SOL     OW25205   3.162   3.698   9.900
 8416SOL    HW125206   3.206   3.763   9.845
 8416SOL    HW225207   3.069   3.722   9.895
 8417SOL     OW25208   2.894   2.379   9.338
 8417SOL    HW125209   2.851   2.462   9.318
 8417SOL    HW225210   2.956   2.400   9.407
 8418SOL     OW25211   2.707   2.304   9.942
 8418SOL    HW125212   2.669   2.367   9.881
 8418SOL    HW225213   2.738   2.233   9.886
 8419SOL     OW25214   3.745   2.667   9.637
 8419SOL    HW125215   3.775   2.628   9.719
 8419SOL    HW225216   3.709   2.594   9.587
 8420SOL     OW25217   2.357   3.289   9.465
 8420SOL    HW125218   2.281   3.255   9.513
 8420SOL    HW225219   2.357   3.240   9.382
 8421SOL     OW25220   3.251   2.438   9.371
 8421SOL    HW125221   3.195   2.415   9.445
 8421SOL    HW225222   3.339   2.413   9.399
 8422SOL     OW25223   2.404   2.122   9.624
 8422SOL    HW125224   2.451   2.077   9.554
 8422SOL    HW225225   2.367   2.199   9.582
 8423SOL     OW25226   2.569   2.916   9.684
 8423SOL    HW125227   2.536   2.869   9.761
 8423SOL    HW225228   2.649   2.869   9.660
 8424SOL     OW25229   2.169   2.989   9.799
 8424SOL    HW125230   2.170   3.065   9.741
 8424SOL    HW225231   2.178   2.914   9.740
 8425SOL     OW25232   3.100   3.216   9.691
 8425SOL    HW125233   3.156   3.288   9.722
 8425SOL    HW225234   3.013   3.237   9.726
 8426SOL     OW25235   3.496   2.500   9.788
 8426SOL    HW125236   3.501   2.574   9.849
 8426SOL    HW225237   3.446   2.533   9.714
 8427SOL     OW25238   3.058   2.394   9.565
 8427SOL    HW125239   3.065   2.318   9.622
 8427SOL    HW225240   3.019   2.462   9.619
 8428SOL     OW25241   2.145   1.953   9.928
 8428SOL    HW125242   2.076   2.017   9.946
 8428SOL    HW225243   2.160   1.911   0.013
 8429SOL     OW25244   3.493   2.257   9.655
 8429SOL    HW125245   3.516   2.181   9.709
 8429SOL    HW225246   3.484   2.329   9.718
 8430SOL     OW25247   3.382   2.135   9.425
 8430SOL    HW125248   3.329   2.063   9.460
 8430SOL    HW225249   3.419   2.177   9.503
 8431SOL     OW25250   3.142   2.686   9.330
 8431SOL    HW125251   3.180   2.599   9.337
 8431SOL    HW225252   3.178   2.722   9.249
 8432SOL     OW25253   1.886   3.178   9.484
 8432SOL    HW125254   1.795   3.197   9.459
 8432SOL    HW225255   1.882   3.091   9.524
 8433SOL     OW25256   2.669   2.421   9.682
 8433SOL    HW125257   2.681   2.352   9.617
 8433SOL    HW225258   2.597   2.473   9.649
 8434SOL     OW25259   2.309   2.338   9.482
 8434SOL    HW125260   2.370   2.408   9.506
 8434SOL    HW225261   2.223   2.381   9.481
 8435SOL     OW25262   3.231   2.708   9.605
 8435SOL    HW125263   3.177   2.759   9.665
 8435SOL    HW225264   3.177   2.700   9.526
 8436SOL     OW25265   3.570   2.019   9.772
 8436SOL    HW125266   3.640   2.021   9.707
 8436SOL    HW225267   3.585   1.940   9.822
 8437SOL     OW25268   3.226   3.451   9.795
 8437SOL    HW125269   3.297   3.468   9.732
 8437SOL    HW225270   3.198   3.538   9.823
 8438SOL     OW25271   2.529   3.501   9.475
 8438SOL    HW125272   2.545   3.514   9.381
 8438SOL    HW225273   2.475   3.422   9.479
 8439SOL     OW25274   3.070   3.456   9.349
 8439SOL    HW125275   3.062   3.363   9.373
 8439SOL    HW225276   3.001   3.470   9.284
 8440SOL     OW25277   2.786   2.775   9.614
 8440SOL    HW125278   2.842   2.803   9.541
 8440SOL    HW225279   2.836   2.706   9.657
 8441SOL     OW25280   3.347   3.507   9.360
 8441SOL    HW125281   3.255   3.489   9.344
 8441SOL    HW225282   3.386   3.510   9.273
 8442SOL     OW25283   2.454   3.339   9.762
 8442SOL    HW125284   2.514   3.296   9.702
 8442SOL    HW225285   2.371   3.345   9.714
 8443SOL     OW25286   2.140   3.204   9.614
 8443SOL    HW125287   2.054   3.199   9.572
 8443SOL    HW225288   2.125   3.255   9.694
 8444SOL     OW25289   1.946   2.178   9.323
 8444SOL    HW125290   1.870   2.157   9.269
 8444SOL    HW225291   1.975   2.264   9.292
 8445SOL     OW25292   1.904   2.017   9.576
 8445SOL    HW125293   1.897   2.083   9.507
 8445SOL    HW225294   1.992   1.981   9.567
 8446SOL     OW25295   3.043   3.185   9.422
 8446SOL    HW125296   2.952   3.155   9.422
 8446SOL    HW225297   3.067   3.190   9.515
 8447SOL     OW25298   3.077   2.197   9.768
 8447SOL    HW125299   3.153   2.138   9.760
 8447SOL    HW225300   3.097   2.251   9.844
 8448SOL     OW25301   2.469   2.711   9.889
 8448SOL    HW125302   2.474   2.709   9.984
 8448SOL    HW225303   2.397   2.652   9.867
 8449SOL     OW25304   2.733   3.220   9.363
 8449SOL    HW125305   2.697   3.235   9.451
 8449SOL    HW225306   2.743   3.307   9.326
 8450SOL     OW25307   2.930   2.841   9.397
 8450SOL    HW125308   2.912   2.897   9.321
 8450SOL    HW225309   3.006   2.788   9.370
 8451SOL     OW25310   1.917   3.103   9.899
 8451SOL    HW125311   1.913   3.110   9.994
 8451SOL    HW225312   1.993   3.046   9.882
 8452SOL     OW25313   2.272   2.288   9.865
 8452SOL    HW125314   2.318   2.224   9.812
 8452SOL    HW225315   2.308   2.277   9.953
 8453SOL     OW25316   2.645   3.190   9.627
 8453SOL    HW125317   2.619   3.099   9.644
 8453SOL    HW225318   2.721   3.204   9.682
 8454SOL     OW25319   3.239   1.904   9.492
 8454SOL    HW125320   3.282   1.827   9.454
 8454SOL    HW225321   3.149   1.875   9.508
 8455SOL     OW25322   1.919   2.931   9.597
 8455SOL    HW125323   2.014   2.924   9.591
 8455SOL    HW225324   1.888   2.840   9.601
 8456SOL     OW25325   2.756   3.534   9.664
 8456SOL    HW125326   2.680   3.517   9.608
 8456SOL    HW225327   2.727   3.603   9.723
 8457SOL     OW25328   2.059   4.334   0.125
 8457SOL    HW125329   1.976   4.320   0.171
 8457SOL    HW225330   2.035   4.347   0.034
 8458SOL     OW25331   2.081   4.012   0.990
 8458SOL    HW125332   2.112   3.977   1.073
 8458SOL    HW225333   1.994   3.974   0.978
 8459SOL     OW25334   1.845   4.122   0.647
 8459SOL    HW125335   1.764   4.144   0.692
 8459SOL    HW225336   1.823   4.047   0.593
 8460SOL     OW25337   2.437   5.032   1.209
 8460SOL    HW125338   2.355   5.035   1.160
 8460SOL    HW225339   2.454   5.123   1.233
 8461SOL     OW25340   3.451   5.248   0.706
 8461SOL    HW125341   3.404   5.216   0.783
 8461SOL    HW225342   3.385   5.251   0.637
 8462SOL     OW25343   3.001   4.424   0.686
 8462SOL    HW125344   3.047   4.508   0.676
 8462SOL    HW225345   2.951   4.434   0.766
 8463SOL     OW25346   3.637   4.307   0.200
 8463SOL    HW125347   3.563   4.337   0.148
 8463SOL    HW225348   3.601   4.235   0.252
 8464SOL     OW25349   2.589   4.853   1.058
 8464SOL    HW125350   2.530   4.893   1.122
 8464SOL    HW225351   2.632   4.927   1.015
 8465SOL     OW25352   2.750   4.466   1.828
 8465SOL    HW125353   2.741   4.532   1.896
 8465SOL    HW225354   2.766   4.515   1.748
 8466SOL     OW25355   2.548   4.701   0.645
 8466SOL    HW125356   2.615   4.703   0.713
 8466SOL    HW225357   2.481   4.763   0.676
 8467SOL     OW25358   2.574   4.874   1.832
 8467SOL    HW125359   2.625   4.946   1.867
 8467SOL    HW225360   2.497   4.915   1.792
 8468SOL     OW25361   2.204   5.120   1.071
 8468SOL    HW125362   2.128   5.078   1.031
 8468SOL    HW225363   2.240   5.176   1.001
 8469SOL     OW25364   3.315   5.231   1.372
 8469SOL    HW125365   3.370   5.308   1.385
 8469SOL    HW225366   3.243   5.241   1.434
 8470SOL     OW25367   2.320   4.098   1.455
 8470SOL    HW125368   2.395   4.040   1.471
 8470SOL    HW225369   2.244   4.047   1.482
 8471SOL     OW25370   3.442   4.156   0.752
 8471SOL    HW125371   3.368   4.164   0.692
 8471SOL    HW225372   3.428   4.226   0.816
 8472SOL     OW25373   2.089   5.444   0.470
 8472SOL    HW125374   2.106   5.519   0.527
 8472SOL    HW225375   2.175   5.424   0.431
 8473SOL     OW25376   2.997   5.066   1.697
 8473SOL    HW125377   3.042   5.055   1.781
 8473SOL    HW225378   2.943   4.987   1.688
 8474SOL     OW25379   2.072   5.168   0.507
 8474SOL    HW125380   2.064   5.263   0.516
 8474SOL    HW225381   2.032   5.133   0.587
 8475SOL     OW25382   2.142   4.810   0.881
 8475SOL    HW125383   2.144   4.722   0.917
 8475SOL    HW225384   2.088   4.860   0.942
 8476SOL     OW25385   2.436   5.527   1.421
 8476SOL    HW125386   2.359   5.507   1.475
 8476SOL    HW225387   2.468   5.611   1.455
 8477SOL     OW25388   2.430   4.671   0.174
 8477SOL    HW125389   2.403   4.741   0.114
 8477SOL    HW225390   2.488   4.714   0.236
 8478SOL     OW25391   3.454   3.857   1.459
 8478SOL    HW125392   3.492   3.934   1.416
 8478SOL    HW225393   3.422   3.890   1.543
 8479SOL     OW25394   1.976   4.377   0.573
 8479SOL    HW125395   1.941   4.292   0.597
 8479SOL    HW225396   1.969   4.430   0.653
 8480SOL     OW25397   3.724   5.462   0.307
 8480SOL    HW125398   3.794   5.440   0.369
 8480SOL    HW225399   3.738   5.554   0.285
 8481SOL     OW25400   1.922   5.298   0.085
 8481SOL    HW125401   1.899   5.211   0.117
 8481SOL    HW225402   1.899   5.357   0.157
 8482SOL     OW25403   3.560   4.644   0.664
 8482SOL    HW125404   3.643   4.600   0.645
 8482SOL    HW225405   3.540   4.694   0.584
 8483SOL     OW25406   3.524   4.815   0.443
 8483SOL    HW125407   3.605   4.811   0.393
 8483SOL    HW225408   3.538   4.885   0.507
 8484SOL     OW25409   1.983   4.473   1.578
 8484SOL    HW125410   2.068   4.517   1.582
 8484SOL    HW225411   1.920   4.544   1.564
 8485SOL     OW25412   2.478   5.105   0.758
 8485SOL    HW125413   2.435   5.019   0.752
 8485SOL    HW225414   2.475   5.139   0.668
 8486SOL     OW25415   3.132   4.950   1.417
 8486SOL    HW125416   3.160   4.881   1.357
 8486SOL    HW225417   3.194   4.944   1.490
 8487SOL     OW25418   2.694   3.739   0.529
 8487SOL    HW125419   2.735   3.820   0.497
 8487SOL    HW225420   2.600   3.759   0.530
 8488SOL     OW25421   2.049   4.680   1.302
 8488SOL    HW125422   2.136   4.645   1.285
 8488SOL    HW225423   1.994   4.644   1.233
 8489SOL     OW25424   3.353   4.752   0.236
 8489SOL    HW125425   3.299   4.680   0.267
 8489SOL    HW225426   3.415   4.768   0.307
 8490SOL     OW25427   3.042   5.546   1.636
 8490SOL    HW125428   3.043   5.608   1.562
 8490SOL    HW225429   3.058   5.461   1.596
 8491SOL     OW25430   2.222   3.977   1.875
 8491SOL    HW125431   2.257   4.058   1.913
 8491SOL    HW225432   2.127   3.992   1.873
 8492SOL     OW25433   3.334   5.140   0.930
 8492SOL    HW125434   3.270   5.160   0.999
 8492SOL    HW225435   3.316   5.050   0.906
 8493SOL     OW25436   3.506   5.521   0.565
 8493SOL    HW125437   3.489   5.475   0.482
 8493SOL    HW225438   3.504   5.452   0.631
 8494SOL     OW25439   2.454   4.415   0.285
 8494SOL    HW125440   2.460   4.501   0.244
 8494SOL    HW225441   2.388   4.425   0.353
 8495SOL     OW25442   3.144   4.115   0.941
 8495SOL    HW125443   3.055   4.081   0.947
 8495SOL    HW225444   3.196   4.057   0.997
 8496SOL     OW25445   3.452   5.401   0.324
 8496SOL    HW125446   3.546   5.412   0.309
 8496SOL    HW225447   3.416   5.383   0.237
 8497SOL     OW25448   2.652   4.338   1.430
 8497SOL    HW125449   2.629   4.309   1.519
 8497SOL    HW225450   2.627   4.264   1.374
 8498SOL     OW25451   3.254   4.201   1.674
 8498SOL    HW125452   3.259   4.244   1.759
 8498SOL    HW225453   3.304   4.120   1.685
 8499SOL     OW25454   2.806   4.605   1.593
 8499SOL    HW125455   2.862   4.541   1.549
 8499SOL    HW225456   2.758   4.647   1.522
 8500SOL     OW25457   2.870   4.121   1.209
 8500SOL    HW125458   2.778   4.135   1.232
 8500SOL    HW225459   2.867   4.077   1.125
 8501SOL     OW25460   2.928   4.421   0.416
 8501SOL    HW125461   2.948   4.417   0.510
 8501SOL    HW225462   2.843   4.378   0.408
 8502SOL     OW25463   1.955   4.551   0.783
 8502SOL    HW125464   2.037   4.544   0.831
 8502SOL    HW225465   1.907   4.622   0.826
 8503SOL     OW25466   1.972   5.603   1.587
 8503SOL    HW125467   1.978   5.583   1.680
 8503SOL    HW225468   1.886   5.569   1.562
 8504SOL     OW25469   2.723   4.063   0.200
 8504SOL    HW125470   2.710   4.113   0.119
 8504SOL    HW225471   2.732   3.972   0.171
 8505SOL     OW25472   3.549   4.286   1.840
 8505SOL    HW125473   3.527   4.364   1.788
 8505SOL    HW225474   3.577   4.222   1.775
 8506SOL     OW25475   3.258   4.873   0.556
 8506SOL    HW125476   3.336   4.863   0.502
 8506SOL    HW225477   3.202   4.934   0.507
 8507SOL     OW25478   2.413   3.887   0.915
 8507SOL    HW125479   2.419   3.915   1.006
 8507SOL    HW225480   2.409   3.969   0.866
 8508SOL     OW25481   2.862   5.177   0.471
 8508SOL    HW125482   2.837   5.253   0.419
 8508SOL    HW225483   2.829   5.197   0.559
 8509SOL     OW25484   2.215   5.541   0.879
 8509SOL    HW125485   2.260   5.457   0.884
 8509SOL    HW225486   2.283   5.605   0.901
 8510SOL     OW25487   3.665   4.768   0.895
 8510SOL    HW125488   3.617   4.750   0.814
 8510SOL    HW225489   3.597   4.778   0.962
 8511SOL     OW25490   3.080   5.267   1.517
 8511SOL    HW125491   3.068   5.196   1.580
 8511SOL    HW225492   3.011   5.252   1.451
 8512SOL     OW25493   2.174   4.652   0.290
 8512SOL    HW125494   2.256   4.659   0.240
 8512SOL    HW225495   2.177   4.564   0.327
 8513SOL     OW25496   3.347   4.481   0.713
 8513SOL    HW125497   3.347   4.440   0.799
 8513SOL    HW225498   3.425   4.536   0.712
 8514SOL     OW25499   2.335   5.008   1.748
 8514SOL    HW125500   2.311   5.013   1.655
 8514SOL    HW225501   2.252   4.996   1.794
 8515SOL     OW25502   2.966   5.508   0.181
 8515SOL    HW125503   2.909   5.467   0.247
 8515SOL    HW225504   3.005   5.434   0.134
 8516SOL     OW25505   2.070   3.980   1.498
 8516SOL    HW125506   1.998   4.040   1.516
 8516SOL    HW225507   2.040   3.896   1.532
 8517SOL     OW25508   3.493   5.095   0.112
 8517SOL    HW125509   3.452   5.181   0.105
 8517SOL    HW225510   3.427   5.034   0.078
 8518SOL     OW25511   2.350   5.432   0.376
 8518SOL    HW125512   2.385   5.508   0.421
 8518SOL    HW225513   2.416   5.410   0.310
 8519SOL     OW25514   3.257   3.827   0.447
 8519SOL    HW125515   3.254   3.807   0.354
 8519SOL    HW225516   3.349   3.815   0.471
 8520SOL     OW25517   2.114   5.513   1.214
 8520SOL    HW125518   2.163   5.438   1.249
 8520SOL    HW225519   2.099   5.491   1.122
 8521SOL     OW25520   2.808   5.426   0.890
 8521SOL    HW125521   2.892   5.382   0.905
 8521SOL    HW225522   2.766   5.375   0.821
 8522SOL     OW25523   2.235   4.417   0.464
 8522SOL    HW125524   2.258   4.325   0.475
 8522SOL    HW225525   2.146   4.424   0.499
 8523SOL     OW25526   3.370   3.946   1.717
 8523SOL    HW125527   3.383   3.965   1.810
 8523SOL    HW225528   3.304   3.877   1.715
 8524SOL     OW25529   2.469   3.816   0.117
 8524SOL    HW125530   2.564   3.807   0.127
 8524SOL    HW225531   2.455   3.823   0.022
 8525SOL     OW25532   2.621   3.997   1.752
 8525SOL    HW125533   2.705   3.952   1.750
 8525SOL    HW225534   2.574   3.958   1.826
 8526SOL     OW25535   2.732   5.252   1.201
 8526SOL    HW125536   2.713   5.210   1.117
 8526SOL    HW225537   2.799   5.196   1.241
 8527SOL     OW25538   3.192   4.315   1.433
 8527SOL    HW125539   3.225   4.285   1.518
 8527SOL    HW225540   3.230   4.402   1.422
 8528SOL     OW25541   2.679   5.101   0.961
 8528SOL    HW125542   2.765   5.097   0.919
 8528SOL    HW225543   2.617   5.113   0.890
 8529SOL     OW25544   2.793   4.239   0.890
 8529SOL    HW125545   2.768   4.226   0.799
 8529SOL    HW225546   2.820   4.152   0.920
 8530SOL     OW25547   2.426   3.800   0.502
 8530SOL    HW125548   2.347   3.798   0.556
 8530SOL    HW225549   2.413   3.872   0.442
 8531SOL     OW25550   3.288   4.923   0.035
 8531SOL    HW125551   3.313   4.857   0.100
 8531SOL    HW225552   3.207   4.961   0.069
 8532SOL     OW25553   2.814   3.974   0.450
 8532SOL    HW125554   2.782   4.010   0.367
 8532SOL    HW225555   2.907   3.996   0.451
 8533SOL     OW25556   2.938   4.418   1.445
 8533SOL    HW125557   2.875   4.346   1.450
 8533SOL    HW225558   3.023   4.375   1.442
 8534SOL     OW25559   3.067   5.312   0.800
 8534SOL    HW125560   3.083   5.371   0.727
 8534SOL    HW225561   3.139   5.329   0.861
 8535SOL     OW25562   2.341   4.872   0.710
 8535SOL    HW125563   2.278   4.851   0.779
 8535SOL    HW225564   2.291   4.868   0.629
 8536SOL     OW25565   3.115   5.517   0.613
 8536SOL    HW125566   3.163   5.581   0.560
 8536SOL    HW225567   3.045   5.569   0.655
 8537SOL     OW25568   2.956   4.285   9.980
 8537SOL    HW125569   2.868   4.248   9.986
 8537SOL    HW225570   2.992   4.278   0.068
 8538SOL     OW25571   1.961   4.276   1.391
 8538SOL    HW125572   2.054   4.277   1.365
 8538SOL    HW225573   1.954   4.344   1.457
 8539SOL     OW25574   2.421   3.945   1.185
 8539SOL    HW125575   2.459   3.881   1.245
 8539SOL    HW225576   2.328   3.946   1.205
 8540SOL     OW25577   2.735   4.176   0.633
 8540SOL    HW125578   2.700   4.233   0.564
 8540SOL    HW225579   2.759   4.095   0.587
 8541SOL     OW25580   2.887   3.781   0.742
 8541SOL    HW125581   2.824   3.778   0.671
 8541SOL    HW225582   2.862   3.709   0.800
 8542SOL     OW25583   3.293   4.877   0.854
 8542SOL    HW125584   3.225   4.811   0.867
 8542SOL    HW225585   3.303   4.883   0.759
 8543SOL     OW25586   3.324   4.339   0.952
 8543SOL    HW125587   3.260   4.269   0.962
 8543SOL    HW225588   3.379   4.333   1.029
 8544SOL     OW25589   3.722   4.513   0.369
 8544SOL    HW125590   3.764   4.464   0.439
 8544SOL    HW225591   3.683   4.446   0.313
 8545SOL     OW25592   2.366   5.167   0.213
 8545SOL    HW125593   2.285   5.122   0.234
 8545SOL    HW225594   2.408   5.111   0.148
 8546SOL     OW25595   3.572   4.996   0.631
 8546SOL    HW125596   3.665   4.989   0.655
 8546SOL    HW225597   3.548   5.085   0.658
 8547SOL     OW25598   3.279   4.289   0.095
 8547SOL    HW125599   3.203   4.278   0.151
 8547SOL    HW225600   3.317   4.202   0.086
 8548SOL     OW25601   2.370   3.988   0.310
 8548SOL    HW125602   2.408   3.929   0.244
 8548SOL    HW225603   2.348   4.067   0.261
 8549SOL     OW25604   3.597   4.968   1.532
 8549SOL    HW125605   3.685   4.934   1.519
 8549SOL    HW225606   3.610   5.056   1.570
 8550SOL     OW25607   2.904   5.079   1.336
 8550SOL    HW125608   2.827   5.045   1.380
 8550SOL    HW225609   2.978   5.034   1.376
 8551SOL     OW25610   3.469   5.359   1.672
 8551SOL    HW125611   3.458   5.395   1.584
 8551SOL    HW225612   3.547   5.303   1.666
 8552SOL     OW25613   3.013   4.962   1.105
 8552SOL    HW125614   2.951   4.996   1.170
 8552SOL    HW225615   2.979   4.994   1.021
 8553SOL     OW25616   3.469   4.816   1.078
 8553SOL    HW125617   3.461   4.882   1.147
 8553SOL    HW225618   3.400   4.837   1.016
 8554SOL     OW25619   2.781   3.805   1.383
 8554SOL    HW125620   2.802   3.790   1.291
 8554SOL    HW225621   2.859   3.846   1.419
 8555SOL     OW25622   2.841   4.840   1.724
 8555SOL    HW125623   2.751   4.856   1.751
 8555SOL    HW225624   2.836   4.759   1.673
 8556SOL     OW25625   2.585   4.776   0.377
 8556SOL    HW125626   2.571   4.749   0.468
 8556SOL    HW225627   2.666   4.731   0.351
 8557SOL     OW25628   2.288   4.551   1.259
 8557SOL    HW125629   2.356   4.562   1.326
 8557SOL    HW225630   2.258   4.461   1.269
 8558SOL     OW25631   3.127   4.092   1.291
 8558SOL    HW125632   3.154   4.173   1.336
 8558SOL    HW225633   3.037   4.111   1.262
 8559SOL     OW25634   1.940   5.294   1.363
 8559SOL    HW125635   1.909   5.366   1.307
 8559SOL    HW225636   2.035   5.295   1.353
 8560SOL     OW25637   2.177   4.849   0.488
 8560SOL    HW125638   2.177   4.920   0.423
 8560SOL    HW225639   2.185   4.769   0.436
 8561SOL     OW25640   2.395   4.237   0.857
 8561SOL    HW125641   2.406   4.296   0.782
 8561SOL    HW225642   2.463   4.264   0.919
 8562SOL     OW25643   3.111   5.072   0.420
 8562SOL    HW125644   3.167   5.145   0.446
 8562SOL    HW225645   3.023   5.098   0.444
 8563SOL     OW25646   3.171   5.193   1.142
 8563SOL    HW125647   3.218   5.199   1.225
 8563SOL    HW225648   3.120   5.112   1.150
 8564SOL     OW25649   3.401   4.346   0.472
 8564SOL    HW125650   3.380   4.385   0.557
 8564SOL    HW225651   3.356   4.402   0.409
 8565SOL     OW25652   2.206   5.258   1.302
 8565SOL    HW125653   2.199   5.204   1.223
 8565SOL    HW225654   2.300   5.274   1.312
 8566SOL     OW25655   2.294   4.471   1.618
 8566SOL    HW125656   2.353   4.514   1.556
 8566SOL    HW225657   2.337   4.388   1.639
 8567SOL     OW25658   3.489   4.509   1.698
 8567SOL    HW125659   3.402   4.548   1.689
 8567SOL    HW225660   3.540   4.548   1.626
 8568SOL     OW25661   2.857   3.865   1.757
 8568SOL    HW125662   2.916   3.938   1.739
 8568SOL    HW225663   2.909   3.787   1.736
 8569SOL     OW25664   2.357   3.759   1.762
 8569SOL    HW125665   2.302   3.709   1.702
 8569SOL    HW225666   2.304   3.836   1.784
 8570SOL     OW25667   2.452   4.599   1.038
 8570SOL    HW125668   2.490   4.686   1.041
 8570SOL    HW225669   2.395   4.595   1.115
 8571SOL     OW25670   3.171   4.578   1.003
 8571SOL    HW125671   3.082   4.551   0.978
 8571SOL    HW225672   3.225   4.501   0.986
 8572SOL     OW25673   3.053   4.243   0.246
 8572SOL    HW125674   3.065   4.167   0.303
 8572SOL    HW225675   3.012   4.309   0.301
 8573SOL     OW25676   2.154   3.918   1.239
 8573SOL    HW125677   2.119   3.946   1.323
 8573SOL    HW225678   2.137   3.824   1.236
 8574SOL     OW25679   1.912   5.037   1.267
 8574SOL    HW125680   1.942   4.981   1.339
 8574SOL    HW225681   1.915   5.126   1.303
 8575SOL     OW25682   2.571   4.345   1.037
 8575SOL    HW125683   2.650   4.339   0.984
 8575SOL    HW225684   2.543   4.436   1.029
 8576SOL     OW25685   3.613   4.692   1.869
 8576SOL    HW125686   3.573   4.619   1.821
 8576SOL    HW225687   3.549   4.712   1.938
 8577SOL     OW25688   2.181   3.788   0.630
 8577SOL    HW125689   2.149   3.876   0.649
 8577SOL    HW225690   2.188   3.746   0.716
 8578SOL     OW25691   3.499   4.117   0.352
 8578SOL    HW125692   3.532   4.053   0.415
 8578SOL    HW225693   3.463   4.188   0.406
 8579SOL     OW25694   2.896   4.482   0.958
 8579SOL    HW125695   2.875   4.497   1.050
 8579SOL    HW225696   2.867   4.393   0.940
 8580SOL     OW25697   2.842   5.290   1.734
 8580SOL    HW125698   2.821   5.333   1.652
 8580SOL    HW225699   2.881   5.206   1.709
 8581SOL     OW25700   3.700   5.219   1.602
 8581SOL    HW125701   3.727   5.248   1.515
 8581SOL    HW225702   3.778   5.229   1.656
 8582SOL     OW25703   2.211   4.643   1.816
 8582SOL    HW125704   2.288   4.660   1.871
 8582SOL    HW225705   2.242   4.580   1.751
 8583SOL     OW25706   3.362   4.029   0.128
 8583SOL    HW125707   3.313   3.949   0.150
 8583SOL    HW225708   3.410   4.050   0.208
 8584SOL     OW25709   3.183   4.542   0.040
 8584SOL    HW125710   3.218   4.453   0.040
 8584SOL    HW225711   3.240   4.590   9.979
 8585SOL     OW25712   2.932   5.077   0.865
 8585SOL    HW125713   2.943   5.004   0.805
 8585SOL    HW225714   2.984   5.148   0.827
 8586SOL     OW25715   2.180   4.538   0.944
 8586SOL    HW125716   2.274   4.553   0.944
 8586SOL    HW225717   2.170   4.448   0.975
 8587SOL     OW25718   2.175   4.261   1.011
 8587SOL    HW125719   2.136   4.175   1.002
 8587SOL    HW225720   2.252   4.259   0.954
 8588SOL     OW25721   3.001   4.092   1.685
 8588SOL    HW125722   2.955   4.142   1.752
 8588SOL    HW225723   3.086   4.134   1.677
 8589SOL     OW25724   3.018   3.914   1.473
 8589SOL    HW125725   3.007   3.975   1.546
 8589SOL    HW225726   3.064   3.964   1.406
 8590SOL     OW25727   1.879   5.014   0.171
 8590SOL    HW125728   1.789   5.043   0.154
 8590SOL    HW225729   1.870   4.935   0.223
 8591SOL     OW25730   1.955   5.494   0.952
 8591SOL    HW125731   1.921   5.420   0.901
 8591SOL    HW225732   2.042   5.510   0.915
 8592SOL     OW25733   2.346   5.296   0.905
 8592SOL    HW125734   2.417   5.357   0.926
 8592SOL    HW225735   2.388   5.228   0.852
 8593SOL     OW25736   2.810   4.504   1.216
 8593SOL    HW125737   2.873   4.493   1.287
 8593SOL    HW225738   2.731   4.459   1.246
 8594SOL     OW25739   1.902   4.297   1.121
 8594SOL    HW125740   1.984   4.293   1.071
 8594SOL    HW225741   1.929   4.289   1.212
 8595SOL     OW25742   2.048   4.262   1.744
 8595SOL    HW125743   2.120   4.229   1.690
 8595SOL    HW225744   2.012   4.336   1.694
 8596SOL     OW25745   3.254   4.644   1.651
 8596SOL    HW125746   3.271   4.739   1.647
 8596SOL    HW225747   3.246   4.617   1.560
 8597SOL     OW25748   2.689   4.288   0.374
 8597SOL    HW125749   2.695   4.213   0.315
 8597SOL    HW225750   2.611   4.335   0.347
 8598SOL     OW25751   3.498   4.325   1.164
 8598SOL    HW125752   3.489   4.266   1.239
 8598SOL    HW225753   3.589   4.314   1.136
 8599SOL     OW25754   2.088   5.264   1.724
 8599SOL    HW125755   2.063   5.311   1.803
 8599SOL    HW225756   2.100   5.173   1.753
 8600SOL     OW25757   2.596   4.157   1.233
 8600SOL    HW125758   2.532   4.087   1.219
 8600SOL    HW225759   2.577   4.221   1.164
 8601SOL     OW25760   2.768   5.403   1.488
 8601SOL    HW125761   2.745   5.356   1.408
 8601SOL    HW225762   2.770   5.495   1.461
 8602SOL     OW25763   2.313   4.210   0.155
 8602SOL    HW125764   2.372   4.276   0.191
 8602SOL    HW225765   2.228   4.253   0.151
 8603SOL     OW25766   1.992   4.875   1.481
 8603SOL    HW125767   1.996   4.835   1.568
 8603SOL    HW225768   2.013   4.803   1.421
 8604SOL     OW25769   3.165   4.758   1.209
 8604SOL    HW125770   3.175   4.695   1.138
 8604SOL    HW225771   3.112   4.828   1.171
 8605SOL     OW25772   3.189   4.542   0.319
 8605SOL    HW125773   3.104   4.520   0.356
 8605SOL    HW225774   3.175   4.539   0.224
 8606SOL     OW25775   3.649   5.448   1.171
 8606SOL    HW125776   3.710   5.473   1.102
 8606SOL    HW225777   3.617   5.362   1.143
 8607SOL     OW25778   3.103   5.458   1.090
 8607SOL    HW125779   3.187   5.487   1.057
 8607SOL    HW225780   3.117   5.366   1.115
 8608SOL     OW25781   1.968   4.972   1.011
 8608SOL    HW125782   1.940   4.994   1.100
 8608SOL    HW225783   1.896   4.920   0.976
 8609SOL     OW25784   2.549   5.407   1.749
 8609SOL    HW125785   2.486   5.478   1.736
 8609SOL    HW225786   2.623   5.430   1.692
 8610SOL     OW25787   2.748   3.803   0.099
 8610SOL    HW125788   2.742   3.776   0.007
 8610SOL    HW225789   2.826   3.757   0.131
 8611SOL     OW25790   3.616   3.906   0.496
 8611SOL    HW125791   3.676   3.883   0.425
 8611SOL    HW225792   3.586   3.822   0.530
 8612SOL     OW25793   3.262   5.295   0.504
 8612SOL    HW125794   3.319   5.330   0.435
 8612SOL    HW225795   3.209   5.370   0.530
 8613SOL     OW25796   1.995   5.532   1.844
 8613SOL    HW125797   1.955   5.455   1.885
 8613SOL    HW225798   2.045   5.573   1.914
 8614SOL     OW25799   3.141   4.656   0.669
 8614SOL    HW125800   3.215   4.596   0.681
 8614SOL    HW225801   3.178   4.729   0.618
 8615SOL     OW25802   2.645   5.004   1.414
 8615SOL    HW125803   2.619   5.052   1.493
 8615SOL    HW225804   2.571   5.014   1.354
 8616SOL     OW25805   2.547   5.362   0.188
 8616SOL    HW125806   2.550   5.378   0.094
 8616SOL    HW225807   2.491   5.285   0.197
 8617SOL     OW25808   3.478   5.454   1.402
 8617SOL    HW125809   3.535   5.454   1.325
 8617SOL    HW225810   3.462   5.547   1.420
 8618SOL     OW25811   3.707   3.884   0.964
 8618SOL    HW125812   3.735   3.795   0.943
 8618SOL    HW225813   3.619   3.890   0.926
 8619SOL     OW25814   2.104   4.036   0.709
 8619SOL    HW125815   2.017   4.072   0.689
 8619SOL    HW225816   2.108   4.036   0.804
 8620SOL     OW25817   3.079   5.291   0.052
 8620SOL    HW125818   3.066   5.202   0.083
 8620SOL    HW225819   3.092   5.282   9.958
 8621SOL     OW25820   2.685   4.735   1.385
 8621SOL    HW125821   2.722   4.726   1.297
 8621SOL    HW225822   2.674   4.830   1.397
 8622SOL     OW25823   2.805   4.646   0.296
 8622SOL    HW125824   2.854   4.667   0.216
 8622SOL    HW225825   2.852   4.572   0.334
 8623SOL     OW25826   3.351   5.335   0.075
 8623SOL    HW125827   3.256   5.328   0.082
 8623SOL    HW225828   3.367   5.344   9.981
 8624SOL     OW25829   2.225   5.037   1.502
 8624SOL    HW125830   2.217   5.110   1.441
 8624SOL    HW225831   2.147   4.984   1.485
 8625SOL     OW25832   3.461   5.014   1.277
 8625SOL    HW125833   3.515   4.990   1.352
 8625SOL    HW225834   3.402   5.082   1.311
 8626SOL     OW25835   2.939   4.842   0.731
 8626SOL    HW125836   2.863   4.793   0.762
 8626SOL    HW225837   3.001   4.775   0.702
 8627SOL     OW25838   2.895   3.973   0.961
 8627SOL    HW125839   2.895   3.930   0.876
 8627SOL    HW225840   2.888   3.901   1.024
 8628SOL     OW25841   2.484   5.209   0.508
 8628SOL    HW125842   2.524   5.154   0.441
 8628SOL    HW225843   2.415   5.256   0.461
 8629SOL     OW25844   3.607   4.107   1.387
 8629SOL    HW125845   3.678   4.171   1.384
 8629SOL    HW225846   3.633   4.038   1.327
 8630SOL     OW25847   2.131   5.037   0.282
 8630SOL    HW125848   2.049   5.039   0.234
 8630SOL    HW225849   2.115   5.090   0.360
 8631SOL     OW25850   1.982   4.771   1.736
 8631SOL    HW125851   1.905   4.742   1.785
 8631SOL    HW225852   2.054   4.720   1.773
 8632SOL     OW25853   2.541   3.912   1.495
 8632SOL    HW125854   2.625   3.887   1.456
 8632SOL    HW225855   2.564   3.946   1.582
 8633SOL     OW25856   1.950   3.999   0.021
 8633SOL    HW125857   1.861   4.018   9.992
 8633SOL    HW225858   1.998   4.080   0.001
 8634SOL     OW25859   3.277   4.578   1.388
 8634SOL    HW125860   3.224   4.637   1.333
 8634SOL    HW225861   3.365   4.582   1.351
 8635SOL     OW25862   1.936   3.865   0.278
 8635SOL    HW125863   1.930   3.914   0.196
 8635SOL    HW225864   2.030   3.854   0.291
 8636SOL     OW25865   3.059   5.036   0.146
 8636SOL    HW125866   2.971   4.999   0.137
 8636SOL    HW225867   3.076   5.034   0.240
 8637SOL     OW25868   2.487   4.556   1.441
 8637SOL    HW125869   2.546   4.630   1.430
 8637SOL    HW225870   2.545   4.479   1.440
 8638SOL     OW25871   3.349   5.527   0.993
 8638SOL    HW125872   3.376   5.601   0.939
 8638SOL    HW225873   3.431   5.482   1.015
 8639SOL     OW25874   2.587   4.272   1.686
 8639SOL    HW125875   2.634   4.326   1.750
 8639SOL    HW225876   2.597   4.182   1.718
 8640SOL     OW25877   3.330   4.908   1.619
 8640SOL    HW125878   3.323   4.930   1.712
 8640SOL    HW225879   3.420   4.932   1.596
 8641SOL     OW25880   2.216   5.471   1.580
 8641SOL    HW125881   2.134   5.517   1.562
 8641SOL    HW225882   2.189   5.387   1.618
 8642SOL     OW25883   3.517   4.599   1.253
 8642SOL    HW125884   3.515   4.516   1.206
 8642SOL    HW225885   3.504   4.665   1.185
 8643SOL     OW25886   3.082   4.048   0.451
 8643SOL    HW125887   3.142   3.973   0.449
 8643SOL    HW225888   3.111   4.099   0.527
 8644SOL     OW25889   2.428   4.447   0.678
 8644SOL    HW125890   2.476   4.529   0.666
 8644SOL    HW225891   2.365   4.446   0.606
 8645SOL     OW25892   3.609   4.079   1.664
 8645SOL    HW125893   3.605   4.095   1.569
 8645SOL    HW225894   3.532   4.026   1.682
 8646SOL     OW25895   3.622   4.649   1.504
 8646SOL    HW125896   3.605   4.742   1.517
 8646SOL    HW225897   3.595   4.632   1.414
 8647SOL     OW25898   2.760   5.141   0.043
 8647SOL    HW125899   2.675   5.101   0.026
 8647SOL    HW225900   2.754   5.174   0.133
 8648SOL     OW25901   2.529   5.493   0.929
 8648SOL    HW125902   2.511   5.586   0.919
 8648SOL    HW225903   2.625   5.486   0.925
 8649SOL     OW25904   2.734   4.700   0.857
 8649SOL    HW125905   2.785   4.627   0.893
 8649SOL    HW225906   2.689   4.737   0.932
 8650SOL     OW25907   2.958   4.697   0.074
 8650SOL    HW125908   2.951   4.745   9.991
 8650SOL    HW225909   3.032   4.638   0.062
 8651SOL     OW25910   3.692   5.281   0.841
 8651SOL    HW125911   3.616   5.273   0.784
 8651SOL    HW225912   3.670   5.230   0.919
 8652SOL     OW25913   2.074   5.009   1.836
 8652SOL    HW125914   2.042   4.930   1.793
 8652SOL    HW225915   2.015   5.021   1.910
 8653SOL     OW25916   1.980   4.943   0.670
 8653SOL    HW125917   2.009   4.903   0.752
 8653SOL    HW225918   2.040   4.909   0.604
 8654SOL     OW25919   2.552   5.143   1.633
 8654SOL    HW125920   2.475   5.104   1.674
 8654SOL    HW225921   2.557   5.231   1.669
 8655SOL     OW25922   3.672   3.896   1.234
 8655SOL    HW125923   3.674   3.801   1.247
 8655SOL    HW225924   3.686   3.907   1.140
 8656SOL     OW25925   2.276   4.158   0.516
 8656SOL    HW125926   2.309   4.088   0.460
 8656SOL    HW225927   2.227   4.113   0.585
 8657SOL     OW25928   3.557   5.204   1.081
 8657SOL    HW125929   3.479   5.184   1.030
 8657SOL    HW225930   3.558   5.136   1.150
 8658SOL     OW25931   2.215   4.289   1.292
 8658SOL    HW125932   2.263   4.225   1.342
 8658SOL    HW225933   2.222   4.259   1.201
 8659SOL     OW25934   2.697   5.322   0.662
 8659SOL    HW125935   2.688   5.405   0.615
 8659SOL    HW225936   2.621   5.271   0.634
 8660SOL     OW25937   3.284   3.957   1.115
 8660SOL    HW125938   3.292   3.867   1.148
 8660SOL    HW225939   3.238   4.004   1.185
 8661SOL     OW25940   2.872   3.741   1.119
 8661SOL    HW125941   2.818   3.678   1.073
 8661SOL    HW225942   2.959   3.700   1.122
 8662SOL     OW25943   2.638   5.050   0.344
 8662SOL    HW125944   2.617   4.956   0.347
 8662SOL    HW225945   2.723   5.057   0.386
 8663SOL     OW25946   2.477   5.293   1.288
 8663SOL    HW125947   2.473   5.377   1.334
 8663SOL    HW225948   2.567   5.289   1.255
 8664SOL     OW25949   3.214   3.782   0.176
 8664SOL    HW125950   3.237   3.745   0.091
 8664SOL    HW225951   3.124   3.752   0.192
 8665SOL     OW25952   3.162   4.191   0.675
 8665SOL    HW125953   3.112   4.273   0.671
 8665SOL    HW225954   3.153   4.162   0.766
 8666SOL     OW25955   3.444   3.912   0.894
 8666SOL    HW125956   3.392   3.941   0.968
 8666SOL    HW225957   3.443   3.986   0.833
 8667SOL     OW25958   1.904   4.768   0.303
 8667SOL    HW125959   1.999   4.770   0.308
 8667SOL    HW225960   1.880   4.680   0.332
 8668SOL     OW25961   2.768   5.404   0.344
 8668SOL    HW125962   2.690   5.389   0.292
 8668SOL    HW225963   2.743   5.474   0.405
 8669SOL     OW25964   2.070   4.346   2.010
 8669SOL    HW125965   1.982   4.334   2.046
 8669SOL    HW225966   2.058   4.332   1.916
 8670SOL     OW25967   2.081   4.012   2.852
 8670SOL    HW125968   2.111   3.977   2.935
 8670SOL    HW225969   1.994   3.975   2.840
 8671SOL     OW25970   1.848   4.120   2.508
 8671SOL    HW125971   1.769   4.145   2.555
 8671SOL    HW225972   1.822   4.046   2.453
 8672SOL     OW25973   2.437   5.033   3.071
 8672SOL    HW125974   2.355   5.035   3.023
 8672SOL    HW225975   2.454   5.124   3.095
 8673SOL     OW25976   3.452   5.248   2.568
 8673SOL    HW125977   3.405   5.216   2.645
 8673SOL    HW225978   3.386   5.251   2.499
 8674SOL     OW25979   2.999   4.428   2.548
 8674SOL    HW125980   3.046   4.511   2.537
 8674SOL    HW225981   2.951   4.438   2.630
 8675SOL     OW25982   3.663   4.304   2.081
 8675SOL    HW125983   3.625   4.304   1.994
 8675SOL    HW225984   3.619   4.233   2.128
 8676SOL     OW25985   2.588   4.854   2.919
 8676SOL    HW125986   2.530   4.894   2.984
 8676SOL    HW225987   2.630   4.928   2.876
 8677SOL     OW25988   2.750   4.466   3.690
 8677SOL    HW125989   2.742   4.533   3.758
 8677SOL    HW225990   2.767   4.515   3.610
 8678SOL     OW25991   2.547   4.709   2.506
 8678SOL    HW125992   2.615   4.709   2.574
 8678SOL    HW225993   2.481   4.771   2.537
 8679SOL     OW25994   2.572   4.872   3.693
 8679SOL    HW125995   2.623   4.945   3.728
 8679SOL    HW225996   2.495   4.913   3.653
 8680SOL     OW25997   2.205   5.121   2.931
 8680SOL    HW125998   2.129   5.078   2.892
 8680SOL    HW225999   2.241   5.176   2.862
 8681SOL     OW26000   3.314   5.229   3.234
 8681SOL    HW126001   3.370   5.306   3.247
 8681SOL    HW226002   3.243   5.241   3.297
 8682SOL     OW26003   2.320   4.098   3.317
 8682SOL    HW126004   2.395   4.040   3.333
 8682SOL    HW226005   2.244   4.047   3.344
 8683SOL     OW26006   3.446   4.156   2.617
 8683SOL    HW126007   3.378   4.166   2.550
 8683SOL    HW226008   3.428   4.226   2.680
 8684SOL     OW26009   2.080   5.452   2.327
 8684SOL    HW126010   2.107   5.523   2.385
 8684SOL    HW226011   2.153   5.441   2.267
 8685SOL     OW26012   2.997   5.066   3.560
 8685SOL    HW126013   3.043   5.054   3.643
 8685SOL    HW226014   2.943   4.987   3.551
 8686SOL     OW26015   2.095   5.181   2.395
 8686SOL    HW126016   2.073   5.275   2.399
 8686SOL    HW226017   2.045   5.142   2.466
 8687SOL     OW26018   2.147   4.814   2.741
 8687SOL    HW126019   2.148   4.724   2.775
 8687SOL    HW226020   2.091   4.861   2.802
 8688SOL     OW26021   2.435   5.529   3.282
 8688SOL    HW126022   2.359   5.508   3.337
 8688SOL    HW226023   2.467   5.612   3.317
 8689SOL     OW26024   2.427   4.711   2.014
 8689SOL    HW126025   2.478   4.754   1.945
 8689SOL    HW226026   2.468   4.741   2.095
 8690SOL     OW26027   3.453   3.857   3.320
 8690SOL    HW126028   3.493   3.932   3.276
 8690SOL    HW226029   3.422   3.891   3.404
 8691SOL     OW26030   1.981   4.383   2.429
 8691SOL    HW126031   1.948   4.296   2.453
 8691SOL    HW226032   1.975   4.433   2.510
 8692SOL     OW26033   3.708   5.467   2.180
 8692SOL    HW126034   3.780   5.452   2.241
 8692SOL    HW226035   3.716   5.560   2.156
 8693SOL     OW26036   1.922   5.304   1.972
 8693SOL    HW126037   1.901   5.213   1.990
 8693SOL    HW226038   1.890   5.352   2.048
 8694SOL     OW26039   3.560   4.649   2.517
 8694SOL    HW126040   3.643   4.606   2.497
 8694SOL    HW226041   3.540   4.700   2.438
 8695SOL     OW26042   3.519   4.828   2.295
 8695SOL    HW126043   3.604   4.820   2.251
 8695SOL    HW226044   3.534   4.893   2.363
 8696SOL     OW26045   1.984   4.473   3.440
 8696SOL    HW126046   2.069   4.516   3.444
 8696SOL    HW226047   1.921   4.545   3.427
 8697SOL     OW26048   2.485   5.122   2.592
 8697SOL    HW126049   2.443   5.036   2.597
 8697SOL    HW226050   2.469   5.151   2.502
 8698SOL     OW26051   3.132   4.950   3.279
 8698SOL    HW126052   3.160   4.881   3.219
 8698SOL    HW226053   3.194   4.944   3.352
 8699SOL     OW26054   2.693   3.735   2.381
 8699SOL    HW126055   2.733   3.818   2.353
 8699SOL    HW226056   2.599   3.753   2.381
 8700SOL     OW26057   2.049   4.680   3.163
 8700SOL    HW126058   2.136   4.645   3.147
 8700SOL    HW226059   1.995   4.644   3.093
 8701SOL     OW26060   3.397   4.739   2.061
 8701SOL    HW126061   3.328   4.679   2.091
 8701SOL    HW226062   3.439   4.769   2.142
 8702SOL     OW26063   3.046   5.546   3.498
 8702SOL    HW126064   3.044   5.606   3.424
 8702SOL    HW226065   3.060   5.459   3.459
 8703SOL     OW26066   2.222   3.977   3.737
 8703SOL    HW126067   2.257   4.057   3.775
 8703SOL    HW226068   2.127   3.992   3.734
 8704SOL     OW26069   3.332   5.143   2.791
 8704SOL    HW126070   3.270   5.161   2.862
 8704SOL    HW226071   3.315   5.052   2.768
 8705SOL     OW26072   3.498   5.521   2.424
 8705SOL    HW126073   3.482   5.474   2.342
 8705SOL    HW226074   3.501   5.453   2.491
 8706SOL     OW26075   2.449   4.423   2.134
 8706SOL    HW126076   2.452   4.511   2.095
 8706SOL    HW226077   2.384   4.430   2.204
 8707SOL     OW26078   3.144   4.117   2.803
 8707SOL    HW126079   3.056   4.081   2.808
 8707SOL    HW226080   3.197   4.059   2.859
 8708SOL     OW26081   3.441   5.397   2.181
 8708SOL    HW126082   3.535   5.411   2.170
 8708SOL    HW226083   3.408   5.385   2.092
 8709SOL     OW26084   2.651   4.338   3.293
 8709SOL    HW126085   2.628   4.309   3.381
 8709SOL    HW226086   2.627   4.264   3.236
 8710SOL     OW26087   3.253   4.201   3.536
 8710SOL    HW126088   3.258   4.244   3.621
 8710SOL    HW226089   3.305   4.121   3.547
 8711SOL     OW26090   2.806   4.604   3.455
 8711SOL    HW126091   2.863   4.541   3.411
 8711SOL    HW226092   2.758   4.646   3.385
 8712SOL     OW26093   2.870   4.122   3.071
 8712SOL    HW126094   2.777   4.135   3.094
 8712SOL    HW226095   2.868   4.078   2.986
 8713SOL     OW26096   2.920   4.421   2.280
 8713SOL    HW126097   2.941   4.418   2.374
 8713SOL    HW226098   2.835   4.377   2.273
 8714SOL     OW26099   1.955   4.549   2.645
 8714SOL    HW126100   2.037   4.544   2.694
 8714SOL    HW226101   1.907   4.621   2.686
 8715SOL     OW26102   1.973   5.604   3.449
 8715SOL    HW126103   1.979   5.584   3.542
 8715SOL    HW226104   1.888   5.568   3.423
 8716SOL     OW26105   2.751   4.074   2.062
 8716SOL    HW126106   2.802   4.128   2.001
 8716SOL    HW226107   2.728   3.996   2.012
 8717SOL     OW26108   3.543   4.284   3.700
 8717SOL    HW126109   3.524   4.362   3.649
 8717SOL    HW226110   3.576   4.221   3.636
 8718SOL     OW26111   3.255   4.874   2.407
 8718SOL    HW126112   3.335   4.862   2.355
 8718SOL    HW226113   3.202   4.934   2.355
 8719SOL     OW26114   2.413   3.884   2.778
 8719SOL    HW126115   2.419   3.913   2.869
 8719SOL    HW226116   2.409   3.966   2.727
 8720SOL     OW26117   2.859   5.180   2.327
 8720SOL    HW126118   2.835   5.254   2.272
 8720SOL    HW226119   2.829   5.204   2.415
 8721SOL     OW26120   2.216   5.540   2.741
 8721SOL    HW126121   2.261   5.455   2.746
 8721SOL    HW226122   2.283   5.604   2.763
 8722SOL     OW26123   3.666   4.770   2.752
 8722SOL    HW126124   3.618   4.754   2.671
 8722SOL    HW226125   3.598   4.778   2.819
 8723SOL     OW26126   3.079   5.267   3.379
 8723SOL    HW126127   3.068   5.197   3.444
 8723SOL    HW226128   3.014   5.247   3.312
 8724SOL     OW26129   2.162   4.683   2.128
 8724SOL    HW126130   2.245   4.703   2.084
 8724SOL    HW226131   2.139   4.595   2.096
 8725SOL     OW26132   3.346   4.487   2.573
 8725SOL    HW126133   3.348   4.444   2.658
 8725SOL    HW226134   3.426   4.541   2.572
 8726SOL     OW26135   2.335   5.008   3.609
 8726SOL    HW126136   2.311   5.013   3.517
 8726SOL    HW226137   2.253   4.996   3.656
 8727SOL     OW26138   3.002   5.500   2.088
 8727SOL    HW126139   2.919   5.470   2.127
 8727SOL    HW226140   3.021   5.435   2.021
 8728SOL     OW26141   2.071   3.980   3.360
 8728SOL    HW126142   1.999   4.041   3.379
 8728SOL    HW226143   2.040   3.896   3.394
 8729SOL     OW26144   3.500   5.112   1.962
 8729SOL    HW126145   3.459   5.198   1.949
 8729SOL    HW226146   3.433   5.049   1.935
 8730SOL     OW26147   2.321   5.466   2.177
 8730SOL    HW126148   2.370   5.516   2.242
 8730SOL    HW226149   2.388   5.425   2.123
 8731SOL     OW26150   3.259   3.830   2.321
 8731SOL    HW126151   3.259   3.805   2.228
 8731SOL    HW226152   3.350   3.818   2.349
 8732SOL     OW26153   2.114   5.513   3.076
 8732SOL    HW126154   2.162   5.438   3.110
 8732SOL    HW226155   2.098   5.492   2.984
 8733SOL     OW26156   2.811   5.426   2.751
 8733SOL    HW126157   2.896   5.385   2.765
 8733SOL    HW226158   2.771   5.376   2.680
 8734SOL     OW26159   2.257   4.409   2.334
 8734SOL    HW126160   2.269   4.315   2.347
 8734SOL    HW226161   2.164   4.424   2.352
 8735SOL     OW26162   3.371   3.947   3.578
 8735SOL    HW126163   3.384   3.965   3.671
 8735SOL    HW226164   3.305   3.877   3.576
 8736SOL     OW26165   2.525   3.833   1.965
 8736SOL    HW126166   2.572   3.754   1.991
 8736SOL    HW226167   2.464   3.803   1.897
 8737SOL     OW26168   2.620   3.998   3.614
 8737SOL    HW126169   2.705   3.953   3.613
 8737SOL    HW226170   2.574   3.960   3.689
 8738SOL     OW26171   2.731   5.252   3.062
 8738SOL    HW126172   2.713   5.210   2.978
 8738SOL    HW226173   2.799   5.197   3.102
 8739SOL     OW26174   3.192   4.316   3.296
 8739SOL    HW126175   3.224   4.285   3.380
 8739SOL    HW226176   3.231   4.403   3.285
 8740SOL     OW26177   2.678   5.100   2.819
 8740SOL    HW126178   2.765   5.096   2.780
 8740SOL    HW226179   2.619   5.116   2.745
 8741SOL     OW26180   2.792   4.239   2.750
 8741SOL    HW126181   2.767   4.228   2.658
 8741SOL    HW226182   2.820   4.152   2.779
 8742SOL     OW26183   2.426   3.787   2.352
 8742SOL    HW126184   2.348   3.788   2.408
 8742SOL    HW226185   2.414   3.862   2.294
 8743SOL     OW26186   3.296   4.936   1.894
 8743SOL    HW126187   3.326   4.862   1.947
 8743SOL    HW226188   3.211   4.959   1.931
 8744SOL     OW26189   2.144   3.772   2.051
 8744SOL    HW126190   2.197   3.839   2.007
 8744SOL    HW226191   2.208   3.714   2.092
 8745SOL     OW26192   2.814   3.974   2.313
 8745SOL    HW126193   2.788   4.010   2.227
 8745SOL    HW226194   2.908   3.991   2.319
 8746SOL     OW26195   2.938   4.418   3.307
 8746SOL    HW126196   2.876   4.345   3.312
 8746SOL    HW226197   3.024   4.376   3.304
 8747SOL     OW26198   3.067   5.310   2.664
 8747SOL    HW126199   3.082   5.371   2.592
 8747SOL    HW226200   3.144   5.319   2.720
 8748SOL     OW26201   2.344   4.886   2.570
 8748SOL    HW126202   2.282   4.861   2.639
 8748SOL    HW226203   2.294   4.879   2.489
 8749SOL     OW26204   3.114   5.516   2.480
 8749SOL    HW126205   3.163   5.578   2.427
 8749SOL    HW226206   3.042   5.567   2.518
 8750SOL     OW26207   2.894   4.239   1.892
 8750SOL    HW126208   2.852   4.322   1.873
 8750SOL    HW226209   2.958   4.259   1.960
 8751SOL     OW26210   1.962   4.276   3.253
 8751SOL    HW126211   2.054   4.277   3.227
 8751SOL    HW226212   1.955   4.344   3.319
 8752SOL     OW26213   2.421   3.945   3.047
 8752SOL    HW126214   2.458   3.882   3.108
 8752SOL    HW226215   2.327   3.946   3.067
 8753SOL     OW26216   2.732   4.178   2.492
 8753SOL    HW126217   2.692   4.234   2.425
 8753SOL    HW226218   2.757   4.099   2.445
 8754SOL     OW26219   2.884   3.782   2.602
 8754SOL    HW126220   2.823   3.777   2.528
 8754SOL    HW226221   2.859   3.710   2.659
 8755SOL     OW26222   3.294   4.878   2.716
 8755SOL    HW126223   3.226   4.812   2.727
 8755SOL    HW226224   3.308   4.884   2.622
 8756SOL     OW26225   3.325   4.341   2.811
 8756SOL    HW126226   3.261   4.270   2.821
 8756SOL    HW226227   3.381   4.334   2.888
 8757SOL     OW26228   3.690   4.520   2.248
 8757SOL    HW126229   3.750   4.477   2.309
 8757SOL    HW226230   3.677   4.456   2.178
 8758SOL     OW26231   2.360   5.148   2.012
 8758SOL    HW126232   2.285   5.117   2.063
 8758SOL    HW226233   2.357   5.099   1.930
 8759SOL     OW26234   3.571   4.996   2.494
 8759SOL    HW126235   3.664   4.989   2.515
 8759SOL    HW226236   3.548   5.085   2.520
 8760SOL     OW26237   3.254   4.299   1.928
 8760SOL    HW126238   3.198   4.273   2.001
 8760SOL    HW226239   3.343   4.276   1.956
 8761SOL     OW26240   2.389   3.981   2.164
 8761SOL    HW126241   2.443   3.939   2.097
 8761SOL    HW226242   2.357   4.061   2.123
 8762SOL     OW26243   3.596   4.970   3.394
 8762SOL    HW126244   3.684   4.935   3.381
 8762SOL    HW226245   3.610   5.056   3.433
 8763SOL     OW26246   2.904   5.081   3.199
 8763SOL    HW126247   2.827   5.045   3.242
 8763SOL    HW226248   2.978   5.034   3.238
 8764SOL     OW26249   3.468   5.362   3.535
 8764SOL    HW126250   3.457   5.396   3.446
 8764SOL    HW226251   3.545   5.305   3.530
 8765SOL     OW26252   3.013   4.963   2.968
 8765SOL    HW126253   2.951   4.996   3.032
 8765SOL    HW226254   2.979   4.994   2.884
 8766SOL     OW26255   3.471   4.816   2.939
 8766SOL    HW126256   3.463   4.881   3.008
 8766SOL    HW226257   3.401   4.838   2.877
 8767SOL     OW26258   2.781   3.805   3.245
 8767SOL    HW126259   2.803   3.790   3.153
 8767SOL    HW226260   2.860   3.846   3.282
 8768SOL     OW26261   2.840   4.840   3.585
 8768SOL    HW126262   2.750   4.856   3.612
 8768SOL    HW226263   2.836   4.759   3.534
 8769SOL     OW26264   2.576   4.786   2.238
 8769SOL    HW126265   2.561   4.760   2.329
 8769SOL    HW226266   2.650   4.733   2.210
 8770SOL     OW26267   2.288   4.552   3.121
 8770SOL    HW126268   2.356   4.562   3.188
 8770SOL    HW226269   2.258   4.461   3.131
 8771SOL     OW26270   3.126   4.093   3.154
 8771SOL    HW126271   3.154   4.173   3.198
 8771SOL    HW226272   3.037   4.111   3.124
 8772SOL     OW26273   1.939   5.293   3.225
 8772SOL    HW126274   1.909   5.364   3.169
 8772SOL    HW226275   2.035   5.294   3.214
 8773SOL     OW26276   2.179   4.858   2.348
 8773SOL    HW126277   2.180   4.930   2.285
 8773SOL    HW226278   2.176   4.779   2.295
 8774SOL     OW26279   2.396   4.241   2.721
 8774SOL    HW126280   2.408   4.299   2.646
 8774SOL    HW226281   2.464   4.266   2.783
 8775SOL     OW26282   3.109   5.078   2.260
 8775SOL    HW126283   3.166   5.147   2.295
 8775SOL    HW226284   3.021   5.102   2.290
 8776SOL     OW26285   3.171   5.193   3.004
 8776SOL    HW126286   3.218   5.199   3.087
 8776SOL    HW226287   3.120   5.112   3.012
 8777SOL     OW26288   3.438   4.342   2.347
 8777SOL    HW126289   3.386   4.383   2.417
 8777SOL    HW226290   3.488   4.414   2.310
 8778SOL     OW26291   2.206   5.258   3.163
 8778SOL    HW126292   2.199   5.205   3.084
 8778SOL    HW226293   2.300   5.274   3.173
 8779SOL     OW26294   2.295   4.470   3.481
 8779SOL    HW126295   2.353   4.513   3.419
 8779SOL    HW226296   2.339   4.388   3.502
 8780SOL     OW26297   3.487   4.508   3.559
 8780SOL    HW126298   3.400   4.548   3.551
 8780SOL    HW226299   3.538   4.548   3.488
 8781SOL     OW26300   2.857   3.865   3.621
 8781SOL    HW126301   2.915   3.938   3.602
 8781SOL    HW226302   2.908   3.787   3.599
 8782SOL     OW26303   2.357   3.759   3.624
 8782SOL    HW126304   2.302   3.709   3.563
 8782SOL    HW226305   2.305   3.836   3.646
 8783SOL     OW26306   2.453   4.599   2.901
 8783SOL    HW126307   2.491   4.686   2.904
 8783SOL    HW226308   2.396   4.595   2.977
 8784SOL     OW26309   3.170   4.578   2.864
 8784SOL    HW126310   3.082   4.550   2.839
 8784SOL    HW226311   3.226   4.502   2.846
 8785SOL     OW26312   3.060   4.247   2.119
 8785SOL    HW126313   3.071   4.170   2.176
 8785SOL    HW226314   3.019   4.312   2.175
 8786SOL     OW26315   2.153   3.918   3.101
 8786SOL    HW126316   2.119   3.946   3.185
 8786SOL    HW226317   2.136   3.823   3.099
 8787SOL     OW26318   1.912   5.036   3.128
 8787SOL    HW126319   1.941   4.980   3.199
 8787SOL    HW226320   1.915   5.125   3.164
 8788SOL     OW26321   2.573   4.345   2.901
 8788SOL    HW126322   2.651   4.339   2.845
 8788SOL    HW226323   2.545   4.436   2.891
 8789SOL     OW26324   3.610   4.692   3.729
 8789SOL    HW126325   3.571   4.619   3.683
 8789SOL    HW226326   3.549   4.712   3.800
 8790SOL     OW26327   2.187   3.784   2.490
 8790SOL    HW126328   2.153   3.872   2.508
 8790SOL    HW226329   2.193   3.742   2.576
 8791SOL     OW26330   3.493   4.115   2.206
 8791SOL    HW126331   3.525   4.049   2.268
 8791SOL    HW226332   3.464   4.187   2.260
 8792SOL     OW26333   2.896   4.483   2.819
 8792SOL    HW126334   2.874   4.497   2.911
 8792SOL    HW226335   2.866   4.393   2.801
 8793SOL     OW26336   2.843   5.290   3.598
 8793SOL    HW126337   2.820   5.333   3.516
 8793SOL    HW226338   2.881   5.206   3.572
 8794SOL     OW26339   3.699   5.221   3.467
 8794SOL    HW126340   3.727   5.248   3.380
 8794SOL    HW226341   3.776   5.230   3.522
 8795SOL     OW26342   2.211   4.644   3.677
 8795SOL    HW126343   2.288   4.661   3.733
 8795SOL    HW226344   2.242   4.580   3.613
 8796SOL     OW26345   3.384   3.992   1.981
 8796SOL    HW126346   3.331   3.921   2.018
 8796SOL    HW226347   3.423   4.036   2.056
 8797SOL     OW26348   3.142   4.545   1.881
 8797SOL    HW126349   3.182   4.459   1.889
 8797SOL    HW226350   3.179   4.581   1.800
 8798SOL     OW26351   2.931   5.076   2.728
 8798SOL    HW126352   2.942   5.003   2.667
 8798SOL    HW226353   2.982   5.147   2.690
 8799SOL     OW26354   2.180   4.540   2.806
 8799SOL    HW126355   2.275   4.554   2.805
 8799SOL    HW226356   2.170   4.450   2.837
 8800SOL     OW26357   2.175   4.262   2.873
 8800SOL    HW126358   2.135   4.175   2.863
 8800SOL    HW226359   2.252   4.260   2.816
 8801SOL     OW26360   3.000   4.091   3.548
 8801SOL    HW126361   2.955   4.143   3.615
 8801SOL    HW226362   3.086   4.134   3.539
 8802SOL     OW26363   3.018   3.914   3.336
 8802SOL    HW126364   3.007   3.976   3.408
 8802SOL    HW226365   3.065   3.964   3.269
 8803SOL     OW26366   1.886   5.027   2.041
 8803SOL    HW126367   1.797   5.049   2.016
 8803SOL    HW226368   1.879   4.941   2.082
 8804SOL     OW26369   1.955   5.494   2.814
 8804SOL    HW126370   1.921   5.420   2.763
 8804SOL    HW226371   2.042   5.511   2.777
 8805SOL     OW26372   2.347   5.294   2.763
 8805SOL    HW126373   2.418   5.354   2.786
 8805SOL    HW226374   2.387   5.232   2.701
 8806SOL     OW26375   2.810   4.505   3.077
 8806SOL    HW126376   2.873   4.493   3.149
 8806SOL    HW226377   2.731   4.459   3.106
 8807SOL     OW26378   1.901   4.297   2.983
 8807SOL    HW126379   1.983   4.293   2.933
 8807SOL    HW226380   1.929   4.289   3.074
 8808SOL     OW26381   2.048   4.262   3.606
 8808SOL    HW126382   2.122   4.231   3.554
 8808SOL    HW226383   2.013   4.336   3.556
 8809SOL     OW26384   3.253   4.645   3.513
 8809SOL    HW126385   3.270   4.739   3.508
 8809SOL    HW226386   3.246   4.617   3.422
 8810SOL     OW26387   2.680   4.293   2.234
 8810SOL    HW126388   2.689   4.218   2.174
 8810SOL    HW226389   2.603   4.340   2.202
 8811SOL     OW26390   3.499   4.325   3.024
 8811SOL    HW126391   3.490   4.266   3.099
 8811SOL    HW226392   3.590   4.315   2.996
 8812SOL     OW26393   2.088   5.264   3.586
 8812SOL    HW126394   2.062   5.310   3.666
 8812SOL    HW226395   2.101   5.173   3.614
 8813SOL     OW26396   2.596   4.157   3.096
 8813SOL    HW126397   2.532   4.087   3.081
 8813SOL    HW226398   2.578   4.221   3.027
 8814SOL     OW26399   2.762   5.406   3.355
 8814SOL    HW126400   2.743   5.356   3.276
 8814SOL    HW226401   2.765   5.497   3.325
 8815SOL     OW26402   2.304   4.205   2.026
 8815SOL    HW126403   2.369   4.271   2.051
 8815SOL    HW226404   2.221   4.251   2.029
 8816SOL     OW26405   1.991   4.874   3.342
 8816SOL    HW126406   1.996   4.835   3.429
 8816SOL    HW226407   2.013   4.803   3.282
 8817SOL     OW26408   3.166   4.759   3.070
 8817SOL    HW126409   3.175   4.695   2.999
 8817SOL    HW226410   3.112   4.829   3.032
 8818SOL     OW26411   3.187   4.585   2.153
 8818SOL    HW126412   3.117   4.549   2.208
 8818SOL    HW226413   3.158   4.569   2.063
 8819SOL     OW26414   3.651   5.448   3.035
 8819SOL    HW126415   3.711   5.474   2.965
 8819SOL    HW226416   3.617   5.363   3.007
 8820SOL     OW26417   3.104   5.460   2.957
 8820SOL    HW126418   3.188   5.489   2.922
 8820SOL    HW226419   3.117   5.368   2.979
 8821SOL     OW26420   1.968   4.972   2.870
 8821SOL    HW126421   1.940   4.993   2.960
 8821SOL    HW226422   1.897   4.918   2.835
 8822SOL     OW26423   2.550   5.407   3.610
 8822SOL    HW126424   2.487   5.478   3.597
 8822SOL    HW226425   2.623   5.428   3.551
 8823SOL     OW26426   3.605   3.908   2.358
 8823SOL    HW126427   3.665   3.888   2.286
 8823SOL    HW226428   3.579   3.823   2.392
 8824SOL     OW26429   3.260   5.293   2.366
 8824SOL    HW126430   3.315   5.328   2.296
 8824SOL    HW226431   3.205   5.367   2.392
 8825SOL     OW26432   1.993   5.533   3.706
 8825SOL    HW126433   1.954   5.456   3.747
 8825SOL    HW226434   2.044   5.574   3.776
 8826SOL     OW26435   3.141   4.660   2.526
 8826SOL    HW126436   3.214   4.600   2.539
 8826SOL    HW226437   3.177   4.731   2.474
 8827SOL     OW26438   2.645   5.004   3.274
 8827SOL    HW126439   2.619   5.051   3.353
 8827SOL    HW226440   2.571   5.013   3.214
 8828SOL     OW26441   2.530   5.360   2.021
 8828SOL    HW126442   2.545   5.374   1.928
 8828SOL    HW226443   2.478   5.280   2.026
 8829SOL     OW26444   3.477   5.452   3.264
 8829SOL    HW126445   3.535   5.452   3.188
 8829SOL    HW226446   3.461   5.545   3.283
 8830SOL     OW26447   3.706   3.885   2.826
 8830SOL    HW126448   3.735   3.796   2.805
 8830SOL    HW226449   3.619   3.891   2.788
 8831SOL     OW26450   2.105   4.030   2.570
 8831SOL    HW126451   2.019   4.067   2.549
 8831SOL    HW226452   2.109   4.032   2.666
 8832SOL     OW26453   3.071   5.312   1.900
 8832SOL    HW126454   3.061   5.221   1.928
 8832SOL    HW226455   3.001   5.325   1.836
 8833SOL     OW26456   2.686   4.735   3.248
 8833SOL    HW126457   2.724   4.725   3.160
 8833SOL    HW226458   2.675   4.829   3.258
 8834SOL     OW26459   2.782   4.634   2.156
 8834SOL    HW126460   2.839   4.668   2.087
 8834SOL    HW226461   2.834   4.567   2.200
 8835SOL     OW26462   3.345   5.370   1.920
 8835SOL    HW126463   3.253   5.350   1.903
 8835SOL    HW226464   3.385   5.373   1.833
 8836SOL     OW26465   2.224   5.038   3.364
 8836SOL    HW126466   2.216   5.110   3.302
 8836SOL    HW226467   2.146   4.984   3.347
 8837SOL     OW26468   3.460   5.013   3.140
 8837SOL    HW126469   3.515   4.989   3.215
 8837SOL    HW226470   3.401   5.080   3.174
 8838SOL     OW26471   2.939   4.843   2.591
 8838SOL    HW126472   2.863   4.793   2.622
 8838SOL    HW226473   3.001   4.776   2.561
 8839SOL     OW26474   2.895   3.973   2.822
 8839SOL    HW126475   2.894   3.931   2.737
 8839SOL    HW226476   2.889   3.901   2.885
 8840SOL     OW26477   2.466   5.210   2.337
 8840SOL    HW126478   2.521   5.161   2.275
 8840SOL    HW226479   2.384   5.224   2.289
 8841SOL     OW26480   3.607   4.109   3.249
 8841SOL    HW126481   3.678   4.173   3.246
 8841SOL    HW226482   3.633   4.040   3.189
 8842SOL     OW26483   2.141   5.065   2.161
 8842SOL    HW126484   2.054   5.057   2.121
 8842SOL    HW226485   2.127   5.113   2.242
 8843SOL     OW26486   1.982   4.771   3.597
 8843SOL    HW126487   1.905   4.742   3.647
 8843SOL    HW226488   2.054   4.720   3.634
 8844SOL     OW26489   2.541   3.912   3.357
 8844SOL    HW126490   2.625   3.887   3.319
 8844SOL    HW226491   2.564   3.946   3.443
 8845SOL     OW26492   1.948   4.041   1.876
 8845SOL    HW126493   1.870   4.020   1.824
 8845SOL    HW226494   1.975   4.127   1.845
 8846SOL     OW26495   3.277   4.578   3.250
 8846SOL    HW126496   3.225   4.637   3.195
 8846SOL    HW226497   3.365   4.582   3.213
 8847SOL     OW26498   1.906   3.873   2.135
 8847SOL    HW126499   1.893   3.943   2.070
 8847SOL    HW226500   1.994   3.841   2.118
 8848SOL     OW26501   3.045   5.046   1.985
 8848SOL    HW126502   2.954   5.015   1.985
 8848SOL    HW226503   3.069   5.049   2.078
 8849SOL     OW26504   2.487   4.556   3.304
 8849SOL    HW126505   2.546   4.630   3.292
 8849SOL    HW226506   2.544   4.479   3.302
 8850SOL     OW26507   3.351   5.531   2.861
 8850SOL    HW126508   3.379   5.601   2.802
 8850SOL    HW226509   3.431   5.482   2.880
 8851SOL     OW26510   2.586   4.273   3.549
 8851SOL    HW126511   2.633   4.326   3.612
 8851SOL    HW226512   2.596   4.183   3.580
 8852SOL     OW26513   3.330   4.909   3.481
 8852SOL    HW126514   3.322   4.929   3.574
 8852SOL    HW226515   3.420   4.932   3.458
 8853SOL     OW26516   2.217   5.471   3.443
 8853SOL    HW126517   2.135   5.517   3.425
 8853SOL    HW226518   2.190   5.387   3.481
 8854SOL     OW26519   3.516   4.599   3.114
 8854SOL    HW126520   3.516   4.515   3.068
 8854SOL    HW226521   3.505   4.665   3.046
 8855SOL     OW26522   3.083   4.047   2.318
 8855SOL    HW126523   3.142   3.972   2.317
 8855SOL    HW226524   3.111   4.099   2.393
 8856SOL     OW26525   2.438   4.450   2.542
 8856SOL    HW126526   2.482   4.534   2.528
 8856SOL    HW226527   2.377   4.441   2.469
 8857SOL     OW26528   3.611   4.078   3.525
 8857SOL    HW126529   3.607   4.095   3.431
 8857SOL    HW226530   3.533   4.025   3.543
 8858SOL     OW26531   3.619   4.650   3.366
 8858SOL    HW126532   3.603   4.743   3.378
 8858SOL    HW226533   3.593   4.632   3.276
 8859SOL     OW26534   2.731   5.081   1.924
 8859SOL    HW126535   2.695   5.099   2.011
 8859SOL    HW226536   2.742   5.168   1.884
 8860SOL     OW26537   2.531   5.490   2.788
 8860SOL    HW126538   2.512   5.583   2.780
 8860SOL    HW226539   2.627   5.485   2.786
 8861SOL     OW26540   2.734   4.701   2.718
 8861SOL    HW126541   2.784   4.627   2.753
 8861SOL    HW226542   2.688   4.738   2.794
 8862SOL     OW26543   2.935   4.709   1.948
 8862SOL    HW126544   2.914   4.763   1.872
 8862SOL    HW226545   3.008   4.655   1.920
 8863SOL     OW26546   3.698   5.280   2.697
 8863SOL    HW126547   3.619   5.272   2.645
 8863SOL    HW226548   3.686   5.218   2.769
 8864SOL     OW26549   2.074   5.009   3.697
 8864SOL    HW126550   2.043   4.929   3.654
 8864SOL    HW226551   2.015   5.021   3.772
 8865SOL     OW26552   1.979   4.950   2.530
 8865SOL    HW126553   2.009   4.908   2.611
 8865SOL    HW226554   2.038   4.916   2.462
 8866SOL     OW26555   2.551   5.144   3.491
 8866SOL    HW126556   2.476   5.103   3.535
 8866SOL    HW226557   2.557   5.231   3.530
 8867SOL     OW26558   3.669   3.897   3.096
 8867SOL    HW126559   3.674   3.802   3.109
 8867SOL    HW226560   3.684   3.908   3.002
 8868SOL     OW26561   2.280   4.147   2.380
 8868SOL    HW126562   2.314   4.075   2.326
 8868SOL    HW226563   2.228   4.103   2.447
 8869SOL     OW26564   3.553   5.207   2.948
 8869SOL    HW126565   3.478   5.187   2.893
 8869SOL    HW226566   3.553   5.138   3.015
 8870SOL     OW26567   2.214   4.289   3.153
 8870SOL    HW126568   2.263   4.225   3.204
 8870SOL    HW226569   2.222   4.260   3.063
 8871SOL     OW26570   2.699   5.306   2.533
 8871SOL    HW126571   2.667   5.374   2.474
 8871SOL    HW226572   2.625   5.246   2.544
 8872SOL     OW26573   3.285   3.959   2.978
 8872SOL    HW126574   3.297   3.871   3.013
 8872SOL    HW226575   3.238   4.006   3.047
 8873SOL     OW26576   2.873   3.742   2.981
 8873SOL    HW126577   2.819   3.679   2.934
 8873SOL    HW226578   2.959   3.701   2.984
 8874SOL     OW26579   2.643   5.056   2.190
 8874SOL    HW126580   2.618   4.964   2.202
 8874SOL    HW226581   2.722   5.067   2.242
 8875SOL     OW26582   2.477   5.295   3.149
 8875SOL    HW126583   2.472   5.379   3.195
 8875SOL    HW226584   2.567   5.290   3.117
 8876SOL     OW26585   3.243   3.763   2.054
 8876SOL    HW126586   3.283   3.690   2.006
 8876SOL    HW226587   3.151   3.736   2.065
 8877SOL     OW26588   3.160   4.195   2.537
 8877SOL    HW126589   3.109   4.276   2.534
 8877SOL    HW226590   3.153   4.166   2.628
 8878SOL     OW26591   3.443   3.912   2.755
 8878SOL    HW126592   3.391   3.942   2.830
 8878SOL    HW226593   3.444   3.986   2.695
 8879SOL     OW26594   1.899   4.775   2.170
 8879SOL    HW126595   1.992   4.764   2.152
 8879SOL    HW226596   1.867   4.687   2.190
 8880SOL     OW26597   2.757   5.400   2.192
 8880SOL    HW126598   2.679   5.384   2.140
 8880SOL    HW226599   2.732   5.468   2.254
 8881SOL     OW26600   2.069   4.347   3.872
 8881SOL    HW126601   1.982   4.334   3.908
 8881SOL    HW226602   2.059   4.332   3.778
 8882SOL     OW26603   2.081   4.013   4.714
 8882SOL    HW126604   2.112   3.977   4.797
 8882SOL    HW226605   1.994   3.975   4.702
 8883SOL     OW26606   1.849   4.120   4.370
 8883SOL    HW126607   1.769   4.145   4.417
 8883SOL    HW226608   1.822   4.046   4.315
 8884SOL     OW26609   2.437   5.033   4.933
 8884SOL    HW126610   2.355   5.036   4.884
 8884SOL    HW226611   2.454   5.124   4.956
 8885SOL     OW26612   3.460   5.241   4.431
 8885SOL    HW126613   3.412   5.213   4.509
 8885SOL    HW226614   3.394   5.247   4.363
 8886SOL     OW26615   2.997   4.429   4.410
 8886SOL    HW126616   3.045   4.512   4.399
 8886SOL    HW226617   2.950   4.440   4.493
 8887SOL     OW26618   3.660   4.302   3.941
 8887SOL    HW126619   3.621   4.301   3.854
 8887SOL    HW226620   3.615   4.232   3.988
 8888SOL     OW26621   2.587   4.853   4.781
 8888SOL    HW126622   2.529   4.893   4.846
 8888SOL    HW226623   2.630   4.927   4.738
 8889SOL     OW26624   2.750   4.467   5.551
 8889SOL    HW126625   2.745   4.534   5.618
 8889SOL    HW226626   2.767   4.514   5.470
 8890SOL     OW26627   2.547   4.709   4.368
 8890SOL    HW126628   2.615   4.708   4.436
 8890SOL    HW226629   2.482   4.771   4.399
 8891SOL     OW26630   2.572   4.873   5.556
 8891SOL    HW126631   2.623   4.945   5.590
 8891SOL    HW226632   2.496   4.914   5.515
 8892SOL     OW26633   2.204   5.122   4.793
 8892SOL    HW126634   2.129   5.079   4.753
 8892SOL    HW226635   2.241   5.176   4.724
 8893SOL     OW26636   3.313   5.232   5.098
 8893SOL    HW126637   3.370   5.309   5.109
 8893SOL    HW226638   3.243   5.244   5.161
 8894SOL     OW26639   2.320   4.098   5.179
 8894SOL    HW126640   2.395   4.040   5.195
 8894SOL    HW226641   2.244   4.047   5.206
 8895SOL     OW26642   3.447   4.156   4.480
 8895SOL    HW126643   3.381   4.169   4.412
 8895SOL    HW226644   3.433   4.226   4.542
 8896SOL     OW26645   2.080   5.453   4.189
 8896SOL    HW126646   2.107   5.524   4.247
 8896SOL    HW226647   2.153   5.441   4.129
 8897SOL     OW26648   2.997   5.065   5.421
 8897SOL    HW126649   3.047   5.052   5.501
 8897SOL    HW226650   2.944   4.986   5.412
 8898SOL     OW26651   2.094   5.181   4.257
 8898SOL    HW126652   2.073   5.275   4.262
 8898SOL    HW226653   2.045   5.142   4.329
 8899SOL     OW26654   2.146   4.814   4.602
 8899SOL    HW126655   2.148   4.724   4.635
 8899SOL    HW226656   2.090   4.862   4.663
 8900SOL     OW26657   2.431   5.532   5.139
 8900SOL    HW126658   2.357   5.510   5.195
 8900SOL    HW226659   2.466   5.613   5.176
 8901SOL     OW26660   2.427   4.712   3.876
 8901SOL    HW126661   2.478   4.753   3.807
 8901SOL    HW226662   2.468   4.741   3.958
 8902SOL     OW26663   3.451   3.849   5.171
 8902SOL    HW126664   3.508   3.899   5.113
 8902SOL    HW226665   3.436   3.906   5.246
 8903SOL     OW26666   1.980   4.384   4.291
 8903SOL    HW126667   1.949   4.296   4.315
 8903SOL    HW226668   1.974   4.434   4.372
 8904SOL     OW26669   3.708   5.466   4.039
 8904SOL    HW126670   3.779   5.448   4.101
 8904SOL    HW226671   3.718   5.558   4.017
 8905SOL     OW26672   1.922   5.304   3.833
 8905SOL    HW126673   1.901   5.213   3.852
 8905SOL    HW226674   1.891   5.352   3.910
 8906SOL     OW26675   3.551   4.644   4.377
 8906SOL    HW126676   3.640   4.610   4.380
 8906SOL    HW226677   3.544   4.690   4.293
 8907SOL     OW26678   3.520   4.828   4.155
 8907SOL    HW126679   3.605   4.820   4.112
 8907SOL    HW226680   3.536   4.890   4.227
 8908SOL     OW26681   1.984   4.473   5.302
 8908SOL    HW126682   2.070   4.516   5.306
 8908SOL    HW226683   1.922   4.545   5.289
 8909SOL     OW26684   2.485   5.123   4.453
 8909SOL    HW126685   2.444   5.037   4.458
 8909SOL    HW226686   2.469   5.152   4.363
 8910SOL     OW26687   3.133   4.950   5.141
 8910SOL    HW126688   3.160   4.880   5.081
 8910SOL    HW226689   3.195   4.945   5.214
 8911SOL     OW26690   2.692   3.733   4.243
 8911SOL    HW126691   2.733   3.815   4.216
 8911SOL    HW226692   2.598   3.752   4.243
 8912SOL     OW26693   2.048   4.680   5.025
 8912SOL    HW126694   2.136   4.645   5.009
 8912SOL    HW226695   1.995   4.645   4.954
 8913SOL     OW26696   3.396   4.739   3.924
 8913SOL    HW126697   3.327   4.680   3.954
 8913SOL    HW226698   3.439   4.768   4.004
 8914SOL     OW26699   3.035   5.543   5.358
 8914SOL    HW126700   3.041   5.605   5.285
 8914SOL    HW226701   3.054   5.458   5.318
 8915SOL     OW26702   2.222   3.977   5.600
 8915SOL    HW126703   2.258   4.057   5.637
 8915SOL    HW226704   2.127   3.992   5.596
 8916SOL     OW26705   3.329   5.145   4.651
 8916SOL    HW126706   3.269   5.161   4.724
 8916SOL    HW226707   3.313   5.053   4.628
 8917SOL     OW26708   3.494   5.526   4.284
 8917SOL    HW126709   3.480   5.475   4.204
 8917SOL    HW226710   3.504   5.460   4.353
 8918SOL     OW26711   2.449   4.422   3.995
 8918SOL    HW126712   2.453   4.510   3.957
 8918SOL    HW226713   2.384   4.430   4.066
 8919SOL     OW26714   3.146   4.115   4.666
 8919SOL    HW126715   3.058   4.079   4.672
 8919SOL    HW226716   3.199   4.059   4.722
 8920SOL     OW26717   3.440   5.400   4.042
 8920SOL    HW126718   3.534   5.411   4.031
 8920SOL    HW226719   3.406   5.387   3.954
 8921SOL     OW26720   2.647   4.339   5.154
 8921SOL    HW126721   2.626   4.310   5.242
 8921SOL    HW226722   2.624   4.265   5.097
 8922SOL     OW26723   3.251   4.201   5.396
 8922SOL    HW126724   3.256   4.245   5.481
 8922SOL    HW226725   3.307   4.124   5.406
 8923SOL     OW26726   2.806   4.604   5.317
 8923SOL    HW126727   2.863   4.541   5.272
 8923SOL    HW226728   2.758   4.646   5.246
 8924SOL     OW26729   2.868   4.122   4.934
 8924SOL    HW126730   2.775   4.135   4.956
 8924SOL    HW226731   2.867   4.080   4.848
 8925SOL     OW26732   2.920   4.421   4.142
 8925SOL    HW126733   2.941   4.419   4.236
 8925SOL    HW226734   2.835   4.377   4.135
 8926SOL     OW26735   1.955   4.550   4.507
 8926SOL    HW126736   2.037   4.544   4.555
 8926SOL    HW226737   1.907   4.622   4.549
 8927SOL     OW26738   1.972   5.603   5.311
 8927SOL    HW126739   1.979   5.583   5.405
 8927SOL    HW226740   1.887   5.567   5.286
 8928SOL     OW26741   2.753   4.073   3.924
 8928SOL    HW126742   2.803   4.129   3.864
 8928SOL    HW226743   2.735   3.994   3.874
 8929SOL     OW26744   3.537   4.288   5.567
 8929SOL    HW126745   3.518   4.367   5.516
 8929SOL    HW226746   3.574   4.227   5.503
 8930SOL     OW26747   3.257   4.873   4.268
 8930SOL    HW126748   3.338   4.860   4.218
 8930SOL    HW226749   3.205   4.933   4.215
 8931SOL     OW26750   2.413   3.884   4.639
 8931SOL    HW126751   2.419   3.913   4.730
 8931SOL    HW226752   2.409   3.966   4.589
 8932SOL     OW26753   2.860   5.181   4.189
 8932SOL    HW126754   2.837   5.256   4.135
 8932SOL    HW226755   2.830   5.204   4.277
 8933SOL     OW26756   2.215   5.540   4.604
 8933SOL    HW126757   2.261   5.455   4.608
 8933SOL    HW226758   2.283   5.604   4.626
 8934SOL     OW26759   3.656   4.791   4.611
 8934SOL    HW126760   3.602   4.786   4.532
 8934SOL    HW226761   3.593   4.790   4.683
 8935SOL     OW26762   3.075   5.267   5.241
 8935SOL    HW126763   3.067   5.197   5.305
 8935SOL    HW226764   3.016   5.242   5.170
 8936SOL     OW26765   2.162   4.682   3.990
 8936SOL    HW126766   2.245   4.703   3.946
 8936SOL    HW226767   2.140   4.595   3.958
 8937SOL     OW26768   3.341   4.483   4.436
 8937SOL    HW126769   3.346   4.442   4.522
 8937SOL    HW226770   3.419   4.538   4.431
 8938SOL     OW26771   2.335   5.008   5.472
 8938SOL    HW126772   2.311   5.013   5.379
 8938SOL    HW226773   2.251   4.997   5.518
 8939SOL     OW26774   3.007   5.506   3.947
 8939SOL    HW126775   2.926   5.477   3.988
 8939SOL    HW226776   3.026   5.439   3.881
 8940SOL     OW26777   2.071   3.979   5.222
 8940SOL    HW126778   2.000   4.041   5.241
 8940SOL    HW226779   2.040   3.896   5.256
 8941SOL     OW26780   3.492   5.117   3.821
 8941SOL    HW126781   3.449   5.202   3.807
 8941SOL    HW226782   3.427   5.052   3.795
 8942SOL     OW26783   2.320   5.467   4.039
 8942SOL    HW126784   2.370   5.516   4.105
 8942SOL    HW226785   2.388   5.425   3.985
 8943SOL     OW26786   3.260   3.831   4.183
 8943SOL    HW126787   3.260   3.806   4.091
 8943SOL    HW226788   3.352   3.826   4.209
 8944SOL     OW26789   2.113   5.512   4.939
 8944SOL    HW126790   2.163   5.438   4.975
 8944SOL    HW226791   2.103   5.491   4.847
 8945SOL     OW26792   2.812   5.426   4.613
 8945SOL    HW126793   2.897   5.385   4.629
 8945SOL    HW226794   2.773   5.374   4.543
 8946SOL     OW26795   2.256   4.410   4.195
 8946SOL    HW126796   2.268   4.316   4.208
 8946SOL    HW226797   2.163   4.425   4.213
 8947SOL     OW26798   3.386   3.959   5.437
 8947SOL    HW126799   3.392   3.974   5.531
 8947SOL    HW226800   3.328   3.883   5.429
 8948SOL     OW26801   2.524   3.833   3.827
 8948SOL    HW126802   2.572   3.755   3.853
 8948SOL    HW226803   2.463   3.803   3.759
 8949SOL     OW26804   2.620   3.998   5.475
 8949SOL    HW126805   2.704   3.954   5.475
 8949SOL    HW226806   2.574   3.961   5.551
 8950SOL     OW26807   2.730   5.251   4.923
 8950SOL    HW126808   2.713   5.208   4.840
 8950SOL    HW226809   2.799   5.198   4.964
 8951SOL     OW26810   3.191   4.316   5.155
 8951SOL    HW126811   3.224   4.286   5.240
 8951SOL    HW226812   3.230   4.403   5.144
 8952SOL     OW26813   2.678   5.099   4.682
 8952SOL    HW126814   2.765   5.094   4.643
 8952SOL    HW226815   2.619   5.115   4.607
 8953SOL     OW26816   2.791   4.238   4.613
 8953SOL    HW126817   2.766   4.226   4.521
 8953SOL    HW226818   2.821   4.152   4.641
 8954SOL     OW26819   2.426   3.787   4.214
 8954SOL    HW126820   2.348   3.788   4.270
 8954SOL    HW226821   2.414   3.862   4.156
 8955SOL     OW26822   3.294   4.934   3.755
 8955SOL    HW126823   3.326   4.861   3.808
 8955SOL    HW226824   3.209   4.957   3.793
 8956SOL     OW26825   2.145   3.772   3.913
 8956SOL    HW126826   2.198   3.839   3.870
 8956SOL    HW226827   2.209   3.714   3.954
 8957SOL     OW26828   2.813   3.972   4.175
 8957SOL    HW126829   2.788   4.008   4.090
 8957SOL    HW226830   2.907   3.990   4.182
 8958SOL     OW26831   2.938   4.417   5.169
 8958SOL    HW126832   2.878   4.342   5.174
 8958SOL    HW226833   3.025   4.378   5.165
 8959SOL     OW26834   3.068   5.308   4.525
 8959SOL    HW126835   3.084   5.370   4.455
 8959SOL    HW226836   3.147   5.311   4.579
 8960SOL     OW26837   2.344   4.887   4.432
 8960SOL    HW126838   2.282   4.862   4.500
 8960SOL    HW226839   2.294   4.879   4.350
 8961SOL     OW26840   3.113   5.515   4.340
 8961SOL    HW126841   3.161   5.578   4.286
 8961SOL    HW226842   3.043   5.565   4.380
 8962SOL     OW26843   2.894   4.239   3.754
 8962SOL    HW126844   2.852   4.323   3.736
 8962SOL    HW226845   2.958   4.259   3.823
 8963SOL     OW26846   1.962   4.275   5.116
 8963SOL    HW126847   2.054   4.277   5.089
 8963SOL    HW226848   1.955   4.344   5.182
 8964SOL     OW26849   2.421   3.945   4.908
 8964SOL    HW126850   2.458   3.882   4.970
 8964SOL    HW226851   2.327   3.945   4.929
 8965SOL     OW26852   2.731   4.177   4.354
 8965SOL    HW126853   2.692   4.233   4.287
 8965SOL    HW226854   2.756   4.097   4.307
 8966SOL     OW26855   2.884   3.783   4.465
 8966SOL    HW126856   2.823   3.777   4.391
 8966SOL    HW226857   2.860   3.710   4.522
 8967SOL     OW26858   3.292   4.879   4.577
 8967SOL    HW126859   3.228   4.809   4.589
 8967SOL    HW226860   3.305   4.884   4.483
 8968SOL     OW26861   3.328   4.341   4.677
 8968SOL    HW126862   3.265   4.270   4.688
 8968SOL    HW226863   3.386   4.334   4.752
 8969SOL     OW26864   3.681   4.520   4.105
 8969SOL    HW126865   3.741   4.481   4.169
 8969SOL    HW226866   3.673   4.453   4.037
 8970SOL     OW26867   2.360   5.150   3.876
 8970SOL    HW126868   2.285   5.118   3.925
 8970SOL    HW226869   2.359   5.101   3.794
 8971SOL     OW26870   3.574   4.989   4.362
 8971SOL    HW126871   3.668   4.984   4.377
 8971SOL    HW226872   3.550   5.078   4.385
 8972SOL     OW26873   3.254   4.301   3.789
 8972SOL    HW126874   3.200   4.274   3.863
 8972SOL    HW226875   3.343   4.280   3.815
 8973SOL     OW26876   2.389   3.981   4.026
 8973SOL    HW126877   2.443   3.939   3.959
 8973SOL    HW226878   2.357   4.061   3.985
 8974SOL     OW26879   3.595   4.973   5.256
 8974SOL    HW126880   3.682   4.934   5.245
 8974SOL    HW226881   3.612   5.059   5.295
 8975SOL     OW26882   2.906   5.083   5.062
 8975SOL    HW126883   2.828   5.046   5.105
 8975SOL    HW226884   2.979   5.034   5.100
 8976SOL     OW26885   3.466   5.362   5.397
 8976SOL    HW126886   3.455   5.398   5.309
 8976SOL    HW226887   3.543   5.307   5.392
 8977SOL     OW26888   3.011   4.962   4.830
 8977SOL    HW126889   2.950   4.998   4.894
 8977SOL    HW226890   2.979   4.994   4.746
 8978SOL     OW26891   3.466   4.818   4.804
 8978SOL    HW126892   3.459   4.883   4.875
 8978SOL    HW226893   3.394   4.841   4.745
 8979SOL     OW26894   2.782   3.804   5.107
 8979SOL    HW126895   2.803   3.790   5.015
 8979SOL    HW226896   2.860   3.845   5.144
 8980SOL     OW26897   2.840   4.840   5.447
 8980SOL    HW126898   2.749   4.856   5.473
 8980SOL    HW226899   2.836   4.759   5.395
 8981SOL     OW26900   2.577   4.786   4.100
 8981SOL    HW126901   2.562   4.760   4.191
 8981SOL    HW226902   2.650   4.733   4.071
 8982SOL     OW26903   2.287   4.552   4.983
 8982SOL    HW126904   2.355   4.563   5.050
 8982SOL    HW226905   2.258   4.462   4.993
 8983SOL     OW26906   3.125   4.093   5.016
 8983SOL    HW126907   3.153   4.173   5.060
 8983SOL    HW226908   3.035   4.111   4.987
 8984SOL     OW26909   1.940   5.293   5.086
 8984SOL    HW126910   1.911   5.365   5.030
 8984SOL    HW226911   2.035   5.293   5.077
 8985SOL     OW26912   2.179   4.859   4.209
 8985SOL    HW126913   2.180   4.930   4.146
 8985SOL    HW226914   2.176   4.779   4.156
 8986SOL     OW26915   2.395   4.241   4.582
 8986SOL    HW126916   2.407   4.299   4.507
 8986SOL    HW226917   2.463   4.266   4.644
 8987SOL     OW26918   3.111   5.079   4.122
 8987SOL    HW126919   3.168   5.147   4.158
 8987SOL    HW226920   3.023   5.102   4.153
 8988SOL     OW26921   3.172   5.192   4.867
 8988SOL    HW126922   3.220   5.200   4.949
 8988SOL    HW226923   3.122   5.110   4.877
 8989SOL     OW26924   3.443   4.343   4.211
 8989SOL    HW126925   3.389   4.384   4.279
 8989SOL    HW226926   3.498   4.414   4.178
 8990SOL     OW26927   2.207   5.256   5.027
 8990SOL    HW126928   2.199   5.204   4.947
 8990SOL    HW226929   2.300   5.273   5.036
 8991SOL     OW26930   2.296   4.469   5.344
 8991SOL    HW126931   2.353   4.514   5.281
 8991SOL    HW226932   2.343   4.388   5.365
 8992SOL     OW26933   3.481   4.512   5.427
 8992SOL    HW126934   3.392   4.548   5.421
 8992SOL    HW226935   3.528   4.553   5.354
 8993SOL     OW26936   2.856   3.865   5.485
 8993SOL    HW126937   2.914   3.939   5.465
 8993SOL    HW226938   2.906   3.788   5.461
 8994SOL     OW26939   2.356   3.758   5.487
 8994SOL    HW126940   2.302   3.709   5.425
 8994SOL    HW226941   2.305   3.836   5.508
 8995SOL     OW26942   2.452   4.599   4.762
 8995SOL    HW126943   2.491   4.686   4.766
 8995SOL    HW226944   2.395   4.595   4.839
 8996SOL     OW26945   3.172   4.581   4.724
 8996SOL    HW126946   3.085   4.550   4.699
 8996SOL    HW226947   3.229   4.505   4.710
 8997SOL     OW26948   3.061   4.247   3.982
 8997SOL    HW126949   3.071   4.170   4.039
 8997SOL    HW226950   3.019   4.312   4.038
 8998SOL     OW26951   2.153   3.917   4.963
 8998SOL    HW126952   2.119   3.946   5.047
 8998SOL    HW226953   2.136   3.823   4.961
 8999SOL     OW26954   1.910   5.036   4.990
 8999SOL    HW126955   1.940   4.980   5.061
 8999SOL    HW226956   1.914   5.125   5.025
 9000SOL     OW26957   2.572   4.345   4.762
 9000SOL    HW126958   2.651   4.338   4.708
 9000SOL    HW226959   2.545   4.436   4.753
 9001SOL     OW26960   3.614   4.688   5.597
 9001SOL    HW126961   3.573   4.621   5.542
 9001SOL    HW226962   3.548   4.708   5.663
 9002SOL     OW26963   2.187   3.783   4.353
 9002SOL    HW126964   2.153   3.871   4.371
 9002SOL    HW226965   2.193   3.742   4.439
 9003SOL     OW26966   3.490   4.115   4.067
 9003SOL    HW126967   3.523   4.049   4.129
 9003SOL    HW226968   3.464   4.188   4.122
 9004SOL     OW26969   2.894   4.482   4.680
 9004SOL    HW126970   2.874   4.497   4.772
 9004SOL    HW226971   2.865   4.393   4.663
 9005SOL     OW26972   2.841   5.286   5.463
 9005SOL    HW126973   2.819   5.333   5.383
 9005SOL    HW226974   2.882   5.205   5.434
 9006SOL     OW26975   3.696   5.223   5.331
 9006SOL    HW126976   3.723   5.249   5.242
 9006SOL    HW226977   3.775   5.233   5.384
 9007SOL     OW26978   2.211   4.642   5.540
 9007SOL    HW126979   2.287   4.661   5.594
 9007SOL    HW226980   2.243   4.579   5.475
 9008SOL     OW26981   3.383   3.991   3.842
 9008SOL    HW126982   3.331   3.921   3.880
 9008SOL    HW226983   3.422   4.036   3.917
 9009SOL     OW26984   3.139   4.546   3.742
 9009SOL    HW126985   3.180   4.459   3.751
 9009SOL    HW226986   3.177   4.582   3.662
 9010SOL     OW26987   2.930   5.075   4.590
 9010SOL    HW126988   2.942   5.003   4.529
 9010SOL    HW226989   2.982   5.146   4.553
 9011SOL     OW26990   2.181   4.541   4.668
 9011SOL    HW126991   2.275   4.555   4.668
 9011SOL    HW226992   2.170   4.451   4.699
 9012SOL     OW26993   2.174   4.263   4.734
 9012SOL    HW126994   2.135   4.176   4.725
 9012SOL    HW226995   2.252   4.261   4.678
 9013SOL     OW26996   2.999   4.091   5.410
 9013SOL    HW126997   2.955   4.143   5.477
 9013SOL    HW226998   3.085   4.133   5.401
 9014SOL     OW26999   3.018   3.913   5.199
 9014SOL    HW127000   3.007   3.976   5.271
 9014SOL    HW227001   3.065   3.963   5.132
 9015SOL     OW27002   1.886   5.027   3.903
 9015SOL    HW127003   1.797   5.049   3.877
 9015SOL    HW227004   1.879   4.941   3.943
 9016SOL     OW27005   1.954   5.495   4.674
 9016SOL    HW127006   1.921   5.421   4.623
 9016SOL    HW227007   2.041   5.511   4.638
 9017SOL     OW27008   2.347   5.294   4.624
 9017SOL    HW127009   2.418   5.354   4.647
 9017SOL    HW227010   2.387   5.232   4.562
 9018SOL     OW27011   2.810   4.504   4.940
 9018SOL    HW127012   2.874   4.493   5.010
 9018SOL    HW227013   2.731   4.459   4.971
 9019SOL     OW27014   1.902   4.296   4.845
 9019SOL    HW127015   1.983   4.293   4.795
 9019SOL    HW227016   1.930   4.289   4.936
 9020SOL     OW27017   2.050   4.262   5.468
 9020SOL    HW127018   2.125   4.233   5.417
 9020SOL    HW227019   2.014   4.336   5.418
 9021SOL     OW27020   3.246   4.648   5.375
 9021SOL    HW127021   3.269   4.741   5.369
 9021SOL    HW227022   3.244   4.618   5.285
 9022SOL     OW27023   2.680   4.291   4.096
 9022SOL    HW127024   2.689   4.217   4.036
 9022SOL    HW227025   2.603   4.338   4.065
 9023SOL     OW27026   3.509   4.321   4.884
 9023SOL    HW127027   3.503   4.278   4.969
 9023SOL    HW227028   3.598   4.306   4.854
 9024SOL     OW27029   2.087   5.264   5.447
 9024SOL    HW127030   2.064   5.312   5.526
 9024SOL    HW227031   2.100   5.174   5.476
 9025SOL     OW27032   2.594   4.157   4.957
 9025SOL    HW127033   2.530   4.087   4.942
 9025SOL    HW227034   2.577   4.221   4.889
 9026SOL     OW27035   2.753   5.410   5.225
 9026SOL    HW127036   2.739   5.358   5.145
 9026SOL    HW227037   2.763   5.500   5.193
 9027SOL     OW27038   2.304   4.205   3.887
 9027SOL    HW127039   2.369   4.271   3.912
 9027SOL    HW227040   2.220   4.251   3.891
 9028SOL     OW27041   1.991   4.874   5.204
 9028SOL    HW127042   1.996   4.835   5.291
 9028SOL    HW227043   2.012   4.803   5.144
 9029SOL     OW27044   3.162   4.758   4.933
 9029SOL    HW127045   3.175   4.695   4.862
 9029SOL    HW227046   3.109   4.828   4.895
 9030SOL     OW27047   3.185   4.587   4.014
 9030SOL    HW127048   3.117   4.549   4.069
 9030SOL    HW227049   3.156   4.570   3.925
 9031SOL     OW27050   3.654   5.454   4.901
 9031SOL    HW127051   3.713   5.474   4.829
 9031SOL    HW227052   3.612   5.372   4.875
 9032SOL     OW27053   3.101   5.458   4.818
 9032SOL    HW127054   3.185   5.487   4.783
 9032SOL    HW227055   3.116   5.366   4.841
 9033SOL     OW27056   1.968   4.972   4.733
 9033SOL    HW127057   1.939   4.993   4.822
 9033SOL    HW227058   1.897   4.918   4.697
 9034SOL     OW27059   2.551   5.408   5.471
 9034SOL    HW127060   2.489   5.479   5.458
 9034SOL    HW227061   2.622   5.427   5.409
 9035SOL     OW27062   3.603   3.907   4.217
 9035SOL    HW127063   3.664   3.887   4.146
 9035SOL    HW227064   3.579   3.821   4.253
 9036SOL     OW27065   3.263   5.292   4.230
 9036SOL    HW127066   3.316   5.327   4.159
 9036SOL    HW227067   3.208   5.366   4.257
 9037SOL     OW27068   1.994   5.532   5.568
 9037SOL    HW127069   1.955   5.455   5.610
 9037SOL    HW227070   2.046   5.573   5.638
 9038SOL     OW27071   3.140   4.660   4.387
 9038SOL    HW127072   3.213   4.600   4.402
 9038SOL    HW227073   3.178   4.731   4.336
 9039SOL     OW27074   2.646   5.004   5.136
 9039SOL    HW127075   2.620   5.051   5.215
 9039SOL    HW227076   2.572   5.014   5.076
 9040SOL     OW27077   2.531   5.362   3.883
 9040SOL    HW127078   2.546   5.375   3.789
 9040SOL    HW227079   2.480   5.282   3.888
 9041SOL     OW27080   3.475   5.456   5.128
 9041SOL    HW127081   3.534   5.455   5.053
 9041SOL    HW227082   3.458   5.549   5.144
 9042SOL     OW27083   3.703   3.888   4.698
 9042SOL    HW127084   3.735   3.800   4.680
 9042SOL    HW227085   3.617   3.892   4.655
 9043SOL     OW27086   2.105   4.030   4.432
 9043SOL    HW127087   2.019   4.067   4.411
 9043SOL    HW227088   2.109   4.032   4.528
 9044SOL     OW27089   3.070   5.312   3.763
 9044SOL    HW127090   3.061   5.221   3.792
 9044SOL    HW227091   2.999   5.324   3.700
 9045SOL     OW27092   2.686   4.735   5.109
 9045SOL    HW127093   2.726   4.724   5.022
 9045SOL    HW227094   2.676   4.830   5.119
 9046SOL     OW27095   2.781   4.633   4.016
 9046SOL    HW127096   2.838   4.668   3.948
 9046SOL    HW227097   2.833   4.567   4.060
 9047SOL     OW27098   3.341   5.379   3.781
 9047SOL    HW127099   3.250   5.356   3.764
 9047SOL    HW227100   3.382   5.379   3.694
 9048SOL     OW27101   2.223   5.037   5.226
 9048SOL    HW127102   2.217   5.110   5.165
 9048SOL    HW227103   2.146   4.984   5.209
 9049SOL     OW27104   3.456   5.013   5.007
 9049SOL    HW127105   3.510   4.988   5.082
 9049SOL    HW227106   3.398   5.081   5.041
 9050SOL     OW27107   2.937   4.843   4.451
 9050SOL    HW127108   2.863   4.792   4.483
 9050SOL    HW227109   3.001   4.777   4.423
 9051SOL     OW27110   2.896   3.974   4.685
 9051SOL    HW127111   2.895   3.931   4.599
 9051SOL    HW227112   2.889   3.902   4.748
 9052SOL     OW27113   2.466   5.209   4.197
 9052SOL    HW127114   2.522   5.160   4.137
 9052SOL    HW227115   2.384   5.221   4.149
 9053SOL     OW27116   3.624   4.142   5.119
 9053SOL    HW127117   3.705   4.192   5.109
 9053SOL    HW227118   3.632   4.070   5.057
 9054SOL     OW27119   2.141   5.066   4.022
 9054SOL    HW127120   2.054   5.058   3.983
 9054SOL    HW227121   2.126   5.113   4.104
 9055SOL     OW27122   1.983   4.771   5.459
 9055SOL    HW127123   1.906   4.742   5.509
 9055SOL    HW227124   2.055   4.719   5.496
 9056SOL     OW27125   2.541   3.911   5.219
 9056SOL    HW127126   2.626   3.886   5.180
 9056SOL    HW227127   2.564   3.946   5.305
 9057SOL     OW27128   1.948   4.042   3.738
 9057SOL    HW127129   1.871   4.021   3.685
 9057SOL    HW227130   1.976   4.127   3.707
 9058SOL     OW27131   3.272   4.577   5.113
 9058SOL    HW127132   3.222   4.637   5.058
 9058SOL    HW227133   3.361   4.581   5.077
 9059SOL     OW27134   1.906   3.873   3.996
 9059SOL    HW127135   1.893   3.943   3.932
 9059SOL    HW227136   1.995   3.841   3.980
 9060SOL     OW27137   3.046   5.045   3.849
 9060SOL    HW127138   2.958   5.007   3.850
 9060SOL    HW227139   3.071   5.050   3.941
 9061SOL     OW27140   2.486   4.558   5.166
 9061SOL    HW127141   2.546   4.632   5.154
 9061SOL    HW227142   2.543   4.481   5.164
 9062SOL     OW27143   3.348   5.525   4.718
 9062SOL    HW127144   3.380   5.597   4.665
 9062SOL    HW227145   3.426   5.472   4.737
 9063SOL     OW27146   2.584   4.274   5.411
 9063SOL    HW127147   2.632   4.328   5.473
 9063SOL    HW227148   2.596   4.184   5.442
 9064SOL     OW27149   3.329   4.912   5.344
 9064SOL    HW127150   3.324   4.931   5.437
 9064SOL    HW227151   3.420   4.931   5.319
 9065SOL     OW27152   2.216   5.471   5.303
 9065SOL    HW127153   2.134   5.517   5.286
 9065SOL    HW227154   2.190   5.387   5.341
 9066SOL     OW27155   3.506   4.597   4.972
 9066SOL    HW127156   3.520   4.515   4.924
 9066SOL    HW227157   3.502   4.664   4.904
 9067SOL     OW27158   3.081   4.046   4.181
 9067SOL    HW127159   3.142   3.972   4.179
 9067SOL    HW227160   3.109   4.098   4.256
 9068SOL     OW27161   2.437   4.450   4.404
 9068SOL    HW127162   2.481   4.534   4.390
 9068SOL    HW227163   2.376   4.442   4.330
 9069SOL     OW27164   3.625   4.091   5.389
 9069SOL    HW127165   3.620   4.115   5.297
 9069SOL    HW227166   3.547   4.037   5.404
 9070SOL     OW27167   3.576   4.665   5.228
 9070SOL    HW127168   3.590   4.759   5.228
 9070SOL    HW227169   3.570   4.641   5.136
 9071SOL     OW27170   2.724   5.082   3.783
 9071SOL    HW127171   2.692   5.098   3.872
 9071SOL    HW227172   2.740   5.169   3.747
 9072SOL     OW27173   2.531   5.490   4.648
 9072SOL    HW127174   2.512   5.583   4.641
 9072SOL    HW227175   2.627   5.485   4.648
 9073SOL     OW27176   2.734   4.700   4.579
 9073SOL    HW127177   2.784   4.627   4.614
 9073SOL    HW227178   2.689   4.737   4.655
 9074SOL     OW27179   2.934   4.712   3.810
 9074SOL    HW127180   2.912   4.764   3.732
 9074SOL    HW227181   3.007   4.656   3.782
 9075SOL     OW27182   3.720   5.263   4.562
 9075SOL    HW127183   3.636   5.251   4.519
 9075SOL    HW227184   3.736   5.181   4.608
 9076SOL     OW27185   2.073   5.009   5.559
 9076SOL    HW127186   2.042   4.930   5.517
 9076SOL    HW227187   2.014   5.021   5.634
 9077SOL     OW27188   1.980   4.949   4.392
 9077SOL    HW127189   2.011   4.907   4.472
 9077SOL    HW227190   2.038   4.915   4.324
 9078SOL     OW27191   2.551   5.143   5.353
 9078SOL    HW127192   2.476   5.104   5.397
 9078SOL    HW227193   2.558   5.230   5.391
 9079SOL     OW27194   3.648   3.916   4.969
 9079SOL    HW127195   3.725   3.866   4.994
 9079SOL    HW227196   3.654   3.924   4.874
 9080SOL     OW27197   2.278   4.147   4.241
 9080SOL    HW127198   2.314   4.076   4.187
 9080SOL    HW227199   2.228   4.103   4.309
 9081SOL     OW27200   3.532   5.225   4.828
 9081SOL    HW127201   3.470   5.198   4.760
 9081SOL    HW227202   3.535   5.150   4.888
 9082SOL     OW27203   2.214   4.290   5.015
 9082SOL    HW127204   2.264   4.225   5.066
 9082SOL    HW227205   2.222   4.260   4.925
 9083SOL     OW27206   2.699   5.304   4.396
 9083SOL    HW127207   2.664   5.370   4.337
 9083SOL    HW227208   2.627   5.243   4.410
 9084SOL     OW27209   3.290   3.963   4.845
 9084SOL    HW127210   3.317   3.882   4.889
 9084SOL    HW227211   3.238   4.010   4.910
 9085SOL     OW27212   2.873   3.741   4.843
 9085SOL    HW127213   2.819   3.679   4.795
 9085SOL    HW227214   2.960   3.701   4.845
 9086SOL     OW27215   2.644   5.056   4.052
 9086SOL    HW127216   2.620   4.965   4.065
 9086SOL    HW227217   2.724   5.068   4.104
 9087SOL     OW27218   2.477   5.295   5.011
 9087SOL    HW127219   2.472   5.381   5.054
 9087SOL    HW227220   2.567   5.290   4.979
 9088SOL     OW27221   3.242   3.762   3.917
 9088SOL    HW127222   3.282   3.690   3.869
 9088SOL    HW227223   3.151   3.736   3.928
 9089SOL     OW27224   3.157   4.195   4.399
 9089SOL    HW127225   3.108   4.277   4.398
 9089SOL    HW227226   3.153   4.166   4.490
 9090SOL     OW27227   3.442   3.911   4.618
 9090SOL    HW127228   3.390   3.942   4.692
 9090SOL    HW227229   3.444   3.985   4.557
 9091SOL     OW27230   1.899   4.775   4.032
 9091SOL    HW127231   1.992   4.763   4.013
 9091SOL    HW227232   1.867   4.687   4.052
 9092SOL     OW27233   2.762   5.403   4.054
 9092SOL    HW127234   2.683   5.387   4.002
 9092SOL    HW227235   2.736   5.471   4.116
 9093SOL     OW27236   2.069   4.346   5.734
 9093SOL    HW127237   1.982   4.333   5.770
 9093SOL    HW227238   2.059   4.332   5.640
 9094SOL     OW27239   2.081   4.013   6.576
 9094SOL    HW127240   2.111   3.977   6.659
 9094SOL    HW227241   1.993   3.975   6.564
 9095SOL     OW27242   1.849   4.120   6.232
 9095SOL    HW127243   1.769   4.145   6.279
 9095SOL    HW227244   1.822   4.046   6.177
 9096SOL     OW27245   2.437   5.032   6.795
 9096SOL    HW127246   2.355   5.035   6.746
 9096SOL    HW227247   2.454   5.123   6.819
 9097SOL     OW27248   3.451   5.249   6.290
 9097SOL    HW127249   3.404   5.218   6.367
 9097SOL    HW227250   3.385   5.252   6.221
 9098SOL     OW27251   2.998   4.431   6.273
 9098SOL    HW127252   3.045   4.514   6.261
 9098SOL    HW227253   2.950   4.442   6.355
 9099SOL     OW27254   3.659   4.306   5.805
 9099SOL    HW127255   3.619   4.308   5.719
 9099SOL    HW227256   3.615   4.235   5.851
 9100SOL     OW27257   2.588   4.854   6.644
 9100SOL    HW127258   2.530   4.894   6.708
 9100SOL    HW227259   2.630   4.927   6.599
 9101SOL     OW27260   2.749   4.466   7.413
 9101SOL    HW127261   2.742   4.533   7.481
 9101SOL    HW227262   2.766   4.514   7.332
 9102SOL     OW27263   2.547   4.709   6.230
 9102SOL    HW127264   2.614   4.709   6.298
 9102SOL    HW227265   2.481   4.771   6.262
 9103SOL     OW27266   2.574   4.874   7.419
 9103SOL    HW127267   2.626   4.947   7.454
 9103SOL    HW227268   2.498   4.916   7.378
 9104SOL     OW27269   2.205   5.121   6.655
 9104SOL    HW127270   2.129   5.079   6.615
 9104SOL    HW227271   2.241   5.176   6.586
 9105SOL     OW27272   3.316   5.230   6.958
 9105SOL    HW127273   3.371   5.307   6.971
 9105SOL    HW227274   3.244   5.241   7.021
 9106SOL     OW27275   2.320   4.099   7.041
 9106SOL    HW127276   2.395   4.040   7.057
 9106SOL    HW227277   2.244   4.047   7.068
 9107SOL     OW27278   3.448   4.157   6.341
 9107SOL    HW127279   3.390   4.173   6.267
 9107SOL    HW227280   3.427   4.227   6.403
 9108SOL     OW27281   2.080   5.452   6.051
 9108SOL    HW127282   2.107   5.523   6.109
 9108SOL    HW227283   2.154   5.441   5.991
 9109SOL     OW27284   2.997   5.065   7.283
 9109SOL    HW127285   3.043   5.054   7.366
 9109SOL    HW227286   2.944   4.986   7.274
 9110SOL     OW27287   2.093   5.181   6.118
 9110SOL    HW127288   2.073   5.275   6.122
 9110SOL    HW227289   2.044   5.144   6.192
 9111SOL     OW27290   2.145   4.814   6.464
 9111SOL    HW127291   2.147   4.724   6.498
 9111SOL    HW227292   2.090   4.861   6.525
 9112SOL     OW27293   2.434   5.529   7.005
 9112SOL    HW127294   2.359   5.508   7.060
 9112SOL    HW227295   2.468   5.611   7.040
 9113SOL     OW27296   2.427   4.712   5.738
 9113SOL    HW127297   2.478   4.754   5.669
 9113SOL    HW227298   2.468   4.741   5.820
 9114SOL     OW27299   3.454   3.856   7.047
 9114SOL    HW127300   3.493   3.932   7.003
 9114SOL    HW227301   3.422   3.890   7.130
 9115SOL     OW27302   1.980   4.383   6.153
 9115SOL    HW127303   1.949   4.296   6.177
 9115SOL    HW227304   1.974   4.433   6.234
 9116SOL     OW27305   3.707   5.469   5.906
 9116SOL    HW127306   3.779   5.454   5.966
 9116SOL    HW227307   3.715   5.562   5.882
 9117SOL     OW27308   1.921   5.304   5.696
 9117SOL    HW127309   1.901   5.213   5.715
 9117SOL    HW227310   1.890   5.352   5.773
 9118SOL     OW27311   3.560   4.650   6.237
 9118SOL    HW127312   3.638   4.603   6.208
 9118SOL    HW227313   3.536   4.704   6.161
 9119SOL     OW27314   3.516   4.831   6.019
 9119SOL    HW127315   3.601   4.823   5.975
 9119SOL    HW227316   3.531   4.895   6.089
 9120SOL     OW27317   1.983   4.473   7.164
 9120SOL    HW127318   2.068   4.517   7.167
 9120SOL    HW227319   1.920   4.544   7.150
 9121SOL     OW27320   2.484   5.122   6.317
 9121SOL    HW127321   2.442   5.036   6.322
 9121SOL    HW227322   2.469   5.151   6.227
 9122SOL     OW27323   3.132   4.949   7.004
 9122SOL    HW127324   3.159   4.880   6.943
 9122SOL    HW227325   3.194   4.944   7.076
 9123SOL     OW27326   2.692   3.733   6.105
 9123SOL    HW127327   2.733   3.815   6.077
 9123SOL    HW227328   2.598   3.752   6.105
 9124SOL     OW27329   2.048   4.680   6.888
 9124SOL    HW127330   2.136   4.645   6.871
 9124SOL    HW227331   1.995   4.646   6.816
 9125SOL     OW27332   3.394   4.738   5.786
 9125SOL    HW127333   3.326   4.678   5.817
 9125SOL    HW227334   3.437   4.768   5.866
 9126SOL     OW27335   3.040   5.545   7.221
 9126SOL    HW127336   3.042   5.607   7.149
 9126SOL    HW227337   3.057   5.460   7.181
 9127SOL     OW27338   2.221   3.977   7.462
 9127SOL    HW127339   2.257   4.057   7.500
 9127SOL    HW227340   2.127   3.992   7.458
 9128SOL     OW27341   3.332   5.145   6.515
 9128SOL    HW127342   3.270   5.162   6.585
 9128SOL    HW227343   3.317   5.053   6.491
 9129SOL     OW27344   3.497   5.522   6.148
 9129SOL    HW127345   3.482   5.475   6.066
 9129SOL    HW227346   3.500   5.453   6.215
 9130SOL     OW27347   2.449   4.422   5.858
 9130SOL    HW127348   2.454   4.510   5.819
 9130SOL    HW227349   2.385   4.430   5.928
 9131SOL     OW27350   3.145   4.119   6.528
 9131SOL    HW127351   3.056   4.083   6.532
 9131SOL    HW227352   3.197   4.060   6.583
 9132SOL     OW27353   3.440   5.398   5.906
 9132SOL    HW127354   3.534   5.412   5.895
 9132SOL    HW227355   3.407   5.386   5.817
 9133SOL     OW27356   2.652   4.337   7.017
 9133SOL    HW127357   2.628   4.308   7.105
 9133SOL    HW227358   2.627   4.264   6.960
 9134SOL     OW27359   3.253   4.201   7.259
 9134SOL    HW127360   3.258   4.244   7.345
 9134SOL    HW227361   3.304   4.121   7.270
 9135SOL     OW27362   2.806   4.605   7.179
 9135SOL    HW127363   2.862   4.541   7.134
 9135SOL    HW227364   2.758   4.647   7.108
 9136SOL     OW27365   2.869   4.121   6.796
 9136SOL    HW127366   2.777   4.134   6.818
 9136SOL    HW227367   2.868   4.079   6.710
 9137SOL     OW27368   2.922   4.421   6.004
 9137SOL    HW127369   2.941   4.419   6.098
 9137SOL    HW227370   2.837   4.377   5.997
 9138SOL     OW27371   1.954   4.549   6.370
 9138SOL    HW127372   2.037   4.543   6.418
 9138SOL    HW227373   1.907   4.620   6.411
 9139SOL     OW27374   1.971   5.603   7.173
 9139SOL    HW127375   1.978   5.583   7.267
 9139SOL    HW227376   1.886   5.568   7.148
 9140SOL     OW27377   2.754   4.073   5.786
 9140SOL    HW127378   2.804   4.130   5.727
 9140SOL    HW227379   2.739   3.994   5.735
 9141SOL     OW27380   3.547   4.287   7.427
 9141SOL    HW127381   3.526   4.364   7.374
 9141SOL    HW227382   3.576   4.222   7.362
 9142SOL     OW27383   3.253   4.872   6.124
 9142SOL    HW127384   3.333   4.861   6.073
 9142SOL    HW227385   3.200   4.934   6.074
 9143SOL     OW27386   2.413   3.885   6.501
 9143SOL    HW127387   2.419   3.913   6.592
 9143SOL    HW227388   2.409   3.966   6.450
 9144SOL     OW27389   2.860   5.180   6.051
 9144SOL    HW127390   2.835   5.254   5.996
 9144SOL    HW227391   2.830   5.205   6.139
 9145SOL     OW27392   2.215   5.540   6.467
 9145SOL    HW127393   2.261   5.456   6.471
 9145SOL    HW227394   2.283   5.605   6.488
 9146SOL     OW27395   3.667   4.765   6.476
 9146SOL    HW127396   3.621   4.751   6.393
 9146SOL    HW227397   3.597   4.774   6.541
 9147SOL     OW27398   3.079   5.266   7.102
 9147SOL    HW127399   3.068   5.196   7.166
 9147SOL    HW227400   3.014   5.248   7.035
 9148SOL     OW27401   2.162   4.683   5.851
 9148SOL    HW127402   2.245   4.704   5.808
 9148SOL    HW227403   2.140   4.596   5.818
 9149SOL     OW27404   3.347   4.489   6.297
 9149SOL    HW127405   3.350   4.445   6.382
 9149SOL    HW227406   3.426   4.542   6.294
 9150SOL     OW27407   2.335   5.008   7.334
 9150SOL    HW127408   2.311   5.013   7.242
 9150SOL    HW227409   2.251   4.996   7.380
 9151SOL     OW27410   3.001   5.500   5.812
 9151SOL    HW127411   2.919   5.469   5.851
 9151SOL    HW227412   3.022   5.435   5.745
 9152SOL     OW27413   2.071   3.980   7.084
 9152SOL    HW127414   1.999   4.041   7.101
 9152SOL    HW227415   2.040   3.896   7.118
 9153SOL     OW27416   3.498   5.115   5.691
 9153SOL    HW127417   3.458   5.200   5.674
 9153SOL    HW227418   3.433   5.051   5.662
 9154SOL     OW27419   2.321   5.465   5.902
 9154SOL    HW127420   2.370   5.516   5.966
 9154SOL    HW227421   2.388   5.425   5.846
 9155SOL     OW27422   3.259   3.830   6.046
 9155SOL    HW127423   3.258   3.806   5.953
 9155SOL    HW227424   3.351   3.823   6.071
 9156SOL     OW27425   2.114   5.512   6.801
 9156SOL    HW127426   2.163   5.437   6.835
 9156SOL    HW227427   2.101   5.492   6.708
 9157SOL     OW27428   2.811   5.426   6.475
 9157SOL    HW127429   2.897   5.385   6.488
 9157SOL    HW227430   2.771   5.376   6.405
 9158SOL     OW27431   2.257   4.410   6.058
 9158SOL    HW127432   2.269   4.316   6.071
 9158SOL    HW227433   2.164   4.424   6.075
 9159SOL     OW27434   3.369   3.947   7.303
 9159SOL    HW127435   3.382   3.965   7.396
 9159SOL    HW227436   3.302   3.878   7.301
 9160SOL     OW27437   2.524   3.833   5.689
 9160SOL    HW127438   2.574   3.756   5.713
 9160SOL    HW227439   2.463   3.803   5.621
 9161SOL     OW27440   2.621   3.997   7.338
 9161SOL    HW127441   2.705   3.952   7.337
 9161SOL    HW227442   2.574   3.959   7.412
 9162SOL     OW27443   2.730   5.250   6.786
 9162SOL    HW127444   2.713   5.209   6.701
 9162SOL    HW227445   2.799   5.196   6.825
 9163SOL     OW27446   3.191   4.316   7.018
 9163SOL    HW127447   3.224   4.286   7.103
 9163SOL    HW227448   3.230   4.402   7.007
 9164SOL     OW27449   2.677   5.100   6.542
 9164SOL    HW127450   2.765   5.096   6.504
 9164SOL    HW227451   2.620   5.116   6.468
 9165SOL     OW27452   2.791   4.238   6.474
 9165SOL    HW127453   2.766   4.227   6.382
 9165SOL    HW227454   2.820   4.151   6.502
 9166SOL     OW27455   2.426   3.787   6.076
 9166SOL    HW127456   2.348   3.787   6.132
 9166SOL    HW227457   2.414   3.862   6.018
 9167SOL     OW27458   3.298   4.937   5.619
 9167SOL    HW127459   3.327   4.862   5.671
 9167SOL    HW227460   3.213   4.960   5.656
 9168SOL     OW27461   2.145   3.771   5.774
 9168SOL    HW127462   2.197   3.839   5.731
 9168SOL    HW227463   2.209   3.714   5.816
 9169SOL     OW27464   2.813   3.972   6.037
 9169SOL    HW127465   2.787   4.008   5.952
 9169SOL    HW227466   2.907   3.990   6.043
 9170SOL     OW27467   2.937   4.418   7.031
 9170SOL    HW127468   2.874   4.346   7.035
 9170SOL    HW227469   3.023   4.375   7.027
 9171SOL     OW27470   3.067   5.312   6.389
 9171SOL    HW127471   3.082   5.372   6.316
 9171SOL    HW227472   3.143   5.324   6.446
 9172SOL     OW27473   2.343   4.885   6.294
 9172SOL    HW127474   2.281   4.861   6.362
 9172SOL    HW227475   2.294   4.879   6.212
 9173SOL     OW27476   3.113   5.516   6.204
 9173SOL    HW127477   3.162   5.579   6.150
 9173SOL    HW227478   3.042   5.569   6.242
 9174SOL     OW27479   2.894   4.240   5.617
 9174SOL    HW127480   2.852   4.324   5.597
 9174SOL    HW227481   2.960   4.261   5.683
 9175SOL     OW27482   1.962   4.275   6.978
 9175SOL    HW127483   2.054   4.277   6.951
 9175SOL    HW227484   1.955   4.344   7.043
 9176SOL     OW27485   2.421   3.945   6.770
 9176SOL    HW127486   2.459   3.882   6.831
 9176SOL    HW227487   2.328   3.946   6.791
 9177SOL     OW27488   2.731   4.177   6.216
 9177SOL    HW127489   2.693   4.234   6.148
 9177SOL    HW227490   2.757   4.098   6.169
 9178SOL     OW27491   2.884   3.784   6.327
 9178SOL    HW127492   2.823   3.778   6.253
 9178SOL    HW227493   2.859   3.710   6.383
 9179SOL     OW27494   3.301   4.880   6.439
 9179SOL    HW127495   3.228   4.818   6.441
 9179SOL    HW227496   3.325   4.887   6.346
 9180SOL     OW27497   3.326   4.340   6.534
 9180SOL    HW127498   3.261   4.270   6.544
 9180SOL    HW227499   3.381   4.333   6.612
 9181SOL     OW27500   3.685   4.519   5.977
 9181SOL    HW127501   3.748   4.477   6.035
 9181SOL    HW227502   3.674   4.459   5.904
 9182SOL     OW27503   2.360   5.149   5.736
 9182SOL    HW127504   2.285   5.117   5.786
 9182SOL    HW227505   2.358   5.099   5.655
 9183SOL     OW27506   3.566   4.991   6.227
 9183SOL    HW127507   3.660   4.984   6.244
 9183SOL    HW227508   3.546   5.083   6.247
 9184SOL     OW27509   3.253   4.303   5.648
 9184SOL    HW127510   3.202   4.274   5.724
 9184SOL    HW227511   3.343   4.283   5.670
 9185SOL     OW27512   2.389   3.981   5.889
 9185SOL    HW127513   2.443   3.939   5.821
 9185SOL    HW227514   2.357   4.061   5.847
 9186SOL     OW27515   3.597   4.968   7.119
 9186SOL    HW127516   3.685   4.934   7.104
 9186SOL    HW227517   3.611   5.056   7.155
 9187SOL     OW27518   2.904   5.081   6.923
 9187SOL    HW127519   2.827   5.045   6.967
 9187SOL    HW227520   2.978   5.034   6.962
 9188SOL     OW27521   3.470   5.358   7.258
 9188SOL    HW127522   3.458   5.395   7.171
 9188SOL    HW227523   3.548   5.303   7.251
 9189SOL     OW27524   3.013   4.963   6.692
 9189SOL    HW127525   2.951   4.997   6.756
 9189SOL    HW227526   2.980   4.994   6.608
 9190SOL     OW27527   3.471   4.814   6.662
 9190SOL    HW127528   3.463   4.881   6.730
 9190SOL    HW227529   3.402   4.836   6.599
 9191SOL     OW27530   2.781   3.805   6.969
 9191SOL    HW127531   2.802   3.790   6.877
 9191SOL    HW227532   2.860   3.846   7.005
 9192SOL     OW27533   2.841   4.839   7.310
 9192SOL    HW127534   2.751   4.856   7.337
 9192SOL    HW227535   2.837   4.759   7.258
 9193SOL     OW27536   2.575   4.786   5.962
 9193SOL    HW127537   2.560   4.760   6.053
 9193SOL    HW227538   2.650   4.733   5.934
 9194SOL     OW27539   2.288   4.552   6.846
 9194SOL    HW127540   2.356   4.562   6.912
 9194SOL    HW227541   2.258   4.462   6.855
 9195SOL     OW27542   3.126   4.091   6.878
 9195SOL    HW127543   3.154   4.172   6.922
 9195SOL    HW227544   3.037   4.110   6.848
 9196SOL     OW27545   1.940   5.293   6.948
 9196SOL    HW127546   1.910   5.365   6.892
 9196SOL    HW227547   2.035   5.293   6.938
 9197SOL     OW27548   2.179   4.858   6.072
 9197SOL    HW127549   2.180   4.930   6.008
 9197SOL    HW227550   2.176   4.779   6.018
 9198SOL     OW27551   2.396   4.241   6.445
 9198SOL    HW127552   2.408   4.299   6.371
 9198SOL    HW227553   2.464   4.266   6.507
 9199SOL     OW27554   3.109   5.079   5.984
 9199SOL    HW127555   3.166   5.148   6.018
 9199SOL    HW227556   3.021   5.103   6.014
 9200SOL     OW27557   3.171   5.193   6.729
 9200SOL    HW127558   3.219   5.199   6.812
 9200SOL    HW227559   3.121   5.112   6.736
 9201SOL     OW27560   3.436   4.336   6.077
 9201SOL    HW127561   3.384   4.382   6.143
 9201SOL    HW227562   3.489   4.404   6.036
 9202SOL     OW27563   2.206   5.257   6.888
 9202SOL    HW127564   2.199   5.204   6.808
 9202SOL    HW227565   2.300   5.273   6.898
 9203SOL     OW27566   2.295   4.470   7.204
 9203SOL    HW127567   2.353   4.514   7.142
 9203SOL    HW227568   2.339   4.387   7.225
 9204SOL     OW27569   3.489   4.510   7.284
 9204SOL    HW127570   3.402   4.549   7.275
 9204SOL    HW227571   3.540   4.548   7.212
 9205SOL     OW27572   2.857   3.865   7.345
 9205SOL    HW127573   2.916   3.938   7.326
 9205SOL    HW227574   2.908   3.787   7.323
 9206SOL     OW27575   2.356   3.759   7.349
 9206SOL    HW127576   2.302   3.709   7.288
 9206SOL    HW227577   2.304   3.836   7.370
 9207SOL     OW27578   2.454   4.599   6.625
 9207SOL    HW127579   2.492   4.687   6.628
 9207SOL    HW227580   2.396   4.595   6.701
 9208SOL     OW27581   3.171   4.575   6.592
 9208SOL    HW127582   3.083   4.549   6.564
 9208SOL    HW227583   3.226   4.500   6.571
 9209SOL     OW27584   3.063   4.246   5.844
 9209SOL    HW127585   3.072   4.169   5.900
 9209SOL    HW227586   3.021   4.311   5.900
 9210SOL     OW27587   2.154   3.917   6.825
 9210SOL    HW127588   2.119   3.946   6.909
 9210SOL    HW227589   2.137   3.823   6.822
 9211SOL     OW27590   1.910   5.036   6.852
 9211SOL    HW127591   1.941   4.980   6.924
 9211SOL    HW227592   1.914   5.125   6.888
 9212SOL     OW27593   2.574   4.346   6.625
 9212SOL    HW127594   2.651   4.339   6.570
 9212SOL    HW227595   2.545   4.437   6.615
 9213SOL     OW27596   3.613   4.691   7.456
 9213SOL    HW127597   3.574   4.619   7.407
 9213SOL    HW227598   3.549   4.712   7.524
 9214SOL     OW27599   2.187   3.783   6.214
 9214SOL    HW127600   2.153   3.871   6.233
 9214SOL    HW227601   2.192   3.742   6.300
 9215SOL     OW27602   3.492   4.110   5.932
 9215SOL    HW127603   3.523   4.044   5.994
 9215SOL    HW227604   3.462   4.182   5.986
 9216SOL     OW27605   2.895   4.482   6.541
 9216SOL    HW127606   2.874   4.497   6.633
 9216SOL    HW227607   2.865   4.393   6.524
 9217SOL     OW27608   2.842   5.288   7.322
 9217SOL    HW127609   2.820   5.333   7.240
 9217SOL    HW227610   2.882   5.206   7.295
 9218SOL     OW27611   3.700   5.219   7.188
 9218SOL    HW127612   3.727   5.247   7.100
 9218SOL    HW227613   3.779   5.230   7.241
 9219SOL     OW27614   2.211   4.642   7.402
 9219SOL    HW127615   2.288   4.660   7.456
 9219SOL    HW227616   2.242   4.580   7.337
 9220SOL     OW27617   3.380   3.992   5.704
 9220SOL    HW127618   3.326   3.922   5.741
 9220SOL    HW227619   3.419   4.035   5.780
 9221SOL     OW27620   3.139   4.548   5.605
 9221SOL    HW127621   3.179   4.462   5.611
 9221SOL    HW227622   3.174   4.585   5.524
 9222SOL     OW27623   2.932   5.077   6.453
 9222SOL    HW127624   2.942   5.005   6.392
 9222SOL    HW227625   2.983   5.149   6.415
 9223SOL     OW27626   2.180   4.540   6.530
 9223SOL    HW127627   2.275   4.554   6.528
 9223SOL    HW227628   2.170   4.450   6.561
 9224SOL     OW27629   2.175   4.262   6.597
 9224SOL    HW127630   2.136   4.175   6.587
 9224SOL    HW227631   2.252   4.260   6.541
 9225SOL     OW27632   3.000   4.091   7.272
 9225SOL    HW127633   2.955   4.143   7.339
 9225SOL    HW227634   3.085   4.134   7.263
 9226SOL     OW27635   3.018   3.913   7.061
 9226SOL    HW127636   3.006   3.975   7.132
 9226SOL    HW227637   3.064   3.963   6.993
 9227SOL     OW27638   1.886   5.027   5.765
 9227SOL    HW127639   1.796   5.049   5.740
 9227SOL    HW227640   1.878   4.941   5.806
 9228SOL     OW27641   1.954   5.494   6.537
 9228SOL    HW127642   1.921   5.421   6.486
 9228SOL    HW227643   2.041   5.511   6.501
 9229SOL     OW27644   2.347   5.294   6.487
 9229SOL    HW127645   2.418   5.354   6.510
 9229SOL    HW227646   2.387   5.232   6.426
 9230SOL     OW27647   2.811   4.505   6.800
 9230SOL    HW127648   2.873   4.493   6.872
 9230SOL    HW227649   2.732   4.459   6.830
 9231SOL     OW27650   1.901   4.296   6.707
 9231SOL    HW127651   1.982   4.293   6.657
 9231SOL    HW227652   1.929   4.288   6.799
 9232SOL     OW27653   2.049   4.263   7.330
 9232SOL    HW127654   2.122   4.231   7.277
 9232SOL    HW227655   2.013   4.336   7.280
 9233SOL     OW27656   3.254   4.645   7.237
 9233SOL    HW127657   3.271   4.739   7.232
 9233SOL    HW227658   3.246   4.617   7.146
 9234SOL     OW27659   2.681   4.292   5.958
 9234SOL    HW127660   2.690   4.218   5.897
 9234SOL    HW227661   2.604   4.339   5.926
 9235SOL     OW27662   3.497   4.325   6.749
 9235SOL    HW127663   3.486   4.266   6.824
 9235SOL    HW227664   3.588   4.313   6.722
 9236SOL     OW27665   2.088   5.264   7.309
 9236SOL    HW127666   2.064   5.312   7.388
 9236SOL    HW227667   2.100   5.174   7.339
 9237SOL     OW27668   2.595   4.157   6.820
 9237SOL    HW127669   2.531   4.088   6.804
 9237SOL    HW227670   2.578   4.221   6.751
 9238SOL     OW27671   2.762   5.405   7.078
 9238SOL    HW127672   2.743   5.356   6.998
 9238SOL    HW227673   2.767   5.497   7.050
 9239SOL     OW27674   2.304   4.205   5.750
 9239SOL    HW127675   2.369   4.271   5.775
 9239SOL    HW227676   2.221   4.251   5.754
 9240SOL     OW27677   1.991   4.874   7.066
 9240SOL    HW127678   1.996   4.835   7.154
 9240SOL    HW227679   2.013   4.803   7.007
 9241SOL     OW27680   3.165   4.758   6.795
 9241SOL    HW127681   3.175   4.694   6.725
 9241SOL    HW227682   3.112   4.828   6.757
 9242SOL     OW27683   3.184   4.582   5.878
 9242SOL    HW127684   3.113   4.545   5.930
 9242SOL    HW227685   3.157   4.569   5.787
 9243SOL     OW27686   3.651   5.448   6.758
 9243SOL    HW127687   3.711   5.474   6.689
 9243SOL    HW227688   3.617   5.363   6.730
 9244SOL     OW27689   3.103   5.459   6.680
 9244SOL    HW127690   3.187   5.488   6.645
 9244SOL    HW227691   3.118   5.367   6.703
 9245SOL     OW27692   1.968   4.972   6.595
 9245SOL    HW127693   1.939   4.993   6.684
 9245SOL    HW227694   1.897   4.918   6.560
 9246SOL     OW27695   2.550   5.408   7.334
 9246SOL    HW127696   2.487   5.478   7.322
 9246SOL    HW227697   2.622   5.429   7.275
 9247SOL     OW27698   3.601   3.903   6.086
 9247SOL    HW127699   3.664   3.882   6.017
 9247SOL    HW227700   3.575   3.818   6.122
 9248SOL     OW27701   3.259   5.294   6.090
 9248SOL    HW127702   3.314   5.328   6.019
 9248SOL    HW227703   3.204   5.368   6.115
 9249SOL     OW27704   1.995   5.531   7.430
 9249SOL    HW127705   1.955   5.454   7.471
 9249SOL    HW227706   2.046   5.572   7.500
 9250SOL     OW27707   3.141   4.662   6.252
 9250SOL    HW127708   3.215   4.602   6.265
 9250SOL    HW227709   3.176   4.732   6.198
 9251SOL     OW27710   2.646   5.004   7.000
 9251SOL    HW127711   2.619   5.051   7.079
 9251SOL    HW227712   2.572   5.014   6.940
 9252SOL     OW27713   2.530   5.361   5.744
 9252SOL    HW127714   2.546   5.374   5.651
 9252SOL    HW227715   2.478   5.280   5.748
 9253SOL     OW27716   3.478   5.453   6.988
 9253SOL    HW127717   3.535   5.453   6.912
 9253SOL    HW227718   3.462   5.546   7.006
 9254SOL     OW27719   3.705   3.884   6.552
 9254SOL    HW127720   3.733   3.796   6.530
 9254SOL    HW227721   3.618   3.892   6.513
 9255SOL     OW27722   2.105   4.030   6.294
 9255SOL    HW127723   2.019   4.066   6.273
 9255SOL    HW227724   2.109   4.032   6.390
 9256SOL     OW27725   3.071   5.311   5.625
 9256SOL    HW127726   3.062   5.219   5.652
 9256SOL    HW227727   3.001   5.323   5.562
 9257SOL     OW27728   2.685   4.735   6.971
 9257SOL    HW127729   2.723   4.726   6.883
 9257SOL    HW227730   2.675   4.830   6.982
 9258SOL     OW27731   2.782   4.635   5.883
 9258SOL    HW127732   2.837   4.667   5.812
 9258SOL    HW227733   2.835   4.567   5.925
 9259SOL     OW27734   3.343   5.373   5.645
 9259SOL    HW127735   3.252   5.351   5.628
 9259SOL    HW227736   3.384   5.376   5.558
 9260SOL     OW27737   2.224   5.037   7.088
 9260SOL    HW127738   2.217   5.110   7.027
 9260SOL    HW227739   2.147   4.984   7.071
 9261SOL     OW27740   3.460   5.014   6.862
 9261SOL    HW127741   3.516   4.990   6.936
 9261SOL    HW227742   3.401   5.081   6.897
 9262SOL     OW27743   2.938   4.844   6.316
 9262SOL    HW127744   2.863   4.794   6.346
 9262SOL    HW227745   3.001   4.778   6.286
 9263SOL     OW27746   2.896   3.974   6.546
 9263SOL    HW127747   2.895   3.931   6.461
 9263SOL    HW227748   2.889   3.902   6.609
 9264SOL     OW27749   2.467   5.211   6.062
 9264SOL    HW127750   2.522   5.161   6.001
 9264SOL    HW227751   2.386   5.227   6.013
 9265SOL     OW27752   3.608   4.105   6.976
 9265SOL    HW127753   3.678   4.169   6.971
 9265SOL    HW227754   3.634   4.036   6.915
 9266SOL     OW27755   2.141   5.065   5.884
 9266SOL    HW127756   2.054   5.057   5.845
 9266SOL    HW227757   2.126   5.113   5.966
 9267SOL     OW27758   1.983   4.771   7.322
 9267SOL    HW127759   1.906   4.742   7.371
 9267SOL    HW227760   2.055   4.719   7.358
 9268SOL     OW27761   2.541   3.912   7.081
 9268SOL    HW127762   2.625   3.887   7.042
 9268SOL    HW227763   2.564   3.946   7.167
 9269SOL     OW27764   1.948   4.042   5.599
 9269SOL    HW127765   1.871   4.022   5.546
 9269SOL    HW227766   1.977   4.128   5.568
 9270SOL     OW27767   3.277   4.578   6.974
 9270SOL    HW127768   3.224   4.636   6.919
 9270SOL    HW227769   3.365   4.582   6.936
 9271SOL     OW27770   1.906   3.873   5.858
 9271SOL    HW127771   1.893   3.943   5.794
 9271SOL    HW227772   1.994   3.841   5.841
 9272SOL     OW27773   3.048   5.044   5.711
 9272SOL    HW127774   2.959   5.009   5.710
 9272SOL    HW227775   3.071   5.049   5.803
 9273SOL     OW27776   2.488   4.556   7.027
 9273SOL    HW127777   2.547   4.630   7.016
 9273SOL    HW227778   2.545   4.479   7.026
 9274SOL     OW27779   3.348   5.527   6.578
 9274SOL    HW127780   3.375   5.602   6.524
 9274SOL    HW227781   3.430   5.481   6.596
 9275SOL     OW27782   2.586   4.272   7.272
 9275SOL    HW127783   2.633   4.326   7.336
 9275SOL    HW227784   2.596   4.183   7.304
 9276SOL     OW27785   3.331   4.908   7.205
 9276SOL    HW127786   3.324   4.931   7.298
 9276SOL    HW227787   3.420   4.932   7.181
 9277SOL     OW27788   2.216   5.471   7.166
 9277SOL    HW127789   2.134   5.517   7.148
 9277SOL    HW227790   2.189   5.388   7.203
 9278SOL     OW27791   3.516   4.599   6.839
 9278SOL    HW127792   3.515   4.515   6.792
 9278SOL    HW227793   3.505   4.665   6.771
 9279SOL     OW27794   3.081   4.045   6.043
 9279SOL    HW127795   3.141   3.971   6.042
 9279SOL    HW227796   3.108   4.098   6.118
 9280SOL     OW27797   2.437   4.450   6.267
 9280SOL    HW127798   2.481   4.534   6.253
 9280SOL    HW227799   2.376   4.442   6.194
 9281SOL     OW27800   3.609   4.078   7.252
 9281SOL    HW127801   3.606   4.094   7.158
 9281SOL    HW227802   3.531   4.026   7.269
 9282SOL     OW27803   3.622   4.648   7.089
 9282SOL    HW127804   3.606   4.741   7.102
 9282SOL    HW227805   3.595   4.631   6.999
 9283SOL     OW27806   2.725   5.082   5.645
 9283SOL    HW127807   2.692   5.103   5.732
 9283SOL    HW227808   2.743   5.167   5.604
 9284SOL     OW27809   2.531   5.490   6.513
 9284SOL    HW127810   2.512   5.583   6.504
 9284SOL    HW227811   2.627   5.485   6.511
 9285SOL     OW27812   2.734   4.701   6.441
 9285SOL    HW127813   2.784   4.627   6.476
 9285SOL    HW227814   2.689   4.738   6.518
 9286SOL     OW27815   2.929   4.708   5.672
 9286SOL    HW127816   2.910   4.762   5.595
 9286SOL    HW227817   3.004   4.655   5.645
 9287SOL     OW27818   3.694   5.282   6.424
 9287SOL    HW127819   3.617   5.273   6.367
 9287SOL    HW227820   3.674   5.227   6.500
 9288SOL     OW27821   2.073   5.010   7.422
 9288SOL    HW127822   2.042   4.930   7.379
 9288SOL    HW227823   2.014   5.022   7.496
 9289SOL     OW27824   1.979   4.947   6.254
 9289SOL    HW127825   2.011   4.906   6.334
 9289SOL    HW227826   2.037   4.915   6.185
 9290SOL     OW27827   2.552   5.143   7.219
 9290SOL    HW127828   2.475   5.104   7.261
 9290SOL    HW227829   2.558   5.231   7.255
 9291SOL     OW27830   3.672   3.893   6.822
 9291SOL    HW127831   3.675   3.799   6.834
 9291SOL    HW227832   3.685   3.906   6.728
 9292SOL     OW27833   2.279   4.147   6.104
 9292SOL    HW127834   2.314   4.076   6.049
 9292SOL    HW227835   2.228   4.102   6.171
 9293SOL     OW27836   3.556   5.206   6.668
 9293SOL    HW127837   3.478   5.187   6.615
 9293SOL    HW227838   3.555   5.137   6.735
 9294SOL     OW27839   2.214   4.290   6.877
 9294SOL    HW127840   2.264   4.225   6.928
 9294SOL    HW227841   2.222   4.261   6.787
 9295SOL     OW27842   2.700   5.310   6.256
 9295SOL    HW127843   2.671   5.380   6.197
 9295SOL    HW227844   2.624   5.252   6.262
 9296SOL     OW27845   3.283   3.958   6.701
 9296SOL    HW127846   3.293   3.868   6.734
 9296SOL    HW227847   3.237   4.004   6.771
 9297SOL     OW27848   2.872   3.741   6.705
 9297SOL    HW127849   2.819   3.679   6.656
 9297SOL    HW227850   2.959   3.701   6.709
 9298SOL     OW27851   2.642   5.057   5.916
 9298SOL    HW127852   2.618   4.965   5.926
 9298SOL    HW227853   2.723   5.067   5.966
 9299SOL     OW27854   2.477   5.294   6.874
 9299SOL    HW127855   2.472   5.378   6.919
 9299SOL    HW227856   2.567   5.289   6.841
 9300SOL     OW27857   3.240   3.763   5.780
 9300SOL    HW127858   3.280   3.692   5.730
 9300SOL    HW227859   3.148   3.736   5.791
 9301SOL     OW27860   3.154   4.196   6.260
 9301SOL    HW127861   3.104   4.278   6.259
 9301SOL    HW227862   3.152   4.168   6.351
 9302SOL     OW27863   3.443   3.913   6.478
 9302SOL    HW127864   3.391   3.943   6.553
 9302SOL    HW227865   3.443   3.987   6.418
 9303SOL     OW27866   1.899   4.775   5.894
 9303SOL    HW127867   1.992   4.764   5.876
 9303SOL    HW227868   1.867   4.687   5.914
 9304SOL     OW27869   2.757   5.399   5.916
 9304SOL    HW127870   2.679   5.384   5.863
 9304SOL    HW227871   2.731   5.468   5.977
 9305SOL     OW27872   2.070   4.346   7.596
 9305SOL    HW127873   1.982   4.333   7.632
 9305SOL    HW227874   2.059   4.332   7.502
 9306SOL     OW27875   2.081   4.012   8.438
 9306SOL    HW127876   2.111   3.977   8.521
 9306SOL    HW227877   1.994   3.975   8.426
 9307SOL     OW27878   1.849   4.120   8.094
 9307SOL    HW127879   1.769   4.145   8.141
 9307SOL    HW227880   1.822   4.046   8.039
 9308SOL     OW27881   2.437   5.032   8.657
 9308SOL    HW127882   2.355   5.035   8.608
 9308SOL    HW227883   2.454   5.123   8.680
 9309SOL     OW27884   3.450   5.248   8.153
 9309SOL    HW127885   3.403   5.217   8.230
 9309SOL    HW227886   3.383   5.252   8.084
 9310SOL     OW27887   3.000   4.428   8.134
 9310SOL    HW127888   3.046   4.511   8.123
 9310SOL    HW227889   2.951   4.439   8.216
 9311SOL     OW27890   3.663   4.305   7.668
 9311SOL    HW127891   3.624   4.305   7.580
 9311SOL    HW227892   3.618   4.234   7.714
 9312SOL     OW27893   2.588   4.854   8.505
 9312SOL    HW127894   2.530   4.894   8.570
 9312SOL    HW227895   2.631   4.927   8.461
 9313SOL     OW27896   2.750   4.468   9.275
 9313SOL    HW127897   2.751   4.536   9.342
 9313SOL    HW227898   2.765   4.515   9.193
 9314SOL     OW27899   2.547   4.709   8.092
 9314SOL    HW127900   2.615   4.709   8.160
 9314SOL    HW227901   2.481   4.771   8.124
 9315SOL     OW27902   2.574   4.876   9.273
 9315SOL    HW127903   2.626   4.949   9.307
 9315SOL    HW227904   2.497   4.917   9.234
 9316SOL     OW27905   2.205   5.121   8.517
 9316SOL    HW127906   2.129   5.078   8.477
 9316SOL    HW227907   2.241   5.176   8.448
 9317SOL     OW27908   3.316   5.231   8.819
 9317SOL    HW127909   3.371   5.308   8.831
 9317SOL    HW227910   3.244   5.242   8.882
 9318SOL     OW27911   2.319   4.098   8.904
 9318SOL    HW127912   2.394   4.040   8.919
 9318SOL    HW227913   2.243   4.046   8.930
 9319SOL     OW27914   3.446   4.156   8.203
 9319SOL    HW127915   3.380   4.166   8.135
 9319SOL    HW227916   3.428   4.226   8.265
 9320SOL     OW27917   2.080   5.452   7.913
 9320SOL    HW127918   2.107   5.523   7.971
 9320SOL    HW227919   2.154   5.441   7.853
 9321SOL     OW27920   2.997   5.067   9.142
 9321SOL    HW127921   3.040   5.057   9.226
 9321SOL    HW227922   2.945   4.987   9.132
 9322SOL     OW27923   2.093   5.181   7.981
 9322SOL    HW127924   2.073   5.275   7.984
 9322SOL    HW227925   2.044   5.143   8.053
 9323SOL     OW27926   2.146   4.813   8.326
 9323SOL    HW127927   2.147   4.724   8.360
 9323SOL    HW227928   2.090   4.861   8.387
 9324SOL     OW27929   2.436   5.529   8.867
 9324SOL    HW127930   2.360   5.508   8.921
 9324SOL    HW227931   2.469   5.612   8.902
 9325SOL     OW27932   2.427   4.712   7.600
 9325SOL    HW127933   2.478   4.754   7.531
 9325SOL    HW227934   2.468   4.741   7.682
 9326SOL     OW27935   3.453   3.857   8.905
 9326SOL    HW127936   3.491   3.935   8.863
 9326SOL    HW227937   3.420   3.889   8.989
 9327SOL     OW27938   1.980   4.383   8.015
 9327SOL    HW127939   1.949   4.295   8.039
 9327SOL    HW227940   1.975   4.433   8.096
 9328SOL     OW27941   3.708   5.467   7.766
 9328SOL    HW127942   3.781   5.452   7.827
 9328SOL    HW227943   3.716   5.560   7.743
 9329SOL     OW27944   1.921   5.304   7.559
 9329SOL    HW127945   1.901   5.213   7.577
 9329SOL    HW227946   1.890   5.352   7.635
 9330SOL     OW27947   3.559   4.650   8.100
 9330SOL    HW127948   3.640   4.605   8.075
 9330SOL    HW227949   3.537   4.703   8.023
 9331SOL     OW27950   3.518   4.829   7.881
 9331SOL    HW127951   3.603   4.821   7.837
 9331SOL    HW227952   3.533   4.895   7.949
 9332SOL     OW27953   1.983   4.473   9.026
 9332SOL    HW127954   2.068   4.516   9.030
 9332SOL    HW227955   1.920   4.544   9.014
 9333SOL     OW27956   2.484   5.122   8.179
 9333SOL    HW127957   2.443   5.036   8.183
 9333SOL    HW227958   2.469   5.151   8.089
 9334SOL     OW27959   3.133   4.950   8.865
 9334SOL    HW127960   3.161   4.881   8.805
 9334SOL    HW227961   3.194   4.945   8.938
 9335SOL     OW27962   2.693   3.735   7.967
 9335SOL    HW127963   2.733   3.817   7.939
 9335SOL    HW227964   2.599   3.753   7.967
 9336SOL     OW27965   2.049   4.680   8.749
 9336SOL    HW127966   2.136   4.645   8.733
 9336SOL    HW227967   1.995   4.645   8.678
 9337SOL     OW27968   3.397   4.739   7.647
 9337SOL    HW127969   3.328   4.679   7.677
 9337SOL    HW227970   3.439   4.769   7.728
 9338SOL     OW27971   3.038   5.547   9.084
 9338SOL    HW127972   3.041   5.609   9.011
 9338SOL    HW227973   3.057   5.462   9.044
 9339SOL     OW27974   2.222   3.978   9.323
 9339SOL    HW127975   2.258   4.057   9.363
 9339SOL    HW227976   2.128   3.994   9.319
 9340SOL     OW27977   3.334   5.142   8.378
 9340SOL    HW127978   3.270   5.161   8.447
 9340SOL    HW227979   3.317   5.051   8.354
 9341SOL     OW27980   3.499   5.520   8.010
 9341SOL    HW127981   3.483   5.474   7.928
 9341SOL    HW227982   3.499   5.451   8.077
 9342SOL     OW27983   2.449   4.423   7.720
 9342SOL    HW127984   2.453   4.511   7.681
 9342SOL    HW227985   2.384   4.430   7.790
 9343SOL     OW27986   3.144   4.117   8.389
 9343SOL    HW127987   3.055   4.082   8.394
 9343SOL    HW227988   3.196   4.059   8.444
 9344SOL     OW27989   3.441   5.397   7.767
 9344SOL    HW127990   3.535   5.412   7.756
 9344SOL    HW227991   3.408   5.385   7.678
 9345SOL     OW27992   2.651   4.337   8.879
 9345SOL    HW127993   2.628   4.308   8.967
 9345SOL    HW227994   2.627   4.264   8.823
 9346SOL     OW27995   3.254   4.199   9.118
 9346SOL    HW127996   3.258   4.243   9.203
 9346SOL    HW227997   3.303   4.118   9.131
 9347SOL     OW27998   2.806   4.604   9.039
 9347SOL    HW127999   2.862   4.541   8.995
 9347SOL    HW228000   2.758   4.647   8.969
 9348SOL     OW28001   2.869   4.121   8.657
 9348SOL    HW128002   2.777   4.135   8.680
 9348SOL    HW228003   2.867   4.078   8.571
 9349SOL     OW28004   2.920   4.421   7.866
 9349SOL    HW128005   2.941   4.418   7.960
 9349SOL    HW228006   2.836   4.377   7.859
 9350SOL     OW28007   1.954   4.549   8.231
 9350SOL    HW128008   2.037   4.543   8.280
 9350SOL    HW228009   1.907   4.621   8.273
 9351SOL     OW28010   1.972   5.603   9.040
 9351SOL    HW128011   1.981   5.581   9.133
 9351SOL    HW228012   1.887   5.566   9.015
 9352SOL     OW28013   2.751   4.074   7.648
 9352SOL    HW128014   2.802   4.129   7.588
 9352SOL    HW228015   2.730   3.996   7.597
 9353SOL     OW28016   3.544   4.285   9.285
 9353SOL    HW128017   3.524   4.364   9.235
 9353SOL    HW228018   3.574   4.221   9.219
 9354SOL     OW28019   3.255   4.873   7.991
 9354SOL    HW128020   3.334   4.862   7.939
 9354SOL    HW228021   3.201   4.934   7.940
 9355SOL     OW28022   2.413   3.885   8.363
 9355SOL    HW128023   2.419   3.913   8.454
 9355SOL    HW228024   2.409   3.966   8.313
 9356SOL     OW28025   2.859   5.180   7.913
 9356SOL    HW128026   2.835   5.254   7.858
 9356SOL    HW228027   2.829   5.204   8.001
 9357SOL     OW28028   2.216   5.540   8.328
 9357SOL    HW128029   2.261   5.456   8.332
 9357SOL    HW228030   2.283   5.605   8.350
 9358SOL     OW28031   3.666   4.767   8.337
 9358SOL    HW128032   3.618   4.752   8.255
 9358SOL    HW228033   3.597   4.776   8.403
 9359SOL     OW28034   3.080   5.269   8.964
 9359SOL    HW128035   3.069   5.197   9.027
 9359SOL    HW228036   3.012   5.254   8.898
 9360SOL     OW28037   2.162   4.683   7.713
 9360SOL    HW128038   2.245   4.704   7.670
 9360SOL    HW228039   2.139   4.596   7.681
 9361SOL     OW28040   3.346   4.487   8.159
 9361SOL    HW128041   3.349   4.444   8.244
 9361SOL    HW228042   3.426   4.541   8.157
 9362SOL     OW28043   2.333   5.010   9.196
 9362SOL    HW128044   2.309   5.014   9.103
 9362SOL    HW228045   2.250   5.000   9.242
 9363SOL     OW28046   3.001   5.500   7.675
 9363SOL    HW128047   2.919   5.469   7.713
 9363SOL    HW228048   3.021   5.435   7.607
 9364SOL     OW28049   2.070   3.979   8.947
 9364SOL    HW128050   1.997   4.039   8.963
 9364SOL    HW228051   2.040   3.895   8.982
 9365SOL     OW28052   3.500   5.112   7.549
 9365SOL    HW128053   3.460   5.198   7.535
 9365SOL    HW228054   3.434   5.049   7.522
 9366SOL     OW28055   2.321   5.465   7.763
 9366SOL    HW128056   2.370   5.516   7.828
 9366SOL    HW228057   2.388   5.425   7.708
 9367SOL     OW28058   3.259   3.829   7.907
 9367SOL    HW128059   3.258   3.805   7.814
 9367SOL    HW228060   3.350   3.818   7.934
 9368SOL     OW28061   2.113   5.512   8.662
 9368SOL    HW128062   2.163   5.438   8.697
 9368SOL    HW228063   2.101   5.492   8.570
 9369SOL     OW28064   2.810   5.426   8.338
 9369SOL    HW128065   2.895   5.385   8.352
 9369SOL    HW228066   2.771   5.376   8.267
 9370SOL     OW28067   2.257   4.409   7.921
 9370SOL    HW128068   2.269   4.315   7.933
 9370SOL    HW228069   2.164   4.424   7.938
 9371SOL     OW28070   3.369   3.944   9.163
 9371SOL    HW128071   3.382   3.965   9.255
 9371SOL    HW228072   3.305   3.874   9.162
 9372SOL     OW28073   2.525   3.833   7.551
 9372SOL    HW128074   2.573   3.755   7.576
 9372SOL    HW228075   2.463   3.803   7.484
 9373SOL     OW28076   2.619   3.996   9.201
 9373SOL    HW128077   2.704   3.951   9.200
 9373SOL    HW228078   2.573   3.958   9.276
 9374SOL     OW28079   2.731   5.251   8.647
 9374SOL    HW128080   2.713   5.209   8.563
 9374SOL    HW228081   2.798   5.195   8.687
 9375SOL     OW28082   3.192   4.316   8.879
 9375SOL    HW128083   3.225   4.285   8.963
 9375SOL    HW228084   3.231   4.403   8.868
 9376SOL     OW28085   2.678   5.100   8.404
 9376SOL    HW128086   2.765   5.096   8.366
 9376SOL    HW228087   2.620   5.116   8.330
 9377SOL     OW28088   2.792   4.239   8.336
 9377SOL    HW128089   2.767   4.227   8.244
 9377SOL    HW228090   2.820   4.152   8.364
 9378SOL     OW28091   2.426   3.787   7.938
 9378SOL    HW128092   2.348   3.788   7.994
 9378SOL    HW228093   2.414   3.862   7.880
 9379SOL     OW28094   3.297   4.937   7.480
 9379SOL    HW128095   3.326   4.863   7.533
 9379SOL    HW228096   3.211   4.960   7.516
 9380SOL     OW28097   2.144   3.772   7.636
 9380SOL    HW128098   2.197   3.839   7.593
 9380SOL    HW228099   2.208   3.714   7.678
 9381SOL     OW28100   2.813   3.974   7.899
 9381SOL    HW128101   2.788   4.010   7.813
 9381SOL    HW228102   2.907   3.991   7.905
 9382SOL     OW28103   2.937   4.418   8.892
 9382SOL    HW128104   2.875   4.345   8.897
 9382SOL    HW228105   3.023   4.375   8.888
 9383SOL     OW28106   3.067   5.311   8.250
 9383SOL    HW128107   3.082   5.371   8.177
 9383SOL    HW228108   3.141   5.327   8.310
 9384SOL     OW28109   2.344   4.885   8.156
 9384SOL    HW128110   2.282   4.861   8.224
 9384SOL    HW228111   2.294   4.879   8.074
 9385SOL     OW28112   3.113   5.516   8.065
 9385SOL    HW128113   3.163   5.579   8.012
 9385SOL    HW228114   3.042   5.568   8.104
 9386SOL     OW28115   2.894   4.239   7.478
 9386SOL    HW128116   2.851   4.323   7.459
 9386SOL    HW228117   2.958   4.260   7.546
 9387SOL     OW28118   1.962   4.275   8.839
 9387SOL    HW128119   2.054   4.277   8.813
 9387SOL    HW228120   1.954   4.344   8.905
 9388SOL     OW28121   2.421   3.945   8.633
 9388SOL    HW128122   2.458   3.881   8.693
 9388SOL    HW228123   2.328   3.946   8.653
 9389SOL     OW28124   2.732   4.178   8.078
 9389SOL    HW128125   2.692   4.234   8.011
 9389SOL    HW228126   2.757   4.099   8.031
 9390SOL     OW28127   2.884   3.783   8.188
 9390SOL    HW128128   2.823   3.777   8.114
 9390SOL    HW228129   2.859   3.710   8.245
 9391SOL     OW28130   3.297   4.878   8.302
 9391SOL    HW128131   3.226   4.813   8.311
 9391SOL    HW228132   3.312   4.884   8.208
 9392SOL     OW28133   3.325   4.340   8.396
 9392SOL    HW128134   3.261   4.270   8.407
 9392SOL    HW228135   3.380   4.334   8.474
 9393SOL     OW28136   3.691   4.520   7.836
 9393SOL    HW128137   3.751   4.476   7.896
 9393SOL    HW228138   3.677   4.457   7.766
 9394SOL     OW28139   2.360   5.149   7.598
 9394SOL    HW128140   2.285   5.117   7.648
 9394SOL    HW228141   2.357   5.099   7.516
 9395SOL     OW28142   3.569   4.995   8.083
 9395SOL    HW128143   3.662   4.988   8.103
 9395SOL    HW228144   3.545   5.085   8.107
 9396SOL     OW28145   3.254   4.300   7.513
 9396SOL    HW128146   3.199   4.273   7.586
 9396SOL    HW228147   3.343   4.277   7.541
 9397SOL     OW28148   2.389   3.981   7.750
 9397SOL    HW128149   2.443   3.939   7.683
 9397SOL    HW228150   2.357   4.061   7.709
 9398SOL     OW28151   3.597   4.967   8.979
 9398SOL    HW128152   3.685   4.933   8.966
 9398SOL    HW228153   3.610   5.054   9.017
 9399SOL     OW28154   2.903   5.079   8.783
 9399SOL    HW128155   2.826   5.044   8.828
 9399SOL    HW228156   2.977   5.034   8.824
 9400SOL     OW28157   3.470   5.359   9.113
 9400SOL    HW128158   3.461   5.395   9.024
 9400SOL    HW228159   3.547   5.303   9.108
 9401SOL     OW28160   3.013   4.962   8.553
 9401SOL    HW128161   2.952   4.995   8.618
 9401SOL    HW228162   2.980   4.994   8.469
 9402SOL     OW28163   3.472   4.816   8.525
 9402SOL    HW128164   3.464   4.882   8.593
 9402SOL    HW228165   3.402   4.837   8.463
 9403SOL     OW28166   2.780   3.806   8.831
 9403SOL    HW128167   2.802   3.791   8.738
 9403SOL    HW228168   2.859   3.846   8.867
 9404SOL     OW28169   2.843   4.839   9.171
 9404SOL    HW128170   2.753   4.856   9.197
 9404SOL    HW228171   2.839   4.758   9.120
 9405SOL     OW28172   2.576   4.786   7.824
 9405SOL    HW128173   2.561   4.760   7.915
 9405SOL    HW228174   2.650   4.733   7.796
 9406SOL     OW28175   2.288   4.552   8.707
 9406SOL    HW128176   2.356   4.562   8.774
 9406SOL    HW228177   2.258   4.461   8.717
 9407SOL     OW28178   3.126   4.092   8.739
 9407SOL    HW128179   3.154   4.172   8.783
 9407SOL    HW228180   3.037   4.110   8.710
 9408SOL     OW28181   1.940   5.293   8.809
 9408SOL    HW128182   1.910   5.365   8.753
 9408SOL    HW228183   2.035   5.293   8.799
 9409SOL     OW28184   2.179   4.858   7.934
 9409SOL    HW128185   2.180   4.930   7.871
 9409SOL    HW228186   2.176   4.779   7.880
 9410SOL     OW28187   2.396   4.240   8.307
 9410SOL    HW128188   2.408   4.299   8.232
 9410SOL    HW228189   2.464   4.266   8.369
 9411SOL     OW28190   3.109   5.078   7.846
 9411SOL    HW128191   3.165   5.148   7.880
 9411SOL    HW228192   3.021   5.102   7.876
 9412SOL     OW28193   3.171   5.193   8.590
 9412SOL    HW128194   3.218   5.199   8.673
 9412SOL    HW228195   3.120   5.112   8.598
 9413SOL     OW28196   3.437   4.341   7.934
 9413SOL    HW128197   3.386   4.382   8.003
 9413SOL    HW228198   3.486   4.413   7.894
 9414SOL     OW28199   2.207   5.257   8.750
 9414SOL    HW128200   2.199   5.204   8.670
 9414SOL    HW228201   2.300   5.273   8.760
 9415SOL     OW28202   2.293   4.471   9.065
 9415SOL    HW128203   2.352   4.514   9.004
 9415SOL    HW228204   2.336   4.388   9.086
 9416SOL     OW28205   3.488   4.512   9.148
 9416SOL    HW128206   3.401   4.550   9.138
 9416SOL    HW228207   3.539   4.550   9.077
 9417SOL     OW28208   2.857   3.866   9.210
 9417SOL    HW128209   2.915   3.939   9.189
 9417SOL    HW228210   2.908   3.788   9.187
 9418SOL     OW28211   2.358   3.759   9.211
 9418SOL    HW128212   2.304   3.709   9.150
 9418SOL    HW228213   2.306   3.836   9.232
 9419SOL     OW28214   2.454   4.599   8.487
 9419SOL    HW128215   2.491   4.687   8.490
 9419SOL    HW228216   2.396   4.595   8.563
 9420SOL     OW28217   3.170   4.577   8.451
 9420SOL    HW128218   3.082   4.550   8.425
 9420SOL    HW228219   3.225   4.501   8.432
 9421SOL     OW28220   3.061   4.247   7.705
 9421SOL    HW128221   3.071   4.170   7.762
 9421SOL    HW228222   3.019   4.312   7.761
 9422SOL     OW28223   2.154   3.917   8.687
 9422SOL    HW128224   2.119   3.946   8.772
 9422SOL    HW228225   2.137   3.823   8.684
 9423SOL     OW28226   1.911   5.036   8.713
 9423SOL    HW128227   1.941   4.980   8.786
 9423SOL    HW228228   1.914   5.124   8.749
 9424SOL     OW28229   2.574   4.346   8.487
 9424SOL    HW128230   2.651   4.339   8.432
 9424SOL    HW228231   2.545   4.437   8.477
 9425SOL     OW28232   3.617   4.695   9.317
 9425SOL    HW128233   3.573   4.623   9.272
 9425SOL    HW228234   3.560   4.718   9.389
 9426SOL     OW28235   2.187   3.784   8.076
 9426SOL    HW128236   2.153   3.871   8.094
 9426SOL    HW228237   2.193   3.742   8.162
 9427SOL     OW28238   3.494   4.114   7.792
 9427SOL    HW128239   3.526   4.049   7.854
 9427SOL    HW228240   3.464   4.187   7.847
 9428SOL     OW28241   2.896   4.482   8.404
 9428SOL    HW128242   2.874   4.497   8.496
 9428SOL    HW228243   2.866   4.393   8.386
 9429SOL     OW28244   2.842   5.291   9.181
 9429SOL    HW128245   2.822   5.334   9.098
 9429SOL    HW228246   2.882   5.208   9.156
 9430SOL     OW28247   3.700   5.218   9.048
 9430SOL    HW128248   3.727   5.246   8.961
 9430SOL    HW228249   3.778   5.229   9.102
 9431SOL     OW28250   2.212   4.640   9.267
 9431SOL    HW128251   2.291   4.660   9.317
 9431SOL    HW228252   2.241   4.578   9.200
 9432SOL     OW28253   3.383   3.992   7.567
 9432SOL    HW128254   3.331   3.921   7.605
 9432SOL    HW228255   3.422   4.036   7.642
 9433SOL     OW28256   3.143   4.546   7.467
 9433SOL    HW128257   3.183   4.459   7.474
 9433SOL    HW228258   3.179   4.582   7.386
 9434SOL     OW28259   2.932   5.077   8.315
 9434SOL    HW128260   2.943   5.004   8.253
 9434SOL    HW228261   2.984   5.148   8.277
 9435SOL     OW28262   2.180   4.540   8.392
 9435SOL    HW128263   2.275   4.554   8.390
 9435SOL    HW228264   2.170   4.450   8.423
 9436SOL     OW28265   2.175   4.262   8.459
 9436SOL    HW128266   2.136   4.175   8.449
 9436SOL    HW228267   2.252   4.260   8.403
 9437SOL     OW28268   3.000   4.092   9.133
 9437SOL    HW128269   2.955   4.144   9.199
 9437SOL    HW228270   3.085   4.134   9.123
 9438SOL     OW28271   3.017   3.914   8.922
 9438SOL    HW128272   3.006   3.976   8.994
 9438SOL    HW228273   3.064   3.963   8.854
 9439SOL     OW28274   1.886   5.027   7.628
 9439SOL    HW128275   1.796   5.049   7.602
 9439SOL    HW228276   1.879   4.941   7.668
 9440SOL     OW28277   1.954   5.495   8.398
 9440SOL    HW128278   1.921   5.421   8.347
 9440SOL    HW228279   2.042   5.511   8.362
 9441SOL     OW28280   2.347   5.294   8.349
 9441SOL    HW128281   2.418   5.354   8.372
 9441SOL    HW228282   2.387   5.232   8.288
 9442SOL     OW28283   2.810   4.505   8.662
 9442SOL    HW128284   2.872   4.493   8.734
 9442SOL    HW228285   2.731   4.460   8.691
 9443SOL     OW28286   1.901   4.296   8.569
 9443SOL    HW128287   1.983   4.293   8.519
 9443SOL    HW228288   1.929   4.288   8.660
 9444SOL     OW28289   2.049   4.259   9.187
 9444SOL    HW128290   2.119   4.225   9.131
 9444SOL    HW228291   2.014   4.334   9.139
 9445SOL     OW28292   3.253   4.645   9.098
 9445SOL    HW128293   3.270   4.739   9.094
 9445SOL    HW228294   3.246   4.617   9.007
 9446SOL     OW28295   2.680   4.292   7.820
 9446SOL    HW128296   2.689   4.218   7.760
 9446SOL    HW228297   2.603   4.340   7.788
 9447SOL     OW28298   3.497   4.326   8.611
 9447SOL    HW128299   3.486   4.267   8.685
 9447SOL    HW228300   3.588   4.314   8.583
 9448SOL     OW28301   2.087   5.267   9.168
 9448SOL    HW128302   2.068   5.323   9.244
 9448SOL    HW228303   2.097   5.179   9.206
 9449SOL     OW28304   2.596   4.157   8.682
 9449SOL    HW128305   2.532   4.087   8.667
 9449SOL    HW228306   2.578   4.221   8.613
 9450SOL     OW28307   2.768   5.404   8.935
 9450SOL    HW128308   2.745   5.356   8.855
 9450SOL    HW228309   2.770   5.495   8.908
 9451SOL     OW28310   2.305   4.205   7.612
 9451SOL    HW128311   2.369   4.271   7.637
 9451SOL    HW228312   2.221   4.251   7.616
 9452SOL     OW28313   1.991   4.874   8.928
 9452SOL    HW128314   1.996   4.835   9.015
 9452SOL    HW228315   2.013   4.802   8.869
 9453SOL     OW28316   3.166   4.758   8.656
 9453SOL    HW128317   3.175   4.695   8.585
 9453SOL    HW228318   3.113   4.828   8.619
 9454SOL     OW28319   3.188   4.584   7.739
 9454SOL    HW128320   3.117   4.549   7.793
 9454SOL    HW228321   3.159   4.569   7.649
 9455SOL     OW28322   3.649   5.448   8.618
 9455SOL    HW128323   3.711   5.474   8.549
 9455SOL    HW228324   3.617   5.362   8.590
 9456SOL     OW28325   3.102   5.458   8.539
 9456SOL    HW128326   3.187   5.488   8.505
 9456SOL    HW228327   3.117   5.366   8.563
 9457SOL     OW28328   1.968   4.972   8.457
 9457SOL    HW128329   1.940   4.993   8.546
 9457SOL    HW228330   1.897   4.918   8.421
 9458SOL     OW28331   2.550   5.407   9.201
 9458SOL    HW128332   2.488   5.478   9.187
 9458SOL    HW228333   2.625   5.429   9.145
 9459SOL     OW28334   3.606   3.908   7.944
 9459SOL    HW128335   3.665   3.888   7.872
 9459SOL    HW228336   3.579   3.822   7.978
 9460SOL     OW28337   3.259   5.294   7.951
 9460SOL    HW128338   3.314   5.328   7.881
 9460SOL    HW228339   3.204   5.368   7.977
 9461SOL     OW28340   2.003   5.525   9.296
 9461SOL    HW128341   1.957   5.454   9.340
 9461SOL    HW228342   2.052   5.569   9.365
 9462SOL     OW28343   3.141   4.660   8.112
 9462SOL    HW128344   3.214   4.601   8.125
 9462SOL    HW228345   3.177   4.732   8.059
 9463SOL     OW28346   2.645   5.004   8.862
 9463SOL    HW128347   2.618   5.052   8.940
 9463SOL    HW228348   2.571   5.014   8.802
 9464SOL     OW28349   2.530   5.360   7.606
 9464SOL    HW128350   2.545   5.374   7.513
 9464SOL    HW228351   2.478   5.280   7.610
 9465SOL     OW28352   3.477   5.455   8.846
 9465SOL    HW128353   3.535   5.455   8.770
 9465SOL    HW228354   3.462   5.547   8.865
 9466SOL     OW28355   3.707   3.884   8.412
 9466SOL    HW128356   3.735   3.795   8.391
 9466SOL    HW228357   3.620   3.891   8.374
 9467SOL     OW28358   2.105   4.030   8.156
 9467SOL    HW128359   2.019   4.067   8.135
 9467SOL    HW228360   2.109   4.032   8.252
 9468SOL     OW28361   3.072   5.312   7.486
 9468SOL    HW128362   3.062   5.221   7.514
 9468SOL    HW228363   3.002   5.326   7.422
 9469SOL     OW28364   2.685   4.735   8.832
 9469SOL    HW128365   2.722   4.727   8.745
 9469SOL    HW228366   2.674   4.830   8.845
 9470SOL     OW28367   2.782   4.635   7.744
 9470SOL    HW128368   2.838   4.667   7.673
 9470SOL    HW228369   2.834   4.567   7.787
 9471SOL     OW28370   3.346   5.369   7.506
 9471SOL    HW128371   3.254   5.349   7.489
 9471SOL    HW228372   3.386   5.372   7.419
 9472SOL     OW28373   2.224   5.036   8.949
 9472SOL    HW128374   2.216   5.110   8.888
 9472SOL    HW228375   2.146   4.984   8.933
 9473SOL     OW28376   3.461   5.014   8.725
 9473SOL    HW128377   3.515   4.989   8.800
 9473SOL    HW228378   3.402   5.081   8.759
 9474SOL     OW28379   2.939   4.844   8.178
 9474SOL    HW128380   2.863   4.794   8.209
 9474SOL    HW228381   3.001   4.777   8.148
 9475SOL     OW28382   2.895   3.973   8.408
 9475SOL    HW128383   2.894   3.931   8.322
 9475SOL    HW228384   2.888   3.901   8.471
 9476SOL     OW28385   2.466   5.211   7.923
 9476SOL    HW128386   2.521   5.161   7.862
 9476SOL    HW228387   2.385   5.227   7.875
 9477SOL     OW28388   3.608   4.105   8.836
 9477SOL    HW128389   3.678   4.170   8.832
 9477SOL    HW228390   3.634   4.037   8.775
 9478SOL     OW28391   2.141   5.065   7.747
 9478SOL    HW128392   2.055   5.057   7.707
 9478SOL    HW228393   2.127   5.113   7.828
 9479SOL     OW28394   1.986   4.772   9.184
 9479SOL    HW128395   1.908   4.745   9.232
 9479SOL    HW228396   2.057   4.720   9.221
 9480SOL     OW28397   2.541   3.912   8.943
 9480SOL    HW128398   2.625   3.888   8.905
 9480SOL    HW228399   2.563   3.946   9.030
 9481SOL     OW28400   1.948   4.042   7.461
 9481SOL    HW128401   1.871   4.021   7.408
 9481SOL    HW228402   1.976   4.128   7.430
 9482SOL     OW28403   3.278   4.578   8.835
 9482SOL    HW128404   3.225   4.637   8.780
 9482SOL    HW228405   3.366   4.583   8.798
 9483SOL     OW28406   1.905   3.873   7.720
 9483SOL    HW128407   1.893   3.943   7.656
 9483SOL    HW228408   1.994   3.841   7.703
 9484SOL     OW28409   3.045   5.046   7.571
 9484SOL    HW128410   2.954   5.016   7.570
 9484SOL    HW228411   3.068   5.049   7.664
 9485SOL     OW28412   2.487   4.556   8.890
 9485SOL    HW128413   2.546   4.630   8.878
 9485SOL    HW228414   2.545   4.479   8.889
 9486SOL     OW28415   3.349   5.527   8.441
 9486SOL    HW128416   3.375   5.601   8.386
 9486SOL    HW228417   3.431   5.483   8.462
 9487SOL     OW28418   2.586   4.272   9.135
 9487SOL    HW128419   2.632   4.326   9.198
 9487SOL    HW228420   2.596   4.182   9.168
 9488SOL     OW28421   3.330   4.908   9.069
 9488SOL    HW128422   3.324   4.928   9.162
 9488SOL    HW228423   3.420   4.932   9.045
 9489SOL     OW28424   2.217   5.472   9.026
 9489SOL    HW128425   2.135   5.519   9.010
 9489SOL    HW228426   2.190   5.388   9.062
 9490SOL     OW28427   3.518   4.600   8.701
 9490SOL    HW128428   3.516   4.516   8.654
 9490SOL    HW228429   3.507   4.666   8.633
 9491SOL     OW28430   3.082   4.046   7.904
 9491SOL    HW128431   3.142   3.972   7.903
 9491SOL    HW228432   3.111   4.099   7.979
 9492SOL     OW28433   2.438   4.450   8.129
 9492SOL    HW128434   2.481   4.534   8.114
 9492SOL    HW228435   2.377   4.441   8.056
 9493SOL     OW28436   3.609   4.076   9.111
 9493SOL    HW128437   3.606   4.093   9.017
 9493SOL    HW228438   3.531   4.023   9.129
 9494SOL     OW28439   3.622   4.648   8.952
 9494SOL    HW128440   3.605   4.741   8.966
 9494SOL    HW228441   3.595   4.631   8.862
 9495SOL     OW28442   2.733   5.081   7.510
 9495SOL    HW128443   2.695   5.101   7.596
 9495SOL    HW228444   2.744   5.167   7.469
 9496SOL     OW28445   2.531   5.490   8.374
 9496SOL    HW128446   2.512   5.584   8.366
 9496SOL    HW228447   2.626   5.485   8.372
 9497SOL     OW28448   2.734   4.701   8.304
 9497SOL    HW128449   2.784   4.628   8.339
 9497SOL    HW228450   2.689   4.738   8.380
 9498SOL     OW28451   2.933   4.707   7.534
 9498SOL    HW128452   2.913   4.761   7.458
 9498SOL    HW228453   3.008   4.653   7.506
 9499SOL     OW28454   3.692   5.282   8.288
 9499SOL    HW128455   3.615   5.274   8.231
 9499SOL    HW228456   3.669   5.231   8.365
 9500SOL     OW28457   2.072   5.014   9.284
 9500SOL    HW128458   2.042   4.934   9.242
 9500SOL    HW228459   2.011   5.029   9.355
 9501SOL     OW28460   1.979   4.948   8.116
 9501SOL    HW128461   2.010   4.906   8.196
 9501SOL    HW228462   2.038   4.915   8.047
 9502SOL     OW28463   2.549   5.145   9.078
 9502SOL    HW128464   2.473   5.106   9.120
 9502SOL    HW228465   2.556   5.232   9.117
 9503SOL     OW28466   3.675   3.895   8.683
 9503SOL    HW128467   3.676   3.800   8.696
 9503SOL    HW228468   3.688   3.906   8.588
 9504SOL     OW28469   2.280   4.147   7.966
 9504SOL    HW128470   2.314   4.076   7.912
 9504SOL    HW228471   2.228   4.102   8.033
 9505SOL     OW28472   3.558   5.204   8.529
 9505SOL    HW128473   3.479   5.185   8.478
 9505SOL    HW228474   3.558   5.137   8.597
 9506SOL     OW28475   2.214   4.289   8.740
 9506SOL    HW128476   2.263   4.225   8.790
 9506SOL    HW228477   2.222   4.260   8.649
 9507SOL     OW28478   2.700   5.309   8.118
 9507SOL    HW128479   2.670   5.379   8.060
 9507SOL    HW228480   2.625   5.250   8.126
 9508SOL     OW28481   3.283   3.957   8.563
 9508SOL    HW128482   3.291   3.867   8.596
 9508SOL    HW228483   3.237   4.004   8.632
 9509SOL     OW28484   2.872   3.742   8.567
 9509SOL    HW128485   2.818   3.679   8.519
 9509SOL    HW228486   2.959   3.701   8.571
 9510SOL     OW28487   2.642   5.056   7.777
 9510SOL    HW128488   2.618   4.964   7.788
 9510SOL    HW228489   2.722   5.067   7.828
 9511SOL     OW28490   2.477   5.294   8.735
 9511SOL    HW128491   2.473   5.378   8.780
 9511SOL    HW228492   2.567   5.289   8.703
 9512SOL     OW28493   3.242   3.762   7.640
 9512SOL    HW128494   3.282   3.690   7.592
 9512SOL    HW228495   3.151   3.736   7.651
 9513SOL     OW28496   3.160   4.195   8.123
 9513SOL    HW128497   3.109   4.277   8.120
 9513SOL    HW228498   3.153   4.166   8.213
 9514SOL     OW28499   3.444   3.912   8.341
 9514SOL    HW128500   3.392   3.942   8.416
 9514SOL    HW228501   3.445   3.986   8.281
 9515SOL     OW28502   1.899   4.775   7.756
 9515SOL    HW128503   1.992   4.764   7.738
 9515SOL    HW228504   1.867   4.687   7.776
 9516SOL     OW28505   2.757   5.399   7.777
 9516SOL    HW128506   2.678   5.384   7.725
 9516SOL    HW228507   2.731   5.468   7.839
 9517SOL     OW28508   2.073   4.329   9.454
 9517SOL    HW128509   1.984   4.319   9.488
 9517SOL    HW228510   2.064   4.322   9.359
 9518SOL     OW28511   3.669   4.293   9.521
 9518SOL    HW128512   3.627   4.295   9.435
 9518SOL    HW228513   3.619   4.228   9.570
 9519SOL     OW28514   2.074   5.466   9.764
 9519SOL    HW128515   2.095   5.538   9.823
 9519SOL    HW228516   2.154   5.453   9.713
 9520SOL     OW28517   2.084   5.186   9.844
 9520SOL    HW128518   2.065   5.277   9.867
 9520SOL    HW228519   2.010   5.137   9.879
 9521SOL     OW28520   2.433   4.709   9.451
 9521SOL    HW128521   2.483   4.753   9.382
 9521SOL    HW228522   2.473   4.739   9.533
 9522SOL     OW28523   1.927   4.400   9.883
 9522SOL    HW128524   1.841   4.366   9.860
 9522SOL    HW228525   1.909   4.478   9.936
 9523SOL     OW28526   3.693   5.477   9.643
 9523SOL    HW128527   3.770   5.458   9.696
 9523SOL    HW228528   3.708   5.566   9.609
 9524SOL     OW28529   1.910   5.315   9.433
 9524SOL    HW128530   1.896   5.221   9.449
 9524SOL    HW228531   1.874   5.358   9.510
 9525SOL     OW28532   3.538   4.595   9.918
 9525SOL    HW128533   3.609   4.616   9.978
 9525SOL    HW228534   3.530   4.671   9.861
 9526SOL     OW28535   3.555   4.824   9.757
 9526SOL    HW128536   3.638   4.820   9.709
 9526SOL    HW228537   3.564   4.900   9.814
 9527SOL     OW28538   2.503   5.063   9.993
 9527SOL    HW128539   2.446   4.987   9.990
 9527SOL    HW228540   2.481   5.113   9.914
 9528SOL     OW28541   2.680   3.753   9.827
 9528SOL    HW128542   2.725   3.832   9.798
 9528SOL    HW228543   2.587   3.778   9.829
 9529SOL     OW28544   3.420   4.749   9.520
 9529SOL    HW128545   3.360   4.679   9.547
 9529SOL    HW228546   3.458   4.780   9.602
 9530SOL     OW28547   2.447   4.423   9.583
 9530SOL    HW128548   2.455   4.509   9.542
 9530SOL    HW228549   2.389   4.437   9.658
 9531SOL     OW28550   3.425   5.397   9.627
 9531SOL    HW128551   3.518   5.420   9.634
 9531SOL    HW228552   3.410   5.385   9.534
 9532SOL     OW28553   2.908   4.414   9.734
 9532SOL    HW128554   2.936   4.390   9.823
 9532SOL    HW228555   2.822   4.372   9.724
 9533SOL     OW28556   1.914   4.606   0.069
 9533SOL    HW128557   1.988   4.561   0.110
 9533SOL    HW228558   1.892   4.676   0.131
 9534SOL     OW28559   2.753   4.071   9.503
 9534SOL    HW128560   2.802   4.129   9.444
 9534SOL    HW228561   2.739   3.991   9.452
 9535SOL     OW28562   3.176   4.819   9.796
 9535SOL    HW128563   3.228   4.849   9.870
 9535SOL    HW228564   3.152   4.899   9.750
 9536SOL     OW28565   2.855   5.159   9.783
 9536SOL    HW128566   2.824   5.244   9.751
 9536SOL    HW228567   2.828   5.157   9.874
 9537SOL     OW28568   2.214   5.578   0.167
 9537SOL    HW128569   2.219   5.497   0.218
 9537SOL    HW228570   2.304   5.609   0.163
 9538SOL     OW28571   2.179   4.684   9.577
 9538SOL    HW128572   2.260   4.698   9.528
 9538SOL    HW228573   2.139   4.607   9.535
 9539SOL     OW28574   2.999   5.499   9.547
 9539SOL    HW128575   2.920   5.465   9.587
 9539SOL    HW228576   3.020   5.435   9.478
 9540SOL     OW28577   3.499   5.117   9.403
 9540SOL    HW128578   3.456   5.201   9.391
 9540SOL    HW228579   3.433   5.052   9.380
 9541SOL     OW28580   2.330   5.486   9.634
 9541SOL    HW128581   2.380   5.515   9.711
 9541SOL    HW228582   2.394   5.439   9.580
 9542SOL     OW28583   3.286   3.875   9.738
 9542SOL    HW128584   3.275   3.833   9.652
 9542SOL    HW228585   3.381   3.878   9.751
 9543SOL     OW28586   2.258   4.412   9.800
 9543SOL    HW128587   2.261   4.319   9.820
 9543SOL    HW228588   2.164   4.432   9.794
 9544SOL     OW28589   2.523   3.831   9.416
 9544SOL    HW128590   2.568   3.751   9.444
 9544SOL    HW228591   2.462   3.803   9.348
 9545SOL     OW28592   2.407   3.823   9.840
 9545SOL    HW128593   2.315   3.817   9.866
 9545SOL    HW228594   2.407   3.881   9.764
 9546SOL     OW28595   3.302   4.932   9.344
 9546SOL    HW128596   3.336   4.864   9.403
 9546SOL    HW228597   3.215   4.953   9.380
 9547SOL     OW28598   2.146   3.778   9.500
 9547SOL    HW128599   2.197   3.843   9.452
 9547SOL    HW228600   2.212   3.726   9.546
 9548SOL     OW28601   2.810   3.985   9.758
 9548SOL    HW128602   2.785   4.016   9.670
 9548SOL    HW228603   2.904   4.004   9.764
 9549SOL     OW28604   2.304   4.874   0.034
 9549SOL    HW128605   2.235   4.910   0.091
 9549SOL    HW228606   2.261   4.860   9.950
 9550SOL     OW28607   3.162   5.560   9.900
 9550SOL    HW128608   3.206   5.625   9.845
 9550SOL    HW228609   3.069   5.584   9.895
 9551SOL     OW28610   2.894   4.241   9.338
 9551SOL    HW128611   2.851   4.325   9.318
 9551SOL    HW228612   2.957   4.262   9.407
 9552SOL     OW28613   2.707   4.166   9.942
 9552SOL    HW128614   2.668   4.230   9.882
 9552SOL    HW228615   2.738   4.096   9.886
 9553SOL     OW28616   3.746   4.529   9.637
 9553SOL    HW128617   3.775   4.490   9.720
 9553SOL    HW228618   3.710   4.455   9.587
 9554SOL     OW28619   2.356   5.151   9.465
 9554SOL    HW128620   2.281   5.117   9.513
 9554SOL    HW228621   2.357   5.102   9.382
 9555SOL     OW28622   3.251   4.300   9.371
 9555SOL    HW128623   3.195   4.278   9.445
 9555SOL    HW228624   3.339   4.277   9.399
 9556SOL     OW28625   2.404   3.984   9.624
 9556SOL    HW128626   2.451   3.939   9.554
 9556SOL    HW228627   2.367   4.061   9.582
 9557SOL     OW28628   2.569   4.779   9.684
 9557SOL    HW128629   2.537   4.733   9.761
 9557SOL    HW228630   2.649   4.732   9.660
 9558SOL     OW28631   2.168   4.852   9.799
 9558SOL    HW128632   2.170   4.928   9.741
 9558SOL    HW228633   2.177   4.776   9.740
 9559SOL     OW28634   3.100   5.078   9.691
 9559SOL    HW128635   3.156   5.150   9.722
 9559SOL    HW228636   3.013   5.098   9.726
 9560SOL     OW28637   3.496   4.362   9.789
 9560SOL    HW128638   3.501   4.437   9.849
 9560SOL    HW228639   3.446   4.395   9.714
 9561SOL     OW28640   3.058   4.256   9.565
 9561SOL    HW128641   3.065   4.180   9.623
 9561SOL    HW228642   3.019   4.324   9.619
 9562SOL     OW28643   2.144   3.813   9.928
 9562SOL    HW128644   2.076   3.878   9.945
 9562SOL    HW228645   2.160   3.772   0.012
 9563SOL     OW28646   3.493   4.120   9.655
 9563SOL    HW128647   3.516   4.044   9.709
 9563SOL    HW228648   3.484   4.191   9.718
 9564SOL     OW28649   3.383   3.997   9.425
 9564SOL    HW128650   3.329   3.925   9.460
 9564SOL    HW228651   3.419   4.039   9.503
 9565SOL     OW28652   3.142   4.549   9.330
 9565SOL    HW128653   3.180   4.461   9.337
 9565SOL    HW228654   3.178   4.584   9.249
 9566SOL     OW28655   1.886   5.040   9.484
 9566SOL    HW128656   1.795   5.059   9.459
 9566SOL    HW228657   1.882   4.953   9.524
 9567SOL     OW28658   2.669   4.283   9.682
 9567SOL    HW128659   2.681   4.214   9.617
 9567SOL    HW228660   2.597   4.336   9.649
 9568SOL     OW28661   2.309   4.200   9.483
 9568SOL    HW128662   2.370   4.270   9.506
 9568SOL    HW228663   2.223   4.243   9.481
 9569SOL     OW28664   3.231   4.570   9.605
 9569SOL    HW128665   3.178   4.621   9.666
 9569SOL    HW228666   3.177   4.562   9.526
 9570SOL     OW28667   3.569   3.881   9.772
 9570SOL    HW128668   3.639   3.883   9.707
 9570SOL    HW228669   3.585   3.802   9.823
 9571SOL     OW28670   3.226   5.313   9.794
 9571SOL    HW128671   3.297   5.330   9.732
 9571SOL    HW228672   3.198   5.400   9.823
 9572SOL     OW28673   2.529   5.363   9.475
 9572SOL    HW128674   2.545   5.376   9.381
 9572SOL    HW228675   2.475   5.284   9.479
 9573SOL     OW28676   3.070   5.318   9.350
 9573SOL    HW128677   3.062   5.225   9.373
 9573SOL    HW228678   3.001   5.332   9.285
 9574SOL     OW28679   2.786   4.637   9.614
 9574SOL    HW128680   2.841   4.665   9.541
 9574SOL    HW228681   2.836   4.568   9.658
 9575SOL     OW28682   3.347   5.370   9.360
 9575SOL    HW128683   3.255   5.352   9.344
 9575SOL    HW228684   3.386   5.372   9.273
 9576SOL     OW28685   2.454   5.201   9.763
 9576SOL    HW128686   2.514   5.158   9.702
 9576SOL    HW228687   2.372   5.207   9.714
 9577SOL     OW28688   2.140   5.066   9.614
 9577SOL    HW128689   2.054   5.061   9.572
 9577SOL    HW228690   2.124   5.117   9.694
 9578SOL     OW28691   1.946   4.040   9.322
 9578SOL    HW128692   1.870   4.020   9.268
 9578SOL    HW228693   1.975   4.126   9.292
 9579SOL     OW28694   1.904   3.878   9.577
 9579SOL    HW128695   1.896   3.945   9.508
 9579SOL    HW228696   1.992   3.844   9.567
 9580SOL     OW28697   3.043   5.047   9.422
 9580SOL    HW128698   2.952   5.017   9.422
 9580SOL    HW228699   3.066   5.052   9.515
 9581SOL     OW28700   3.077   4.059   9.768
 9581SOL    HW128701   3.152   4.001   9.760
 9581SOL    HW228702   3.097   4.114   9.844
 9582SOL     OW28703   2.471   4.569   9.891
 9582SOL    HW128704   2.473   4.569   9.986
 9582SOL    HW228705   2.398   4.511   9.869
 9583SOL     OW28706   2.733   5.081   9.363
 9583SOL    HW128707   2.697   5.097   9.450
 9583SOL    HW228708   2.744   5.169   9.325
 9584SOL     OW28709   2.929   4.702   9.396
 9584SOL    HW128710   2.912   4.759   9.321
 9584SOL    HW228711   3.005   4.650   9.370
 9585SOL     OW28712   1.916   4.964   9.899
 9585SOL    HW128713   1.913   4.971   9.994
 9585SOL    HW228714   1.992   4.909   9.882
 9586SOL     OW28715   2.271   4.150   9.866
 9586SOL    HW128716   2.319   4.086   9.812
 9586SOL    HW228717   2.308   4.140   9.954
 9587SOL     OW28718   2.645   5.052   9.627
 9587SOL    HW128719   2.619   4.962   9.643
 9587SOL    HW228720   2.721   5.066   9.682
 9588SOL     OW28721   3.239   3.765   9.492
 9588SOL    HW128722   3.282   3.689   9.453
 9588SOL    HW228723   3.149   3.737   9.508
 9589SOL     OW28724   1.919   4.793   9.597
 9589SOL    HW128725   2.014   4.786   9.591
 9589SOL    HW228726   1.889   4.702   9.601
 9590SOL     OW28727   2.756   5.396   9.664
 9590SOL    HW128728   2.680   5.379   9.608
 9590SOL    HW228729   2.726   5.465   9.723
 9591SOL     OW28730   2.059   6.196   0.126
 9591SOL    HW128731   1.976   6.182   0.171
 9591SOL    HW228732   2.035   6.209   0.034
 9592SOL     OW28733   2.081   5.874   0.990
 9592SOL    HW128734   2.112   5.839   1.073
 9592SOL    HW228735   1.994   5.836   0.978
 9593SOL     OW28736   1.845   5.984   0.647
 9593SOL    HW128737   1.764   6.006   0.692
 9593SOL    HW228738   1.823   5.909   0.593
 9594SOL     OW28739   2.437   6.894   1.209
 9594SOL    HW128740   2.355   6.897   1.160
 9594SOL    HW228741   2.454   6.985   1.233
 9595SOL     OW28742   3.452   7.110   0.706
 9595SOL    HW128743   3.404   7.078   0.783
 9595SOL    HW228744   3.386   7.113   0.637
 9596SOL     OW28745   3.001   6.287   0.686
 9596SOL    HW128746   3.047   6.370   0.676
 9596SOL    HW228747   2.951   6.296   0.767
 9597SOL     OW28748   3.636   6.169   0.200
 9597SOL    HW128749   3.563   6.199   0.147
 9597SOL    HW228750   3.601   6.097   0.252
 9598SOL     OW28751   2.589   6.715   1.058
 9598SOL    HW128752   2.530   6.755   1.122
 9598SOL    HW228753   2.632   6.789   1.015
 9599SOL     OW28754   2.750   6.328   1.828
 9599SOL    HW128755   2.741   6.395   1.895
 9599SOL    HW228756   2.766   6.376   1.747
 9600SOL     OW28757   2.548   6.563   0.645
 9600SOL    HW128758   2.615   6.565   0.713
 9600SOL    HW228759   2.481   6.625   0.676
 9601SOL     OW28760   2.574   6.736   1.833
 9601SOL    HW128761   2.626   6.809   1.868
 9601SOL    HW228762   2.498   6.778   1.793
 9602SOL     OW28763   2.204   6.982   1.071
 9602SOL    HW128764   2.128   6.940   1.031
 9602SOL    HW228765   2.240   7.038   1.001
 9603SOL     OW28766   3.315   7.092   1.372
 9603SOL    HW128767   3.370   7.170   1.385
 9603SOL    HW228768   3.243   7.103   1.434
 9604SOL     OW28769   2.320   5.960   1.456
 9604SOL    HW128770   2.395   5.902   1.471
 9604SOL    HW228771   2.244   5.909   1.482
 9605SOL     OW28772   3.442   6.018   0.752
 9605SOL    HW128773   3.368   6.026   0.692
 9605SOL    HW228774   3.428   6.088   0.816
 9606SOL     OW28775   2.089   7.306   0.469
 9606SOL    HW128776   2.106   7.381   0.527
 9606SOL    HW228777   2.175   7.286   0.431
 9607SOL     OW28778   2.997   6.927   1.697
 9607SOL    HW128779   3.042   6.917   1.780
 9607SOL    HW228780   2.944   6.848   1.688
 9608SOL     OW28781   2.072   7.030   0.507
 9608SOL    HW128782   2.064   7.125   0.516
 9608SOL    HW228783   2.032   6.995   0.587
 9609SOL     OW28784   2.142   6.672   0.881
 9609SOL    HW128785   2.144   6.584   0.917
 9609SOL    HW228786   2.088   6.722   0.942
 9610SOL     OW28787   2.436   7.389   1.422
 9610SOL    HW128788   2.359   7.369   1.476
 9610SOL    HW228789   2.468   7.473   1.455
 9611SOL     OW28790   2.429   6.533   0.174
 9611SOL    HW128791   2.403   6.603   0.114
 9611SOL    HW228792   2.488   6.576   0.236
 9612SOL     OW28793   3.453   5.719   1.459
 9612SOL    HW128794   3.492   5.796   1.416
 9612SOL    HW228795   3.422   5.752   1.543
 9613SOL     OW28796   1.976   6.239   0.573
 9613SOL    HW128797   1.941   6.154   0.597
 9613SOL    HW228798   1.969   6.292   0.653
 9614SOL     OW28799   3.724   7.324   0.307
 9614SOL    HW128800   3.794   7.302   0.369
 9614SOL    HW228801   3.738   7.416   0.285
 9615SOL     OW28802   1.922   7.160   0.085
 9615SOL    HW128803   1.899   7.073   0.117
 9615SOL    HW228804   1.900   7.219   0.157
 9616SOL     OW28805   3.560   6.506   0.664
 9616SOL    HW128806   3.643   6.462   0.646
 9616SOL    HW228807   3.541   6.555   0.584
 9617SOL     OW28808   3.524   6.677   0.443
 9617SOL    HW128809   3.605   6.673   0.393
 9617SOL    HW228810   3.538   6.747   0.507
 9618SOL     OW28811   1.982   6.335   1.578
 9618SOL    HW128812   2.067   6.379   1.582
 9618SOL    HW228813   1.919   6.406   1.564
 9619SOL     OW28814   2.478   6.967   0.758
 9619SOL    HW128815   2.435   6.881   0.752
 9619SOL    HW228816   2.475   7.001   0.669
 9620SOL     OW28817   3.132   6.812   1.417
 9620SOL    HW128818   3.160   6.743   1.357
 9620SOL    HW228819   3.194   6.806   1.490
 9621SOL     OW28820   2.694   5.601   0.530
 9621SOL    HW128821   2.735   5.682   0.498
 9621SOL    HW228822   2.600   5.621   0.530
 9622SOL     OW28823   2.049   6.542   1.303
 9622SOL    HW128824   2.136   6.507   1.285
 9622SOL    HW228825   1.994   6.506   1.233
 9623SOL     OW28826   3.353   6.615   0.236
 9623SOL    HW128827   3.298   6.542   0.267
 9623SOL    HW228828   3.415   6.630   0.307
 9624SOL     OW28829   3.042   7.408   1.636
 9624SOL    HW128830   3.043   7.470   1.563
 9624SOL    HW228831   3.058   7.323   1.596
 9625SOL     OW28832   2.221   5.839   1.875
 9625SOL    HW128833   2.257   5.920   1.913
 9625SOL    HW228834   2.127   5.854   1.873
 9626SOL     OW28835   3.334   7.003   0.930
 9626SOL    HW128836   3.270   7.022   0.999
 9626SOL    HW228837   3.316   6.912   0.906
 9627SOL     OW28838   3.505   7.383   0.565
 9627SOL    HW128839   3.489   7.337   0.482
 9627SOL    HW228840   3.504   7.314   0.631
 9628SOL     OW28841   2.455   6.277   0.285
 9628SOL    HW128842   2.461   6.363   0.244
 9628SOL    HW228843   2.388   6.287   0.353
 9629SOL     OW28844   3.144   5.977   0.941
 9629SOL    HW128845   3.055   5.943   0.947
 9629SOL    HW228846   3.196   5.919   0.997
 9630SOL     OW28847   3.452   7.263   0.324
 9630SOL    HW128848   3.546   7.274   0.309
 9630SOL    HW228849   3.416   7.245   0.237
 9631SOL     OW28850   2.652   6.199   1.430
 9631SOL    HW128851   2.629   6.170   1.518
 9631SOL    HW228852   2.627   6.126   1.374
 9632SOL     OW28853   3.254   6.063   1.674
 9632SOL    HW128854   3.259   6.106   1.759
 9632SOL    HW228855   3.304   5.982   1.685
 9633SOL     OW28856   2.806   6.466   1.593
 9633SOL    HW128857   2.862   6.403   1.549
 9633SOL    HW228858   2.758   6.509   1.522
 9634SOL     OW28859   2.870   5.983   1.209
 9634SOL    HW128860   2.777   5.997   1.232
 9634SOL    HW228861   2.867   5.939   1.125
 9635SOL     OW28862   2.928   6.283   0.416
 9635SOL    HW128863   2.948   6.279   0.510
 9635SOL    HW228864   2.843   6.240   0.408
 9636SOL     OW28865   1.955   6.413   0.783
 9636SOL    HW128866   2.037   6.406   0.831
 9636SOL    HW228867   1.907   6.484   0.826
 9637SOL     OW28868   1.971   7.465   1.587
 9637SOL    HW128869   1.979   7.445   1.680
 9637SOL    HW228870   1.885   7.432   1.562
 9638SOL     OW28871   2.723   5.925   0.200
 9638SOL    HW128872   2.709   5.974   0.119
 9638SOL    HW228873   2.732   5.834   0.171
 9639SOL     OW28874   3.549   6.149   1.840
 9639SOL    HW128875   3.527   6.226   1.788
 9639SOL    HW228876   3.577   6.084   1.776
 9640SOL     OW28877   3.258   6.735   0.556
 9640SOL    HW128878   3.336   6.724   0.501
 9640SOL    HW228879   3.202   6.796   0.507
 9641SOL     OW28880   2.413   5.749   0.915
 9641SOL    HW128881   2.419   5.777   1.006
 9641SOL    HW228882   2.409   5.831   0.865
 9642SOL     OW28883   2.862   7.039   0.472
 9642SOL    HW128884   2.837   7.115   0.418
 9642SOL    HW228885   2.829   7.059   0.559
 9643SOL     OW28886   2.215   7.403   0.879
 9643SOL    HW128887   2.260   7.319   0.884
 9643SOL    HW228888   2.283   7.467   0.901
 9644SOL     OW28889   3.665   6.630   0.895
 9644SOL    HW128890   3.617   6.612   0.814
 9644SOL    HW228891   3.597   6.639   0.962
 9645SOL     OW28892   3.080   7.129   1.517
 9645SOL    HW128893   3.068   7.058   1.580
 9645SOL    HW228894   3.011   7.114   1.451
 9646SOL     OW28895   2.174   6.514   0.290
 9646SOL    HW128896   2.256   6.521   0.240
 9646SOL    HW228897   2.177   6.426   0.327
 9647SOL     OW28898   3.347   6.343   0.713
 9647SOL    HW128899   3.347   6.303   0.800
 9647SOL    HW228900   3.425   6.398   0.712
 9648SOL     OW28901   2.335   6.870   1.748
 9648SOL    HW128902   2.311   6.875   1.656
 9648SOL    HW228903   2.252   6.858   1.794
 9649SOL     OW28904   2.966   7.370   0.181
 9649SOL    HW128905   2.909   7.329   0.247
 9649SOL    HW228906   3.005   7.296   0.134
 9650SOL     OW28907   2.070   5.842   1.498
 9650SOL    HW128908   1.997   5.902   1.515
 9650SOL    HW228909   2.040   5.758   1.532
 9651SOL     OW28910   3.493   6.958   0.113
 9651SOL    HW128911   3.452   7.044   0.105
 9651SOL    HW228912   3.428   6.897   0.079
 9652SOL     OW28913   2.350   7.294   0.376
 9652SOL    HW128914   2.385   7.370   0.422
 9652SOL    HW228915   2.416   7.272   0.310
 9653SOL     OW28916   3.257   5.689   0.447
 9653SOL    HW128917   3.254   5.669   0.353
 9653SOL    HW228918   3.349   5.677   0.471
 9654SOL     OW28919   2.114   7.375   1.214
 9654SOL    HW128920   2.162   7.300   1.249
 9654SOL    HW228921   2.098   7.353   1.122
 9655SOL     OW28922   2.808   7.287   0.890
 9655SOL    HW128923   2.892   7.244   0.904
 9655SOL    HW228924   2.766   7.237   0.821
 9656SOL     OW28925   2.235   6.279   0.464
 9656SOL    HW128926   2.258   6.187   0.475
 9656SOL    HW228927   2.147   6.286   0.499
 9657SOL     OW28928   3.370   5.809   1.717
 9657SOL    HW128929   3.382   5.827   1.810
 9657SOL    HW228930   3.304   5.739   1.715
 9658SOL     OW28931   2.469   5.678   0.117
 9658SOL    HW128932   2.564   5.669   0.127
 9658SOL    HW228933   2.455   5.685   0.022
 9659SOL     OW28934   2.621   5.859   1.752
 9659SOL    HW128935   2.706   5.814   1.750
 9659SOL    HW228936   2.574   5.820   1.826
 9660SOL     OW28937   2.732   7.114   1.201
 9660SOL    HW128938   2.713   7.072   1.117
 9660SOL    HW228939   2.799   7.058   1.241
 9661SOL     OW28940   3.192   6.177   1.433
 9661SOL    HW128941   3.224   6.147   1.517
 9661SOL    HW228942   3.230   6.264   1.422
 9662SOL     OW28943   2.679   6.963   0.962
 9662SOL    HW128944   2.765   6.959   0.919
 9662SOL    HW228945   2.617   6.975   0.890
 9663SOL     OW28946   2.793   6.101   0.890
 9663SOL    HW128947   2.768   6.088   0.799
 9663SOL    HW228948   2.820   6.014   0.920
 9664SOL     OW28949   2.426   5.662   0.502
 9664SOL    HW128950   2.347   5.660   0.556
 9664SOL    HW228951   2.413   5.734   0.442
 9665SOL     OW28952   3.289   6.785   0.035
 9665SOL    HW128953   3.313   6.719   0.100
 9665SOL    HW228954   3.207   6.823   0.069
 9666SOL     OW28955   2.814   5.836   0.450
 9666SOL    HW128956   2.782   5.872   0.367
 9666SOL    HW228957   2.907   5.857   0.451
 9667SOL     OW28958   2.938   6.280   1.445
 9667SOL    HW128959   2.875   6.208   1.450
 9667SOL    HW228960   3.023   6.236   1.442
 9668SOL     OW28961   3.067   7.174   0.801
 9668SOL    HW128962   3.083   7.234   0.727
 9668SOL    HW228963   3.139   7.191   0.861
 9669SOL     OW28964   2.341   6.734   0.710
 9669SOL    HW128965   2.278   6.713   0.779
 9669SOL    HW228966   2.291   6.730   0.629
 9670SOL     OW28967   3.115   7.379   0.613
 9670SOL    HW128968   3.163   7.443   0.560
 9670SOL    HW228969   3.045   7.431   0.655
 9671SOL     OW28970   2.956   6.147   9.980
 9671SOL    HW128971   2.868   6.110   9.986
 9671SOL    HW228972   2.991   6.140   0.069
 9672SOL     OW28973   1.962   6.137   1.391
 9672SOL    HW128974   2.054   6.139   1.365
 9672SOL    HW228975   1.954   6.206   1.457
 9673SOL     OW28976   2.421   5.807   1.185
 9673SOL    HW128977   2.459   5.742   1.245
 9673SOL    HW228978   2.328   5.808   1.205
 9674SOL     OW28979   2.735   6.038   0.633
 9674SOL    HW128980   2.700   6.095   0.564
 9674SOL    HW228981   2.759   5.957   0.587
 9675SOL     OW28982   2.887   5.644   0.742
 9675SOL    HW128983   2.824   5.640   0.671
 9675SOL    HW228984   2.862   5.571   0.800
 9676SOL     OW28985   3.293   6.739   0.854
 9676SOL    HW128986   3.225   6.673   0.866
 9676SOL    HW228987   3.304   6.746   0.759
 9677SOL     OW28988   3.324   6.201   0.952
 9677SOL    HW128989   3.260   6.131   0.962
 9677SOL    HW228990   3.379   6.194   1.029
 9678SOL     OW28991   3.722   6.375   0.369
 9678SOL    HW128992   3.764   6.326   0.439
 9678SOL    HW228993   3.683   6.308   0.313
 9679SOL     OW28994   2.366   7.029   0.214
 9679SOL    HW128995   2.284   6.984   0.234
 9679SOL    HW228996   2.408   6.974   0.148
 9680SOL     OW28997   3.573   6.858   0.632
 9680SOL    HW128998   3.665   6.850   0.655
 9680SOL    HW228999   3.548   6.946   0.658
 9681SOL     OW29000   3.279   6.151   0.095
 9681SOL    HW129001   3.203   6.139   0.151
 9681SOL    HW229002   3.317   6.064   0.086
 9682SOL     OW29003   2.370   5.850   0.310
 9682SOL    HW129004   2.408   5.791   0.244
 9682SOL    HW229005   2.348   5.929   0.261
 9683SOL     OW29006   3.597   6.830   1.533
 9683SOL    HW129007   3.685   6.796   1.519
 9683SOL    HW229008   3.611   6.918   1.570
 9684SOL     OW29009   2.904   6.941   1.336
 9684SOL    HW129010   2.827   6.907   1.380
 9684SOL    HW229011   2.977   6.896   1.376
 9685SOL     OW29012   3.470   7.221   1.672
 9685SOL    HW129013   3.459   7.257   1.584
 9685SOL    HW229014   3.548   7.165   1.665
 9686SOL     OW29015   3.013   6.824   1.105
 9686SOL    HW129016   2.951   6.858   1.170
 9686SOL    HW229017   2.979   6.856   1.021
 9687SOL     OW29018   3.469   6.677   1.078
 9687SOL    HW129019   3.461   6.744   1.147
 9687SOL    HW229020   3.400   6.699   1.016
 9688SOL     OW29021   2.781   5.667   1.383
 9688SOL    HW129022   2.802   5.652   1.291
 9688SOL    HW229023   2.859   5.708   1.419
 9689SOL     OW29024   2.841   6.701   1.724
 9689SOL    HW129025   2.751   6.718   1.752
 9689SOL    HW229026   2.836   6.621   1.673
 9690SOL     OW29027   2.585   6.638   0.377
 9690SOL    HW129028   2.572   6.611   0.468
 9690SOL    HW229029   2.666   6.593   0.351
 9691SOL     OW29030   2.288   6.414   1.259
 9691SOL    HW129031   2.356   6.424   1.326
 9691SOL    HW229032   2.258   6.323   1.269
 9692SOL     OW29033   3.127   5.954   1.291
 9692SOL    HW129034   3.154   6.034   1.335
 9692SOL    HW229035   3.037   5.972   1.262
 9693SOL     OW29036   1.940   7.156   1.363
 9693SOL    HW129037   1.909   7.227   1.307
 9693SOL    HW229038   2.035   7.157   1.353
 9694SOL     OW29039   2.177   6.711   0.488
 9694SOL    HW129040   2.177   6.782   0.423
 9694SOL    HW229041   2.185   6.631   0.436
 9695SOL     OW29042   2.395   6.099   0.858
 9695SOL    HW129043   2.406   6.158   0.783
 9695SOL    HW229044   2.463   6.127   0.919
 9696SOL     OW29045   3.111   6.934   0.420
 9696SOL    HW129046   3.167   7.007   0.446
 9696SOL    HW229047   3.023   6.960   0.444
 9697SOL     OW29048   3.171   7.055   1.142
 9697SOL    HW129049   3.218   7.061   1.225
 9697SOL    HW229050   3.120   6.974   1.150
 9698SOL     OW29051   3.401   6.208   0.473
 9698SOL    HW129052   3.380   6.246   0.558
 9698SOL    HW229053   3.357   6.264   0.409
 9699SOL     OW29054   2.206   7.120   1.302
 9699SOL    HW129055   2.199   7.066   1.223
 9699SOL    HW229056   2.300   7.136   1.312
 9700SOL     OW29057   2.293   6.333   1.618
 9700SOL    HW129058   2.353   6.376   1.556
 9700SOL    HW229059   2.336   6.250   1.638
 9701SOL     OW29060   3.490   6.372   1.698
 9701SOL    HW129061   3.402   6.410   1.689
 9701SOL    HW229062   3.540   6.410   1.626
 9702SOL     OW29063   2.857   5.726   1.757
 9702SOL    HW129064   2.916   5.800   1.739
 9702SOL    HW229065   2.909   5.648   1.736
 9703SOL     OW29066   2.357   5.621   1.763
 9703SOL    HW129067   2.302   5.571   1.702
 9703SOL    HW229068   2.304   5.698   1.784
 9704SOL     OW29069   2.452   6.461   1.038
 9704SOL    HW129070   2.491   6.548   1.041
 9704SOL    HW229071   2.395   6.457   1.115
 9705SOL     OW29072   3.171   6.439   1.004
 9705SOL    HW129073   3.083   6.413   0.978
 9705SOL    HW229074   3.225   6.363   0.986
 9706SOL     OW29075   3.053   6.105   0.246
 9706SOL    HW129076   3.065   6.029   0.304
 9706SOL    HW229077   3.012   6.171   0.301
 9707SOL     OW29078   2.154   5.780   1.239
 9707SOL    HW129079   2.119   5.808   1.323
 9707SOL    HW229080   2.137   5.686   1.236
 9708SOL     OW29081   1.912   6.899   1.267
 9708SOL    HW129082   1.942   6.843   1.340
 9708SOL    HW229083   1.915   6.987   1.303
 9709SOL     OW29084   2.571   6.207   1.038
 9709SOL    HW129085   2.651   6.201   0.984
 9709SOL    HW229086   2.544   6.298   1.029
 9710SOL     OW29087   3.613   6.554   1.870
 9710SOL    HW129088   3.573   6.481   1.821
 9710SOL    HW229089   3.549   6.574   1.938
 9711SOL     OW29090   2.181   5.650   0.630
 9711SOL    HW129091   2.149   5.738   0.649
 9711SOL    HW229092   2.188   5.608   0.716
 9712SOL     OW29093   3.499   5.979   0.352
 9712SOL    HW129094   3.532   5.915   0.414
 9712SOL    HW229095   3.464   6.050   0.406
 9713SOL     OW29096   2.896   6.344   0.958
 9713SOL    HW129097   2.875   6.359   1.050
 9713SOL    HW229098   2.867   6.255   0.940
 9714SOL     OW29099   2.842   7.152   1.734
 9714SOL    HW129100   2.821   7.195   1.652
 9714SOL    HW229101   2.881   7.068   1.709
 9715SOL     OW29102   3.700   7.081   1.602
 9715SOL    HW129103   3.727   7.110   1.515
 9715SOL    HW229104   3.779   7.092   1.656
 9716SOL     OW29105   2.211   6.505   1.817
 9716SOL    HW129106   2.288   6.522   1.871
 9716SOL    HW229107   2.242   6.442   1.751
 9717SOL     OW29108   3.361   5.891   0.128
 9717SOL    HW129109   3.313   5.811   0.150
 9717SOL    HW229110   3.409   5.912   0.208
 9718SOL     OW29111   3.183   6.404   0.040
 9718SOL    HW129112   3.218   6.315   0.041
 9718SOL    HW229113   3.240   6.451   9.979
 9719SOL     OW29114   2.932   6.939   0.865
 9719SOL    HW129115   2.943   6.866   0.805
 9719SOL    HW229116   2.984   7.010   0.827
 9720SOL     OW29117   2.180   6.400   0.944
 9720SOL    HW129118   2.274   6.415   0.944
 9720SOL    HW229119   2.170   6.310   0.975
 9721SOL     OW29120   2.175   6.123   1.011
 9721SOL    HW129121   2.136   6.037   1.002
 9721SOL    HW229122   2.252   6.121   0.955
 9722SOL     OW29123   3.001   5.953   1.685
 9722SOL    HW129124   2.955   6.004   1.752
 9722SOL    HW229125   3.086   5.996   1.676
 9723SOL     OW29126   3.018   5.775   1.473
 9723SOL    HW129127   3.006   5.837   1.545
 9723SOL    HW229128   3.064   5.825   1.406
 9724SOL     OW29129   1.879   6.876   0.170
 9724SOL    HW129130   1.789   6.905   0.154
 9724SOL    HW229131   1.869   6.797   0.223
 9725SOL     OW29132   1.955   7.356   0.952
 9725SOL    HW129133   1.921   7.282   0.901
 9725SOL    HW229134   2.042   7.372   0.915
 9726SOL     OW29135   2.346   7.158   0.905
 9726SOL    HW129136   2.417   7.219   0.926
 9726SOL    HW229137   2.388   7.090   0.852
 9727SOL     OW29138   2.810   6.366   1.216
 9727SOL    HW129139   2.873   6.355   1.287
 9727SOL    HW229140   2.731   6.321   1.246
 9728SOL     OW29141   1.902   6.158   1.121
 9728SOL    HW129142   1.983   6.155   1.071
 9728SOL    HW229143   1.929   6.151   1.212
 9729SOL     OW29144   2.047   6.124   1.744
 9729SOL    HW129145   2.118   6.090   1.689
 9729SOL    HW229146   2.012   6.198   1.694
 9730SOL     OW29147   3.254   6.507   1.652
 9730SOL    HW129148   3.271   6.601   1.646
 9730SOL    HW229149   3.246   6.479   1.560
 9731SOL     OW29150   2.689   6.150   0.374
 9731SOL    HW129151   2.695   6.075   0.315
 9731SOL    HW229152   2.611   6.197   0.347
 9732SOL     OW29153   3.498   6.187   1.164
 9732SOL    HW129154   3.489   6.128   1.239
 9732SOL    HW229155   3.589   6.176   1.136
 9733SOL     OW29156   2.088   7.126   1.723
 9733SOL    HW129157   2.064   7.174   1.802
 9733SOL    HW229158   2.100   7.035   1.753
 9734SOL     OW29159   2.596   6.019   1.233
 9734SOL    HW129160   2.532   5.949   1.219
 9734SOL    HW229161   2.577   6.083   1.164
 9735SOL     OW29162   2.768   7.265   1.488
 9735SOL    HW129163   2.745   7.218   1.408
 9735SOL    HW229164   2.770   7.357   1.461
 9736SOL     OW29165   2.313   6.072   0.155
 9736SOL    HW129166   2.372   6.138   0.191
 9736SOL    HW229167   2.228   6.116   0.151
 9737SOL     OW29168   1.992   6.737   1.481
 9737SOL    HW129169   1.996   6.697   1.568
 9737SOL    HW229170   2.013   6.665   1.421
 9738SOL     OW29171   3.165   6.620   1.209
 9738SOL    HW129172   3.175   6.557   1.138
 9738SOL    HW229173   3.112   6.690   1.171
 9739SOL     OW29174   3.189   6.405   0.319
 9739SOL    HW129175   3.104   6.382   0.356
 9739SOL    HW229176   3.175   6.401   0.224
 9740SOL     OW29177   3.649   7.310   1.171
 9740SOL    HW129178   3.711   7.335   1.102
 9740SOL    HW229179   3.617   7.224   1.143
 9741SOL     OW29180   3.103   7.320   1.091
 9741SOL    HW129181   3.187   7.349   1.057
 9741SOL    HW229182   3.117   7.228   1.115
 9742SOL     OW29183   1.968   6.834   1.011
 9742SOL    HW129184   1.940   6.856   1.100
 9742SOL    HW229185   1.896   6.782   0.976
 9743SOL     OW29186   2.549   7.269   1.749
 9743SOL    HW129187   2.485   7.340   1.736
 9743SOL    HW229188   2.622   7.292   1.691
 9744SOL     OW29189   2.748   5.664   0.099
 9744SOL    HW129190   2.742   5.638   0.007
 9744SOL    HW229191   2.826   5.619   0.131
 9745SOL     OW29192   3.616   5.768   0.495
 9745SOL    HW129193   3.676   5.745   0.425
 9745SOL    HW229194   3.586   5.684   0.530
 9746SOL     OW29195   3.262   7.157   0.504
 9746SOL    HW129196   3.319   7.192   0.435
 9746SOL    HW229197   3.209   7.232   0.530
 9747SOL     OW29198   1.995   7.393   1.844
 9747SOL    HW129199   1.955   7.317   1.885
 9747SOL    HW229200   2.046   7.435   1.914
 9748SOL     OW29201   3.141   6.519   0.669
 9748SOL    HW129202   3.215   6.459   0.681
 9748SOL    HW229203   3.178   6.591   0.619
 9749SOL     OW29204   2.645   6.866   1.415
 9749SOL    HW129205   2.619   6.914   1.494
 9749SOL    HW229206   2.571   6.876   1.355
 9750SOL     OW29207   2.547   7.224   0.188
 9750SOL    HW129208   2.551   7.240   0.094
 9750SOL    HW229209   2.491   7.147   0.198
 9751SOL     OW29210   3.478   7.316   1.402
 9751SOL    HW129211   3.535   7.316   1.325
 9751SOL    HW229212   3.462   7.409   1.420
 9752SOL     OW29213   3.707   5.746   0.964
 9752SOL    HW129214   3.735   5.657   0.944
 9752SOL    HW229215   3.619   5.752   0.926
 9753SOL     OW29216   2.104   5.898   0.709
 9753SOL    HW129217   2.017   5.934   0.689
 9753SOL    HW229218   2.108   5.898   0.804
 9754SOL     OW29219   3.078   7.153   0.052
 9754SOL    HW129220   3.066   7.064   0.083
 9754SOL    HW229221   3.092   7.144   9.958
 9755SOL     OW29222   2.685   6.597   1.385
 9755SOL    HW129223   2.722   6.589   1.297
 9755SOL    HW229224   2.674   6.692   1.397
 9756SOL     OW29225   2.805   6.509   0.296
 9756SOL    HW129226   2.854   6.529   0.216
 9756SOL    HW229227   2.852   6.435   0.334
 9757SOL     OW29228   3.351   7.198   0.075
 9757SOL    HW129229   3.256   7.190   0.082
 9757SOL    HW229230   3.367   7.206   9.981
 9758SOL     OW29231   2.225   6.899   1.502
 9758SOL    HW129232   2.217   6.972   1.441
 9758SOL    HW229233   2.147   6.846   1.486
 9759SOL     OW29234   3.461   6.876   1.277
 9759SOL    HW129235   3.515   6.852   1.352
 9759SOL    HW229236   3.401   6.943   1.311
 9760SOL     OW29237   2.939   6.704   0.731
 9760SOL    HW129238   2.863   6.655   0.762
 9760SOL    HW229239   3.001   6.637   0.702
 9761SOL     OW29240   2.895   5.835   0.962
 9761SOL    HW129241   2.895   5.792   0.876
 9761SOL    HW229242   2.888   5.763   1.024
 9762SOL     OW29243   2.484   7.071   0.508
 9762SOL    HW129244   2.525   7.016   0.441
 9762SOL    HW229245   2.415   7.119   0.461
 9763SOL     OW29246   3.607   5.968   1.388
 9763SOL    HW129247   3.678   6.032   1.384
 9763SOL    HW229248   3.634   5.899   1.327
 9764SOL     OW29249   2.131   6.899   0.282
 9764SOL    HW129250   2.049   6.901   0.234
 9764SOL    HW229251   2.115   6.952   0.360
 9765SOL     OW29252   1.983   6.633   1.736
 9765SOL    HW129253   1.905   6.604   1.785
 9765SOL    HW229254   2.055   6.581   1.773
 9766SOL     OW29255   2.541   5.774   1.495
 9766SOL    HW129256   2.625   5.749   1.456
 9766SOL    HW229257   2.564   5.808   1.582
 9767SOL     OW29258   1.950   5.861   0.021
 9767SOL    HW129259   1.860   5.880   9.992
 9767SOL    HW229260   1.998   5.941   0.000
 9768SOL     OW29261   3.277   6.440   1.388
 9768SOL    HW129262   3.224   6.499   1.333
 9768SOL    HW229263   3.365   6.444   1.351
 9769SOL     OW29264   1.936   5.727   0.278
 9769SOL    HW129265   1.930   5.776   0.196
 9769SOL    HW229266   2.031   5.715   0.291
 9770SOL     OW29267   3.059   6.898   0.146
 9770SOL    HW129268   2.971   6.861   0.137
 9770SOL    HW229269   3.076   6.896   0.240
 9771SOL     OW29270   2.487   6.418   1.441
 9771SOL    HW129271   2.546   6.492   1.430
 9771SOL    HW229272   2.545   6.341   1.440
 9772SOL     OW29273   3.349   7.389   0.993
 9772SOL    HW129274   3.376   7.463   0.938
 9772SOL    HW229275   3.431   7.344   1.014
 9773SOL     OW29276   2.588   6.133   1.686
 9773SOL    HW129277   2.634   6.187   1.750
 9773SOL    HW229278   2.598   6.044   1.718
 9774SOL     OW29279   3.330   6.770   1.619
 9774SOL    HW129280   3.323   6.792   1.712
 9774SOL    HW229281   3.420   6.794   1.596
 9775SOL     OW29282   2.216   7.333   1.580
 9775SOL    HW129283   2.134   7.379   1.562
 9775SOL    HW229284   2.189   7.250   1.618
 9776SOL     OW29285   3.517   6.461   1.253
 9776SOL    HW129286   3.515   6.378   1.207
 9776SOL    HW229287   3.504   6.527   1.185
 9777SOL     OW29288   3.082   5.910   0.452
 9777SOL    HW129289   3.142   5.835   0.449
 9777SOL    HW229290   3.111   5.961   0.527
 9778SOL     OW29291   2.428   6.309   0.678
 9778SOL    HW129292   2.475   6.392   0.666
 9778SOL    HW229293   2.365   6.308   0.606
 9779SOL     OW29294   3.609   5.941   1.664
 9779SOL    HW129295   3.606   5.957   1.570
 9779SOL    HW229296   3.532   5.888   1.682
 9780SOL     OW29297   3.622   6.511   1.504
 9780SOL    HW129298   3.605   6.604   1.517
 9780SOL    HW229299   3.595   6.493   1.414
 9781SOL     OW29300   2.760   7.004   0.043
 9781SOL    HW129301   2.675   6.964   0.026
 9781SOL    HW229302   2.754   7.036   0.133
 9782SOL     OW29303   2.529   7.355   0.929
 9782SOL    HW129304   2.511   7.448   0.919
 9782SOL    HW229305   2.625   7.348   0.926
 9783SOL     OW29306   2.734   6.562   0.857
 9783SOL    HW129307   2.785   6.489   0.893
 9783SOL    HW229308   2.689   6.599   0.932
 9784SOL     OW29309   2.958   6.560   0.074
 9784SOL    HW129310   2.951   6.607   9.991
 9784SOL    HW229311   3.032   6.500   0.062
 9785SOL     OW29312   3.692   7.143   0.841
 9785SOL    HW129313   3.616   7.135   0.784
 9785SOL    HW229314   3.670   7.092   0.918
 9786SOL     OW29315   2.074   6.871   1.836
 9786SOL    HW129316   2.042   6.792   1.793
 9786SOL    HW229317   2.015   6.884   1.910
 9787SOL     OW29318   1.980   6.805   0.670
 9787SOL    HW129319   2.009   6.765   0.752
 9787SOL    HW229320   2.040   6.771   0.604
 9788SOL     OW29321   2.552   7.005   1.634
 9788SOL    HW129322   2.475   6.966   1.675
 9788SOL    HW229323   2.557   7.093   1.670
 9789SOL     OW29324   3.672   5.758   1.234
 9789SOL    HW129325   3.674   5.663   1.247
 9789SOL    HW229326   3.686   5.769   1.140
 9790SOL     OW29327   2.276   6.020   0.516
 9790SOL    HW129328   2.309   5.950   0.460
 9790SOL    HW229329   2.227   5.974   0.585
 9791SOL     OW29330   3.557   7.066   1.082
 9791SOL    HW129331   3.479   7.046   1.030
 9791SOL    HW229332   3.558   6.999   1.150
 9792SOL     OW29333   2.215   6.151   1.292
 9792SOL    HW129334   2.263   6.087   1.342
 9792SOL    HW229335   2.222   6.121   1.201
 9793SOL     OW29336   2.697   7.184   0.662
 9793SOL    HW129337   2.688   7.268   0.615
 9793SOL    HW229338   2.621   7.133   0.633
 9794SOL     OW29339   3.283   5.818   1.115
 9794SOL    HW129340   3.292   5.729   1.148
 9794SOL    HW229341   3.238   5.865   1.185
 9795SOL     OW29342   2.872   5.603   1.119
 9795SOL    HW129343   2.818   5.540   1.073
 9795SOL    HW229344   2.959   5.562   1.123
 9796SOL     OW29345   2.638   6.912   0.344
 9796SOL    HW129346   2.617   6.818   0.347
 9796SOL    HW229347   2.723   6.919   0.386
 9797SOL     OW29348   2.478   7.155   1.289
 9797SOL    HW129349   2.473   7.239   1.335
 9797SOL    HW229350   2.567   7.151   1.256
 9798SOL     OW29351   3.214   5.643   0.176
 9798SOL    HW129352   3.237   5.607   0.091
 9798SOL    HW229353   3.124   5.614   0.192
 9799SOL     OW29354   3.162   6.054   0.675
 9799SOL    HW129355   3.112   6.135   0.671
 9799SOL    HW229356   3.153   6.025   0.766
 9800SOL     OW29357   3.444   5.774   0.893
 9800SOL    HW129358   3.392   5.803   0.968
 9800SOL    HW229359   3.443   5.848   0.833
 9801SOL     OW29360   1.904   6.630   0.303
 9801SOL    HW129361   1.999   6.632   0.308
 9801SOL    HW229362   1.880   6.542   0.332
 9802SOL     OW29363   2.768   7.266   0.344
 9802SOL    HW129364   2.690   7.251   0.292
 9802SOL    HW229365   2.743   7.336   0.405
 9803SOL     OW29366   2.070   6.208   2.010
 9803SOL    HW129367   1.982   6.196   2.046
 9803SOL    HW229368   2.058   6.194   1.915
 9804SOL     OW29369   2.081   5.874   2.852
 9804SOL    HW129370   2.112   5.839   2.935
 9804SOL    HW229371   1.994   5.837   2.840
 9805SOL     OW29372   1.848   5.982   2.508
 9805SOL    HW129373   1.769   6.008   2.555
 9805SOL    HW229374   1.822   5.908   2.453
 9806SOL     OW29375   2.437   6.893   3.071
 9806SOL    HW129376   2.355   6.896   3.022
 9806SOL    HW229377   2.454   6.984   3.095
 9807SOL     OW29378   3.449   7.110   2.563
 9807SOL    HW129379   3.401   7.079   2.640
 9807SOL    HW229380   3.384   7.113   2.494
 9808SOL     OW29381   3.001   6.291   2.548
 9808SOL    HW129382   3.047   6.374   2.537
 9808SOL    HW229383   2.952   6.302   2.629
 9809SOL     OW29384   3.662   6.168   2.082
 9809SOL    HW129385   3.624   6.167   1.994
 9809SOL    HW229386   3.618   6.096   2.128
 9810SOL     OW29387   2.590   6.716   2.921
 9810SOL    HW129388   2.531   6.757   2.985
 9810SOL    HW229389   2.632   6.790   2.877
 9811SOL     OW29390   2.748   6.326   3.693
 9811SOL    HW129391   2.732   6.391   3.760
 9811SOL    HW229392   2.764   6.377   3.613
 9812SOL     OW29393   2.548   6.571   2.506
 9812SOL    HW129394   2.615   6.572   2.574
 9812SOL    HW229395   2.481   6.633   2.537
 9813SOL     OW29396   2.577   6.738   3.697
 9813SOL    HW129397   2.628   6.811   3.732
 9813SOL    HW229398   2.501   6.779   3.656
 9814SOL     OW29399   2.205   6.982   2.931
 9814SOL    HW129400   2.130   6.939   2.892
 9814SOL    HW229401   2.241   7.037   2.862
 9815SOL     OW29402   3.323   7.085   3.238
 9815SOL    HW129403   3.375   7.164   3.249
 9815SOL    HW229404   3.249   7.097   3.298
 9816SOL     OW29405   2.320   5.961   3.318
 9816SOL    HW129406   2.394   5.903   3.333
 9816SOL    HW229407   2.244   5.910   3.345
 9817SOL     OW29408   3.447   6.018   2.615
 9817SOL    HW129409   3.381   6.028   2.546
 9817SOL    HW229410   3.428   6.089   2.677
 9818SOL     OW29411   2.080   7.314   2.326
 9818SOL    HW129412   2.106   7.385   2.385
 9818SOL    HW229413   2.153   7.303   2.266
 9819SOL     OW29414   2.996   6.927   3.560
 9819SOL    HW129415   3.033   6.920   3.648
 9819SOL    HW229416   2.944   6.847   3.550
 9820SOL     OW29417   2.096   7.043   2.395
 9820SOL    HW129418   2.074   7.137   2.399
 9820SOL    HW229419   2.045   7.004   2.466
 9821SOL     OW29420   2.149   6.675   2.742
 9821SOL    HW129421   2.148   6.585   2.776
 9821SOL    HW229422   2.092   6.723   2.802
 9822SOL     OW29423   2.440   7.385   3.289
 9822SOL    HW129424   2.361   7.367   3.341
 9822SOL    HW229425   2.470   7.471   3.320
 9823SOL     OW29426   2.428   6.573   2.014
 9823SOL    HW129427   2.479   6.616   1.945
 9823SOL    HW229428   2.468   6.603   2.095
 9824SOL     OW29429   3.452   5.717   3.325
 9824SOL    HW129430   3.492   5.790   3.279
 9824SOL    HW229431   3.418   5.755   3.406
 9825SOL     OW29432   1.981   6.244   2.429
 9825SOL    HW129433   1.948   6.157   2.452
 9825SOL    HW229434   1.975   6.294   2.510
 9826SOL     OW29435   3.709   7.329   2.180
 9826SOL    HW129436   3.781   7.314   2.241
 9826SOL    HW229437   3.716   7.422   2.157
 9827SOL     OW29438   1.922   7.166   1.972
 9827SOL    HW129439   1.901   7.075   1.991
 9827SOL    HW229440   1.890   7.214   2.048
 9828SOL     OW29441   3.561   6.512   2.515
 9828SOL    HW129442   3.642   6.467   2.491
 9828SOL    HW229443   3.539   6.564   2.438
 9829SOL     OW29444   3.518   6.692   2.295
 9829SOL    HW129445   3.603   6.684   2.252
 9829SOL    HW229446   3.533   6.756   2.365
 9830SOL     OW29447   1.982   6.335   3.439
 9830SOL    HW129448   2.067   6.379   3.443
 9830SOL    HW229449   1.919   6.406   3.425
 9831SOL     OW29450   2.485   6.984   2.593
 9831SOL    HW129451   2.443   6.898   2.598
 9831SOL    HW229452   2.470   7.013   2.503
 9832SOL     OW29453   3.131   6.806   3.285
 9832SOL    HW129454   3.156   6.738   3.222
 9832SOL    HW229455   3.194   6.798   3.356
 9833SOL     OW29456   2.694   5.598   2.380
 9833SOL    HW129457   2.734   5.681   2.353
 9833SOL    HW229458   2.600   5.616   2.380
 9834SOL     OW29459   2.050   6.542   3.165
 9834SOL    HW129460   2.137   6.507   3.148
 9834SOL    HW229461   1.996   6.507   3.093
 9835SOL     OW29462   3.397   6.601   2.062
 9835SOL    HW129463   3.328   6.541   2.092
 9835SOL    HW229464   3.439   6.631   2.142
 9836SOL     OW29465   3.045   7.410   3.499
 9836SOL    HW129466   3.044   7.472   3.426
 9836SOL    HW229467   3.062   7.325   3.458
 9837SOL     OW29468   2.221   5.840   3.737
 9837SOL    HW129469   2.257   5.920   3.775
 9837SOL    HW229470   2.127   5.854   3.735
 9838SOL     OW29471   3.328   7.006   2.787
 9838SOL    HW129472   3.268   7.023   2.860
 9838SOL    HW229473   3.313   6.914   2.765
 9839SOL     OW29474   3.500   7.382   2.424
 9839SOL    HW129475   3.483   7.336   2.342
 9839SOL    HW229476   3.498   7.313   2.491
 9840SOL     OW29477   2.449   6.286   2.134
 9840SOL    HW129478   2.451   6.373   2.095
 9840SOL    HW229479   2.384   6.292   2.204
 9841SOL     OW29480   3.144   5.981   2.802
 9841SOL    HW129481   3.055   5.946   2.807
 9841SOL    HW229482   3.196   5.921   2.856
 9842SOL     OW29483   3.442   7.259   2.181
 9842SOL    HW129484   3.535   7.274   2.170
 9842SOL    HW229485   3.408   7.247   2.092
 9843SOL     OW29486   2.660   6.194   3.295
 9843SOL    HW129487   2.634   6.166   3.383
 9843SOL    HW229488   2.632   6.124   3.237
 9844SOL     OW29489   3.261   6.074   3.537
 9844SOL    HW129490   3.261   6.105   3.628
 9844SOL    HW229491   3.302   5.988   3.542
 9845SOL     OW29492   2.805   6.468   3.457
 9845SOL    HW129493   2.860   6.403   3.413
 9845SOL    HW229494   2.757   6.511   3.387
 9846SOL     OW29495   2.868   5.981   3.068
 9846SOL    HW129496   2.776   5.995   3.092
 9846SOL    HW229497   2.865   5.938   2.983
 9847SOL     OW29498   2.921   6.283   2.280
 9847SOL    HW129499   2.941   6.280   2.374
 9847SOL    HW229500   2.836   6.240   2.273
 9848SOL     OW29501   1.955   6.410   2.645
 9848SOL    HW129502   2.037   6.405   2.695
 9848SOL    HW229503   1.906   6.482   2.685
 9849SOL     OW29504   1.971   7.466   3.449
 9849SOL    HW129505   1.979   7.445   3.543
 9849SOL    HW229506   1.885   7.433   3.424
 9850SOL     OW29507   2.750   5.937   2.062
 9850SOL    HW129508   2.801   5.990   2.001
 9850SOL    HW229509   2.725   5.860   2.012
 9851SOL     OW29510   3.599   6.221   3.625
 9851SOL    HW129511   3.673   6.214   3.686
 9851SOL    HW229512   3.590   6.133   3.589
 9852SOL     OW29513   3.254   6.735   2.402
 9852SOL    HW129514   3.334   6.724   2.350
 9852SOL    HW229515   3.201   6.796   2.352
 9853SOL     OW29516   2.414   5.746   2.777
 9853SOL    HW129517   2.419   5.775   2.868
 9853SOL    HW229518   2.409   5.827   2.727
 9854SOL     OW29519   2.859   7.042   2.327
 9854SOL    HW129520   2.834   7.116   2.271
 9854SOL    HW229521   2.829   7.067   2.414
 9855SOL     OW29522   2.216   7.402   2.741
 9855SOL    HW129523   2.261   7.318   2.746
 9855SOL    HW229524   2.283   7.466   2.763
 9856SOL     OW29525   3.666   6.630   2.754
 9856SOL    HW129526   3.622   6.616   2.670
 9856SOL    HW229527   3.595   6.634   2.817
 9857SOL     OW29528   3.085   7.128   3.379
 9857SOL    HW129529   3.070   7.056   3.441
 9857SOL    HW229530   3.012   7.121   3.317
 9858SOL     OW29531   2.162   6.545   2.128
 9858SOL    HW129532   2.245   6.566   2.084
 9858SOL    HW229533   2.139   6.458   2.095
 9859SOL     OW29534   3.347   6.351   2.574
 9859SOL    HW129535   3.350   6.306   2.659
 9859SOL    HW229536   3.427   6.403   2.572
 9860SOL     OW29537   2.335   6.870   3.610
 9860SOL    HW129538   2.311   6.874   3.517
 9860SOL    HW229539   2.252   6.857   3.655
 9861SOL     OW29540   3.002   7.361   2.089
 9861SOL    HW129541   2.919   7.331   2.127
 9861SOL    HW229542   3.022   7.297   2.021
 9862SOL     OW29543   2.070   5.843   3.361
 9862SOL    HW129544   1.995   5.902   3.374
 9862SOL    HW229545   2.041   5.759   3.395
 9863SOL     OW29546   3.500   6.974   1.963
 9863SOL    HW129547   3.459   7.060   1.949
 9863SOL    HW229548   3.433   6.911   1.936
 9864SOL     OW29549   2.321   7.327   2.177
 9864SOL    HW129550   2.370   7.378   2.242
 9864SOL    HW229551   2.388   7.287   2.123
 9865SOL     OW29552   3.259   5.691   2.321
 9865SOL    HW129553   3.259   5.666   2.228
 9865SOL    HW229554   3.350   5.676   2.349
 9866SOL     OW29555   2.113   7.375   3.076
 9866SOL    HW129556   2.161   7.299   3.109
 9866SOL    HW229557   2.095   7.354   2.984
 9867SOL     OW29558   2.811   7.288   2.752
 9867SOL    HW129559   2.896   7.247   2.765
 9867SOL    HW229560   2.770   7.238   2.681
 9868SOL     OW29561   2.257   6.271   2.336
 9868SOL    HW129562   2.270   6.177   2.348
 9868SOL    HW229563   2.164   6.285   2.353
 9869SOL     OW29564   3.361   5.814   3.585
 9869SOL    HW129565   3.368   5.833   3.678
 9869SOL    HW229566   3.302   5.738   3.580
 9870SOL     OW29567   2.525   5.695   1.965
 9870SOL    HW129568   2.572   5.616   1.991
 9870SOL    HW229569   2.464   5.665   1.898
 9871SOL     OW29570   2.624   5.858   3.615
 9871SOL    HW129571   2.708   5.813   3.613
 9871SOL    HW229572   2.576   5.815   3.687
 9872SOL     OW29573   2.732   7.111   3.063
 9872SOL    HW129574   2.714   7.072   2.978
 9872SOL    HW229575   2.799   7.055   3.101
 9873SOL     OW29576   3.185   6.169   3.292
 9873SOL    HW129577   3.220   6.144   3.377
 9873SOL    HW229578   3.220   6.257   3.276
 9874SOL     OW29579   2.679   6.962   2.819
 9874SOL    HW129580   2.767   6.958   2.781
 9874SOL    HW229581   2.621   6.978   2.744
 9875SOL     OW29582   2.792   6.101   2.749
 9875SOL    HW129583   2.767   6.090   2.657
 9875SOL    HW229584   2.819   6.014   2.777
 9876SOL     OW29585   2.426   5.650   2.352
 9876SOL    HW129586   2.348   5.650   2.408
 9876SOL    HW229587   2.414   5.724   2.293
 9877SOL     OW29588   3.296   6.798   1.894
 9877SOL    HW129589   3.325   6.724   1.947
 9877SOL    HW229590   3.210   6.821   1.930
 9878SOL     OW29591   2.144   5.634   2.050
 9878SOL    HW129592   2.197   5.701   2.007
 9878SOL    HW229593   2.208   5.576   2.092
 9879SOL     OW29594   2.814   5.837   2.312
 9879SOL    HW129595   2.788   5.872   2.227
 9879SOL    HW229596   2.908   5.854   2.318
 9880SOL     OW29597   2.932   6.280   3.308
 9880SOL    HW129598   2.860   6.216   3.309
 9880SOL    HW229599   3.011   6.227   3.302
 9881SOL     OW29600   3.067   7.174   2.665
 9881SOL    HW129601   3.082   7.234   2.592
 9881SOL    HW229602   3.142   7.187   2.722
 9882SOL     OW29603   2.344   6.747   2.570
 9882SOL    HW129604   2.283   6.723   2.639
 9882SOL    HW229605   2.294   6.741   2.489
 9883SOL     OW29606   3.113   7.378   2.479
 9883SOL    HW129607   3.163   7.441   2.426
 9883SOL    HW229608   3.042   7.430   2.517
 9884SOL     OW29609   2.894   6.100   1.891
 9884SOL    HW129610   2.852   6.184   1.873
 9884SOL    HW229611   2.958   6.121   1.960
 9885SOL     OW29612   1.962   6.137   3.253
 9885SOL    HW129613   2.054   6.139   3.227
 9885SOL    HW229614   1.954   6.206   3.319
 9886SOL     OW29615   2.421   5.808   3.047
 9886SOL    HW129616   2.458   5.742   3.106
 9886SOL    HW229617   2.328   5.808   3.067
 9887SOL     OW29618   2.732   6.041   2.491
 9887SOL    HW129619   2.693   6.097   2.424
 9887SOL    HW229620   2.757   5.961   2.444
 9888SOL     OW29621   2.883   5.645   2.601
 9888SOL    HW129622   2.823   5.639   2.528
 9888SOL    HW229623   2.859   5.572   2.658
 9889SOL     OW29624   3.298   6.740   2.711
 9889SOL    HW129625   3.223   6.681   2.713
 9889SOL    HW229626   3.320   6.748   2.618
 9890SOL     OW29627   3.326   6.201   2.810
 9890SOL    HW129628   3.262   6.130   2.819
 9890SOL    HW229629   3.382   6.193   2.888
 9891SOL     OW29630   3.689   6.382   2.250
 9891SOL    HW129631   3.750   6.339   2.310
 9891SOL    HW229632   3.676   6.319   2.180
 9892SOL     OW29633   2.360   7.010   2.012
 9892SOL    HW129634   2.285   6.978   2.062
 9892SOL    HW229635   2.356   6.961   1.930
 9893SOL     OW29636   3.569   6.854   2.501
 9893SOL    HW129637   3.663   6.847   2.521
 9893SOL    HW229638   3.547   6.944   2.523
 9894SOL     OW29639   3.255   6.161   1.927
 9894SOL    HW129640   3.198   6.134   2.000
 9894SOL    HW229641   3.343   6.136   1.955
 9895SOL     OW29642   2.389   5.843   2.164
 9895SOL    HW129643   2.442   5.801   2.096
 9895SOL    HW229644   2.357   5.924   2.123
 9896SOL     OW29645   3.607   6.814   3.450
 9896SOL    HW129646   3.691   6.784   3.416
 9896SOL    HW229647   3.618   6.907   3.466
 9897SOL     OW29648   2.903   6.936   3.196
 9897SOL    HW129649   2.825   6.904   3.242
 9897SOL    HW229650   2.976   6.893   3.240
 9898SOL     OW29651   3.473   7.215   3.532
 9898SOL    HW129652   3.461   7.253   3.445
 9898SOL    HW229653   3.552   7.161   3.524
 9899SOL     OW29654   3.017   6.823   2.969
 9899SOL    HW129655   2.955   6.856   3.034
 9899SOL    HW229656   2.983   6.855   2.885
 9900SOL     OW29657   3.462   6.665   2.932
 9900SOL    HW129658   3.452   6.734   2.998
 9900SOL    HW229659   3.396   6.686   2.866
 9901SOL     OW29660   2.779   5.667   3.245
 9901SOL    HW129661   2.800   5.652   3.153
 9901SOL    HW229662   2.858   5.707   3.281
 9902SOL     OW29663   2.844   6.698   3.592
 9902SOL    HW129664   2.755   6.717   3.620
 9902SOL    HW229665   2.837   6.619   3.539
 9903SOL     OW29666   2.576   6.648   2.238
 9903SOL    HW129667   2.561   6.622   2.329
 9903SOL    HW229668   2.651   6.595   2.210
 9904SOL     OW29669   2.290   6.413   3.122
 9904SOL    HW129670   2.358   6.422   3.189
 9904SOL    HW229671   2.259   6.323   3.131
 9905SOL     OW29672   3.124   5.946   3.149
 9905SOL    HW129673   3.151   6.027   3.193
 9905SOL    HW229674   3.035   5.964   3.119
 9906SOL     OW29675   1.939   7.155   3.225
 9906SOL    HW129676   1.908   7.226   3.169
 9906SOL    HW229677   2.034   7.156   3.214
 9907SOL     OW29678   2.179   6.720   2.349
 9907SOL    HW129679   2.180   6.792   2.285
 9907SOL    HW229680   2.176   6.641   2.295
 9908SOL     OW29681   2.397   6.104   2.723
 9908SOL    HW129682   2.409   6.162   2.648
 9908SOL    HW229683   2.465   6.129   2.784
 9909SOL     OW29684   3.108   6.940   2.260
 9909SOL    HW129685   3.165   7.010   2.293
 9909SOL    HW229686   3.021   6.964   2.290
 9910SOL     OW29687   3.175   7.053   3.008
 9910SOL    HW129688   3.223   7.057   3.090
 9910SOL    HW229689   3.124   6.973   3.013
 9911SOL     OW29690   3.436   6.203   2.348
 9911SOL    HW129691   3.385   6.245   2.418
 9911SOL    HW229692   3.485   6.275   2.308
 9912SOL     OW29693   2.206   7.120   3.163
 9912SOL    HW129694   2.199   7.067   3.083
 9912SOL    HW229695   2.300   7.136   3.173
 9913SOL     OW29696   2.291   6.335   3.478
 9913SOL    HW129697   2.353   6.375   3.417
 9913SOL    HW229698   2.328   6.248   3.496
 9914SOL     OW29699   2.861   5.728   3.617
 9914SOL    HW129700   2.921   5.800   3.599
 9914SOL    HW229701   2.911   5.649   3.597
 9915SOL     OW29702   2.358   5.623   3.625
 9915SOL    HW129703   2.303   5.572   3.565
 9915SOL    HW229704   2.305   5.699   3.646
 9916SOL     OW29705   2.455   6.461   2.902
 9916SOL    HW129706   2.492   6.549   2.905
 9916SOL    HW229707   2.396   6.457   2.977
 9917SOL     OW29708   3.171   6.433   2.873
 9917SOL    HW129709   3.083   6.408   2.842
 9917SOL    HW229710   3.226   6.359   2.849
 9918SOL     OW29711   3.061   6.109   2.119
 9918SOL    HW129712   3.071   6.032   2.175
 9918SOL    HW229713   3.019   6.174   2.175
 9919SOL     OW29714   2.154   5.780   3.101
 9919SOL    HW129715   2.119   5.808   3.186
 9919SOL    HW229716   2.137   5.686   3.098
 9920SOL     OW29717   1.913   6.898   3.128
 9920SOL    HW129718   1.942   6.842   3.200
 9920SOL    HW229719   1.915   6.986   3.164
 9921SOL     OW29720   2.576   6.209   2.902
 9921SOL    HW129721   2.652   6.202   2.845
 9921SOL    HW229722   2.546   6.299   2.892
 9922SOL     OW29723   3.545   6.573   3.711
 9922SOL    HW129724   3.554   6.666   3.690
 9922SOL    HW229725   3.497   6.572   3.794
 9923SOL     OW29726   2.187   5.646   2.490
 9923SOL    HW129727   2.153   5.734   2.508
 9923SOL    HW229728   2.193   5.604   2.576
 9924SOL     OW29729   3.494   5.976   2.206
 9924SOL    HW129730   3.526   5.911   2.268
 9924SOL    HW229731   3.464   6.048   2.261
 9925SOL     OW29732   2.897   6.344   2.815
 9925SOL    HW129733   2.875   6.359   2.907
 9925SOL    HW229734   2.866   6.255   2.798
 9926SOL     OW29735   2.844   7.154   3.594
 9926SOL    HW129736   2.824   7.196   3.510
 9926SOL    HW229737   2.881   7.069   3.569
 9927SOL     OW29738   3.705   7.075   3.463
 9927SOL    HW129739   3.727   7.104   3.374
 9927SOL    HW229740   3.784   7.091   3.514
 9928SOL     OW29741   2.212   6.506   3.678
 9928SOL    HW129742   2.289   6.521   3.732
 9928SOL    HW229743   2.241   6.443   3.612
 9929SOL     OW29744   3.382   5.855   1.981
 9929SOL    HW129745   3.330   5.784   2.018
 9929SOL    HW229746   3.422   5.898   2.057
 9930SOL     OW29747   3.144   6.408   1.882
 9930SOL    HW129748   3.183   6.321   1.889
 9930SOL    HW229749   3.180   6.444   1.801
 9931SOL     OW29750   2.934   6.939   2.731
 9931SOL    HW129751   2.944   6.866   2.669
 9931SOL    HW229752   2.984   7.010   2.693
 9932SOL     OW29753   2.180   6.401   2.807
 9932SOL    HW129754   2.275   6.414   2.802
 9932SOL    HW229755   2.170   6.311   2.838
 9933SOL     OW29756   2.175   6.123   2.874
 9933SOL    HW129757   2.136   6.037   2.864
 9933SOL    HW229758   2.253   6.122   2.818
 9934SOL     OW29759   3.006   5.956   3.545
 9934SOL    HW129760   2.957   6.005   3.612
 9934SOL    HW229761   3.088   6.005   3.535
 9935SOL     OW29762   3.017   5.774   3.336
 9935SOL    HW129763   3.007   5.837   3.406
 9935SOL    HW229764   3.062   5.821   3.266
 9936SOL     OW29765   1.886   6.889   2.041
 9936SOL    HW129766   1.797   6.911   2.016
 9936SOL    HW229767   1.879   6.803   2.082
 9937SOL     OW29768   1.956   7.355   2.815
 9937SOL    HW129769   1.921   7.282   2.764
 9937SOL    HW229770   2.042   7.372   2.777
 9938SOL     OW29771   2.347   7.156   2.763
 9938SOL    HW129772   2.418   7.217   2.786
 9938SOL    HW229773   2.388   7.094   2.702
 9939SOL     OW29774   2.812   6.368   3.073
 9939SOL    HW129775   2.872   6.357   3.147
 9939SOL    HW229776   2.733   6.320   3.099
 9940SOL     OW29777   1.900   6.157   2.983
 9940SOL    HW129778   1.982   6.154   2.932
 9940SOL    HW229779   1.929   6.150   3.074
 9941SOL     OW29780   2.046   6.124   3.606
 9941SOL    HW129781   2.112   6.085   3.548
 9941SOL    HW229782   2.011   6.198   3.556
 9942SOL     OW29783   3.291   6.484   3.518
 9942SOL    HW129784   3.292   6.580   3.517
 9942SOL    HW229785   3.267   6.459   3.429
 9943SOL     OW29786   2.680   6.155   2.233
 9943SOL    HW129787   2.689   6.081   2.174
 9943SOL    HW229788   2.603   6.203   2.202
 9944SOL     OW29789   3.498   6.183   3.025
 9944SOL    HW129790   3.489   6.119   3.096
 9944SOL    HW229791   3.590   6.174   2.997
 9945SOL     OW29792   2.089   7.125   3.585
 9945SOL    HW129793   2.064   7.175   3.663
 9945SOL    HW229794   2.100   7.036   3.616
 9946SOL     OW29795   2.595   6.019   3.097
 9946SOL    HW129796   2.531   5.950   3.082
 9946SOL    HW229797   2.578   6.083   3.028
 9947SOL     OW29798   2.778   7.261   3.342
 9947SOL    HW129799   2.752   7.216   3.262
 9947SOL    HW229800   2.776   7.354   3.319
 9948SOL     OW29801   2.305   6.067   2.026
 9948SOL    HW129802   2.369   6.134   2.051
 9948SOL    HW229803   2.221   6.113   2.029
 9949SOL     OW29804   1.993   6.736   3.343
 9949SOL    HW129805   1.996   6.697   3.430
 9949SOL    HW229806   2.014   6.665   3.283
 9950SOL     OW29807   3.160   6.614   3.077
 9950SOL    HW129808   3.172   6.551   3.006
 9950SOL    HW229809   3.111   6.686   3.037
 9951SOL     OW29810   3.187   6.446   2.154
 9951SOL    HW129811   3.117   6.410   2.207
 9951SOL    HW229812   3.159   6.431   2.063
 9952SOL     OW29813   3.648   7.312   3.031
 9952SOL    HW129814   3.711   7.338   2.964
 9952SOL    HW229815   3.615   7.227   3.000
 9953SOL     OW29816   3.104   7.319   2.955
 9953SOL    HW129817   3.188   7.348   2.920
 9953SOL    HW229818   3.119   7.227   2.979
 9954SOL     OW29819   1.969   6.832   2.871
 9954SOL    HW129820   1.941   6.854   2.960
 9954SOL    HW229821   1.897   6.780   2.836
 9955SOL     OW29822   2.547   7.269   3.612
 9955SOL    HW129823   2.482   7.339   3.600
 9955SOL    HW229824   2.620   7.295   3.555
 9956SOL     OW29825   3.607   5.770   2.358
 9956SOL    HW129826   3.666   5.750   2.285
 9956SOL    HW229827   3.580   5.685   2.391
 9957SOL     OW29828   3.258   7.156   2.364
 9957SOL    HW129829   3.313   7.191   2.293
 9957SOL    HW229830   3.203   7.230   2.390
 9958SOL     OW29831   1.997   7.392   3.706
 9958SOL    HW129832   1.956   7.316   3.747
 9958SOL    HW229833   2.047   7.434   3.776
 9959SOL     OW29834   3.142   6.524   2.529
 9959SOL    HW129835   3.216   6.464   2.541
 9959SOL    HW229836   3.178   6.594   2.474
 9960SOL     OW29837   2.645   6.865   3.279
 9960SOL    HW129838   2.619   6.913   3.358
 9960SOL    HW229839   2.571   6.876   3.219
 9961SOL     OW29840   2.530   7.221   2.021
 9961SOL    HW129841   2.545   7.236   1.928
 9961SOL    HW229842   2.478   7.141   2.025
 9962SOL     OW29843   3.480   7.313   3.263
 9962SOL    HW129844   3.536   7.315   3.186
 9962SOL    HW229845   3.464   7.406   3.283
 9963SOL     OW29846   3.707   5.747   2.832
 9963SOL    HW129847   3.736   5.658   2.810
 9963SOL    HW229848   3.620   5.754   2.791
 9964SOL     OW29849   2.105   5.892   2.570
 9964SOL    HW129850   2.019   5.929   2.549
 9964SOL    HW229851   2.108   5.894   2.666
 9965SOL     OW29852   3.072   7.174   1.900
 9965SOL    HW129853   3.061   7.083   1.927
 9965SOL    HW229854   3.002   7.188   1.836
 9966SOL     OW29855   2.685   6.597   3.248
 9966SOL    HW129856   2.720   6.589   3.159
 9966SOL    HW229857   2.673   6.691   3.260
 9967SOL     OW29858   2.783   6.497   2.157
 9967SOL    HW129859   2.839   6.530   2.087
 9967SOL    HW229860   2.835   6.429   2.200
 9968SOL     OW29861   3.346   7.231   1.920
 9968SOL    HW129862   3.253   7.211   1.903
 9968SOL    HW229863   3.386   7.234   1.833
 9969SOL     OW29864   2.226   6.899   3.363
 9969SOL    HW129865   2.217   6.972   3.302
 9969SOL    HW229866   2.148   6.845   3.347
 9970SOL     OW29867   3.459   6.874   3.113
 9970SOL    HW129868   3.547   6.873   3.152
 9970SOL    HW229869   3.409   6.935   3.168
 9971SOL     OW29870   2.940   6.706   2.593
 9971SOL    HW129871   2.864   6.657   2.623
 9971SOL    HW229872   3.001   6.639   2.562
 9972SOL     OW29873   2.895   5.835   2.821
 9972SOL    HW129874   2.894   5.792   2.735
 9972SOL    HW229875   2.888   5.763   2.884
 9973SOL     OW29876   2.467   7.073   2.338
 9973SOL    HW129877   2.521   7.024   2.276
 9973SOL    HW229878   2.385   7.088   2.291
 9974SOL     OW29879   3.614   5.970   3.259
 9974SOL    HW129880   3.684   6.036   3.250
 9974SOL    HW229881   3.638   5.902   3.196
 9975SOL     OW29882   2.142   6.927   2.161
 9975SOL    HW129883   2.055   6.919   2.122
 9975SOL    HW229884   2.127   6.975   2.242
 9976SOL     OW29885   1.982   6.633   3.598
 9976SOL    HW129886   1.905   6.605   3.647
 9976SOL    HW229887   2.054   6.582   3.635
 9977SOL     OW29888   2.541   5.775   3.358
 9977SOL    HW129889   2.624   5.749   3.319
 9977SOL    HW229890   2.564   5.808   3.444
 9978SOL     OW29891   1.948   5.903   1.876
 9978SOL    HW129892   1.870   5.882   1.824
 9978SOL    HW229893   1.975   5.990   1.845
 9979SOL     OW29894   3.272   6.429   3.252
 9979SOL    HW129895   3.216   6.488   3.202
 9979SOL    HW229896   3.358   6.435   3.209
 9980SOL     OW29897   1.905   5.735   2.134
 9980SOL    HW129898   1.893   5.805   2.070
 9980SOL    HW229899   1.994   5.703   2.117
 9981SOL     OW29900   3.044   6.908   1.984
 9981SOL    HW129901   2.953   6.879   1.983
 9981SOL    HW229902   3.067   6.911   2.077
 9982SOL     OW29903   2.491   6.412   3.303
 9982SOL    HW129904   2.549   6.487   3.291
 9982SOL    HW229905   2.550   6.337   3.304
 9983SOL     OW29906   3.350   7.389   2.855
 9983SOL    HW129907   3.374   7.463   2.800
 9983SOL    HW229908   3.433   7.349   2.878
 9984SOL     OW29909   2.590   6.130   3.548
 9984SOL    HW129910   2.634   6.184   3.614
 9984SOL    HW229911   2.599   6.041   3.581
 9985SOL     OW29912   3.330   6.756   3.492
 9985SOL    HW129913   3.311   6.785   3.581
 9985SOL    HW229914   3.418   6.789   3.474
 9986SOL     OW29915   2.215   7.333   3.442
 9986SOL    HW129916   2.134   7.379   3.423
 9986SOL    HW229917   2.188   7.250   3.480
 9987SOL     OW29918   3.509   6.456   3.114
 9987SOL    HW129919   3.513   6.372   3.068
 9987SOL    HW229920   3.497   6.521   3.044
 9988SOL     OW29921   3.083   5.909   2.318
 9988SOL    HW129922   3.143   5.834   2.317
 9988SOL    HW229923   3.112   5.961   2.393
 9989SOL     OW29924   2.438   6.313   2.544
 9989SOL    HW129925   2.481   6.396   2.529
 9989SOL    HW229926   2.377   6.303   2.471
 9990SOL     OW29927   3.590   5.964   3.532
 9990SOL    HW129928   3.597   5.965   3.437
 9990SOL    HW229929   3.519   5.902   3.550
 9991SOL     OW29930   3.569   6.527   3.374
 9991SOL    HW129931   3.578   6.623   3.376
 9991SOL    HW229932   3.563   6.506   3.281
 9992SOL     OW29933   2.734   6.943   1.925
 9992SOL    HW129934   2.695   6.961   2.011
 9992SOL    HW229935   2.743   7.029   1.884
 9993SOL     OW29936   2.531   7.352   2.788
 9993SOL    HW129937   2.511   7.446   2.780
 9993SOL    HW229938   2.626   7.348   2.787
 9994SOL     OW29939   2.734   6.564   2.717
 9994SOL    HW129940   2.784   6.490   2.752
 9994SOL    HW229941   2.689   6.600   2.794
 9995SOL     OW29942   2.935   6.570   1.949
 9995SOL    HW129943   2.914   6.624   1.872
 9995SOL    HW229944   3.009   6.516   1.920
 9996SOL     OW29945   3.692   7.145   2.696
 9996SOL    HW129946   3.617   7.137   2.637
 9996SOL    HW229947   3.665   7.100   2.776
 9997SOL     OW29948   2.074   6.872   3.698
 9997SOL    HW129949   2.042   6.792   3.655
 9997SOL    HW229950   2.015   6.884   3.772
 9998SOL     OW29951   1.978   6.812   2.530
 9998SOL    HW129952   2.006   6.770   2.611
 9998SOL    HW229953   2.038   6.778   2.463
 9999SOL     OW29954   2.554   7.004   3.500
 9999SOL    HW129955   2.475   6.966   3.538
 9999SOL    HW229956   2.557   7.094   3.534
10000SOL     OW29957   3.670   5.760   3.101
10000SOL    HW129958   3.674   5.665   3.115
10000SOL    HW229959   3.684   5.771   3.007
10001SOL     OW29960   2.281   6.008   2.381
10001SOL    HW129961   2.314   5.937   2.326
10001SOL    HW229962   2.228   5.964   2.448
10002SOL     OW29963   3.553   7.073   2.930
10002SOL    HW129964   3.474   7.058   2.877
10002SOL    HW229965   3.551   7.004   2.995
10003SOL     OW29966   2.214   6.152   3.154
10003SOL    HW129967   2.263   6.086   3.204
10003SOL    HW229968   2.221   6.122   3.063
10004SOL     OW29969   2.700   7.172   2.532
10004SOL    HW129970   2.671   7.242   2.474
10004SOL    HW229971   2.625   7.113   2.539
10005SOL     OW29972   3.282   5.814   2.970
10005SOL    HW129973   3.287   5.722   2.995
10005SOL    HW229974   3.235   5.857   3.042
10006SOL     OW29975   2.872   5.604   2.981
10006SOL    HW129976   2.818   5.540   2.934
10006SOL    HW229977   2.959   5.563   2.986
10007SOL     OW29978   2.642   6.918   2.190
10007SOL    HW129979   2.618   6.827   2.202
10007SOL    HW229980   2.722   6.929   2.242
10008SOL     OW29981   2.478   7.154   3.152
10008SOL    HW129982   2.474   7.237   3.199
10008SOL    HW229983   2.568   7.150   3.118
10009SOL     OW29984   3.243   5.624   2.054
10009SOL    HW129985   3.283   5.552   2.006
10009SOL    HW229986   3.151   5.598   2.065
10010SOL     OW29987   3.160   6.058   2.536
10010SOL    HW129988   3.109   6.139   2.533
10010SOL    HW229989   3.154   6.029   2.626
10011SOL     OW29990   3.447   5.774   2.751
10011SOL    HW129991   3.393   5.802   2.825
10011SOL    HW229992   3.447   5.848   2.691
10012SOL     OW29993   1.899   6.638   2.171
10012SOL    HW129994   1.992   6.626   2.152
10012SOL    HW229995   1.867   6.549   2.191
10013SOL     OW29996   2.757   7.261   2.191
10013SOL    HW129997   2.678   7.246   2.139
10013SOL    HW229998   2.731   7.330   2.253
10014SOL     OW29999   2.070   6.208   3.871
10014SOL    HW130000   1.983   6.196   3.908
10014SOL    HW230001   2.059   6.194   3.777
10015SOL     OW30002   2.081   5.875   4.714
10015SOL    HW130003   2.112   5.839   4.797
10015SOL    HW230004   1.994   5.837   4.702
10016SOL     OW30005   1.848   5.983   4.370
10016SOL    HW130006   1.769   6.008   4.417
10016SOL    HW230007   1.822   5.909   4.315
10017SOL     OW30008   2.437   6.894   4.932
10017SOL    HW130009   2.355   6.897   4.884
10017SOL    HW230010   2.454   6.985   4.956
10018SOL     OW30011   3.451   7.106   4.430
10018SOL    HW130012   3.404   7.075   4.507
10018SOL    HW230013   3.383   7.110   4.362
10019SOL     OW30014   3.000   6.287   4.411
10019SOL    HW130015   3.046   6.371   4.400
10019SOL    HW230016   2.952   6.297   4.493
10020SOL     OW30017   3.643   6.169   3.917
10020SOL    HW130018   3.560   6.190   3.872
10020SOL    HW230019   3.622   6.093   3.971
10021SOL     OW30020   2.588   6.716   4.780
10021SOL    HW130021   2.530   6.756   4.845
10021SOL    HW230022   2.631   6.790   4.737
10022SOL     OW30023   2.750   6.328   5.552
10022SOL    HW130024   2.743   6.395   5.620
10022SOL    HW230025   2.767   6.376   5.472
10023SOL     OW30026   2.549   6.571   4.367
10023SOL    HW130027   2.615   6.571   4.436
10023SOL    HW230028   2.482   6.632   4.399
10024SOL     OW30029   2.573   6.735   5.556
10024SOL    HW130030   2.624   6.808   5.591
10024SOL    HW230031   2.497   6.777   5.515
10025SOL     OW30032   2.205   6.983   4.793
10025SOL    HW130033   2.129   6.940   4.754
10025SOL    HW230034   2.241   7.038   4.724
10026SOL     OW30035   3.315   7.093   5.096
10026SOL    HW130036   3.371   7.170   5.109
10026SOL    HW230037   3.244   7.105   5.159
10027SOL     OW30038   2.320   5.960   5.179
10027SOL    HW130039   2.395   5.903   5.195
10027SOL    HW230040   2.244   5.909   5.207
10028SOL     OW30041   3.442   6.017   4.478
10028SOL    HW130042   3.366   6.024   4.420
10028SOL    HW230043   3.429   6.087   4.542
10029SOL     OW30044   2.079   7.314   4.189
10029SOL    HW130045   2.106   7.385   4.247
10029SOL    HW230046   2.153   7.303   4.129
10030SOL     OW30047   2.996   6.928   5.421
10030SOL    HW130048   3.043   6.916   5.503
10030SOL    HW230049   2.943   6.849   5.412
10031SOL     OW30050   2.095   7.043   4.257
10031SOL    HW130051   2.073   7.136   4.261
10031SOL    HW230052   2.045   7.003   4.328
10032SOL     OW30053   2.148   6.676   4.603
10032SOL    HW130054   2.149   6.586   4.637
10032SOL    HW230055   2.092   6.723   4.664
10033SOL     OW30056   2.435   7.390   5.144
10033SOL    HW130057   2.359   7.370   5.199
10033SOL    HW230058   2.468   7.473   5.179
10034SOL     OW30059   2.428   6.573   3.875
10034SOL    HW130060   2.479   6.616   3.807
10034SOL    HW230061   2.468   6.603   3.957
10035SOL     OW30062   3.447   5.722   5.179
10035SOL    HW130063   3.491   5.795   5.136
10035SOL    HW230064   3.419   5.757   5.264
10036SOL     OW30065   1.981   6.245   4.291
10036SOL    HW130066   1.949   6.158   4.315
10036SOL    HW230067   1.975   6.295   4.372
10037SOL     OW30068   3.709   7.328   4.045
10037SOL    HW130069   3.782   7.313   4.106
10037SOL    HW230070   3.717   7.421   4.022
10038SOL     OW30071   1.922   7.166   3.834
10038SOL    HW130072   1.900   7.074   3.853
10038SOL    HW230073   1.890   7.214   3.911
10039SOL     OW30074   3.561   6.505   4.383
10039SOL    HW130075   3.651   6.471   4.382
10039SOL    HW230076   3.552   6.553   4.301
10040SOL     OW30077   3.523   6.684   4.158
10040SOL    HW130078   3.607   6.676   4.112
10040SOL    HW230079   3.538   6.750   4.225
10041SOL     OW30080   1.984   6.335   5.302
10041SOL    HW130081   2.070   6.377   5.306
10041SOL    HW230082   1.922   6.407   5.289
10042SOL     OW30083   2.486   6.984   4.454
10042SOL    HW130084   2.444   6.898   4.459
10042SOL    HW230085   2.470   7.013   4.364
10043SOL     OW30086   3.133   6.812   5.140
10043SOL    HW130087   3.161   6.743   5.080
10043SOL    HW230088   3.195   6.807   5.213
10044SOL     OW30089   2.695   5.601   4.242
10044SOL    HW130090   2.734   5.684   4.215
10044SOL    HW230091   2.601   5.618   4.242
10045SOL     OW30092   2.049   6.542   5.026
10045SOL    HW130093   2.136   6.507   5.009
10045SOL    HW230094   1.995   6.506   4.956
10046SOL     OW30095   3.385   6.594   3.935
10046SOL    HW130096   3.315   6.537   3.967
10046SOL    HW230097   3.431   6.623   4.014
10047SOL     OW30098   3.041   7.408   5.360
10047SOL    HW130099   3.043   7.470   5.287
10047SOL    HW230100   3.058   7.323   5.320
10048SOL     OW30101   2.221   5.839   5.599
10048SOL    HW130102   2.257   5.919   5.637
10048SOL    HW230103   2.127   5.854   5.597
10049SOL     OW30104   3.334   7.001   4.656
10049SOL    HW130105   3.271   7.021   4.725
10049SOL    HW230106   3.315   6.910   4.632
10050SOL     OW30107   3.501   7.380   4.287
10050SOL    HW130108   3.483   7.333   4.206
10050SOL    HW230109   3.502   7.313   4.355
10051SOL     OW30110   2.448   6.286   3.995
10051SOL    HW130111   2.450   6.374   3.957
10051SOL    HW230112   2.384   6.292   4.066
10052SOL     OW30113   3.143   5.976   4.663
10052SOL    HW130114   3.055   5.941   4.670
10052SOL    HW230115   3.196   5.919   4.719
10053SOL     OW30116   3.442   7.257   4.042
10053SOL    HW130117   3.536   7.275   4.032
10053SOL    HW230118   3.411   7.242   3.953
10054SOL     OW30119   2.650   6.200   5.154
10054SOL    HW130120   2.628   6.171   5.243
10054SOL    HW230121   2.626   6.126   5.098
10055SOL     OW30122   3.253   6.062   5.397
10055SOL    HW130123   3.259   6.105   5.482
10055SOL    HW230124   3.304   5.981   5.408
10056SOL     OW30125   2.807   6.466   5.317
10056SOL    HW130126   2.863   6.402   5.273
10056SOL    HW230127   2.758   6.508   5.247
10057SOL     OW30128   2.870   5.985   4.932
10057SOL    HW130129   2.778   5.997   4.955
10057SOL    HW230130   2.868   5.939   4.848
10058SOL     OW30131   2.915   6.289   4.146
10058SOL    HW130132   2.937   6.284   4.239
10058SOL    HW230133   2.831   6.244   4.139
10059SOL     OW30134   1.955   6.412   4.506
10059SOL    HW130135   2.037   6.406   4.556
10059SOL    HW230136   1.907   6.483   4.548
10060SOL     OW30137   1.972   7.465   5.311
10060SOL    HW130138   1.979   7.445   5.405
10060SOL    HW230139   1.886   7.430   5.286
10061SOL     OW30140   2.746   5.937   3.923
10061SOL    HW130141   2.797   5.986   3.859
10061SOL    HW230142   2.714   5.861   3.875
10062SOL     OW30143   3.546   6.148   5.563
10062SOL    HW130144   3.526   6.226   5.512
10062SOL    HW230145   3.577   6.084   5.499
10063SOL     OW30146   3.256   6.737   4.273
10063SOL    HW130147   3.337   6.728   4.223
10063SOL    HW230148   3.203   6.797   4.221
10064SOL     OW30149   2.413   5.746   4.640
10064SOL    HW130150   2.419   5.774   4.731
10064SOL    HW230151   2.409   5.828   4.590
10065SOL     OW30152   2.858   7.040   4.188
10065SOL    HW130153   2.834   7.115   4.134
10065SOL    HW230154   2.829   7.064   4.276
10066SOL     OW30155   2.215   7.402   4.604
10066SOL    HW130156   2.261   7.318   4.608
10066SOL    HW230157   2.282   7.466   4.626
10067SOL     OW30158   3.662   6.637   4.618
10067SOL    HW130159   3.612   6.622   4.538
10067SOL    HW230160   3.597   6.644   4.687
10068SOL     OW30161   3.080   7.130   5.241
10068SOL    HW130162   3.069   7.059   5.305
10068SOL    HW230163   3.012   7.114   5.176
10069SOL     OW30164   2.162   6.545   3.990
10069SOL    HW130165   2.244   6.565   3.945
10069SOL    HW230166   2.139   6.457   3.958
10070SOL     OW30167   3.345   6.345   4.433
10070SOL    HW130168   3.346   6.303   4.519
10070SOL    HW230169   3.425   6.399   4.433
10071SOL     OW30170   2.335   6.870   5.471
10071SOL    HW130171   2.311   6.875   5.379
10071SOL    HW230172   2.252   6.858   5.517
10072SOL     OW30173   3.000   7.363   3.950
10072SOL    HW130174   2.918   7.332   3.989
10072SOL    HW230175   3.020   7.299   3.882
10073SOL     OW30176   2.070   5.842   5.222
10073SOL    HW130177   1.998   5.902   5.241
10073SOL    HW230178   2.040   5.757   5.256
10074SOL     OW30179   3.485   6.961   3.816
10074SOL    HW130180   3.452   7.051   3.806
10074SOL    HW230181   3.410   6.905   3.797
10075SOL     OW30182   2.321   7.327   4.040
10075SOL    HW130183   2.369   7.378   4.104
10075SOL    HW230184   2.388   7.287   3.985
10076SOL     OW30185   3.260   5.690   4.179
10076SOL    HW130186   3.263   5.666   4.086
10076SOL    HW230187   3.346   5.668   4.213
10077SOL     OW30188   2.113   7.374   4.939
10077SOL    HW130189   2.162   7.300   4.973
10077SOL    HW230190   2.099   7.353   4.847
10078SOL     OW30191   2.810   7.289   4.614
10078SOL    HW130192   2.894   7.247   4.632
10078SOL    HW230193   2.772   7.237   4.543
10079SOL     OW30194   2.257   6.271   4.196
10079SOL    HW130195   2.269   6.177   4.209
10079SOL    HW230196   2.164   6.285   4.214
10080SOL     OW30197   3.372   5.809   5.441
10080SOL    HW130198   3.383   5.829   5.534
10080SOL    HW230199   3.312   5.735   5.439
10081SOL     OW30200   2.526   5.695   3.827
10081SOL    HW130201   2.570   5.615   3.856
10081SOL    HW230202   2.465   5.665   3.760
10082SOL     OW30203   2.620   5.860   5.477
10082SOL    HW130204   2.705   5.815   5.475
10082SOL    HW230205   2.574   5.821   5.551
10083SOL     OW30206   2.731   7.113   4.923
10083SOL    HW130207   2.713   7.071   4.839
10083SOL    HW230208   2.798   7.058   4.963
10084SOL     OW30209   3.192   6.178   5.157
10084SOL    HW130210   3.225   6.146   5.241
10084SOL    HW230211   3.231   6.264   5.147
10085SOL     OW30212   2.679   6.962   4.680
10085SOL    HW130213   2.766   6.957   4.641
10085SOL    HW230214   2.620   6.977   4.606
10086SOL     OW30215   2.793   6.102   4.612
10086SOL    HW130216   2.768   6.090   4.521
10086SOL    HW230217   2.820   6.015   4.642
10087SOL     OW30218   2.427   5.650   4.214
10087SOL    HW130219   2.349   5.650   4.270
10087SOL    HW230220   2.414   5.724   4.155
10088SOL     OW30221   3.278   6.789   3.764
10088SOL    HW130222   3.301   6.718   3.824
10088SOL    HW230223   3.193   6.819   3.795
10089SOL     OW30224   2.144   5.634   3.913
10089SOL    HW130225   2.197   5.701   3.869
10089SOL    HW230226   2.207   5.576   3.954
10090SOL     OW30227   2.815   5.840   4.173
10090SOL    HW130228   2.789   5.874   4.088
10090SOL    HW230229   2.910   5.857   4.178
10091SOL     OW30230   2.937   6.279   5.169
10091SOL    HW130231   2.876   6.206   5.175
10091SOL    HW230232   3.024   6.237   5.166
10092SOL     OW30233   3.069   7.170   4.525
10092SOL    HW130234   3.084   7.231   4.453
10092SOL    HW230235   3.139   7.189   4.587
10093SOL     OW30236   2.345   6.748   4.432
10093SOL    HW130237   2.283   6.723   4.501
10093SOL    HW230238   2.294   6.741   4.351
10094SOL     OW30239   3.115   7.377   4.341
10094SOL    HW130240   3.164   7.440   4.290
10094SOL    HW230241   3.044   7.428   4.380
10095SOL     OW30242   2.894   6.100   3.751
10095SOL    HW130243   2.849   6.182   3.734
10095SOL    HW230244   2.950   6.119   3.826
10096SOL     OW30245   1.962   6.138   5.115
10096SOL    HW130246   2.054   6.139   5.089
10096SOL    HW230247   1.955   6.206   5.181
10097SOL     OW30248   2.421   5.806   4.909
10097SOL    HW130249   2.458   5.741   4.970
10097SOL    HW230250   2.328   5.807   4.930
10098SOL     OW30251   2.733   6.042   4.354
10098SOL    HW130252   2.690   6.097   4.288
10098SOL    HW230253   2.758   5.963   4.306
10099SOL     OW30254   2.883   5.644   4.463
10099SOL    HW130255   2.822   5.636   4.389
10099SOL    HW230256   2.860   5.571   4.521
10100SOL     OW30257   3.290   6.736   4.581
10100SOL    HW130258   3.225   6.668   4.596
10100SOL    HW230259   3.297   6.743   4.486
10101SOL     OW30260   3.323   6.203   4.674
10101SOL    HW130261   3.260   6.131   4.685
10101SOL    HW230262   3.380   6.196   4.751
10102SOL     OW30263   3.685   6.377   4.095
10102SOL    HW130264   3.742   6.337   4.162
10102SOL    HW230265   3.674   6.309   4.029
10103SOL     OW30266   2.360   7.009   3.873
10103SOL    HW130267   2.285   6.978   3.924
10103SOL    HW230268   2.354   6.961   3.790
10104SOL     OW30269   3.576   6.858   4.351
10104SOL    HW130270   3.668   6.851   4.376
10104SOL    HW230271   3.549   6.944   4.381
10105SOL     OW30272   3.254   6.132   3.804
10105SOL    HW130273   3.185   6.136   3.869
10105SOL    HW230274   3.300   6.051   3.822
10106SOL     OW30275   2.389   5.843   4.025
10106SOL    HW130276   2.442   5.801   3.958
10106SOL    HW230277   2.357   5.923   3.984
10107SOL     OW30278   3.597   6.831   5.256
10107SOL    HW130279   3.685   6.796   5.242
10107SOL    HW230280   3.611   6.918   5.294
10108SOL     OW30281   2.904   6.941   5.058
10108SOL    HW130282   2.827   6.906   5.103
10108SOL    HW230283   2.978   6.896   5.099
10109SOL     OW30284   3.469   7.221   5.396
10109SOL    HW130285   3.458   7.258   5.308
10109SOL    HW230286   3.547   7.166   5.389
10110SOL     OW30287   3.013   6.823   4.828
10110SOL    HW130288   2.951   6.857   4.893
10110SOL    HW230289   2.980   6.855   4.745
10111SOL     OW30290   3.468   6.677   4.805
10111SOL    HW130291   3.461   6.744   4.874
10111SOL    HW230292   3.397   6.699   4.744
10112SOL     OW30293   2.780   5.667   5.107
10112SOL    HW130294   2.802   5.651   5.015
10112SOL    HW230295   2.859   5.708   5.144
10113SOL     OW30296   2.841   6.702   5.447
10113SOL    HW130297   2.751   6.718   5.475
10113SOL    HW230298   2.836   6.621   5.396
10114SOL     OW30299   2.576   6.648   4.099
10114SOL    HW130300   2.562   6.621   4.190
10114SOL    HW230301   2.650   6.595   4.070
10115SOL     OW30302   2.288   6.413   4.983
10115SOL    HW130303   2.356   6.424   5.050
10115SOL    HW230304   2.258   6.323   4.992
10116SOL     OW30305   3.127   5.954   5.015
10116SOL    HW130306   3.155   6.034   5.059
10116SOL    HW230307   3.038   5.973   4.985
10117SOL     OW30308   1.940   7.155   5.086
10117SOL    HW130309   1.909   7.227   5.031
10117SOL    HW230310   2.035   7.156   5.077
10118SOL     OW30311   2.179   6.720   4.210
10118SOL    HW130312   2.180   6.792   4.147
10118SOL    HW230313   2.176   6.641   4.157
10119SOL     OW30314   2.396   6.103   4.582
10119SOL    HW130315   2.409   6.161   4.507
10119SOL    HW230316   2.464   6.128   4.644
10120SOL     OW30317   3.109   6.940   4.121
10120SOL    HW130318   3.165   7.010   4.155
10120SOL    HW230319   3.021   6.963   4.152
10121SOL     OW30320   3.171   7.054   4.867
10121SOL    HW130321   3.219   7.062   4.950
10121SOL    HW230322   3.121   6.973   4.876
10122SOL     OW30323   3.448   6.213   4.202
10122SOL    HW130324   3.392   6.245   4.274
10122SOL    HW230325   3.502   6.288   4.179
10123SOL     OW30326   2.206   7.119   5.026
10123SOL    HW130327   2.199   7.067   4.946
10123SOL    HW230328   2.300   7.136   5.035
10124SOL     OW30329   2.294   6.332   5.342
10124SOL    HW130330   2.352   6.376   5.281
10124SOL    HW230331   2.338   6.250   5.363
10125SOL     OW30332   3.489   6.373   5.423
10125SOL    HW130333   3.402   6.411   5.413
10125SOL    HW230334   3.540   6.411   5.351
10126SOL     OW30335   2.856   5.727   5.482
10126SOL    HW130336   2.916   5.800   5.462
10126SOL    HW230337   2.906   5.649   5.459
10127SOL     OW30338   2.358   5.622   5.486
10127SOL    HW130339   2.303   5.571   5.425
10127SOL    HW230340   2.305   5.699   5.507
10128SOL     OW30341   2.453   6.461   4.762
10128SOL    HW130342   2.491   6.548   4.766
10128SOL    HW230343   2.396   6.456   4.839
10129SOL     OW30344   3.170   6.442   4.722
10129SOL    HW130345   3.082   6.413   4.701
10129SOL    HW230346   3.225   6.365   4.707
10130SOL     OW30347   3.049   6.116   3.983
10130SOL    HW130348   3.063   6.040   4.039
10130SOL    HW230349   3.009   6.181   4.040
10131SOL     OW30350   2.153   5.780   4.963
10131SOL    HW130351   2.119   5.808   5.047
10131SOL    HW230352   2.137   5.685   4.961
10132SOL     OW30353   1.912   6.898   4.990
10132SOL    HW130354   1.941   6.842   5.061
10132SOL    HW230355   1.915   6.987   5.026
10133SOL     OW30356   2.573   6.207   4.763
10133SOL    HW130357   2.651   6.200   4.708
10133SOL    HW230358   2.545   6.298   4.753
10134SOL     OW30359   3.613   6.554   5.594
10134SOL    HW130360   3.574   6.482   5.545
10134SOL    HW230361   3.549   6.574   5.662
10135SOL     OW30362   2.188   5.646   4.353
10135SOL    HW130363   2.154   5.734   4.371
10135SOL    HW230364   2.193   5.604   4.438
10136SOL     OW30365   3.502   5.979   4.068
10136SOL    HW130366   3.532   5.913   4.129
10136SOL    HW230367   3.474   6.053   4.123
10137SOL     OW30368   2.897   6.344   4.682
10137SOL    HW130369   2.875   6.359   4.774
10137SOL    HW230370   2.867   6.255   4.664
10138SOL     OW30371   2.842   7.151   5.459
10138SOL    HW130372   2.821   7.195   5.376
10138SOL    HW230373   2.881   7.068   5.433
10139SOL     OW30374   3.700   7.082   5.326
10139SOL    HW130375   3.727   7.110   5.239
10139SOL    HW230376   3.778   7.092   5.380
10140SOL     OW30377   2.211   6.506   5.540
10140SOL    HW130378   2.288   6.523   5.595
10140SOL    HW230379   2.242   6.442   5.475
10141SOL     OW30380   3.363   5.880   3.851
10141SOL    HW130381   3.319   5.800   3.879
10141SOL    HW230382   3.415   5.907   3.927
10142SOL     OW30383   3.152   6.393   3.743
10142SOL    HW130384   3.189   6.306   3.757
10142SOL    HW230385   3.194   6.425   3.663
10143SOL     OW30386   2.932   6.937   4.589
10143SOL    HW130387   2.943   6.865   4.528
10143SOL    HW230388   2.984   7.009   4.552
10144SOL     OW30389   2.181   6.402   4.668
10144SOL    HW130390   2.275   6.416   4.669
10144SOL    HW230391   2.170   6.312   4.699
10145SOL     OW30392   2.175   6.124   4.734
10145SOL    HW130393   2.136   6.037   4.725
10145SOL    HW230394   2.252   6.122   4.678
10146SOL     OW30395   3.000   5.954   5.409
10146SOL    HW130396   2.955   6.005   5.476
10146SOL    HW230397   3.086   5.995   5.400
10147SOL     OW30398   3.017   5.775   5.197
10147SOL    HW130399   3.007   5.837   5.269
10147SOL    HW230400   3.065   5.824   5.130
10148SOL     OW30401   1.886   6.889   3.903
10148SOL    HW130402   1.797   6.911   3.878
10148SOL    HW230403   1.879   6.802   3.944
10149SOL     OW30404   1.955   7.356   4.675
10149SOL    HW130405   1.921   7.282   4.624
10149SOL    HW230406   2.041   7.373   4.639
10150SOL     OW30407   2.347   7.155   4.624
10150SOL    HW130408   2.417   7.216   4.647
10150SOL    HW230409   2.387   7.094   4.563
10151SOL     OW30410   2.810   6.367   4.940
10151SOL    HW130411   2.872   6.354   5.011
10151SOL    HW230412   2.731   6.321   4.969
10152SOL     OW30413   1.901   6.159   4.845
10152SOL    HW130414   1.983   6.155   4.794
10152SOL    HW230415   1.929   6.151   4.936
10153SOL     OW30416   2.048   6.124   5.468
10153SOL    HW130417   2.121   6.091   5.416
10153SOL    HW230418   2.013   6.197   5.418
10154SOL     OW30419   3.254   6.508   5.376
10154SOL    HW130420   3.271   6.602   5.370
10154SOL    HW230421   3.246   6.479   5.285
10155SOL     OW30422   2.680   6.156   4.095
10155SOL    HW130423   2.687   6.081   4.036
10155SOL    HW230424   2.602   6.203   4.064
10156SOL     OW30425   3.500   6.187   4.885
10156SOL    HW130426   3.491   6.128   4.960
10156SOL    HW230427   3.591   6.178   4.857
10157SOL     OW30428   2.088   7.126   5.447
10157SOL    HW130429   2.064   7.174   5.526
10157SOL    HW230430   2.100   7.036   5.477
10158SOL     OW30431   2.596   6.018   4.958
10158SOL    HW130432   2.532   5.948   4.944
10158SOL    HW230433   2.577   6.082   4.889
10159SOL     OW30434   2.767   7.266   5.213
10159SOL    HW130435   2.745   7.218   5.133
10159SOL    HW230436   2.770   7.357   5.186
10160SOL     OW30437   2.305   6.067   3.888
10160SOL    HW130438   2.369   6.134   3.913
10160SOL    HW230439   2.221   6.113   3.891
10161SOL     OW30440   1.992   6.736   5.204
10161SOL    HW130441   1.996   6.697   5.291
10161SOL    HW230442   2.013   6.665   5.144
10162SOL     OW30443   3.165   6.619   4.931
10162SOL    HW130444   3.175   6.556   4.860
10162SOL    HW230445   3.111   6.689   4.895
10163SOL     OW30446   3.175   6.445   4.023
10163SOL    HW130447   3.106   6.413   4.081
10163SOL    HW230448   3.142   6.427   3.935
10164SOL     OW30449   3.648   7.312   4.893
10164SOL    HW130450   3.710   7.337   4.825
10164SOL    HW230451   3.617   7.225   4.867
10165SOL     OW30452   3.101   7.317   4.810
10165SOL    HW130453   3.186   7.348   4.779
10165SOL    HW230454   3.117   7.227   4.837
10166SOL     OW30455   1.969   6.833   4.733
10166SOL    HW130456   1.941   6.855   4.822
10166SOL    HW230457   1.898   6.780   4.697
10167SOL     OW30458   2.550   7.269   5.474
10167SOL    HW130459   2.487   7.340   5.460
10167SOL    HW230460   2.624   7.292   5.418
10168SOL     OW30461   3.610   5.772   4.219
10168SOL    HW130462   3.671   5.749   4.148
10168SOL    HW230463   3.580   5.688   4.252
10169SOL     OW30464   3.259   7.155   4.226
10169SOL    HW130465   3.315   7.190   4.157
10169SOL    HW230466   3.205   7.229   4.254
10170SOL     OW30467   1.995   7.393   5.568
10170SOL    HW130468   1.955   7.317   5.609
10170SOL    HW230469   2.046   7.435   5.638
10171SOL     OW30470   3.141   6.519   4.385
10171SOL    HW130471   3.214   6.460   4.399
10171SOL    HW230472   3.178   6.592   4.336
10172SOL     OW30473   2.645   6.866   5.137
10172SOL    HW130474   2.619   6.913   5.216
10172SOL    HW230475   2.571   6.875   5.077
10173SOL     OW30476   2.530   7.221   3.883
10173SOL    HW130477   2.544   7.236   3.790
10173SOL    HW230478   2.478   7.141   3.887
10174SOL     OW30479   3.478   7.317   5.125
10174SOL    HW130480   3.535   7.317   5.049
10174SOL    HW230481   3.462   7.410   5.143
10175SOL     OW30482   3.708   5.744   4.687
10175SOL    HW130483   3.736   5.654   4.668
10175SOL    HW230484   3.620   5.750   4.650
10176SOL     OW30485   2.105   5.893   4.432
10176SOL    HW130486   2.019   5.929   4.411
10176SOL    HW230487   2.109   5.894   4.528
10177SOL     OW30488   3.073   7.177   3.761
10177SOL    HW130489   3.059   7.087   3.790
10177SOL    HW230490   3.004   7.192   3.696
10178SOL     OW30491   2.686   6.597   5.110
10178SOL    HW130492   2.724   6.587   5.023
10178SOL    HW230493   2.675   6.691   5.121
10179SOL     OW30494   2.781   6.497   4.011
10179SOL    HW130495   2.843   6.530   3.946
10179SOL    HW230496   2.830   6.431   4.060
10180SOL     OW30497   3.349   7.220   3.780
10180SOL    HW130498   3.256   7.207   3.763
10180SOL    HW230499   3.389   7.227   3.693
10181SOL     OW30500   2.224   6.899   5.225
10181SOL    HW130501   2.217   6.972   5.164
10181SOL    HW230502   2.146   6.846   5.209
10182SOL     OW30503   3.459   6.876   5.002
10182SOL    HW130504   3.515   6.852   5.077
10182SOL    HW230505   3.401   6.943   5.036
10183SOL     OW30506   2.940   6.704   4.451
10183SOL    HW130507   2.864   6.655   4.484
10183SOL    HW230508   3.001   6.636   4.422
10184SOL     OW30509   2.894   5.834   4.684
10184SOL    HW130510   2.893   5.792   4.599
10184SOL    HW230511   2.888   5.762   4.747
10185SOL     OW30512   2.466   7.072   4.198
10185SOL    HW130513   2.519   7.023   4.136
10185SOL    HW230514   2.383   7.087   4.152
10186SOL     OW30515   3.608   5.968   5.110
10186SOL    HW130516   3.679   6.032   5.106
10186SOL    HW230517   3.634   5.899   5.050
10187SOL     OW30518   2.142   6.927   4.023
10187SOL    HW130519   2.055   6.920   3.984
10187SOL    HW230520   2.128   6.975   4.104
10188SOL     OW30521   1.982   6.633   5.459
10188SOL    HW130522   1.905   6.604   5.509
10188SOL    HW230523   2.055   6.582   5.496
10189SOL     OW30524   2.541   5.775   5.219
10189SOL    HW130525   2.625   5.749   5.181
10189SOL    HW230526   2.564   5.808   5.306
10190SOL     OW30527   1.947   5.903   3.740
10190SOL    HW130528   1.870   5.881   3.687
10190SOL    HW230529   1.974   5.990   3.709
10191SOL     OW30530   3.277   6.440   5.113
10191SOL    HW130531   3.225   6.499   5.057
10191SOL    HW230532   3.365   6.444   5.076
10192SOL     OW30533   1.905   5.735   3.997
10192SOL    HW130534   1.893   5.805   3.933
10192SOL    HW230535   1.994   5.703   3.980
10193SOL     OW30536   3.036   6.912   3.846
10193SOL    HW130537   2.943   6.892   3.844
10193SOL    HW230538   3.058   6.914   3.939
10194SOL     OW30539   2.487   6.418   5.166
10194SOL    HW130540   2.546   6.493   5.155
10194SOL    HW230541   2.544   6.342   5.165
10195SOL     OW30542   3.350   7.389   4.719
10195SOL    HW130543   3.376   7.462   4.664
10195SOL    HW230544   3.433   7.347   4.744
10196SOL     OW30545   2.586   6.134   5.411
10196SOL    HW130546   2.634   6.188   5.474
10196SOL    HW230547   2.597   6.045   5.442
10197SOL     OW30548   3.330   6.771   5.343
10197SOL    HW130549   3.323   6.793   5.436
10197SOL    HW230550   3.420   6.794   5.319
10198SOL     OW30551   2.216   7.333   5.304
10198SOL    HW130552   2.134   7.379   5.286
10198SOL    HW230553   2.189   7.249   5.342
10199SOL     OW30554   3.516   6.460   4.978
10199SOL    HW130555   3.517   6.377   4.931
10199SOL    HW230556   3.505   6.526   4.910
10200SOL     OW30557   3.086   5.912   4.176
10200SOL    HW130558   3.144   5.836   4.174
10200SOL    HW230559   3.114   5.962   4.253
10201SOL     OW30560   2.441   6.311   4.402
10201SOL    HW130561   2.483   6.395   4.388
10201SOL    HW230562   2.378   6.303   4.330
10202SOL     OW30563   3.611   5.942   5.387
10202SOL    HW130564   3.607   5.958   5.292
10202SOL    HW230565   3.534   5.888   5.405
10203SOL     OW30566   3.620   6.513   5.229
10203SOL    HW130567   3.604   6.606   5.240
10203SOL    HW230568   3.594   6.494   5.139
10204SOL     OW30569   2.743   6.943   3.792
10204SOL    HW130570   2.700   6.957   3.876
10204SOL    HW230571   2.743   7.030   3.750
10205SOL     OW30572   2.530   7.352   4.648
10205SOL    HW130573   2.511   7.446   4.641
10205SOL    HW230574   2.626   7.347   4.648
10206SOL     OW30575   2.735   6.563   4.580
10206SOL    HW130576   2.785   6.490   4.616
10206SOL    HW230577   2.689   6.600   4.655
10207SOL     OW30578   2.949   6.568   3.813
10207SOL    HW130579   2.923   6.622   3.738
10207SOL    HW230580   3.018   6.511   3.778
10208SOL     OW30581   3.695   7.141   4.561
10208SOL    HW130582   3.616   7.132   4.507
10208SOL    HW230583   3.677   7.087   4.639
10209SOL     OW30584   2.074   6.871   5.560
10209SOL    HW130585   2.042   6.792   5.517
10209SOL    HW230586   2.015   6.883   5.634
10210SOL     OW30587   1.979   6.812   4.392
10210SOL    HW130588   2.008   6.770   4.473
10210SOL    HW230589   2.038   6.777   4.325
10211SOL     OW30590   2.552   7.005   5.355
10211SOL    HW130591   2.476   6.966   5.398
10211SOL    HW230592   2.557   7.093   5.392
10212SOL     OW30593   3.668   5.755   4.957
10212SOL    HW130594   3.671   5.660   4.970
10212SOL    HW230595   3.685   5.767   4.864
10213SOL     OW30596   2.280   6.008   4.242
10213SOL    HW130597   2.313   5.937   4.187
10213SOL    HW230598   2.228   5.965   4.310
10214SOL     OW30599   3.558   7.067   4.807
10214SOL    HW130600   3.480   7.046   4.755
10214SOL    HW230601   3.560   6.999   4.875
10215SOL     OW30602   2.214   6.151   5.015
10215SOL    HW130603   2.263   6.087   5.066
10215SOL    HW230604   2.222   6.121   4.925
10216SOL     OW30605   2.701   7.168   4.395
10216SOL    HW130606   2.669   7.238   4.337
10216SOL    HW230607   2.626   7.109   4.406
10217SOL     OW30608   3.285   5.819   4.838
10217SOL    HW130609   3.297   5.730   4.872
10217SOL    HW230610   3.239   5.865   4.908
10218SOL     OW30611   2.872   5.603   4.844
10218SOL    HW130612   2.818   5.539   4.797
10218SOL    HW230613   2.958   5.563   4.848
10219SOL     OW30614   2.642   6.917   4.051
10219SOL    HW130615   2.617   6.826   4.064
10219SOL    HW230616   2.720   6.929   4.104
10220SOL     OW30617   2.477   7.156   5.011
10220SOL    HW130618   2.472   7.240   5.057
10220SOL    HW230619   2.567   7.151   4.979
10221SOL     OW30620   3.247   5.633   3.905
10221SOL    HW130621   3.289   5.557   3.864
10221SOL    HW230622   3.156   5.606   3.918
10222SOL     OW30623   3.163   6.056   4.399
10222SOL    HW130624   3.113   6.137   4.396
10222SOL    HW230625   3.154   6.025   4.489
10223SOL     OW30626   3.445   5.771   4.617
10223SOL    HW130627   3.393   5.800   4.691
10223SOL    HW230628   3.445   5.846   4.556
10224SOL     OW30629   1.899   6.637   4.032
10224SOL    HW130630   1.992   6.626   4.014
10224SOL    HW230631   1.867   6.549   4.052
10225SOL     OW30632   2.757   7.261   4.053
10225SOL    HW130633   2.678   7.245   4.001
10225SOL    HW230634   2.732   7.329   4.116
10226SOL     OW30635   2.069   6.209   5.734
10226SOL    HW130636   1.982   6.196   5.770
10226SOL    HW230637   2.059   6.194   5.640
10227SOL     OW30638   2.081   5.875   6.576
10227SOL    HW130639   2.111   5.839   6.659
10227SOL    HW230640   1.993   5.837   6.564
10228SOL     OW30641   1.849   5.982   6.232
10228SOL    HW130642   1.769   6.007   6.279
10228SOL    HW230643   1.822   5.909   6.177
10229SOL     OW30644   2.437   6.894   6.795
10229SOL    HW130645   2.355   6.897   6.746
10229SOL    HW230646   2.454   6.985   6.819
10230SOL     OW30647   3.451   7.110   6.291
10230SOL    HW130648   3.404   7.079   6.368
10230SOL    HW230649   3.385   7.114   6.222
10231SOL     OW30650   2.999   6.292   6.272
10231SOL    HW130651   3.045   6.375   6.261
10231SOL    HW230652   2.950   6.303   6.354
10232SOL     OW30653   3.661   6.168   5.805
10232SOL    HW130654   3.623   6.167   5.718
10232SOL    HW230655   3.618   6.095   5.851
10233SOL     OW30656   2.588   6.716   6.643
10233SOL    HW130657   2.530   6.756   6.708
10233SOL    HW230658   2.630   6.789   6.599
10234SOL     OW30659   2.750   6.328   7.414
10234SOL    HW130660   2.742   6.395   7.481
10234SOL    HW230661   2.766   6.376   7.333
10235SOL     OW30662   2.547   6.571   6.230
10235SOL    HW130663   2.615   6.571   6.298
10235SOL    HW230664   2.481   6.633   6.261
10236SOL     OW30665   2.573   6.736   7.419
10236SOL    HW130666   2.625   6.808   7.453
10236SOL    HW230667   2.498   6.777   7.378
10237SOL     OW30668   2.205   6.983   6.655
10237SOL    HW130669   2.129   6.941   6.615
10237SOL    HW230670   2.241   7.038   6.586
10238SOL     OW30671   3.315   7.092   6.958
10238SOL    HW130672   3.371   7.169   6.971
10238SOL    HW230673   3.244   7.103   7.021
10239SOL     OW30674   2.320   5.961   7.042
10239SOL    HW130675   2.395   5.903   7.057
10239SOL    HW230676   2.244   5.909   7.068
10240SOL     OW30677   3.448   6.018   6.341
10240SOL    HW130678   3.386   6.031   6.269
10240SOL    HW230679   3.428   6.088   6.403
10241SOL     OW30680   2.080   7.314   6.051
10241SOL    HW130681   2.107   7.385   6.109
10241SOL    HW230682   2.154   7.303   5.991
10242SOL     OW30683   2.997   6.927   7.283
10242SOL    HW130684   3.043   6.916   7.366
10242SOL    HW230685   2.944   6.848   7.274
10243SOL     OW30686   2.094   7.043   6.119
10243SOL    HW130687   2.073   7.137   6.123
10243SOL    HW230688   2.045   7.005   6.191
10244SOL     OW30689   2.146   6.676   6.464
10244SOL    HW130690   2.148   6.586   6.498
10244SOL    HW230691   2.090   6.723   6.526
10245SOL     OW30692   2.435   7.391   7.006
10245SOL    HW130693   2.359   7.370   7.060
10245SOL    HW230694   2.468   7.473   7.040
10246SOL     OW30695   2.427   6.574   5.738
10246SOL    HW130696   2.478   6.616   5.669
10246SOL    HW230697   2.468   6.603   5.819
10247SOL     OW30698   3.453   5.718   7.046
10247SOL    HW130699   3.492   5.793   7.002
10247SOL    HW230700   3.422   5.753   7.129
10248SOL     OW30701   1.980   6.245   6.153
10248SOL    HW130702   1.949   6.158   6.176
10248SOL    HW230703   1.975   6.295   6.234
10249SOL     OW30704   3.708   7.329   5.903
10249SOL    HW130705   3.781   7.314   5.964
10249SOL    HW230706   3.716   7.422   5.880
10250SOL     OW30707   1.921   7.166   5.696
10250SOL    HW130708   1.901   7.075   5.715
10250SOL    HW230709   1.890   7.214   5.773
10251SOL     OW30710   3.560   6.512   6.240
10251SOL    HW130711   3.642   6.467   6.218
10251SOL    HW230712   3.539   6.563   6.161
10252SOL     OW30713   3.519   6.691   6.019
10252SOL    HW130714   3.603   6.682   5.975
10252SOL    HW230715   3.533   6.756   6.088
10253SOL     OW30716   1.983   6.335   7.164
10253SOL    HW130717   2.069   6.378   7.168
10253SOL    HW230718   1.921   6.406   7.150
10254SOL     OW30719   2.484   6.984   6.316
10254SOL    HW130720   2.443   6.898   6.321
10254SOL    HW230721   2.469   7.013   6.226
10255SOL     OW30722   3.132   6.812   7.003
10255SOL    HW130723   3.159   6.742   6.943
10255SOL    HW230724   3.194   6.806   7.076
10256SOL     OW30725   2.693   5.597   6.105
10256SOL    HW130726   2.733   5.679   6.077
10256SOL    HW230727   2.599   5.615   6.105
10257SOL     OW30728   2.049   6.542   6.887
10257SOL    HW130729   2.136   6.507   6.871
10257SOL    HW230730   1.995   6.507   6.816
10258SOL     OW30731   3.396   6.601   5.786
10258SOL    HW130732   3.328   6.541   5.815
10258SOL    HW230733   3.439   6.631   5.866
10259SOL     OW30734   3.041   7.407   7.221
10259SOL    HW130735   3.042   7.469   7.148
10259SOL    HW230736   3.057   7.322   7.181
10260SOL     OW30737   2.221   5.839   7.462
10260SOL    HW130738   2.257   5.919   7.499
10260SOL    HW230739   2.127   5.854   7.459
10261SOL     OW30740   3.333   7.005   6.515
10261SOL    HW130741   3.270   7.023   6.585
10261SOL    HW230742   3.316   6.914   6.492
10262SOL     OW30743   3.498   7.383   6.148
10262SOL    HW130744   3.482   7.336   6.066
10262SOL    HW230745   3.500   7.315   6.215
10263SOL     OW30746   2.449   6.285   5.857
10263SOL    HW130747   2.453   6.372   5.819
10263SOL    HW230748   2.384   6.292   5.928
10264SOL     OW30749   3.144   5.980   6.527
10264SOL    HW130750   3.055   5.945   6.532
10264SOL    HW230751   3.196   5.922   6.582
10265SOL     OW30752   3.441   7.259   5.905
10265SOL    HW130753   3.535   7.273   5.894
10265SOL    HW230754   3.408   7.247   5.816
10266SOL     OW30755   2.651   6.199   7.017
10266SOL    HW130756   2.628   6.170   7.105
10266SOL    HW230757   2.627   6.126   6.960
10267SOL     OW30758   3.253   6.063   7.259
10267SOL    HW130759   3.258   6.106   7.345
10267SOL    HW230760   3.304   5.982   7.270
10268SOL     OW30761   2.806   6.466   7.179
10268SOL    HW130762   2.862   6.403   7.135
10268SOL    HW230763   2.758   6.509   7.108
10269SOL     OW30764   2.870   5.984   6.795
10269SOL    HW130765   2.777   5.996   6.817
10269SOL    HW230766   2.868   5.940   6.710
10270SOL     OW30767   2.920   6.283   6.004
10270SOL    HW130768   2.941   6.281   6.098
10270SOL    HW230769   2.836   6.239   5.997
10271SOL     OW30770   1.955   6.411   6.369
10271SOL    HW130771   2.037   6.406   6.418
10271SOL    HW230772   1.907   6.483   6.411
10272SOL     OW30773   1.972   7.465   7.173
10272SOL    HW130774   1.978   7.445   7.267
10272SOL    HW230775   1.886   7.430   7.148
10273SOL     OW30776   2.752   5.936   5.786
10273SOL    HW130777   2.803   5.990   5.726
10273SOL    HW230778   2.732   5.857   5.736
10274SOL     OW30779   3.547   6.149   7.426
10274SOL    HW130780   3.526   6.226   7.374
10274SOL    HW230781   3.576   6.084   7.362
10275SOL     OW30782   3.255   6.735   6.128
10275SOL    HW130783   3.335   6.723   6.077
10275SOL    HW230784   3.202   6.796   6.077
10276SOL     OW30785   2.413   5.746   6.501
10276SOL    HW130786   2.419   5.775   6.592
10276SOL    HW230787   2.409   5.827   6.450
10277SOL     OW30788   2.860   7.042   6.051
10277SOL    HW130789   2.835   7.116   5.996
10277SOL    HW230790   2.830   7.066   6.139
10278SOL     OW30791   2.215   7.402   6.466
10278SOL    HW130792   2.261   7.318   6.470
10278SOL    HW230793   2.283   7.466   6.488
10279SOL     OW30794   3.666   6.631   6.476
10279SOL    HW130795   3.619   6.615   6.394
10279SOL    HW230796   3.597   6.639   6.542
10280SOL     OW30797   3.079   7.129   7.102
10280SOL    HW130798   3.068   7.058   7.166
10280SOL    HW230799   3.013   7.110   7.035
10281SOL     OW30800   2.162   6.544   5.852
10281SOL    HW130801   2.245   6.565   5.808
10281SOL    HW230802   2.139   6.457   5.820
10282SOL     OW30803   3.346   6.351   6.298
10282SOL    HW130804   3.349   6.307   6.383
10282SOL    HW230805   3.426   6.403   6.296
10283SOL     OW30806   2.335   6.870   7.334
10283SOL    HW130807   2.311   6.875   7.242
10283SOL    HW230808   2.252   6.858   7.380
10284SOL     OW30809   3.002   7.362   5.812
10284SOL    HW130810   2.920   7.332   5.851
10284SOL    HW230811   3.022   7.297   5.745
10285SOL     OW30812   2.071   5.842   7.084
10285SOL    HW130813   1.999   5.902   7.101
10285SOL    HW230814   2.040   5.758   7.118
10286SOL     OW30815   3.500   6.975   5.687
10286SOL    HW130816   3.459   7.060   5.673
10286SOL    HW230817   3.434   6.911   5.659
10287SOL     OW30818   2.321   7.328   5.902
10287SOL    HW130819   2.370   7.378   5.966
10287SOL    HW230820   2.388   7.287   5.847
10288SOL     OW30821   3.259   5.690   6.045
10288SOL    HW130822   3.259   5.666   5.952
10288SOL    HW230823   3.349   5.676   6.073
10289SOL     OW30824   2.114   7.374   6.801
10289SOL    HW130825   2.162   7.300   6.835
10289SOL    HW230826   2.100   7.353   6.708
10290SOL     OW30827   2.811   7.288   6.475
10290SOL    HW130828   2.896   7.247   6.490
10290SOL    HW230829   2.771   7.238   6.405
10291SOL     OW30830   2.257   6.271   6.058
10291SOL    HW130831   2.269   6.177   6.071
10291SOL    HW230832   2.163   6.286   6.076
10292SOL     OW30833   3.370   5.809   7.303
10292SOL    HW130834   3.382   5.828   7.396
10292SOL    HW230835   3.304   5.739   7.301
10293SOL     OW30836   2.524   5.695   5.689
10293SOL    HW130837   2.573   5.616   5.714
10293SOL    HW230838   2.464   5.665   5.621
10294SOL     OW30839   2.621   5.860   7.338
10294SOL    HW130840   2.705   5.814   7.337
10294SOL    HW230841   2.574   5.821   7.412
10295SOL     OW30842   2.731   7.113   6.785
10295SOL    HW130843   2.713   7.071   6.701
10295SOL    HW230844   2.798   7.058   6.825
10296SOL     OW30845   3.191   6.178   7.018
10296SOL    HW130846   3.224   6.147   7.103
10296SOL    HW230847   3.230   6.264   7.007
10297SOL     OW30848   2.678   6.962   6.543
10297SOL    HW130849   2.765   6.958   6.504
10297SOL    HW230850   2.620   6.978   6.468
10298SOL     OW30851   2.792   6.101   6.474
10298SOL    HW130852   2.767   6.089   6.382
10298SOL    HW230853   2.819   6.014   6.503
10299SOL     OW30854   2.426   5.649   6.076
10299SOL    HW130855   2.348   5.650   6.132
10299SOL    HW230856   2.414   5.724   6.017
10300SOL     OW30857   3.297   6.798   5.618
10300SOL    HW130858   3.326   6.724   5.671
10300SOL    HW230859   3.211   6.821   5.654
10301SOL     OW30860   2.145   5.634   5.774
10301SOL    HW130861   2.198   5.700   5.731
10301SOL    HW230862   2.209   5.576   5.816
10302SOL     OW30863   2.814   5.836   6.037
10302SOL    HW130864   2.788   5.871   5.952
10302SOL    HW230865   2.908   5.853   6.043
10303SOL     OW30866   2.937   6.279   7.031
10303SOL    HW130867   2.875   6.207   7.035
10303SOL    HW230868   3.023   6.237   7.027
10304SOL     OW30869   3.067   7.173   6.389
10304SOL    HW130870   3.082   7.234   6.316
10304SOL    HW230871   3.142   7.186   6.446
10305SOL     OW30872   2.344   6.748   6.294
10305SOL    HW130873   2.282   6.723   6.362
10305SOL    HW230874   2.294   6.741   6.213
10306SOL     OW30875   3.113   7.378   6.203
10306SOL    HW130876   3.163   7.441   6.150
10306SOL    HW230877   3.042   7.430   6.242
10307SOL     OW30878   2.894   6.101   5.616
10307SOL    HW130879   2.852   6.185   5.597
10307SOL    HW230880   2.958   6.121   5.684
10308SOL     OW30881   1.962   6.137   6.977
10308SOL    HW130882   2.054   6.138   6.951
10308SOL    HW230883   1.955   6.206   7.043
10309SOL     OW30884   2.421   5.807   6.770
10309SOL    HW130885   2.458   5.742   6.830
10309SOL    HW230886   2.328   5.808   6.791
10310SOL     OW30887   2.732   6.040   6.216
10310SOL    HW130888   2.693   6.096   6.148
10310SOL    HW230889   2.757   5.961   6.169
10311SOL     OW30890   2.883   5.646   6.327
10311SOL    HW130891   2.822   5.640   6.253
10311SOL    HW230892   2.859   5.572   6.383
10312SOL     OW30893   3.297   6.740   6.440
10312SOL    HW130894   3.227   6.675   6.447
10312SOL    HW230895   3.314   6.747   6.346
10313SOL     OW30896   3.325   6.202   6.534
10313SOL    HW130897   3.261   6.132   6.544
10313SOL    HW230898   3.381   6.196   6.612
10314SOL     OW30899   3.688   6.382   5.974
10314SOL    HW130900   3.749   6.339   6.034
10314SOL    HW230901   3.675   6.319   5.903
10315SOL     OW30902   2.360   7.011   5.737
10315SOL    HW130903   2.285   6.978   5.787
10315SOL    HW230904   2.357   6.961   5.655
10316SOL     OW30905   3.570   6.857   6.221
10316SOL    HW130906   3.663   6.850   6.241
10316SOL    HW230907   3.547   6.947   6.245
10317SOL     OW30908   3.254   6.162   5.651
10317SOL    HW130909   3.199   6.134   5.724
10317SOL    HW230910   3.343   6.136   5.677
10318SOL     OW30911   2.389   5.843   5.888
10318SOL    HW130912   2.443   5.801   5.821
10318SOL    HW230913   2.357   5.923   5.846
10319SOL     OW30914   3.597   6.831   7.118
10319SOL    HW130915   3.685   6.796   7.104
10319SOL    HW230916   3.611   6.918   7.155
10320SOL     OW30917   2.904   6.943   6.922
10320SOL    HW130918   2.827   6.907   6.966
10320SOL    HW230919   2.978   6.896   6.962
10321SOL     OW30920   3.470   7.220   7.258
10321SOL    HW130921   3.458   7.257   7.170
10321SOL    HW230922   3.547   7.165   7.251
10322SOL     OW30923   3.013   6.825   6.692
10322SOL    HW130924   2.951   6.858   6.756
10322SOL    HW230925   2.980   6.856   6.608
10323SOL     OW30926   3.470   6.677   6.663
10323SOL    HW130927   3.463   6.743   6.731
10323SOL    HW230928   3.401   6.698   6.600
10324SOL     OW30929   2.780   5.667   6.969
10324SOL    HW130930   2.802   5.652   6.877
10324SOL    HW230931   2.859   5.708   7.005
10325SOL     OW30932   2.841   6.701   7.310
10325SOL    HW130933   2.751   6.718   7.337
10325SOL    HW230934   2.837   6.621   7.258
10326SOL     OW30935   2.576   6.648   5.962
10326SOL    HW130936   2.561   6.622   6.053
10326SOL    HW230937   2.651   6.595   5.934
10327SOL     OW30938   2.288   6.414   6.846
10327SOL    HW130939   2.356   6.424   6.912
10327SOL    HW230940   2.258   6.324   6.855
10328SOL     OW30941   3.126   5.953   6.878
10328SOL    HW130942   3.154   6.034   6.922
10328SOL    HW230943   3.037   5.972   6.848
10329SOL     OW30944   1.940   7.155   6.948
10329SOL    HW130945   1.909   7.226   6.892
10329SOL    HW230946   2.035   7.155   6.938
10330SOL     OW30947   2.179   6.720   6.072
10330SOL    HW130948   2.180   6.792   6.008
10330SOL    HW230949   2.176   6.641   6.019
10331SOL     OW30950   2.395   6.104   6.445
10331SOL    HW130951   2.408   6.162   6.370
10331SOL    HW230952   2.464   6.129   6.507
10332SOL     OW30953   3.109   6.941   5.984
10332SOL    HW130954   3.166   7.010   6.018
10332SOL    HW230955   3.022   6.964   6.014
10333SOL     OW30956   3.172   7.055   6.728
10333SOL    HW130957   3.219   7.061   6.811
10333SOL    HW230958   3.121   6.974   6.736
10334SOL     OW30959   3.436   6.201   6.075
10334SOL    HW130960   3.385   6.245   6.143
10334SOL    HW230961   3.487   6.271   6.035
10335SOL     OW30962   2.206   7.119   6.888
10335SOL    HW130963   2.199   7.066   6.808
10335SOL    HW230964   2.300   7.135   6.898
10336SOL     OW30965   2.294   6.332   7.204
10336SOL    HW130966   2.353   6.376   7.142
10336SOL    HW230967   2.337   6.249   7.224
10337SOL     OW30968   3.489   6.372   7.284
10337SOL    HW130969   3.402   6.411   7.275
10337SOL    HW230970   3.540   6.410   7.212
10338SOL     OW30971   2.857   5.727   7.345
10338SOL    HW130972   2.916   5.800   7.325
10338SOL    HW230973   2.908   5.649   7.322
10339SOL     OW30974   2.357   5.621   7.349
10339SOL    HW130975   2.302   5.571   7.288
10339SOL    HW230976   2.304   5.698   7.370
10340SOL     OW30977   2.454   6.461   6.625
10340SOL    HW130978   2.492   6.549   6.628
10340SOL    HW230979   2.396   6.457   6.701
10341SOL     OW30980   3.170   6.439   6.590
10341SOL    HW130981   3.083   6.412   6.564
10341SOL    HW230982   3.226   6.363   6.570
10342SOL     OW30983   3.061   6.108   5.843
10342SOL    HW130984   3.072   6.032   5.900
10342SOL    HW230985   3.019   6.174   5.899
10343SOL     OW30986   2.154   5.779   6.825
10343SOL    HW130987   2.119   5.808   6.909
10343SOL    HW230988   2.137   5.685   6.822
10344SOL     OW30989   1.911   6.898   6.852
10344SOL    HW130990   1.941   6.842   6.924
10344SOL    HW230991   1.914   6.986   6.888
10345SOL     OW30992   2.574   6.208   6.625
10345SOL    HW130993   2.651   6.200   6.570
10345SOL    HW230994   2.546   6.299   6.615
10346SOL     OW30995   3.613   6.554   7.456
10346SOL    HW130996   3.574   6.481   7.407
10346SOL    HW230997   3.549   6.574   7.524
10347SOL     OW30998   2.187   5.646   6.215
10347SOL    HW130999   2.153   5.733   6.233
10347SOL    HW231000   2.193   5.604   6.300
10348SOL     OW31001   3.493   5.975   5.930
10348SOL    HW131002   3.526   5.910   5.991
10348SOL    HW231003   3.463   6.047   5.986
10349SOL     OW31004   2.895   6.345   6.542
10349SOL    HW131005   2.874   6.359   6.634
10349SOL    HW231006   2.866   6.255   6.524
10350SOL     OW31007   2.842   7.151   7.322
10350SOL    HW131008   2.821   7.195   7.240
10350SOL    HW231009   2.881   7.068   7.295
10351SOL     OW31010   3.700   7.081   7.188
10351SOL    HW131011   3.727   7.109   7.101
10351SOL    HW231012   3.779   7.092   7.242
10352SOL     OW31013   2.211   6.505   7.402
10352SOL    HW131014   2.288   6.522   7.456
10352SOL    HW231015   2.242   6.442   7.337
10353SOL     OW31016   3.380   5.856   5.705
10353SOL    HW131017   3.329   5.784   5.742
10353SOL    HW231018   3.420   5.898   5.781
10354SOL     OW31019   3.142   6.407   5.605
10354SOL    HW131020   3.182   6.321   5.613
10354SOL    HW231021   3.179   6.444   5.525
10355SOL     OW31022   2.932   6.939   6.453
10355SOL    HW131023   2.942   6.866   6.391
10355SOL    HW231024   2.983   7.010   6.415
10356SOL     OW31025   2.180   6.402   6.530
10356SOL    HW131026   2.275   6.416   6.528
10356SOL    HW231027   2.170   6.312   6.561
10357SOL     OW31028   2.174   6.124   6.597
10357SOL    HW131029   2.135   6.037   6.587
10357SOL    HW231030   2.252   6.123   6.541
10358SOL     OW31031   3.000   5.953   7.272
10358SOL    HW131032   2.955   6.004   7.339
10358SOL    HW231033   3.085   5.996   7.262
10359SOL     OW31034   3.017   5.775   7.060
10359SOL    HW131035   3.006   5.837   7.132
10359SOL    HW231036   3.064   5.824   6.993
10360SOL     OW31037   1.886   6.889   5.765
10360SOL    HW131038   1.796   6.911   5.740
10360SOL    HW231039   1.879   6.802   5.806
10361SOL     OW31040   1.955   7.356   6.537
10361SOL    HW131041   1.921   7.283   6.486
10361SOL    HW231042   2.041   7.373   6.501
10362SOL     OW31043   2.347   7.156   6.487
10362SOL    HW131044   2.418   7.216   6.509
10362SOL    HW231045   2.387   7.094   6.425
10363SOL     OW31046   2.810   6.367   6.801
10363SOL    HW131047   2.873   6.355   6.872
10363SOL    HW231048   2.731   6.321   6.829
10364SOL     OW31049   1.901   6.158   6.707
10364SOL    HW131050   1.982   6.155   6.657
10364SOL    HW231051   1.929   6.151   6.798
10365SOL     OW31052   2.049   6.124   7.330
10365SOL    HW131053   2.121   6.091   7.277
10365SOL    HW231054   2.013   6.198   7.280
10366SOL     OW31055   3.254   6.507   7.237
10366SOL    HW131056   3.271   6.601   7.232
10366SOL    HW231057   3.246   6.479   7.146
10367SOL     OW31058   2.681   6.154   5.958
10367SOL    HW131059   2.690   6.080   5.898
10367SOL    HW231060   2.603   6.201   5.926
10368SOL     OW31061   3.497   6.187   6.749
10368SOL    HW131062   3.487   6.128   6.823
10368SOL    HW231063   3.588   6.176   6.721
10369SOL     OW31064   2.088   7.126   7.309
10369SOL    HW131065   2.064   7.174   7.389
10369SOL    HW231066   2.100   7.036   7.339
10370SOL     OW31067   2.596   6.019   6.820
10370SOL    HW131068   2.532   5.949   6.805
10370SOL    HW231069   2.578   6.083   6.751
10371SOL     OW31070   2.763   7.267   7.078
10371SOL    HW131071   2.743   7.218   6.998
10371SOL    HW231072   2.768   7.359   7.050
10372SOL     OW31073   2.304   6.067   5.750
10372SOL    HW131074   2.369   6.133   5.774
10372SOL    HW231075   2.220   6.113   5.754
10373SOL     OW31076   1.992   6.736   7.066
10373SOL    HW131077   1.996   6.697   7.153
10373SOL    HW231078   2.013   6.665   7.006
10374SOL     OW31079   3.165   6.620   6.795
10374SOL    HW131080   3.175   6.556   6.724
10374SOL    HW231081   3.112   6.690   6.757
10375SOL     OW31082   3.186   6.447   5.877
10375SOL    HW131083   3.117   6.410   5.931
10375SOL    HW231084   3.159   6.431   5.787
10376SOL     OW31085   3.650   7.310   6.758
10376SOL    HW131086   3.711   7.336   6.689
10376SOL    HW231087   3.617   7.225   6.730
10377SOL     OW31088   3.103   7.320   6.679
10377SOL    HW131089   3.187   7.350   6.644
10377SOL    HW231090   3.117   7.229   6.702
10378SOL     OW31091   1.968   6.834   6.595
10378SOL    HW131092   1.940   6.855   6.684
10378SOL    HW231093   1.897   6.780   6.559
10379SOL     OW31094   2.550   7.269   7.334
10379SOL    HW131095   2.487   7.340   7.322
10379SOL    HW231096   2.622   7.291   7.276
10380SOL     OW31097   3.608   5.771   6.082
10380SOL    HW131098   3.666   5.751   6.009
10380SOL    HW231099   3.580   5.685   6.115
10381SOL     OW31100   3.260   7.156   6.090
10381SOL    HW131101   3.314   7.190   6.019
10381SOL    HW231102   3.205   7.230   6.116
10382SOL     OW31103   1.994   7.394   7.430
10382SOL    HW131104   1.955   7.317   7.471
10382SOL    HW231105   2.045   7.435   7.500
10383SOL     OW31106   3.141   6.523   6.251
10383SOL    HW131107   3.214   6.463   6.265
10383SOL    HW231108   3.177   6.594   6.198
10384SOL     OW31109   2.646   6.866   7.000
10384SOL    HW131110   2.619   6.913   7.078
10384SOL    HW231111   2.571   6.876   6.940
10385SOL     OW31112   2.530   7.222   5.746
10385SOL    HW131113   2.545   7.236   5.652
10385SOL    HW231114   2.478   7.142   5.750
10386SOL     OW31115   3.478   7.316   6.988
10386SOL    HW131116   3.535   7.315   6.912
10386SOL    HW231117   3.462   7.408   7.006
10387SOL     OW31118   3.706   5.746   6.552
10387SOL    HW131119   3.735   5.657   6.530
10387SOL    HW231120   3.619   5.753   6.513
10388SOL     OW31121   2.105   5.892   6.294
10388SOL    HW131122   2.019   5.929   6.273
10388SOL    HW231123   2.109   5.894   6.390
10389SOL     OW31124   3.071   7.174   5.624
10389SOL    HW131125   3.061   7.083   5.652
10389SOL    HW231126   3.001   7.187   5.560
10390SOL     OW31127   2.685   6.597   6.971
10390SOL    HW131128   2.723   6.587   6.884
10390SOL    HW231129   2.675   6.691   6.982
10391SOL     OW31130   2.782   6.497   5.880
10391SOL    HW131131   2.839   6.530   5.811
10391SOL    HW231132   2.834   6.429   5.924
10392SOL     OW31133   3.345   7.232   5.644
10392SOL    HW131134   3.253   7.212   5.627
10392SOL    HW231135   3.385   7.235   5.557
10393SOL     OW31136   2.224   6.899   7.088
10393SOL    HW131137   2.217   6.972   7.026
10393SOL    HW231138   2.146   6.846   7.071
10394SOL     OW31139   3.460   6.876   6.863
10394SOL    HW131140   3.515   6.851   6.937
10394SOL    HW231141   3.401   6.943   6.897
10395SOL     OW31142   2.938   6.706   6.315
10395SOL    HW131143   2.863   6.656   6.346
10395SOL    HW231144   3.001   6.640   6.286
10396SOL     OW31145   2.895   5.836   6.547
10396SOL    HW131146   2.894   5.793   6.461
10396SOL    HW231147   2.888   5.763   6.609
10397SOL     OW31148   2.466   7.072   6.061
10397SOL    HW131149   2.522   7.023   6.000
10397SOL    HW231150   2.385   7.087   6.013
10398SOL     OW31151   3.608   5.967   6.975
10398SOL    HW131152   3.679   6.032   6.971
10398SOL    HW231153   3.634   5.898   6.914
10399SOL     OW31154   2.141   6.927   5.885
10399SOL    HW131155   2.054   6.919   5.845
10399SOL    HW231156   2.127   6.975   5.966
10400SOL     OW31157   1.983   6.633   7.322
10400SOL    HW131158   1.906   6.604   7.371
10400SOL    HW231159   2.055   6.581   7.358
10401SOL     OW31160   2.541   5.774   7.081
10401SOL    HW131161   2.625   5.749   7.042
10401SOL    HW231162   2.564   5.808   7.168
10402SOL     OW31163   1.947   5.904   5.601
10402SOL    HW131164   1.870   5.883   5.548
10402SOL    HW231165   1.975   5.990   5.570
10403SOL     OW31166   3.277   6.440   6.974
10403SOL    HW131167   3.225   6.498   6.919
10403SOL    HW231168   3.365   6.444   6.936
10404SOL     OW31169   1.906   5.735   5.858
10404SOL    HW131170   1.894   5.805   5.794
10404SOL    HW231171   1.995   5.703   5.842
10405SOL     OW31172   3.046   6.907   5.709
10405SOL    HW131173   2.956   6.873   5.709
10405SOL    HW231174   3.070   6.912   5.802
10406SOL     OW31175   2.487   6.418   7.028
10406SOL    HW131176   2.546   6.492   7.016
10406SOL    HW231177   2.545   6.341   7.026
10407SOL     OW31178   3.349   7.389   6.579
10407SOL    HW131179   3.375   7.463   6.524
10407SOL    HW231180   3.430   7.343   6.598
10408SOL     OW31181   2.586   6.134   7.273
10408SOL    HW131182   2.633   6.188   7.336
10408SOL    HW231183   2.597   6.044   7.304
10409SOL     OW31184   3.330   6.771   7.205
10409SOL    HW131185   3.324   6.793   7.298
10409SOL    HW231186   3.420   6.794   7.181
10410SOL     OW31187   2.216   7.333   7.166
10410SOL    HW131188   2.134   7.379   7.148
10410SOL    HW231189   2.189   7.250   7.204
10411SOL     OW31190   3.517   6.461   6.839
10411SOL    HW131191   3.515   6.377   6.793
10411SOL    HW231192   3.505   6.527   6.770
10412SOL     OW31193   3.082   5.908   6.042
10412SOL    HW131194   3.143   5.833   6.040
10412SOL    HW231195   3.111   5.960   6.117
10413SOL     OW31196   2.437   6.313   6.267
10413SOL    HW131197   2.481   6.396   6.252
10413SOL    HW231198   2.376   6.304   6.193
10414SOL     OW31199   3.609   5.941   7.251
10414SOL    HW131200   3.606   5.957   7.157
10414SOL    HW231201   3.531   5.888   7.269
10415SOL     OW31202   3.622   6.510   7.089
10415SOL    HW131203   3.606   6.604   7.102
10415SOL    HW231204   3.595   6.493   6.999
10416SOL     OW31205   2.728   6.943   5.647
10416SOL    HW131206   2.693   6.962   5.734
10416SOL    HW231207   2.741   7.030   5.608
10417SOL     OW31208   2.531   7.352   6.512
10417SOL    HW131209   2.512   7.446   6.504
10417SOL    HW231210   2.626   7.347   6.510
10418SOL     OW31211   2.734   6.563   6.441
10418SOL    HW131212   2.784   6.489   6.476
10418SOL    HW231213   2.689   6.600   6.517
10419SOL     OW31214   2.934   6.571   5.672
10419SOL    HW131215   2.914   6.624   5.595
10419SOL    HW231216   3.008   6.517   5.644
10420SOL     OW31217   3.695   7.143   6.424
10420SOL    HW131218   3.617   7.135   6.368
10420SOL    HW231219   3.677   7.087   6.499
10421SOL     OW31220   2.074   6.871   7.422
10421SOL    HW131221   2.042   6.792   7.379
10421SOL    HW231222   2.015   6.883   7.496
10422SOL     OW31223   1.979   6.811   6.254
10422SOL    HW131224   2.010   6.769   6.334
10422SOL    HW231225   2.038   6.778   6.186
10423SOL     OW31226   2.552   7.005   7.218
10423SOL    HW131227   2.476   6.966   7.260
10423SOL    HW231228   2.558   7.093   7.255
10424SOL     OW31229   3.672   5.756   6.821
10424SOL    HW131230   3.674   5.661   6.834
10424SOL    HW231231   3.685   5.768   6.727
10425SOL     OW31232   2.279   6.009   6.103
10425SOL    HW131233   2.314   5.938   6.049
10425SOL    HW231234   2.228   5.964   6.171
10426SOL     OW31235   3.555   7.068   6.669
10426SOL    HW131236   3.478   7.049   6.616
10426SOL    HW231237   3.555   7.000   6.736
10427SOL     OW31238   2.214   6.152   6.877
10427SOL    HW131239   2.264   6.087   6.928
10427SOL    HW231240   2.222   6.122   6.787
10428SOL     OW31241   2.700   7.170   6.257
10428SOL    HW131242   2.669   7.239   6.198
10428SOL    HW231243   2.625   7.111   6.266
10429SOL     OW31244   3.283   5.819   6.700
10429SOL    HW131245   3.292   5.729   6.731
10429SOL    HW231246   3.237   5.865   6.770
10430SOL     OW31247   2.872   5.603   6.705
10430SOL    HW131248   2.819   5.540   6.656
10430SOL    HW231249   2.959   5.563   6.710
10431SOL     OW31250   2.643   6.918   5.914
10431SOL    HW131251   2.619   6.826   5.926
10431SOL    HW231252   2.723   6.929   5.966
10432SOL     OW31253   2.477   7.156   6.874
10432SOL    HW131254   2.472   7.240   6.919
10432SOL    HW231255   2.567   7.152   6.841
10433SOL     OW31256   3.243   5.624   5.778
10433SOL    HW131257   3.284   5.551   5.730
10433SOL    HW231258   3.152   5.597   5.788
10434SOL     OW31259   3.157   6.058   6.260
10434SOL    HW131260   3.106   6.139   6.258
10434SOL    HW231261   3.153   6.029   6.351
10435SOL     OW31262   3.444   5.774   6.478
10435SOL    HW131263   3.392   5.804   6.553
10435SOL    HW231264   3.445   5.848   6.418
10436SOL     OW31265   1.899   6.637   5.894
10436SOL    HW131266   1.992   6.625   5.876
10436SOL    HW231267   1.867   6.549   5.914
10437SOL     OW31268   2.757   7.262   5.916
10437SOL    HW131269   2.679   7.246   5.864
10437SOL    HW231270   2.732   7.330   5.978
10438SOL     OW31271   2.069   6.208   7.596
10438SOL    HW131272   1.982   6.196   7.632
10438SOL    HW231273   2.059   6.194   7.502
10439SOL     OW31274   2.081   5.875   8.438
10439SOL    HW131275   2.111   5.839   8.521
10439SOL    HW231276   1.994   5.837   8.426
10440SOL     OW31277   1.849   5.982   8.094
10440SOL    HW131278   1.769   6.007   8.141
10440SOL    HW231279   1.822   5.908   8.039
10441SOL     OW31280   2.437   6.894   8.657
10441SOL    HW131281   2.355   6.897   8.608
10441SOL    HW231282   2.454   6.986   8.680
10442SOL     OW31283   3.450   7.111   8.153
10442SOL    HW131284   3.403   7.079   8.230
10442SOL    HW231285   3.384   7.114   8.084
10443SOL     OW31286   2.999   6.291   8.134
10443SOL    HW131287   3.046   6.374   8.123
10443SOL    HW231288   2.951   6.301   8.216
10444SOL     OW31289   3.662   6.167   7.668
10444SOL    HW131290   3.624   6.167   7.580
10444SOL    HW231291   3.619   6.096   7.714
10445SOL     OW31292   2.588   6.716   8.505
10445SOL    HW131293   2.530   6.756   8.570
10445SOL    HW231294   2.631   6.789   8.461
10446SOL     OW31295   2.750   6.330   9.275
10446SOL    HW131296   2.751   6.398   9.342
10446SOL    HW231297   2.766   6.377   9.193
10447SOL     OW31298   2.547   6.571   8.092
10447SOL    HW131299   2.615   6.571   8.160
10447SOL    HW231300   2.481   6.633   8.123
10448SOL     OW31301   2.574   6.738   9.273
10448SOL    HW131302   2.626   6.810   9.307
10448SOL    HW231303   2.496   6.779   9.234
10449SOL     OW31304   2.205   6.983   8.517
10449SOL    HW131305   2.129   6.941   8.477
10449SOL    HW231306   2.241   7.038   8.448
10450SOL     OW31307   3.316   7.093   8.819
10450SOL    HW131308   3.370   7.170   8.831
10450SOL    HW231309   3.244   7.104   8.882
10451SOL     OW31310   2.319   5.960   8.904
10451SOL    HW131311   2.394   5.903   8.919
10451SOL    HW231312   2.243   5.908   8.931
10452SOL     OW31313   3.447   6.018   8.203
10452SOL    HW131314   3.381   6.029   8.134
10452SOL    HW231315   3.428   6.088   8.265
10453SOL     OW31316   2.080   7.314   7.913
10453SOL    HW131317   2.107   7.385   7.971
10453SOL    HW231318   2.154   7.303   7.853
10454SOL     OW31319   2.997   6.929   9.142
10454SOL    HW131320   3.040   6.919   9.226
10454SOL    HW231321   2.945   6.849   9.132
10455SOL     OW31322   2.094   7.043   7.981
10455SOL    HW131323   2.073   7.137   7.985
10455SOL    HW231324   2.044   7.005   8.053
10456SOL     OW31325   2.146   6.676   8.326
10456SOL    HW131326   2.148   6.586   8.360
10456SOL    HW231327   2.090   6.724   8.387
10457SOL     OW31328   2.435   7.391   8.866
10457SOL    HW131329   2.360   7.371   8.921
10457SOL    HW231330   2.469   7.474   8.901
10458SOL     OW31331   2.427   6.574   7.600
10458SOL    HW131332   2.478   6.616   7.531
10458SOL    HW231333   2.468   6.603   7.682
10459SOL     OW31334   3.452   5.719   8.905
10459SOL    HW131335   3.491   5.796   8.863
10459SOL    HW231336   3.420   5.751   8.989
10460SOL     OW31337   1.980   6.245   8.015
10460SOL    HW131338   1.949   6.158   8.039
10460SOL    HW231339   1.975   6.295   8.096
10461SOL     OW31340   3.708   7.329   7.766
10461SOL    HW131341   3.781   7.314   7.826
10461SOL    HW231342   3.716   7.422   7.742
10462SOL     OW31343   1.922   7.166   7.558
10462SOL    HW131344   1.901   7.075   7.577
10462SOL    HW231345   1.890   7.214   7.635
10463SOL     OW31346   3.560   6.512   8.100
10463SOL    HW131347   3.641   6.467   8.077
10463SOL    HW231348   3.538   6.564   8.023
10464SOL     OW31349   3.518   6.691   7.881
10464SOL    HW131350   3.603   6.683   7.837
10464SOL    HW231351   3.533   6.757   7.949
10465SOL     OW31352   1.983   6.335   9.026
10465SOL    HW131353   2.068   6.378   9.030
10465SOL    HW231354   1.920   6.406   9.014
10466SOL     OW31355   2.484   6.984   8.178
10466SOL    HW131356   2.443   6.898   8.183
10466SOL    HW231357   2.469   7.013   8.088
10467SOL     OW31358   3.133   6.812   8.865
10467SOL    HW131359   3.161   6.743   8.805
10467SOL    HW231360   3.194   6.807   8.938
10468SOL     OW31361   2.693   5.597   7.967
10468SOL    HW131362   2.733   5.679   7.939
10468SOL    HW231363   2.599   5.615   7.967
10469SOL     OW31364   2.049   6.542   8.749
10469SOL    HW131365   2.136   6.507   8.733
10469SOL    HW231366   1.995   6.507   8.678
10470SOL     OW31367   3.397   6.601   7.647
10470SOL    HW131368   3.328   6.541   7.677
10470SOL    HW231369   3.439   6.631   7.728
10471SOL     OW31370   3.038   7.408   9.084
10471SOL    HW131371   3.041   7.470   9.011
10471SOL    HW231372   3.056   7.323   9.044
10472SOL     OW31373   2.222   5.839   9.323
10472SOL    HW131374   2.258   5.919   9.363
10472SOL    HW231375   2.128   5.856   9.319
10473SOL     OW31376   3.334   7.004   8.378
10473SOL    HW131377   3.270   7.023   8.447
10473SOL    HW231378   3.316   6.913   8.354
10474SOL     OW31379   3.499   7.382   8.010
10474SOL    HW131380   3.482   7.336   7.928
10474SOL    HW231381   3.499   7.314   8.077
10475SOL     OW31382   2.449   6.285   7.720
10475SOL    HW131383   2.453   6.373   7.681
10475SOL    HW231384   2.384   6.292   7.790
10476SOL     OW31385   3.144   5.980   8.389
10476SOL    HW131386   3.055   5.944   8.394
10476SOL    HW231387   3.196   5.921   8.444
10477SOL     OW31388   3.441   7.259   7.767
10477SOL    HW131389   3.535   7.274   7.756
10477SOL    HW231390   3.408   7.247   7.678
10478SOL     OW31391   2.651   6.199   8.879
10478SOL    HW131392   2.628   6.170   8.967
10478SOL    HW231393   2.627   6.126   8.823
10479SOL     OW31394   3.253   6.061   9.118
10479SOL    HW131395   3.258   6.105   9.203
10479SOL    HW231396   3.303   5.980   9.130
10480SOL     OW31397   2.806   6.466   9.039
10480SOL    HW131398   2.862   6.403   8.995
10480SOL    HW231399   2.758   6.509   8.969
10481SOL     OW31400   2.869   5.983   8.657
10481SOL    HW131401   2.777   5.997   8.680
10481SOL    HW231402   2.867   5.940   8.572
10482SOL     OW31403   2.920   6.283   7.866
10482SOL    HW131404   2.941   6.280   7.960
10482SOL    HW231405   2.836   6.239   7.859
10483SOL     OW31406   1.954   6.411   8.231
10483SOL    HW131407   2.037   6.406   8.280
10483SOL    HW231408   1.907   6.483   8.273
10484SOL     OW31409   1.972   7.465   9.040
10484SOL    HW131410   1.981   7.443   9.133
10484SOL    HW231411   1.888   7.428   9.015
10485SOL     OW31412   2.751   5.936   7.648
10485SOL    HW131413   2.802   5.991   7.588
10485SOL    HW231414   2.730   5.858   7.597
10486SOL     OW31415   3.544   6.147   9.285
10486SOL    HW131416   3.524   6.226   9.235
10486SOL    HW231417   3.573   6.083   9.219
10487SOL     OW31418   3.255   6.736   7.991
10487SOL    HW131419   3.334   6.724   7.939
10487SOL    HW231420   3.201   6.796   7.940
10488SOL     OW31421   2.413   5.746   8.363
10488SOL    HW131422   2.419   5.775   8.454
10488SOL    HW231423   2.409   5.828   8.313
10489SOL     OW31424   2.859   7.042   7.913
10489SOL    HW131425   2.835   7.116   7.858
10489SOL    HW231426   2.829   7.066   8.001
10490SOL     OW31427   2.216   7.402   8.328
10490SOL    HW131428   2.261   7.318   8.332
10490SOL    HW231429   2.283   7.466   8.350
10491SOL     OW31430   3.666   6.630   8.337
10491SOL    HW131431   3.619   6.614   8.255
10491SOL    HW231432   3.598   6.639   8.403
10492SOL     OW31433   3.080   7.130   8.964
10492SOL    HW131434   3.069   7.059   9.027
10492SOL    HW231435   3.012   7.115   8.898
10493SOL     OW31436   2.162   6.545   7.713
10493SOL    HW131437   2.245   6.566   7.670
10493SOL    HW231438   2.139   6.458   7.681
10494SOL     OW31439   3.346   6.350   8.159
10494SOL    HW131440   3.348   6.306   8.244
10494SOL    HW231441   3.426   6.403   8.157
10495SOL     OW31442   2.333   6.872   9.196
10495SOL    HW131443   2.309   6.876   9.103
10495SOL    HW231444   2.250   6.862   9.242
10496SOL     OW31445   3.002   7.362   7.674
10496SOL    HW131446   2.919   7.332   7.713
10496SOL    HW231447   3.022   7.297   7.607
10497SOL     OW31448   2.070   5.841   8.947
10497SOL    HW131449   1.997   5.901   8.963
10497SOL    HW231450   2.040   5.757   8.982
10498SOL     OW31451   3.500   6.975   7.549
10498SOL    HW131452   3.459   7.060   7.535
10498SOL    HW231453   3.434   6.911   7.522
10499SOL     OW31454   2.321   7.327   7.763
10499SOL    HW131455   2.370   7.378   7.828
10499SOL    HW231456   2.388   7.287   7.709
10500SOL     OW31457   3.259   5.691   7.907
10500SOL    HW131458   3.259   5.667   7.814
10500SOL    HW231459   3.350   5.679   7.934
10501SOL     OW31460   2.114   7.374   8.662
10501SOL    HW131461   2.163   7.300   8.697
10501SOL    HW231462   2.101   7.354   8.570
10502SOL     OW31463   2.810   7.288   8.338
10502SOL    HW131464   2.895   7.247   8.352
10502SOL    HW231465   2.771   7.238   8.267
10503SOL     OW31466   2.257   6.271   7.921
10503SOL    HW131467   2.269   6.177   7.933
10503SOL    HW231468   2.164   6.286   7.938
10504SOL     OW31469   3.370   5.807   9.163
10504SOL    HW131470   3.382   5.827   9.255
10504SOL    HW231471   3.305   5.736   9.162
10505SOL     OW31472   2.525   5.695   7.551
10505SOL    HW131473   2.573   5.617   7.576
10505SOL    HW231474   2.464   5.665   7.483
10506SOL     OW31475   2.619   5.858   9.202
10506SOL    HW131476   2.704   5.814   9.200
10506SOL    HW231477   2.573   5.821   9.276
10507SOL     OW31478   2.731   7.113   8.647
10507SOL    HW131479   2.713   7.071   8.563
10507SOL    HW231480   2.798   7.058   8.687
10508SOL     OW31481   3.192   6.178   8.879
10508SOL    HW131482   3.225   6.147   8.963
10508SOL    HW231483   3.231   6.265   8.868
10509SOL     OW31484   2.678   6.962   8.404
10509SOL    HW131485   2.765   6.958   8.366
10509SOL    HW231486   2.620   6.978   8.330
10510SOL     OW31487   2.792   6.101   8.336
10510SOL    HW131488   2.767   6.089   8.244
10510SOL    HW231489   2.820   6.014   8.364
10511SOL     OW31490   2.426   5.649   7.938
10511SOL    HW131491   2.348   5.650   7.994
10511SOL    HW231492   2.414   5.724   7.879
10512SOL     OW31493   3.297   6.799   7.480
10512SOL    HW131494   3.326   6.725   7.533
10512SOL    HW231495   3.211   6.822   7.516
10513SOL     OW31496   2.144   5.634   7.636
10513SOL    HW131497   2.197   5.701   7.593
10513SOL    HW231498   2.208   5.576   7.678
10514SOL     OW31499   2.814   5.836   7.899
10514SOL    HW131500   2.788   5.871   7.813
10514SOL    HW231501   2.908   5.853   7.904
10515SOL     OW31502   2.937   6.279   8.892
10515SOL    HW131503   2.875   6.207   8.897
10515SOL    HW231504   3.023   6.237   8.888
10516SOL     OW31505   3.067   7.173   8.250
10516SOL    HW131506   3.082   7.233   8.178
10516SOL    HW231507   3.141   7.188   8.310
10517SOL     OW31508   2.344   6.748   8.156
10517SOL    HW131509   2.282   6.723   8.224
10517SOL    HW231510   2.294   6.741   8.074
10518SOL     OW31511   3.113   7.378   8.065
10518SOL    HW131512   3.163   7.441   8.012
10518SOL    HW231513   3.042   7.429   8.104
10519SOL     OW31514   2.894   6.101   7.478
10519SOL    HW131515   2.852   6.185   7.459
10519SOL    HW231516   2.958   6.121   7.546
10520SOL     OW31517   1.962   6.137   8.839
10520SOL    HW131518   2.054   6.139   8.813
10520SOL    HW231519   1.954   6.206   8.905
10521SOL     OW31520   2.421   5.807   8.633
10521SOL    HW131521   2.458   5.743   8.693
10521SOL    HW231522   2.328   5.808   8.653
10522SOL     OW31523   2.732   6.040   8.078
10522SOL    HW131524   2.693   6.096   8.010
10522SOL    HW231525   2.757   5.961   8.031
10523SOL     OW31526   2.883   5.645   8.188
10523SOL    HW131527   2.823   5.639   8.114
10523SOL    HW231528   2.859   5.572   8.245
10524SOL     OW31529   3.296   6.740   8.302
10524SOL    HW131530   3.227   6.675   8.311
10524SOL    HW231531   3.311   6.746   8.208
10525SOL     OW31532   3.325   6.202   8.396
10525SOL    HW131533   3.261   6.132   8.407
10525SOL    HW231534   3.380   6.196   8.474
10526SOL     OW31535   3.690   6.382   7.836
10526SOL    HW131536   3.751   6.339   7.896
10526SOL    HW231537   3.677   6.319   7.765
10527SOL     OW31538   2.360   7.011   7.598
10527SOL    HW131539   2.285   6.979   7.648
10527SOL    HW231540   2.357   6.961   7.516
10528SOL     OW31541   3.570   6.858   8.082
10528SOL    HW131542   3.663   6.851   8.102
10528SOL    HW231543   3.546   6.947   8.107
10529SOL     OW31544   3.254   6.162   7.513
10529SOL    HW131545   3.199   6.135   7.586
10529SOL    HW231546   3.343   6.138   7.540
10530SOL     OW31547   2.389   5.843   7.750
10530SOL    HW131548   2.443   5.801   7.683
10530SOL    HW231549   2.357   5.923   7.709
10531SOL     OW31550   3.597   6.829   8.979
10531SOL    HW131551   3.685   6.795   8.966
10531SOL    HW231552   3.610   6.916   9.017
10532SOL     OW31553   2.904   6.941   8.783
10532SOL    HW131554   2.826   6.907   8.828
10532SOL    HW231555   2.977   6.896   8.824
10533SOL     OW31556   3.470   7.221   9.113
10533SOL    HW131557   3.461   7.257   9.024
10533SOL    HW231558   3.547   7.165   9.108
10534SOL     OW31559   3.013   6.824   8.553
10534SOL    HW131560   2.951   6.858   8.618
10534SOL    HW231561   2.980   6.856   8.470
10535SOL     OW31562   3.472   6.678   8.525
10535SOL    HW131563   3.464   6.744   8.593
10535SOL    HW231564   3.402   6.699   8.463
10536SOL     OW31565   2.780   5.668   8.831
10536SOL    HW131566   2.802   5.652   8.738
10536SOL    HW231567   2.859   5.708   8.867
10537SOL     OW31568   2.843   6.701   9.171
10537SOL    HW131569   2.753   6.718   9.197
10537SOL    HW231570   2.839   6.620   9.120
10538SOL     OW31571   2.576   6.648   7.824
10538SOL    HW131572   2.561   6.622   7.915
10538SOL    HW231573   2.651   6.595   7.796
10539SOL     OW31574   2.288   6.414   8.707
10539SOL    HW131575   2.356   6.424   8.774
10539SOL    HW231576   2.258   6.323   8.717
10540SOL     OW31577   3.126   5.954   8.740
10540SOL    HW131578   3.154   6.034   8.783
10540SOL    HW231579   3.037   5.972   8.710
10541SOL     OW31580   1.940   7.155   8.809
10541SOL    HW131581   1.910   7.227   8.753
10541SOL    HW231582   2.035   7.155   8.799
10542SOL     OW31583   2.179   6.720   7.934
10542SOL    HW131584   2.180   6.792   7.870
10542SOL    HW231585   2.176   6.641   7.880
10543SOL     OW31586   2.396   6.103   8.307
10543SOL    HW131587   2.408   6.161   8.232
10543SOL    HW231588   2.464   6.128   8.369
10544SOL     OW31589   3.109   6.940   7.846
10544SOL    HW131590   3.165   7.010   7.880
10544SOL    HW231591   3.021   6.964   7.876
10545SOL     OW31592   3.171   7.055   8.590
10545SOL    HW131593   3.218   7.061   8.673
10545SOL    HW231594   3.120   6.974   8.598
10546SOL     OW31595   3.437   6.203   7.935
10546SOL    HW131596   3.385   6.244   8.004
10546SOL    HW231597   3.486   6.274   7.895
10547SOL     OW31598   2.206   7.119   8.750
10547SOL    HW131599   2.199   7.066   8.670
10547SOL    HW231600   2.300   7.135   8.759
10548SOL     OW31601   2.292   6.333   9.065
10548SOL    HW131602   2.352   6.376   9.004
10548SOL    HW231603   2.335   6.250   9.086
10549SOL     OW31604   3.488   6.374   9.148
10549SOL    HW131605   3.401   6.412   9.138
10549SOL    HW231606   3.539   6.412   9.077
10550SOL     OW31607   2.857   5.728   9.210
10550SOL    HW131608   2.915   5.801   9.189
10550SOL    HW231609   2.908   5.650   9.187
10551SOL     OW31610   2.358   5.621   9.211
10551SOL    HW131611   2.304   5.571   9.150
10551SOL    HW231612   2.306   5.698   9.232
10552SOL     OW31613   2.454   6.461   8.487
10552SOL    HW131614   2.492   6.549   8.490
10552SOL    HW231615   2.396   6.457   8.563
10553SOL     OW31616   3.170   6.439   8.451
10553SOL    HW131617   3.082   6.412   8.425
10553SOL    HW231618   3.225   6.363   8.432
10554SOL     OW31619   3.061   6.109   7.705
10554SOL    HW131620   3.071   6.032   7.762
10554SOL    HW231621   3.019   6.174   7.761
10555SOL     OW31622   2.154   5.779   8.687
10555SOL    HW131623   2.119   5.808   8.772
10555SOL    HW231624   2.137   5.685   8.684
10556SOL     OW31625   1.912   6.897   8.713
10556SOL    HW131626   1.941   6.842   8.785
10556SOL    HW231627   1.914   6.986   8.749
10557SOL     OW31628   2.574   6.208   8.487
10557SOL    HW131629   2.651   6.201   8.432
10557SOL    HW231630   2.545   6.299   8.477
10558SOL     OW31631   3.617   6.557   9.317
10558SOL    HW131632   3.573   6.485   9.272
10558SOL    HW231633   3.560   6.580   9.389
10559SOL     OW31634   2.187   5.646   8.076
10559SOL    HW131635   2.154   5.733   8.095
10559SOL    HW231636   2.193   5.604   8.162
10560SOL     OW31637   3.493   5.976   7.792
10560SOL    HW131638   3.526   5.910   7.854
10560SOL    HW231639   3.464   6.048   7.847
10561SOL     OW31640   2.896   6.344   8.404
10561SOL    HW131641   2.874   6.359   8.496
10561SOL    HW231642   2.866   6.255   8.386
10562SOL     OW31643   2.842   7.153   9.181
10562SOL    HW131644   2.822   7.196   9.098
10562SOL    HW231645   2.882   7.070   9.156
10563SOL     OW31646   3.700   7.080   9.048
10563SOL    HW131647   3.727   7.108   8.961
10563SOL    HW231648   3.778   7.091   9.102
10564SOL     OW31649   2.212   6.502   9.267
10564SOL    HW131650   2.291   6.522   9.317
10564SOL    HW231651   2.241   6.440   9.200
10565SOL     OW31652   3.382   5.855   7.567
10565SOL    HW131653   3.330   5.784   7.605
10565SOL    HW231654   3.422   5.898   7.643
10566SOL     OW31655   3.143   6.408   7.467
10566SOL    HW131656   3.182   6.321   7.475
10566SOL    HW231657   3.179   6.444   7.386
10567SOL     OW31658   2.932   6.939   8.315
10567SOL    HW131659   2.943   6.866   8.253
10567SOL    HW231660   2.983   7.010   8.277
10568SOL     OW31661   2.180   6.402   8.392
10568SOL    HW131662   2.275   6.416   8.390
10568SOL    HW231663   2.170   6.312   8.423
10569SOL     OW31664   2.175   6.124   8.459
10569SOL    HW131665   2.136   6.037   8.449
10569SOL    HW231666   2.252   6.122   8.403
10570SOL     OW31667   3.000   5.954   9.133
10570SOL    HW131668   2.955   6.006   9.199
10570SOL    HW231669   3.085   5.996   9.123
10571SOL     OW31670   3.017   5.776   8.922
10571SOL    HW131671   3.006   5.838   8.994
10571SOL    HW231672   3.064   5.825   8.854
10572SOL     OW31673   1.886   6.889   7.627
10572SOL    HW131674   1.796   6.911   7.602
10572SOL    HW231675   1.879   6.803   7.668
10573SOL     OW31676   1.955   7.357   8.398
10573SOL    HW131677   1.921   7.283   8.347
10573SOL    HW231678   2.042   7.373   8.362
10574SOL     OW31679   2.347   7.156   8.349
10574SOL    HW131680   2.418   7.216   8.372
10574SOL    HW231681   2.387   7.094   8.287
10575SOL     OW31682   2.810   6.367   8.662
10575SOL    HW131683   2.872   6.355   8.734
10575SOL    HW231684   2.731   6.322   8.691
10576SOL     OW31685   1.901   6.158   8.569
10576SOL    HW131686   1.983   6.155   8.519
10576SOL    HW231687   1.929   6.150   8.660
10577SOL     OW31688   2.049   6.120   9.187
10577SOL    HW131689   2.119   6.086   9.131
10577SOL    HW231690   2.014   6.196   9.139
10578SOL     OW31691   3.253   6.507   9.098
10578SOL    HW131692   3.270   6.601   9.094
10578SOL    HW231693   3.246   6.479   9.007
10579SOL     OW31694   2.680   6.154   7.820
10579SOL    HW131695   2.689   6.080   7.760
10579SOL    HW231696   2.603   6.202   7.788
10580SOL     OW31697   3.497   6.188   8.611
10580SOL    HW131698   3.487   6.129   8.685
10580SOL    HW231699   3.588   6.176   8.583
10581SOL     OW31700   2.087   7.129   9.168
10581SOL    HW131701   2.068   7.185   9.244
10581SOL    HW231702   2.097   7.041   9.205
10582SOL     OW31703   2.596   6.019   8.682
10582SOL    HW131704   2.532   5.949   8.667
10582SOL    HW231705   2.578   6.083   8.613
10583SOL     OW31706   2.766   7.266   8.936
10583SOL    HW131707   2.744   7.218   8.856
10583SOL    HW231708   2.769   7.358   8.909
10584SOL     OW31709   2.304   6.067   7.612
10584SOL    HW131710   2.369   6.133   7.637
10584SOL    HW231711   2.220   6.113   7.616
10585SOL     OW31712   1.991   6.736   8.928
10585SOL    HW131713   1.996   6.697   9.015
10585SOL    HW231714   2.013   6.664   8.868
10586SOL     OW31715   3.166   6.620   8.656
10586SOL    HW131716   3.175   6.557   8.585
10586SOL    HW231717   3.113   6.690   8.619
10587SOL     OW31718   3.188   6.447   7.739
10587SOL    HW131719   3.117   6.411   7.793
10587SOL    HW231720   3.159   6.431   7.649
10588SOL     OW31721   3.650   7.310   8.618
10588SOL    HW131722   3.711   7.336   8.549
10588SOL    HW231723   3.617   7.224   8.590
10589SOL     OW31724   3.102   7.320   8.539
10589SOL    HW131725   3.187   7.350   8.505
10589SOL    HW231726   3.117   7.229   8.563
10590SOL     OW31727   1.968   6.834   8.456
10590SOL    HW131728   1.940   6.855   8.546
10590SOL    HW231729   1.897   6.780   8.421
10591SOL     OW31730   2.550   7.269   9.201
10591SOL    HW131731   2.488   7.340   9.187
10591SOL    HW231732   2.625   7.291   9.145
10592SOL     OW31733   3.606   5.770   7.944
10592SOL    HW131734   3.665   5.750   7.872
10592SOL    HW231735   3.580   5.684   7.978
10593SOL     OW31736   3.259   7.156   7.951
10593SOL    HW131737   3.314   7.190   7.881
10593SOL    HW231738   3.204   7.230   7.977
10594SOL     OW31739   2.003   7.387   9.296
10594SOL    HW131740   1.957   7.316   9.340
10594SOL    HW231741   2.052   7.431   9.365
10595SOL     OW31742   3.141   6.522   8.112
10595SOL    HW131743   3.214   6.463   8.126
10595SOL    HW231744   3.177   6.594   8.060
10596SOL     OW31745   2.645   6.866   8.861
10596SOL    HW131746   2.618   6.914   8.940
10596SOL    HW231747   2.571   6.876   8.801
10597SOL     OW31748   2.530   7.222   7.607
10597SOL    HW131749   2.545   7.236   7.513
10597SOL    HW231750   2.478   7.142   7.611
10598SOL     OW31751   3.477   7.317   8.846
10598SOL    HW131752   3.535   7.317   8.770
10598SOL    HW231753   3.462   7.409   8.864
10599SOL     OW31754   3.707   5.746   8.413
10599SOL    HW131755   3.735   5.657   8.391
10599SOL    HW231756   3.620   5.753   8.374
10600SOL     OW31757   2.105   5.892   8.156
10600SOL    HW131758   2.019   5.929   8.135
10600SOL    HW231759   2.109   5.894   8.252
10601SOL     OW31760   3.072   7.174   7.486
10601SOL    HW131761   3.062   7.083   7.514
10601SOL    HW231762   3.002   7.187   7.422
10602SOL     OW31763   2.685   6.597   8.833
10602SOL    HW131764   2.723   6.588   8.745
10602SOL    HW231765   2.674   6.692   8.844
10603SOL     OW31766   2.782   6.497   7.743
10603SOL    HW131767   2.839   6.530   7.673
10603SOL    HW231768   2.834   6.429   7.786
10604SOL     OW31769   3.345   7.232   7.506
10604SOL    HW131770   3.253   7.211   7.489
10604SOL    HW231771   3.386   7.235   7.419
10605SOL     OW31772   2.224   6.898   8.949
10605SOL    HW131773   2.216   6.972   8.888
10605SOL    HW231774   2.146   6.846   8.933
10606SOL     OW31775   3.461   6.876   8.725
10606SOL    HW131776   3.515   6.851   8.800
10606SOL    HW231777   3.402   6.943   8.759
10607SOL     OW31778   2.939   6.706   8.178
10607SOL    HW131779   2.863   6.656   8.209
10607SOL    HW231780   3.001   6.639   8.148
10608SOL     OW31781   2.895   5.835   8.408
10608SOL    HW131782   2.894   5.793   8.323
10608SOL    HW231783   2.888   5.763   8.471
10609SOL     OW31784   2.466   7.072   7.923
10609SOL    HW131785   2.521   7.023   7.862
10609SOL    HW231786   2.385   7.088   7.875
10610SOL     OW31787   3.608   5.967   8.836
10610SOL    HW131788   3.678   6.032   8.832
10610SOL    HW231789   3.634   5.899   8.775
10611SOL     OW31790   2.141   6.927   7.747
10611SOL    HW131791   2.055   6.919   7.707
10611SOL    HW231792   2.127   6.975   7.828
10612SOL     OW31793   1.986   6.634   9.184
10612SOL    HW131794   1.908   6.607   9.232
10612SOL    HW231795   2.057   6.582   9.221
10613SOL     OW31796   2.541   5.775   8.944
10613SOL    HW131797   2.625   5.750   8.905
10613SOL    HW231798   2.563   5.808   9.030
10614SOL     OW31799   1.947   5.904   7.462
10614SOL    HW131800   1.871   5.883   7.409
10614SOL    HW231801   1.976   5.990   7.431
10615SOL     OW31802   3.278   6.440   8.835
10615SOL    HW131803   3.226   6.499   8.780
10615SOL    HW231804   3.366   6.445   8.798
10616SOL     OW31805   1.906   5.735   7.720
10616SOL    HW131806   1.893   5.805   7.656
10616SOL    HW231807   1.994   5.703   7.703
10617SOL     OW31808   3.045   6.907   7.571
10617SOL    HW131809   2.955   6.876   7.571
10617SOL    HW231810   3.069   6.911   7.664
10618SOL     OW31811   2.487   6.418   8.890
10618SOL    HW131812   2.546   6.492   8.878
10618SOL    HW231813   2.545   6.341   8.889
10619SOL     OW31814   3.349   7.389   8.441
10619SOL    HW131815   3.375   7.463   8.386
10619SOL    HW231816   3.431   7.344   8.461
10620SOL     OW31817   2.586   6.134   9.135
10620SOL    HW131818   2.632   6.188   9.199
10620SOL    HW231819   2.596   6.044   9.168
10621SOL     OW31820   3.330   6.770   9.069
10621SOL    HW131821   3.325   6.790   9.162
10621SOL    HW231822   3.420   6.794   9.045
10622SOL     OW31823   2.217   7.334   9.026
10622SOL    HW131824   2.135   7.381   9.010
10622SOL    HW231825   2.191   7.250   9.063
10623SOL     OW31826   3.518   6.461   8.701
10623SOL    HW131827   3.516   6.378   8.654
10623SOL    HW231828   3.507   6.527   8.632
10624SOL     OW31829   3.082   5.908   7.904
10624SOL    HW131830   3.142   5.834   7.903
10624SOL    HW231831   3.111   5.961   7.979
10625SOL     OW31832   2.437   6.312   8.129
10625SOL    HW131833   2.481   6.396   8.114
10625SOL    HW231834   2.377   6.304   8.056
10626SOL     OW31835   3.609   5.939   9.111
10626SOL    HW131836   3.606   5.955   9.017
10626SOL    HW231837   3.531   5.885   9.129
10627SOL     OW31838   3.622   6.510   8.952
10627SOL    HW131839   3.605   6.603   8.965
10627SOL    HW231840   3.596   6.493   8.862
10628SOL     OW31841   2.731   6.943   7.509
10628SOL    HW131842   2.694   6.962   7.596
10628SOL    HW231843   2.743   7.029   7.469
10629SOL     OW31844   2.531   7.352   8.374
10629SOL    HW131845   2.512   7.446   8.366
10629SOL    HW231846   2.626   7.347   8.372
10630SOL     OW31847   2.734   6.563   8.304
10630SOL    HW131848   2.784   6.490   8.339
10630SOL    HW231849   2.689   6.600   8.380
10631SOL     OW31850   2.934   6.570   7.534
10631SOL    HW131851   2.913   6.624   7.458
10631SOL    HW231852   3.008   6.516   7.506
10632SOL     OW31853   3.693   7.144   8.287
10632SOL    HW131854   3.616   7.136   8.231
10632SOL    HW231855   3.672   7.091   8.364
10633SOL     OW31856   2.072   6.876   9.284
10633SOL    HW131857   2.042   6.796   9.242
10633SOL    HW231858   2.011   6.890   9.355
10634SOL     OW31859   1.979   6.810   8.116
10634SOL    HW131860   2.010   6.769   8.196
10634SOL    HW231861   2.038   6.777   8.048
10635SOL     OW31862   2.549   7.007   9.078
10635SOL    HW131863   2.473   6.968   9.120
10635SOL    HW231864   2.556   7.094   9.116
10636SOL     OW31865   3.674   5.757   8.683
10636SOL    HW131866   3.676   5.662   8.695
10636SOL    HW231867   3.687   5.769   8.588
10637SOL     OW31868   2.280   6.009   7.966
10637SOL    HW131869   2.314   5.938   7.911
10637SOL    HW231870   2.228   5.964   8.033
10638SOL     OW31871   3.557   7.066   8.530
10638SOL    HW131872   3.479   7.047   8.478
10638SOL    HW231873   3.558   6.999   8.598
10639SOL     OW31874   2.214   6.151   8.740
10639SOL    HW131875   2.263   6.087   8.790
10639SOL    HW231876   2.222   6.122   8.649
10640SOL     OW31877   2.700   7.170   8.118
10640SOL    HW131878   2.669   7.239   8.060
10640SOL    HW231879   2.625   7.111   8.127
10641SOL     OW31880   3.283   5.819   8.563
10641SOL    HW131881   3.292   5.730   8.595
10641SOL    HW231882   3.237   5.866   8.632
10642SOL     OW31883   2.872   5.604   8.567
10642SOL    HW131884   2.818   5.541   8.519
10642SOL    HW231885   2.959   5.563   8.571
10643SOL     OW31886   2.642   6.918   7.777
10643SOL    HW131887   2.618   6.826   7.788
10643SOL    HW231888   2.722   6.929   7.828
10644SOL     OW31889   2.477   7.156   8.735
10644SOL    HW131890   2.472   7.241   8.780
10644SOL    HW231891   2.567   7.151   8.703
10645SOL     OW31892   3.242   5.624   7.640
10645SOL    HW131893   3.282   5.552   7.592
10645SOL    HW231894   3.151   5.598   7.651
10646SOL     OW31895   3.159   6.058   8.122
10646SOL    HW131896   3.108   6.139   8.120
10646SOL    HW231897   3.153   6.028   8.213
10647SOL     OW31898   3.444   5.774   8.341
10647SOL    HW131899   3.392   5.804   8.415
10647SOL    HW231900   3.445   5.848   8.281
10648SOL     OW31901   1.899   6.637   7.756
10648SOL    HW131902   1.992   6.626   7.738
10648SOL    HW231903   1.867   6.549   7.776
10649SOL     OW31904   2.757   7.261   7.778
10649SOL    HW131905   2.679   7.246   7.725
10649SOL    HW231906   2.731   7.330   7.839
10650SOL     OW31907   2.073   6.191   9.454
10650SOL    HW131908   1.984   6.181   9.488
10650SOL    HW231909   2.064   6.184   9.359
10651SOL     OW31910   3.668   6.155   9.521
10651SOL    HW131911   3.626   6.157   9.435
10651SOL    HW231912   3.619   6.089   9.570
10652SOL     OW31913   2.074   7.328   9.764
10652SOL    HW131914   2.095   7.400   9.823
10652SOL    HW231915   2.154   7.315   9.713
10653SOL     OW31916   2.084   7.048   9.844
10653SOL    HW131917   2.065   7.139   9.868
10653SOL    HW231918   2.011   6.998   9.878
10654SOL     OW31919   2.433   6.571   9.451
10654SOL    HW131920   2.483   6.615   9.382
10654SOL    HW231921   2.473   6.601   9.533
10655SOL     OW31922   1.927   6.262   9.883
10655SOL    HW131923   1.841   6.228   9.860
10655SOL    HW231924   1.909   6.340   9.936
10656SOL     OW31925   3.692   7.340   9.642
10656SOL    HW131926   3.769   7.320   9.695
10656SOL    HW231927   3.708   7.428   9.609
10657SOL     OW31928   1.910   7.177   9.433
10657SOL    HW131929   1.896   7.083   9.449
10657SOL    HW231930   1.874   7.220   9.510
10658SOL     OW31931   3.537   6.457   9.918
10658SOL    HW131932   3.609   6.478   9.978
10658SOL    HW231933   3.529   6.534   9.862
10659SOL     OW31934   3.556   6.686   9.757
10659SOL    HW131935   3.639   6.682   9.709
10659SOL    HW231936   3.564   6.763   9.814
10660SOL     OW31937   2.503   6.926   9.993
10660SOL    HW131938   2.446   6.849   9.990
10660SOL    HW231939   2.481   6.975   9.914
10661SOL     OW31940   2.680   5.615   9.827
10661SOL    HW131941   2.725   5.694   9.798
10661SOL    HW231942   2.587   5.640   9.829
10662SOL     OW31943   3.420   6.611   9.520
10662SOL    HW131944   3.359   6.542   9.547
10662SOL    HW231945   3.458   6.642   9.602
10663SOL     OW31946   2.447   6.284   9.583
10663SOL    HW131947   2.455   6.370   9.542
10663SOL    HW231948   2.389   6.299   9.658
10664SOL     OW31949   3.425   7.260   9.627
10664SOL    HW131950   3.518   7.282   9.634
10664SOL    HW231951   3.410   7.247   9.534
10665SOL     OW31952   2.908   6.276   9.734
10665SOL    HW131953   2.936   6.252   9.823
10665SOL    HW231954   2.822   6.234   9.724
10666SOL     OW31955   1.914   6.468   0.069
10666SOL    HW131956   1.988   6.423   0.110
10666SOL    HW231957   1.892   6.538   0.131
10667SOL     OW31958   2.753   5.933   9.503
10667SOL    HW131959   2.802   5.991   9.444
10667SOL    HW231960   2.740   5.853   9.452
10668SOL     OW31961   3.176   6.681   9.797
10668SOL    HW131962   3.228   6.711   9.871
10668SOL    HW231963   3.151   6.762   9.751
10669SOL     OW31964   2.855   7.021   9.783
10669SOL    HW131965   2.825   7.106   9.751
10669SOL    HW231966   2.828   7.019   9.874
10670SOL     OW31967   2.214   7.439   0.167
10670SOL    HW131968   2.218   7.359   0.218
10670SOL    HW231969   2.304   7.470   0.163
10671SOL     OW31970   2.179   6.545   9.576
10671SOL    HW131971   2.260   6.560   9.528
10671SOL    HW231972   2.139   6.469   9.535
10672SOL     OW31973   2.999   7.361   9.547
10672SOL    HW131974   2.920   7.327   9.587
10672SOL    HW231975   3.021   7.297   9.478
10673SOL     OW31976   3.499   6.979   9.403
10673SOL    HW131977   3.456   7.063   9.391
10673SOL    HW231978   3.433   6.914   9.380
10674SOL     OW31979   2.330   7.348   9.634
10674SOL    HW131980   2.380   7.376   9.711
10674SOL    HW231981   2.394   7.301   9.580
10675SOL     OW31982   3.286   5.737   9.738
10675SOL    HW131983   3.275   5.695   9.652
10675SOL    HW231984   3.381   5.740   9.751
10676SOL     OW31985   2.258   6.274   9.800
10676SOL    HW131986   2.261   6.181   9.820
10676SOL    HW231987   2.164   6.294   9.794
10677SOL     OW31988   2.523   5.693   9.416
10677SOL    HW131989   2.568   5.613   9.443
10677SOL    HW231990   2.462   5.665   9.348
10678SOL     OW31991   2.407   5.685   9.840
10678SOL    HW131992   2.315   5.679   9.866
10678SOL    HW231993   2.407   5.743   9.764
10679SOL     OW31994   3.302   6.794   9.344
10679SOL    HW131995   3.336   6.726   9.403
10679SOL    HW231996   3.215   6.815   9.380
10680SOL     OW31997   2.146   5.639   9.500
10680SOL    HW131998   2.197   5.705   9.452
10680SOL    HW231999   2.213   5.587   9.545
10681SOL     OW32000   2.810   5.847   9.758
10681SOL    HW132001   2.785   5.878   9.670
10681SOL    HW232002   2.904   5.866   9.764
10682SOL     OW32003   2.304   6.737   0.034
10682SOL    HW132004   2.235   6.772   0.090
10682SOL    HW232005   2.261   6.722   9.950
10683SOL     OW32006   3.162   7.422   9.900
10683SOL    HW132007   3.206   7.487   9.845
10683SOL    HW232008   3.069   7.446   9.895
10684SOL     OW32009   2.894   6.103   9.338
10684SOL    HW132010   2.851   6.187   9.318
10684SOL    HW232011   2.957   6.124   9.407
10685SOL     OW32012   2.707   6.028   9.942
10685SOL    HW132013   2.668   6.092   9.882
10685SOL    HW232014   2.738   5.957   9.886
10686SOL     OW32015   3.744   6.391   9.637
10686SOL    HW132016   3.775   6.352   9.719
10686SOL    HW232017   3.709   6.318   9.587
10687SOL     OW32018   2.356   7.013   9.465
10687SOL    HW132019   2.281   6.979   9.513
10687SOL    HW232020   2.357   6.964   9.382
10688SOL     OW32021   3.251   6.162   9.370
10688SOL    HW132022   3.196   6.139   9.445
10688SOL    HW232023   3.339   6.139   9.398
10689SOL     OW32024   2.404   5.846   9.624
10689SOL    HW132025   2.451   5.801   9.554
10689SOL    HW232026   2.367   5.923   9.582
10690SOL     OW32027   2.570   6.641   9.684
10690SOL    HW132028   2.537   6.595   9.761
10690SOL    HW232029   2.650   6.594   9.660
10691SOL     OW32030   2.169   6.713   9.799
10691SOL    HW132031   2.170   6.789   9.741
10691SOL    HW232032   2.177   6.638   9.740
10692SOL     OW32033   3.100   6.940   9.691
10692SOL    HW132034   3.156   7.012   9.722
10692SOL    HW232035   3.013   6.961   9.726
10693SOL     OW32036   3.498   6.224   9.789
10693SOL    HW132037   3.501   6.298   9.849
10693SOL    HW232038   3.449   6.257   9.713
10694SOL     OW32039   3.058   6.117   9.565
10694SOL    HW132040   3.065   6.041   9.623
10694SOL    HW232041   3.019   6.186   9.619
10695SOL     OW32042   2.144   5.675   9.928
10695SOL    HW132043   2.076   5.740   9.945
10695SOL    HW232044   2.159   5.634   0.013
10696SOL     OW32045   3.493   5.981   9.655
10696SOL    HW132046   3.516   5.905   9.709
10696SOL    HW232047   3.484   6.053   9.718
10697SOL     OW32048   3.382   5.859   9.425
10697SOL    HW132049   3.329   5.787   9.460
10697SOL    HW232050   3.419   5.901   9.503
10698SOL     OW32051   3.142   6.411   9.330
10698SOL    HW132052   3.180   6.323   9.337
10698SOL    HW232053   3.178   6.446   9.248
10699SOL     OW32054   1.886   6.902   9.484
10699SOL    HW132055   1.795   6.921   9.459
10699SOL    HW232056   1.882   6.815   9.524
10700SOL     OW32057   2.669   6.145   9.682
10700SOL    HW132058   2.681   6.076   9.617
10700SOL    HW232059   2.597   6.197   9.649
10701SOL     OW32060   2.309   6.062   9.483
10701SOL    HW132061   2.370   6.132   9.506
10701SOL    HW232062   2.223   6.105   9.481
10702SOL     OW32063   3.231   6.432   9.604
10702SOL    HW132064   3.177   6.483   9.665
10702SOL    HW232065   3.177   6.424   9.525
10703SOL     OW32066   3.569   5.743   9.771
10703SOL    HW132067   3.640   5.745   9.707
10703SOL    HW232068   3.585   5.664   9.823
10704SOL     OW32069   3.226   7.175   9.794
10704SOL    HW132070   3.297   7.192   9.732
10704SOL    HW232071   3.198   7.262   9.823
10705SOL     OW32072   2.529   7.226   9.474
10705SOL    HW132073   2.545   7.238   9.381
10705SOL    HW232074   2.476   7.146   9.479
10706SOL     OW32075   3.070   7.180   9.350
10706SOL    HW132076   3.062   7.087   9.373
10706SOL    HW232077   3.001   7.194   9.285
10707SOL     OW32078   2.786   6.499   9.614
10707SOL    HW132079   2.842   6.527   9.541
10707SOL    HW232080   2.836   6.430   9.658
10708SOL     OW32081   3.347   7.232   9.360
10708SOL    HW132082   3.255   7.214   9.344
10708SOL    HW232083   3.386   7.235   9.273
10709SOL     OW32084   2.454   7.063   9.762
10709SOL    HW132085   2.514   7.020   9.702
10709SOL    HW232086   2.372   7.069   9.714
10710SOL     OW32087   2.140   6.928   9.614
10710SOL    HW132088   2.054   6.923   9.572
10710SOL    HW232089   2.125   6.979   9.694
10711SOL     OW32090   1.946   5.902   9.322
10711SOL    HW132091   1.870   5.882   9.268
10711SOL    HW232092   1.975   5.988   9.292
10712SOL     OW32093   1.904   5.740   9.577
10712SOL    HW132094   1.896   5.806   9.508
10712SOL    HW232095   1.992   5.706   9.567
10713SOL     OW32096   3.043   6.908   9.422
10713SOL    HW132097   2.953   6.878   9.422
10713SOL    HW232098   3.067   6.914   9.515
10714SOL     OW32099   3.077   5.921   9.768
10714SOL    HW132100   3.153   5.862   9.760
10714SOL    HW232101   3.097   5.975   9.844
10715SOL     OW32102   2.471   6.431   9.891
10715SOL    HW132103   2.473   6.431   9.987
10715SOL    HW232104   2.398   6.373   9.869
10716SOL     OW32105   2.732   6.944   9.363
10716SOL    HW132106   2.697   6.960   9.450
10716SOL    HW232107   2.744   7.031   9.325
10717SOL     OW32108   2.929   6.564   9.396
10717SOL    HW132109   2.912   6.621   9.321
10717SOL    HW232110   3.005   6.512   9.370
10718SOL     OW32111   1.917   6.827   9.899
10718SOL    HW132112   1.913   6.833   9.994
10718SOL    HW232113   1.992   6.771   9.882
10719SOL     OW32114   2.271   6.011   9.865
10719SOL    HW132115   2.319   5.948   9.812
10719SOL    HW232116   2.308   6.001   9.953
10720SOL     OW32117   2.645   6.915   9.627
10720SOL    HW132118   2.619   6.824   9.643
10720SOL    HW232119   2.722   6.928   9.682
10721SOL     OW32120   3.239   5.627   9.492
10721SOL    HW132121   3.282   5.551   9.453
10721SOL    HW232122   3.149   5.599   9.508
10722SOL     OW32123   1.919   6.655   9.597
10722SOL    HW132124   2.014   6.648   9.591
10722SOL    HW232125   1.888   6.564   9.601
10723SOL     OW32126   2.756   7.258   9.664
10723SOL    HW132127   2.680   7.241   9.608
10723SOL    HW232128   2.726   7.327   9.723
10724SOL     OW32129   2.059   8.059   0.126
10724SOL    HW132130   1.976   8.045   0.171
10724SOL    HW232131   2.035   8.071   0.034
10725SOL     OW32132   2.081   7.736   0.990
10725SOL    HW132133   2.112   7.701   1.073
10725SOL    HW232134   1.994   7.698   0.978
10726SOL     OW32135   1.845   7.846   0.647
10726SOL    HW132136   1.764   7.869   0.692
10726SOL    HW232137   1.823   7.770   0.593
10727SOL     OW32138   2.437   8.754   1.208
10727SOL    HW132139   2.354   8.757   1.160
10727SOL    HW232140   2.454   8.845   1.232
10728SOL     OW32141   3.451   8.970   0.706
10728SOL    HW132142   3.404   8.939   0.784
10728SOL    HW232143   3.384   8.973   0.638
10729SOL     OW32144   3.001   8.149   0.686
10729SOL    HW132145   3.047   8.232   0.676
10729SOL    HW232146   2.951   8.158   0.766
10730SOL     OW32147   3.636   8.031   0.200
10730SOL    HW132148   3.562   8.061   0.147
10730SOL    HW232149   3.601   7.959   0.252
10731SOL     OW32150   2.589   8.576   1.059
10731SOL    HW132151   2.530   8.616   1.122
10731SOL    HW232152   2.633   8.650   1.016
10732SOL     OW32153   2.749   8.190   1.828
10732SOL    HW132154   2.741   8.257   1.896
10732SOL    HW232155   2.766   8.239   1.748
10733SOL     OW32156   2.547   8.426   0.646
10733SOL    HW132157   2.615   8.427   0.713
10733SOL    HW232158   2.482   8.488   0.676
10734SOL     OW32159   2.574   8.598   1.833
10734SOL    HW132160   2.626   8.671   1.868
10734SOL    HW232161   2.498   8.640   1.793
10735SOL     OW32162   2.205   8.843   1.070
10735SOL    HW132163   2.128   8.802   1.031
10735SOL    HW232164   2.240   8.900   1.001
10736SOL     OW32165   3.316   8.954   1.372
10736SOL    HW132166   3.371   9.031   1.385
10736SOL    HW232167   3.244   8.965   1.434
10737SOL     OW32168   2.320   7.822   1.455
10737SOL    HW132169   2.395   7.764   1.471
10737SOL    HW232170   2.244   7.771   1.482
10738SOL     OW32171   3.442   7.880   0.752
10738SOL    HW132172   3.368   7.888   0.692
10738SOL    HW232173   3.428   7.950   0.816
10739SOL     OW32174   2.089   9.170   0.468
10739SOL    HW132175   2.104   9.245   0.526
10739SOL    HW232176   2.175   9.152   0.429
10740SOL     OW32177   2.997   8.789   1.696
10740SOL    HW132178   3.042   8.778   1.780
10740SOL    HW232179   2.943   8.710   1.688
10741SOL     OW32180   2.071   8.893   0.508
10741SOL    HW132181   2.065   8.988   0.517
10741SOL    HW232182   2.031   8.859   0.588
10742SOL     OW32183   2.144   8.535   0.881
10742SOL    HW132184   2.145   8.446   0.916
10742SOL    HW232185   2.090   8.584   0.942
10743SOL     OW32186   2.439   9.243   1.425
10743SOL    HW132187   2.360   9.227   1.477
10743SOL    HW232188   2.468   9.330   1.453
10744SOL     OW32189   2.430   8.396   0.175
10744SOL    HW132190   2.404   8.465   0.114
10744SOL    HW232191   2.488   8.439   0.237
10745SOL     OW32192   3.454   7.581   1.459
10745SOL    HW132193   3.492   7.657   1.417
10745SOL    HW232194   3.422   7.614   1.544
10746SOL     OW32195   1.976   8.101   0.573
10746SOL    HW132196   1.940   8.016   0.597
10746SOL    HW232197   1.969   8.154   0.653
10747SOL     OW32198   3.722   9.182   0.307
10747SOL    HW132199   3.790   9.162   0.371
10747SOL    HW232200   3.736   9.274   0.285
10748SOL     OW32201   1.940   9.021   0.091
10748SOL    HW132202   1.910   8.934   0.115
10748SOL    HW232203   1.906   9.078   0.161
10749SOL     OW32204   3.560   8.368   0.664
10749SOL    HW132205   3.643   8.324   0.646
10749SOL    HW232206   3.541   8.417   0.584
10750SOL     OW32207   3.524   8.539   0.443
10750SOL    HW132208   3.606   8.535   0.393
10750SOL    HW232209   3.538   8.608   0.507
10751SOL     OW32210   1.982   8.198   1.578
10751SOL    HW132211   2.067   8.242   1.582
10751SOL    HW232212   1.919   8.268   1.564
10752SOL     OW32213   2.484   8.834   0.748
10752SOL    HW132214   2.442   8.748   0.749
10752SOL    HW232215   2.471   8.866   0.658
10753SOL     OW32216   3.132   8.674   1.417
10753SOL    HW132217   3.160   8.604   1.357
10753SOL    HW232218   3.194   8.668   1.490
10754SOL     OW32219   2.694   7.463   0.530
10754SOL    HW132220   2.735   7.544   0.498
10754SOL    HW232221   2.600   7.483   0.530
10755SOL     OW32222   2.049   8.404   1.303
10755SOL    HW132223   2.136   8.369   1.285
10755SOL    HW232224   1.994   8.369   1.233
10756SOL     OW32225   3.353   8.476   0.236
10756SOL    HW132226   3.299   8.404   0.267
10756SOL    HW232227   3.415   8.492   0.307
10757SOL     OW32228   3.046   9.270   1.633
10757SOL    HW132229   3.045   9.331   1.559
10757SOL    HW232230   3.061   9.184   1.593
10758SOL     OW32231   2.222   7.701   1.876
10758SOL    HW132232   2.257   7.782   1.914
10758SOL    HW232233   2.127   7.716   1.872
10759SOL     OW32234   3.335   8.863   0.931
10759SOL    HW132235   3.271   8.883   1.000
10759SOL    HW232236   3.316   8.773   0.907
10760SOL     OW32237   3.512   9.237   0.567
10760SOL    HW132238   3.490   9.193   0.485
10760SOL    HW232239   3.505   9.168   0.633
10761SOL     OW32240   2.454   8.139   0.285
10761SOL    HW132241   2.460   8.225   0.244
10761SOL    HW232242   2.388   8.149   0.353
10762SOL     OW32243   3.144   7.839   0.941
10762SOL    HW132244   3.055   7.805   0.947
10762SOL    HW232245   3.196   7.781   0.997
10763SOL     OW32246   3.450   9.122   0.325
10763SOL    HW132247   3.544   9.133   0.310
10763SOL    HW232248   3.414   9.106   0.237
10764SOL     OW32249   2.652   8.061   1.430
10764SOL    HW132250   2.629   8.033   1.518
10764SOL    HW232251   2.627   7.988   1.374
10765SOL     OW32252   3.254   7.925   1.674
10765SOL    HW132253   3.258   7.968   1.759
10765SOL    HW232254   3.304   7.844   1.685
10766SOL     OW32255   2.806   8.329   1.593
10766SOL    HW132256   2.862   8.265   1.549
10766SOL    HW232257   2.757   8.371   1.522
10767SOL     OW32258   2.870   7.845   1.210
10767SOL    HW132259   2.777   7.859   1.232
10767SOL    HW232260   2.867   7.801   1.125
10768SOL     OW32261   2.928   8.145   0.416
10768SOL    HW132262   2.948   8.141   0.510
10768SOL    HW232263   2.843   8.102   0.408
10769SOL     OW32264   1.955   8.275   0.782
10769SOL    HW132265   2.037   8.268   0.831
10769SOL    HW232266   1.907   8.346   0.826
10770SOL     OW32267   1.967   9.319   1.585
10770SOL    HW132268   1.976   9.301   1.678
10770SOL    HW232269   1.881   9.282   1.562
10771SOL     OW32270   2.723   7.787   0.200
10771SOL    HW132271   2.710   7.836   0.119
10771SOL    HW232272   2.732   7.696   0.171
10772SOL     OW32273   3.548   8.010   1.840
10772SOL    HW132274   3.527   8.088   1.788
10772SOL    HW232275   3.577   7.946   1.776
10773SOL     OW32276   3.257   8.597   0.556
10773SOL    HW132277   3.336   8.587   0.502
10773SOL    HW232278   3.202   8.658   0.507
10774SOL     OW32279   2.413   7.611   0.915
10774SOL    HW132280   2.419   7.639   1.006
10774SOL    HW232281   2.409   7.693   0.865
10775SOL     OW32282   2.860   8.899   0.472
10775SOL    HW132283   2.835   8.976   0.421
10775SOL    HW232284   2.829   8.918   0.560
10776SOL     OW32285   2.215   9.264   0.878
10776SOL    HW132286   2.260   9.180   0.883
10776SOL    HW232287   2.282   9.329   0.898
10777SOL     OW32288   3.665   8.492   0.895
10777SOL    HW132289   3.617   8.474   0.814
10777SOL    HW232290   3.598   8.502   0.961
10778SOL     OW32291   3.080   8.991   1.516
10778SOL    HW132292   3.069   8.920   1.579
10778SOL    HW232293   3.011   8.977   1.452
10779SOL     OW32294   2.175   8.377   0.290
10779SOL    HW132295   2.256   8.384   0.241
10779SOL    HW232296   2.176   8.288   0.326
10780SOL     OW32297   3.347   8.205   0.713
10780SOL    HW132298   3.347   8.164   0.800
10780SOL    HW232299   3.425   8.260   0.712
10781SOL     OW32300   2.335   8.732   1.748
10781SOL    HW132301   2.311   8.737   1.656
10781SOL    HW232302   2.252   8.719   1.794
10782SOL     OW32303   2.959   9.229   0.182
10782SOL    HW132304   2.905   9.188   0.249
10782SOL    HW232305   2.999   9.155   0.136
10783SOL     OW32306   2.070   7.704   1.498
10783SOL    HW132307   1.998   7.765   1.515
10783SOL    HW232308   2.040   7.620   1.532
10784SOL     OW32309   3.494   8.820   0.109
10784SOL    HW132310   3.452   8.906   0.104
10784SOL    HW232311   3.428   8.759   0.077
10785SOL     OW32312   2.347   9.163   0.370
10785SOL    HW132313   2.382   9.240   0.415
10785SOL    HW232314   2.413   9.143   0.304
10786SOL     OW32315   3.257   7.551   0.447
10786SOL    HW132316   3.254   7.531   0.354
10786SOL    HW232317   3.349   7.539   0.471
10787SOL     OW32318   2.113   9.232   1.213
10787SOL    HW132319   2.162   9.157   1.247
10787SOL    HW232320   2.098   9.211   1.121
10788SOL     OW32321   2.809   9.146   0.893
10788SOL    HW132322   2.894   9.104   0.907
10788SOL    HW232323   2.768   9.094   0.824
10789SOL     OW32324   2.236   8.141   0.464
10789SOL    HW132325   2.259   8.049   0.475
10789SOL    HW232326   2.147   8.148   0.499
10790SOL     OW32327   3.370   7.671   1.717
10790SOL    HW132328   3.383   7.689   1.810
10790SOL    HW232329   3.303   7.601   1.715
10791SOL     OW32330   2.469   7.540   0.117
10791SOL    HW132331   2.564   7.530   0.127
10791SOL    HW232332   2.455   7.547   0.023
10792SOL     OW32333   2.621   7.721   1.752
10792SOL    HW132334   2.705   7.676   1.750
10792SOL    HW232335   2.574   7.682   1.826
10793SOL     OW32336   2.733   8.975   1.201
10793SOL    HW132337   2.714   8.934   1.116
10793SOL    HW232338   2.800   8.920   1.240
10794SOL     OW32339   3.192   8.039   1.433
10794SOL    HW132340   3.224   8.009   1.517
10794SOL    HW232341   3.230   8.126   1.422
10795SOL     OW32342   2.680   8.823   0.962
10795SOL    HW132343   2.766   8.820   0.920
10795SOL    HW232344   2.619   8.836   0.889
10796SOL     OW32345   2.793   7.963   0.890
10796SOL    HW132346   2.768   7.950   0.799
10796SOL    HW232347   2.820   7.876   0.920
10797SOL     OW32348   2.426   7.524   0.503
10797SOL    HW132349   2.347   7.522   0.556
10797SOL    HW232350   2.413   7.597   0.442
10798SOL     OW32351   3.290   8.647   0.035
10798SOL    HW132352   3.314   8.581   0.100
10798SOL    HW232353   3.208   8.685   0.069
10799SOL     OW32354   2.814   7.698   0.450
10799SOL    HW132355   2.782   7.734   0.367
10799SOL    HW232356   2.907   7.720   0.451
10800SOL     OW32357   2.938   8.142   1.445
10800SOL    HW132358   2.874   8.070   1.450
10800SOL    HW232359   3.023   8.099   1.442
10801SOL     OW32360   3.069   9.035   0.803
10801SOL    HW132361   3.084   9.094   0.729
10801SOL    HW232362   3.139   9.056   0.865
10802SOL     OW32363   2.343   8.600   0.711
10802SOL    HW132364   2.280   8.578   0.780
10802SOL    HW232365   2.293   8.596   0.630
10803SOL     OW32366   3.115   9.236   0.612
10803SOL    HW132367   3.164   9.300   0.561
10803SOL    HW232368   3.044   9.286   0.652
10804SOL     OW32369   2.956   8.010   9.980
10804SOL    HW132370   2.868   7.972   9.986
10804SOL    HW232371   2.991   8.002   0.069
10805SOL     OW32372   1.961   7.999   1.391
10805SOL    HW132373   2.054   8.001   1.365
10805SOL    HW232374   1.954   8.068   1.457
10806SOL     OW32375   2.421   7.669   1.185
10806SOL    HW132376   2.459   7.605   1.245
10806SOL    HW232377   2.328   7.670   1.205
10807SOL     OW32378   2.735   7.900   0.633
10807SOL    HW132379   2.700   7.957   0.564
10807SOL    HW232380   2.759   7.819   0.587
10808SOL     OW32381   2.887   7.505   0.742
10808SOL    HW132382   2.824   7.502   0.671
10808SOL    HW232383   2.862   7.433   0.800
10809SOL     OW32384   3.293   8.600   0.854
10809SOL    HW132385   3.225   8.534   0.867
10809SOL    HW232386   3.303   8.607   0.759
10810SOL     OW32387   3.324   8.063   0.952
10810SOL    HW132388   3.260   7.992   0.962
10810SOL    HW232389   3.379   8.057   1.029
10811SOL     OW32390   3.722   8.237   0.368
10811SOL    HW132391   3.764   8.187   0.439
10811SOL    HW232392   3.683   8.170   0.312
10812SOL     OW32393   2.365   8.891   0.214
10812SOL    HW132394   2.284   8.846   0.235
10812SOL    HW232395   2.408   8.836   0.149
10813SOL     OW32396   3.573   8.720   0.631
10813SOL    HW132397   3.665   8.713   0.655
10813SOL    HW232398   3.547   8.808   0.658
10814SOL     OW32399   3.279   8.013   0.095
10814SOL    HW132400   3.203   8.001   0.151
10814SOL    HW232401   3.317   7.926   0.087
10815SOL     OW32402   2.370   7.712   0.310
10815SOL    HW132403   2.408   7.653   0.244
10815SOL    HW232404   2.348   7.791   0.261
10816SOL     OW32405   3.597   8.692   1.532
10816SOL    HW132406   3.685   8.658   1.519
10816SOL    HW232407   3.610   8.779   1.570
10817SOL     OW32408   2.904   8.803   1.335
10817SOL    HW132409   2.826   8.768   1.380
10817SOL    HW232410   2.977   8.757   1.376
10818SOL     OW32411   3.470   9.083   1.672
10818SOL    HW132412   3.458   9.119   1.584
10818SOL    HW232413   3.547   9.027   1.665
10819SOL     OW32414   3.012   8.685   1.105
10819SOL    HW132415   2.950   8.719   1.170
10819SOL    HW232416   2.979   8.717   1.021
10820SOL     OW32417   3.469   8.539   1.078
10820SOL    HW132418   3.462   8.606   1.146
10820SOL    HW232419   3.400   8.561   1.016
10821SOL     OW32420   2.781   7.529   1.383
10821SOL    HW132421   2.802   7.514   1.291
10821SOL    HW232422   2.859   7.570   1.419
10822SOL     OW32423   2.841   8.563   1.724
10822SOL    HW132424   2.751   8.580   1.752
10822SOL    HW232425   2.836   8.483   1.673
10823SOL     OW32426   2.586   8.502   0.378
10823SOL    HW132427   2.572   8.474   0.468
10823SOL    HW232428   2.666   8.456   0.351
10824SOL     OW32429   2.288   8.275   1.259
10824SOL    HW132430   2.356   8.286   1.326
10824SOL    HW232431   2.258   8.185   1.269
10825SOL     OW32432   3.127   7.816   1.291
10825SOL    HW132433   3.154   7.896   1.336
10825SOL    HW232434   3.037   7.834   1.262
10826SOL     OW32435   1.940   9.018   1.363
10826SOL    HW132436   1.910   9.089   1.307
10826SOL    HW232437   2.035   9.018   1.354
10827SOL     OW32438   2.178   8.574   0.489
10827SOL    HW132439   2.177   8.644   0.424
10827SOL    HW232440   2.186   8.494   0.437
10828SOL     OW32441   2.395   7.961   0.857
10828SOL    HW132442   2.406   8.020   0.782
10828SOL    HW232443   2.463   7.989   0.919
10829SOL     OW32444   3.110   8.795   0.419
10829SOL    HW132445   3.166   8.868   0.446
10829SOL    HW232446   3.022   8.821   0.444
10830SOL     OW32447   3.171   8.915   1.143
10830SOL    HW132448   3.219   8.922   1.226
10830SOL    HW232449   3.120   8.834   1.151
10831SOL     OW32450   3.401   8.070   0.473
10831SOL    HW132451   3.380   8.108   0.558
10831SOL    HW232452   3.356   8.126   0.409
10832SOL     OW32453   2.207   8.979   1.303
10832SOL    HW132454   2.200   8.926   1.223
10832SOL    HW232455   2.301   8.995   1.312
10833SOL     OW32456   2.294   8.195   1.618
10833SOL    HW132457   2.353   8.238   1.556
10833SOL    HW232458   2.337   8.111   1.638
10834SOL     OW32459   3.489   8.234   1.698
10834SOL    HW132460   3.402   8.272   1.689
10834SOL    HW232461   3.540   8.272   1.626
10835SOL     OW32462   2.857   7.588   1.758
10835SOL    HW132463   2.916   7.662   1.739
10835SOL    HW232464   2.909   7.511   1.736
10836SOL     OW32465   2.356   7.483   1.763
10836SOL    HW132466   2.302   7.433   1.702
10836SOL    HW232467   2.304   7.560   1.784
10837SOL     OW32468   2.452   8.323   1.038
10837SOL    HW132469   2.491   8.410   1.041
10837SOL    HW232470   2.395   8.318   1.115
10838SOL     OW32471   3.171   8.301   1.003
10838SOL    HW132472   3.082   8.275   0.977
10838SOL    HW232473   3.225   8.225   0.986
10839SOL     OW32474   3.053   7.967   0.246
10839SOL    HW132475   3.065   7.891   0.303
10839SOL    HW232476   3.012   8.033   0.301
10840SOL     OW32477   2.154   7.642   1.239
10840SOL    HW132478   2.119   7.670   1.323
10840SOL    HW232479   2.137   7.548   1.236
10841SOL     OW32480   1.913   8.760   1.267
10841SOL    HW132481   1.942   8.705   1.340
10841SOL    HW232482   1.915   8.849   1.303
10842SOL     OW32483   2.571   8.069   1.037
10842SOL    HW132484   2.651   8.063   0.984
10842SOL    HW232485   2.543   8.160   1.029
10843SOL     OW32486   3.613   8.415   1.869
10843SOL    HW132487   3.573   8.343   1.821
10843SOL    HW232488   3.550   8.436   1.938
10844SOL     OW32489   2.181   7.512   0.630
10844SOL    HW132490   2.149   7.600   0.649
10844SOL    HW232491   2.188   7.470   0.716
10845SOL     OW32492   3.499   7.841   0.352
10845SOL    HW132493   3.532   7.777   0.414
10845SOL    HW232494   3.463   7.911   0.406
10846SOL     OW32495   2.896   8.206   0.957
10846SOL    HW132496   2.875   8.221   1.049
10846SOL    HW232497   2.867   8.117   0.940
10847SOL     OW32498   2.844   9.014   1.733
10847SOL    HW132499   2.823   9.057   1.650
10847SOL    HW232500   2.882   8.930   1.708
10848SOL     OW32501   3.700   8.943   1.602
10848SOL    HW132502   3.727   8.971   1.515
10848SOL    HW232503   3.778   8.953   1.656
10849SOL     OW32504   2.211   8.366   1.817
10849SOL    HW132505   2.288   8.384   1.871
10849SOL    HW232506   2.242   8.304   1.751
10850SOL     OW32507   3.361   7.753   0.128
10850SOL    HW132508   3.313   7.673   0.150
10850SOL    HW232509   3.409   7.774   0.208
10851SOL     OW32510   3.183   8.266   0.040
10851SOL    HW132511   3.218   8.177   0.041
10851SOL    HW232512   3.240   8.313   9.979
10852SOL     OW32513   2.932   8.801   0.866
10852SOL    HW132514   2.944   8.728   0.805
10852SOL    HW232515   2.985   8.872   0.829
10853SOL     OW32516   2.180   8.262   0.944
10853SOL    HW132517   2.274   8.277   0.945
10853SOL    HW232518   2.170   8.172   0.975
10854SOL     OW32519   2.175   7.985   1.011
10854SOL    HW132520   2.136   7.899   1.002
10854SOL    HW232521   2.253   7.982   0.955
10855SOL     OW32522   3.001   7.815   1.685
10855SOL    HW132523   2.955   7.866   1.752
10855SOL    HW232524   3.086   7.858   1.677
10856SOL     OW32525   3.018   7.637   1.474
10856SOL    HW132526   3.006   7.699   1.546
10856SOL    HW232527   3.064   7.687   1.406
10857SOL     OW32528   1.879   8.738   0.170
10857SOL    HW132529   1.789   8.767   0.153
10857SOL    HW232530   1.869   8.659   0.223
10858SOL     OW32531   1.955   9.215   0.952
10858SOL    HW132532   1.921   9.142   0.900
10858SOL    HW232533   2.042   9.233   0.914
10859SOL     OW32534   2.346   9.018   0.904
10859SOL    HW132535   2.416   9.080   0.924
10859SOL    HW232536   2.388   8.952   0.848
10860SOL     OW32537   2.810   8.228   1.215
10860SOL    HW132538   2.873   8.217   1.287
10860SOL    HW232539   2.731   8.183   1.246
10861SOL     OW32540   1.902   8.020   1.121
10861SOL    HW132541   1.984   8.016   1.071
10861SOL    HW232542   1.929   8.013   1.212
10862SOL     OW32543   2.047   7.987   1.743
10862SOL    HW132544   2.119   7.953   1.689
10862SOL    HW232545   2.012   8.060   1.694
10863SOL     OW32546   3.254   8.368   1.651
10863SOL    HW132547   3.271   8.462   1.646
10863SOL    HW232548   3.246   8.341   1.560
10864SOL     OW32549   2.689   8.012   0.374
10864SOL    HW132550   2.694   7.937   0.315
10864SOL    HW232551   2.611   8.059   0.346
10865SOL     OW32552   3.498   8.049   1.164
10865SOL    HW132553   3.489   7.990   1.239
10865SOL    HW232554   3.589   8.038   1.136
10866SOL     OW32555   2.087   8.986   1.724
10866SOL    HW132556   2.063   9.034   1.802
10866SOL    HW232557   2.100   8.896   1.754
10867SOL     OW32558   2.596   7.881   1.233
10867SOL    HW132559   2.532   7.811   1.219
10867SOL    HW232560   2.577   7.945   1.164
10868SOL     OW32561   2.770   9.127   1.486
10868SOL    HW132562   2.746   9.080   1.407
10868SOL    HW232563   2.771   9.219   1.460
10869SOL     OW32564   2.313   7.934   0.155
10869SOL    HW132565   2.372   8.000   0.191
10869SOL    HW232566   2.228   7.978   0.151
10870SOL     OW32567   1.992   8.598   1.481
10870SOL    HW132568   1.996   8.559   1.569
10870SOL    HW232569   2.013   8.527   1.422
10871SOL     OW32570   3.165   8.482   1.209
10871SOL    HW132571   3.175   8.418   1.138
10871SOL    HW232572   3.112   8.552   1.171
10872SOL     OW32573   3.189   8.266   0.319
10872SOL    HW132574   3.104   8.244   0.356
10872SOL    HW232575   3.175   8.263   0.224
10873SOL     OW32576   3.649   9.171   1.170
10873SOL    HW132577   3.711   9.197   1.102
10873SOL    HW232578   3.617   9.085   1.143
10874SOL     OW32579   3.102   9.178   1.090
10874SOL    HW132580   3.186   9.208   1.056
10874SOL    HW232581   3.117   9.087   1.115
10875SOL     OW32582   1.969   8.695   1.011
10875SOL    HW132583   1.941   8.717   1.100
10875SOL    HW232584   1.896   8.643   0.976
10876SOL     OW32585   2.551   9.129   1.750
10876SOL    HW132586   2.486   9.198   1.738
10876SOL    HW232587   2.623   9.152   1.692
10877SOL     OW32588   2.748   7.527   0.099
10877SOL    HW132589   2.742   7.500   0.007
10877SOL    HW232590   2.826   7.481   0.131
10878SOL     OW32591   3.616   7.630   0.495
10878SOL    HW132592   3.677   7.607   0.425
10878SOL    HW232593   3.586   7.546   0.530
10879SOL     OW32594   3.261   9.017   0.504
10879SOL    HW132595   3.318   9.052   0.436
10879SOL    HW232596   3.208   9.091   0.532
10880SOL     OW32597   1.995   9.254   1.843
10880SOL    HW132598   1.956   9.178   1.886
10880SOL    HW232599   2.047   9.296   1.913
10881SOL     OW32600   3.141   8.381   0.669
10881SOL    HW132601   3.215   8.321   0.681
10881SOL    HW232602   3.178   8.453   0.618
10882SOL     OW32603   2.645   8.728   1.415
10882SOL    HW132604   2.620   8.775   1.494
10882SOL    HW232605   2.571   8.738   1.355
10883SOL     OW32606   2.545   9.087   0.186
10883SOL    HW132607   2.558   9.092   0.091
10883SOL    HW232608   2.488   9.011   0.198
10884SOL     OW32609   3.479   9.177   1.401
10884SOL    HW132610   3.536   9.176   1.324
10884SOL    HW232611   3.462   9.269   1.418
10885SOL     OW32612   3.707   7.608   0.964
10885SOL    HW132613   3.735   7.519   0.944
10885SOL    HW232614   3.619   7.614   0.926
10886SOL     OW32615   2.104   7.760   0.709
10886SOL    HW132616   2.017   7.796   0.689
10886SOL    HW232617   2.108   7.760   0.804
10887SOL     OW32618   3.078   9.014   0.055
10887SOL    HW132619   3.066   8.924   0.085
10887SOL    HW232620   3.090   9.007   9.960
10888SOL     OW32621   2.685   8.459   1.385
10888SOL    HW132622   2.722   8.451   1.297
10888SOL    HW232623   2.674   8.554   1.398
10889SOL     OW32624   2.805   8.371   0.296
10889SOL    HW132625   2.854   8.391   0.216
10889SOL    HW232626   2.852   8.297   0.334
10890SOL     OW32627   3.351   9.058   0.073
10890SOL    HW132628   3.256   9.051   0.084
10890SOL    HW232629   3.364   9.066   9.979
10891SOL     OW32630   2.225   8.760   1.502
10891SOL    HW132631   2.217   8.834   1.441
10891SOL    HW232632   2.147   8.707   1.486
10892SOL     OW32633   3.461   8.738   1.277
10892SOL    HW132634   3.515   8.714   1.352
10892SOL    HW232635   3.402   8.805   1.311
10893SOL     OW32636   2.939   8.566   0.730
10893SOL    HW132637   2.863   8.517   0.761
10893SOL    HW232638   3.000   8.499   0.701
10894SOL     OW32639   2.895   7.697   0.962
10894SOL    HW132640   2.895   7.654   0.876
10894SOL    HW232641   2.888   7.625   1.024
10895SOL     OW32642   2.475   8.932   0.498
10895SOL    HW132643   2.518   8.879   0.432
10895SOL    HW232644   2.409   8.982   0.450
10896SOL     OW32645   3.607   7.830   1.388
10896SOL    HW132646   3.678   7.894   1.384
10896SOL    HW232647   3.634   7.761   1.327
10897SOL     OW32648   2.131   8.761   0.283
10897SOL    HW132649   2.048   8.763   0.235
10897SOL    HW232650   2.115   8.814   0.361
10898SOL     OW32651   1.983   8.494   1.736
10898SOL    HW132652   1.905   8.466   1.785
10898SOL    HW232653   2.054   8.443   1.773
10899SOL     OW32654   2.541   7.636   1.495
10899SOL    HW132655   2.625   7.611   1.456
10899SOL    HW232656   2.564   7.670   1.582
10900SOL     OW32657   1.950   7.723   0.021
10900SOL    HW132658   1.860   7.741   9.992
10900SOL    HW232659   1.998   7.803  10.000
10901SOL     OW32660   3.277   8.302   1.388
10901SOL    HW132661   3.224   8.360   1.333
10901SOL    HW232662   3.365   8.306   1.351
10902SOL     OW32663   1.936   7.589   0.278
10902SOL    HW132664   1.930   7.638   0.196
10902SOL    HW232665   2.031   7.578   0.291
10903SOL     OW32666   3.060   8.758   0.146
10903SOL    HW132667   2.974   8.718   0.137
10903SOL    HW232668   3.078   8.757   0.240
10904SOL     OW32669   2.487   8.279   1.441
10904SOL    HW132670   2.546   8.354   1.430
10904SOL    HW232671   2.545   8.203   1.440
10905SOL     OW32672   3.348   9.240   0.989
10905SOL    HW132673   3.372   9.318   0.940
10905SOL    HW232674   3.431   9.200   1.013
10906SOL     OW32675   2.588   7.996   1.685
10906SOL    HW132676   2.634   8.050   1.750
10906SOL    HW232677   2.597   7.906   1.718
10907SOL     OW32678   3.330   8.632   1.619
10907SOL    HW132679   3.323   8.654   1.712
10907SOL    HW232680   3.420   8.656   1.596
10908SOL     OW32681   2.213   9.189   1.576
10908SOL    HW132682   2.131   9.236   1.558
10908SOL    HW232683   2.185   9.107   1.615
10909SOL     OW32684   3.517   8.323   1.253
10909SOL    HW132685   3.515   8.240   1.206
10909SOL    HW232686   3.504   8.389   1.185
10910SOL     OW32687   3.082   7.772   0.451
10910SOL    HW132688   3.142   7.697   0.449
10910SOL    HW232689   3.111   7.823   0.527
10911SOL     OW32690   2.428   8.171   0.678
10911SOL    HW132691   2.475   8.254   0.666
10911SOL    HW232692   2.365   8.170   0.606
10912SOL     OW32693   3.609   7.803   1.664
10912SOL    HW132694   3.606   7.819   1.570
10912SOL    HW232695   3.532   7.750   1.682
10913SOL     OW32696   3.622   8.373   1.504
10913SOL    HW132697   3.605   8.466   1.517
10913SOL    HW232698   3.595   8.356   1.414
10914SOL     OW32699   2.759   8.867   0.043
10914SOL    HW132700   2.674   8.827   0.025
10914SOL    HW232701   2.755   8.890   0.136
10915SOL     OW32702   2.529   9.215   0.924
10915SOL    HW132703   2.510   9.308   0.916
10915SOL    HW232704   2.625   9.211   0.925
10916SOL     OW32705   2.734   8.424   0.857
10916SOL    HW132706   2.785   8.351   0.892
10916SOL    HW232707   2.689   8.461   0.932
10917SOL     OW32708   2.959   8.422   0.074
10917SOL    HW132709   2.951   8.468   9.990
10917SOL    HW232710   3.033   8.362   0.062
10918SOL     OW32711   3.692   9.003   0.840
10918SOL    HW132712   3.616   8.995   0.783
10918SOL    HW232713   3.669   8.953   0.919
10919SOL     OW32714   2.074   8.732   1.836
10919SOL    HW132715   2.042   8.653   1.793
10919SOL    HW232716   2.015   8.745   1.910
10920SOL     OW32717   1.980   8.667   0.670
10920SOL    HW132718   2.008   8.628   0.753
10920SOL    HW232719   2.041   8.633   0.605
10921SOL     OW32720   2.553   8.866   1.634
10921SOL    HW132721   2.475   8.827   1.675
10921SOL    HW232722   2.558   8.954   1.670
10922SOL     OW32723   3.672   7.619   1.234
10922SOL    HW132724   3.674   7.525   1.247
10922SOL    HW232725   3.686   7.631   1.140
10923SOL     OW32726   2.276   7.882   0.516
10923SOL    HW132727   2.309   7.812   0.460
10923SOL    HW232728   2.227   7.837   0.585
10924SOL     OW32729   3.558   8.926   1.081
10924SOL    HW132730   3.480   8.907   1.029
10924SOL    HW232731   3.559   8.859   1.149
10925SOL     OW32732   2.214   8.013   1.292
10925SOL    HW132733   2.263   7.949   1.342
10925SOL    HW232734   2.222   7.983   1.201
10926SOL     OW32735   2.699   9.028   0.674
10926SOL    HW132736   2.672   9.096   0.613
10926SOL    HW232737   2.625   8.967   0.678
10927SOL     OW32738   3.283   7.680   1.115
10927SOL    HW132739   3.292   7.591   1.148
10927SOL    HW232740   3.237   7.727   1.185
10928SOL     OW32741   2.872   7.465   1.119
10928SOL    HW132742   2.818   7.402   1.073
10928SOL    HW232743   2.959   7.424   1.123
10929SOL     OW32744   2.639   8.775   0.339
10929SOL    HW132745   2.618   8.682   0.345
10929SOL    HW232746   2.722   8.784   0.386
10930SOL     OW32747   2.478   9.014   1.288
10930SOL    HW132748   2.473   9.097   1.336
10930SOL    HW232749   2.568   9.011   1.255
10931SOL     OW32750   3.214   7.505   0.176
10931SOL    HW132751   3.237   7.469   0.091
10931SOL    HW232752   3.124   7.476   0.192
10932SOL     OW32753   3.162   7.916   0.675
10932SOL    HW132754   3.112   7.997   0.671
10932SOL    HW232755   3.153   7.887   0.765
10933SOL     OW32756   3.444   7.636   0.893
10933SOL    HW132757   3.392   7.665   0.968
10933SOL    HW232758   3.443   7.710   0.833
10934SOL     OW32759   1.904   8.492   0.303
10934SOL    HW132760   1.999   8.494   0.308
10934SOL    HW232761   1.880   8.404   0.332
10935SOL     OW32762   2.763   9.128   0.350
10935SOL    HW132763   2.685   9.114   0.297
10935SOL    HW232764   2.740   9.201   0.407
10936SOL     OW32765   2.070   8.069   2.009
10936SOL    HW132766   1.982   8.057   2.046
10936SOL    HW232767   2.058   8.056   1.915
10937SOL     OW32768   2.081   7.736   2.851
10937SOL    HW132769   2.112   7.701   2.935
10937SOL    HW232770   1.994   7.699   2.840
10938SOL     OW32771   1.848   7.844   2.508
10938SOL    HW132772   1.769   7.869   2.555
10938SOL    HW232773   1.821   7.770   2.453
10939SOL     OW32774   2.437   8.754   3.070
10939SOL    HW132775   2.354   8.757   3.021
10939SOL    HW232776   2.454   8.845   3.094
10940SOL     OW32777   3.449   8.970   2.567
10940SOL    HW132778   3.403   8.940   2.645
10940SOL    HW232779   3.382   8.973   2.499
10941SOL     OW32780   3.000   8.152   2.548
10941SOL    HW132781   3.046   8.235   2.536
10941SOL    HW232782   2.951   8.163   2.630
10942SOL     OW32783   3.663   8.029   2.082
10942SOL    HW132784   3.624   8.029   1.994
10942SOL    HW232785   3.618   7.957   2.128
10943SOL     OW32786   2.589   8.577   2.920
10943SOL    HW132787   2.530   8.617   2.984
10943SOL    HW232788   2.632   8.651   2.876
10944SOL     OW32789   2.749   8.189   3.690
10944SOL    HW132790   2.740   8.256   3.758
10944SOL    HW232791   2.766   8.239   3.609
10945SOL     OW32792   2.548   8.433   2.506
10945SOL    HW132793   2.615   8.433   2.574
10945SOL    HW232794   2.482   8.495   2.537
10946SOL     OW32795   2.574   8.598   3.695
10946SOL    HW132796   2.625   8.671   3.730
10946SOL    HW232797   2.498   8.640   3.654
10947SOL     OW32798   2.205   8.844   2.931
10947SOL    HW132799   2.129   8.801   2.891
10947SOL    HW232800   2.241   8.899   2.861
10948SOL     OW32801   3.316   8.953   3.234
10948SOL    HW132802   3.371   9.030   3.247
10948SOL    HW232803   3.244   8.965   3.296
10949SOL     OW32804   2.320   7.822   3.317
10949SOL    HW132805   2.395   7.764   3.333
10949SOL    HW232806   2.244   7.772   3.344
10950SOL     OW32807   3.446   7.880   2.617
10950SOL    HW132808   3.380   7.891   2.549
10950SOL    HW232809   3.428   7.951   2.679
10951SOL     OW32810   2.080   9.178   2.327
10951SOL    HW132811   2.106   9.249   2.385
10951SOL    HW232812   2.154   9.167   2.267
10952SOL     OW32813   2.997   8.789   3.559
10952SOL    HW132814   3.042   8.778   3.642
10952SOL    HW232815   2.943   8.710   3.550
10953SOL     OW32816   2.095   8.907   2.395
10953SOL    HW132817   2.073   9.000   2.399
10953SOL    HW232818   2.044   8.868   2.467
10954SOL     OW32819   2.148   8.537   2.741
10954SOL    HW132820   2.148   8.447   2.775
10954SOL    HW232821   2.092   8.585   2.802
10955SOL     OW32822   2.439   9.244   3.287
10955SOL    HW132823   2.360   9.227   3.339
10955SOL    HW232824   2.468   9.330   3.315
10956SOL     OW32825   2.428   8.435   2.014
10956SOL    HW132826   2.479   8.478   1.945
10956SOL    HW232827   2.468   8.465   2.096
10957SOL     OW32828   3.457   7.577   3.324
10957SOL    HW132829   3.494   7.653   3.280
10957SOL    HW232830   3.424   7.612   3.407
10958SOL     OW32831   1.981   8.106   2.429
10958SOL    HW132832   1.948   8.019   2.453
10958SOL    HW232833   1.975   8.157   2.510
10959SOL     OW32834   3.709   9.188   2.178
10959SOL    HW132835   3.780   9.173   2.241
10959SOL    HW232836   3.717   9.280   2.155
10960SOL     OW32837   1.923   9.027   1.971
10960SOL    HW132838   1.901   8.935   1.989
10960SOL    HW232839   1.890   9.074   2.048
10961SOL     OW32840   3.559   8.374   2.514
10961SOL    HW132841   3.641   8.329   2.491
10961SOL    HW232842   3.538   8.426   2.437
10962SOL     OW32843   3.519   8.553   2.294
10962SOL    HW132844   3.603   8.545   2.251
10962SOL    HW232845   3.533   8.618   2.363
10963SOL     OW32846   1.982   8.198   3.440
10963SOL    HW132847   2.067   8.242   3.443
10963SOL    HW232848   1.919   8.268   3.425
10964SOL     OW32849   2.486   8.846   2.592
10964SOL    HW132850   2.444   8.760   2.597
10964SOL    HW232851   2.469   8.875   2.502
10965SOL     OW32852   3.132   8.673   3.279
10965SOL    HW132853   3.160   8.604   3.219
10965SOL    HW232854   3.194   8.668   3.352
10966SOL     OW32855   2.693   7.459   2.381
10966SOL    HW132856   2.733   7.541   2.353
10966SOL    HW232857   2.599   7.477   2.381
10967SOL     OW32858   2.049   8.404   3.164
10967SOL    HW132859   2.136   8.369   3.147
10967SOL    HW232860   1.995   8.371   3.092
10968SOL     OW32861   3.397   8.463   2.061
10968SOL    HW132862   3.328   8.403   2.091
10968SOL    HW232863   3.439   8.493   2.142
10969SOL     OW32864   3.046   9.270   3.495
10969SOL    HW132865   3.045   9.330   3.421
10969SOL    HW232866   3.061   9.184   3.455
10970SOL     OW32867   2.222   7.701   3.738
10970SOL    HW132868   2.257   7.782   3.776
10970SOL    HW232869   2.127   7.716   3.734
10971SOL     OW32870   3.334   8.865   2.793
10971SOL    HW132871   3.271   8.884   2.862
10971SOL    HW232872   3.316   8.774   2.769
10972SOL     OW32873   3.508   9.229   2.429
10972SOL    HW132874   3.485   9.188   2.346
10972SOL    HW232875   3.501   9.159   2.494
10973SOL     OW32876   2.449   8.147   2.134
10973SOL    HW132877   2.452   8.235   2.095
10973SOL    HW232878   2.384   8.154   2.204
10974SOL     OW32879   3.144   7.842   2.803
10974SOL    HW132880   3.056   7.806   2.808
10974SOL    HW232881   3.196   7.783   2.858
10975SOL     OW32882   3.441   9.119   2.181
10975SOL    HW132883   3.535   9.135   2.170
10975SOL    HW232884   3.408   9.108   2.092
10976SOL     OW32885   2.653   8.061   3.293
10976SOL    HW132886   2.630   8.032   3.381
10976SOL    HW232887   2.628   7.988   3.236
10977SOL     OW32888   3.253   7.926   3.536
10977SOL    HW132889   3.258   7.969   3.621
10977SOL    HW232890   3.304   7.846   3.547
10978SOL     OW32891   2.806   8.329   3.455
10978SOL    HW132892   2.862   8.265   3.411
10978SOL    HW232893   2.757   8.371   3.384
10979SOL     OW32894   2.870   7.844   3.071
10979SOL    HW132895   2.778   7.858   3.094
10979SOL    HW232896   2.867   7.802   2.985
10980SOL     OW32897   2.920   8.145   2.280
10980SOL    HW132898   2.941   8.142   2.374
10980SOL    HW232899   2.835   8.101   2.273
10981SOL     OW32900   1.955   8.272   2.645
10981SOL    HW132901   2.037   8.267   2.695
10981SOL    HW232902   1.906   8.344   2.686
10982SOL     OW32903   1.967   9.318   3.447
10982SOL    HW132904   1.975   9.301   3.541
10982SOL    HW232905   1.882   9.281   3.423
10983SOL     OW32906   2.751   7.798   2.062
10983SOL    HW132907   2.802   7.852   2.002
10983SOL    HW232908   2.727   7.721   2.011
10984SOL     OW32909   3.547   8.010   3.702
10984SOL    HW132910   3.526   8.088   3.650
10984SOL    HW232911   3.577   7.946   3.638
10985SOL     OW32912   3.255   8.598   2.405
10985SOL    HW132913   3.334   8.586   2.353
10985SOL    HW232914   3.201   8.658   2.354
10986SOL     OW32915   2.414   7.608   2.777
10986SOL    HW132916   2.419   7.637   2.868
10986SOL    HW232917   2.409   7.689   2.727
10987SOL     OW32918   2.859   8.903   2.327
10987SOL    HW132919   2.834   8.978   2.273
10987SOL    HW232920   2.829   8.926   2.415
10988SOL     OW32921   2.216   9.264   2.740
10988SOL    HW132922   2.261   9.180   2.745
10988SOL    HW232923   2.282   9.329   2.761
10989SOL     OW32924   3.666   8.492   2.751
10989SOL    HW132925   3.618   8.477   2.669
10989SOL    HW232926   3.597   8.501   2.817
10990SOL     OW32927   3.080   8.991   3.378
10990SOL    HW132928   3.068   8.920   3.442
10990SOL    HW232929   3.012   8.976   3.313
10991SOL     OW32930   2.162   8.407   2.128
10991SOL    HW132931   2.245   8.428   2.084
10991SOL    HW232932   2.139   8.320   2.095
10992SOL     OW32933   3.346   8.211   2.573
10992SOL    HW132934   3.349   8.168   2.658
10992SOL    HW232935   3.426   8.265   2.571
10993SOL     OW32936   2.335   8.732   3.610
10993SOL    HW132937   2.311   8.737   3.518
10993SOL    HW232938   2.252   8.719   3.656
10994SOL     OW32939   2.997   9.223   2.086
10994SOL    HW132940   2.916   9.192   2.127
10994SOL    HW232941   3.017   9.157   2.020
10995SOL     OW32942   2.071   7.705   3.360
10995SOL    HW132943   1.998   7.765   3.376
10995SOL    HW232944   2.040   7.621   3.394
10996SOL     OW32945   3.500   8.836   1.962
10996SOL    HW132946   3.459   8.921   1.949
10996SOL    HW232947   3.433   8.773   1.935
10997SOL     OW32948   2.319   9.193   2.176
10997SOL    HW132949   2.368   9.243   2.241
10997SOL    HW232950   2.387   9.150   2.123
10998SOL     OW32951   3.259   7.553   2.321
10998SOL    HW132952   3.258   7.529   2.228
10998SOL    HW232953   3.350   7.542   2.348
10999SOL     OW32954   2.113   9.232   3.075
10999SOL    HW132955   2.162   9.157   3.108
10999SOL    HW232956   2.095   9.211   2.983
11000SOL     OW32957   2.809   9.146   2.752
11000SOL    HW132958   2.895   9.106   2.765
11000SOL    HW232959   2.769   9.094   2.682
11001SOL     OW32960   2.257   8.133   2.335
11001SOL    HW132961   2.270   8.039   2.348
11001SOL    HW232962   2.164   8.147   2.352
11002SOL     OW32963   3.369   7.672   3.579
11002SOL    HW132964   3.382   7.689   3.672
11002SOL    HW232965   3.300   7.605   3.576
11003SOL     OW32966   2.525   7.557   1.964
11003SOL    HW132967   2.572   7.478   1.990
11003SOL    HW232968   2.463   7.527   1.897
11004SOL     OW32969   2.621   7.721   3.614
11004SOL    HW132970   2.705   7.676   3.612
11004SOL    HW232971   2.574   7.682   3.688
11005SOL     OW32972   2.732   8.975   3.061
11005SOL    HW132973   2.714   8.933   2.977
11005SOL    HW232974   2.799   8.920   3.101
11006SOL     OW32975   3.191   8.040   3.295
11006SOL    HW132976   3.224   8.010   3.379
11006SOL    HW232977   3.229   8.126   3.283
11007SOL     OW32978   2.679   8.823   2.819
11007SOL    HW132979   2.766   8.819   2.780
11007SOL    HW232980   2.620   8.838   2.745
11008SOL     OW32981   2.793   7.963   2.750
11008SOL    HW132982   2.767   7.952   2.658
11008SOL    HW232983   2.820   7.876   2.778
11009SOL     OW32984   2.426   7.511   2.352
11009SOL    HW132985   2.348   7.511   2.407
11009SOL    HW232986   2.414   7.586   2.293
11010SOL     OW32987   3.296   8.660   1.894
11010SOL    HW132988   3.325   8.586   1.947
11010SOL    HW232989   3.210   8.683   1.930
11011SOL     OW32990   2.144   7.496   2.050
11011SOL    HW132991   2.197   7.563   2.007
11011SOL    HW232992   2.208   7.438   2.092
11012SOL     OW32993   2.814   7.698   2.312
11012SOL    HW132994   2.788   7.733   2.227
11012SOL    HW232995   2.907   7.715   2.318
11013SOL     OW32996   2.937   8.143   3.307
11013SOL    HW132997   2.873   8.071   3.311
11013SOL    HW232998   3.022   8.099   3.303
11014SOL     OW32999   3.068   9.036   2.666
11014SOL    HW133000   3.083   9.095   2.592
11014SOL    HW233001   3.140   9.054   2.726
11015SOL     OW33002   2.345   8.610   2.570
11015SOL    HW133003   2.283   8.585   2.639
11015SOL    HW233004   2.294   8.603   2.489
11016SOL     OW33005   3.114   9.236   2.477
11016SOL    HW133006   3.162   9.300   2.424
11016SOL    HW233007   3.042   9.287   2.514
11017SOL     OW33008   2.894   7.963   1.892
11017SOL    HW133009   2.851   8.046   1.873
11017SOL    HW233010   2.958   7.983   1.960
11018SOL     OW33011   1.962   7.999   3.254
11018SOL    HW133012   2.054   8.001   3.227
11018SOL    HW233013   1.954   8.068   3.319
11019SOL     OW33014   2.421   7.670   3.046
11019SOL    HW133015   2.459   7.608   3.109
11019SOL    HW233016   2.328   7.671   3.067
11020SOL     OW33017   2.732   7.902   2.492
11020SOL    HW133018   2.692   7.958   2.425
11020SOL    HW233019   2.757   7.823   2.444
11021SOL     OW33020   2.884   7.507   2.602
11021SOL    HW133021   2.823   7.502   2.528
11021SOL    HW233022   2.859   7.434   2.659
11022SOL     OW33023   3.296   8.601   2.716
11022SOL    HW133024   3.226   8.537   2.725
11022SOL    HW233025   3.311   8.608   2.622
11023SOL     OW33026   3.325   8.064   2.810
11023SOL    HW133027   3.261   7.994   2.821
11023SOL    HW233028   3.380   8.058   2.888
11024SOL     OW33029   3.690   8.244   2.249
11024SOL    HW133030   3.751   8.201   2.310
11024SOL    HW233031   3.677   8.180   2.179
11025SOL     OW33032   2.360   8.872   2.013
11025SOL    HW133033   2.285   8.840   2.063
11025SOL    HW233034   2.356   8.824   1.930
11026SOL     OW33035   3.570   8.719   2.496
11026SOL    HW133036   3.663   8.713   2.517
11026SOL    HW233037   3.545   8.808   2.522
11027SOL     OW33038   3.254   8.023   1.927
11027SOL    HW133039   3.198   7.997   2.000
11027SOL    HW233040   3.343   8.000   1.956
11028SOL     OW33041   2.389   7.705   2.164
11028SOL    HW133042   2.443   7.663   2.096
11028SOL    HW233043   2.357   7.785   2.123
11029SOL     OW33044   3.597   8.692   3.394
11029SOL    HW133045   3.685   8.658   3.380
11029SOL    HW233046   3.610   8.779   3.431
11030SOL     OW33047   2.904   8.803   3.197
11030SOL    HW133048   2.826   8.768   3.242
11030SOL    HW233049   2.977   8.757   3.238
11031SOL     OW33050   3.470   9.083   3.534
11031SOL    HW133051   3.458   9.119   3.446
11031SOL    HW233052   3.547   9.027   3.527
11032SOL     OW33053   3.013   8.685   2.967
11032SOL    HW133054   2.951   8.719   3.032
11032SOL    HW233055   2.980   8.717   2.883
11033SOL     OW33056   3.471   8.539   2.939
11033SOL    HW133057   3.463   8.606   3.007
11033SOL    HW233058   3.401   8.560   2.876
11034SOL     OW33059   2.782   7.528   3.245
11034SOL    HW133060   2.803   7.514   3.152
11034SOL    HW233061   2.860   7.570   3.281
11035SOL     OW33062   2.841   8.564   3.586
11035SOL    HW133063   2.751   8.580   3.614
11035SOL    HW233064   2.836   8.483   3.535
11036SOL     OW33065   2.576   8.510   2.238
11036SOL    HW133066   2.561   8.484   2.329
11036SOL    HW233067   2.651   8.457   2.210
11037SOL     OW33068   2.289   8.276   3.121
11037SOL    HW133069   2.356   8.285   3.188
11037SOL    HW233070   2.258   8.186   3.131
11038SOL     OW33071   3.126   7.815   3.154
11038SOL    HW133072   3.154   7.896   3.198
11038SOL    HW233073   3.037   7.834   3.124
11039SOL     OW33074   1.940   9.017   3.225
11039SOL    HW133075   1.909   9.088   3.169
11039SOL    HW233076   2.035   9.017   3.215
11040SOL     OW33077   2.179   8.583   2.348
11040SOL    HW133078   2.180   8.654   2.285
11040SOL    HW233079   2.177   8.503   2.295
11041SOL     OW33080   2.396   7.964   2.721
11041SOL    HW133081   2.409   8.023   2.646
11041SOL    HW233082   2.465   7.990   2.783
11042SOL     OW33083   3.108   8.802   2.260
11042SOL    HW133084   3.165   8.871   2.294
11042SOL    HW233085   3.021   8.825   2.290
11043SOL     OW33086   3.171   8.915   3.005
11043SOL    HW133087   3.219   8.922   3.088
11043SOL    HW233088   3.120   8.834   3.013
11044SOL     OW33089   3.437   8.065   2.348
11044SOL    HW133090   3.386   8.106   2.417
11044SOL    HW233091   3.486   8.137   2.308
11045SOL     OW33092   2.206   8.979   3.164
11045SOL    HW133093   2.199   8.926   3.084
11045SOL    HW233094   2.300   8.995   3.173
11046SOL     OW33095   2.294   8.195   3.480
11046SOL    HW133096   2.353   8.238   3.418
11046SOL    HW233097   2.337   8.112   3.500
11047SOL     OW33098   3.489   8.234   3.560
11047SOL    HW133099   3.402   8.272   3.551
11047SOL    HW233100   3.540   8.272   3.488
11048SOL     OW33101   2.858   7.589   3.620
11048SOL    HW133102   2.916   7.662   3.602
11048SOL    HW233103   2.910   7.511   3.599
11049SOL     OW33104   2.355   7.482   3.626
11049SOL    HW133105   2.300   7.433   3.565
11049SOL    HW233106   2.304   7.560   3.647
11050SOL     OW33107   2.454   8.323   2.901
11050SOL    HW133108   2.492   8.410   2.904
11050SOL    HW233109   2.396   8.319   2.977
11051SOL     OW33110   3.170   8.301   2.865
11051SOL    HW133111   3.082   8.274   2.839
11051SOL    HW233112   3.225   8.225   2.846
11052SOL     OW33113   3.061   7.971   2.119
11052SOL    HW133114   3.071   7.894   2.176
11052SOL    HW233115   3.019   8.036   2.175
11053SOL     OW33116   2.154   7.642   3.101
11053SOL    HW133117   2.119   7.670   3.185
11053SOL    HW233118   2.137   7.548   3.098
11054SOL     OW33119   1.913   8.759   3.128
11054SOL    HW133120   1.942   8.704   3.200
11054SOL    HW233121   1.915   8.848   3.164
11055SOL     OW33122   2.574   8.070   2.901
11055SOL    HW133123   2.651   8.064   2.845
11055SOL    HW233124   2.545   8.161   2.892
11056SOL     OW33125   3.613   8.415   3.732
11056SOL    HW133126   3.573   8.343   3.683
11056SOL    HW233127   3.550   8.436   3.800
11057SOL     OW33128   2.187   7.508   2.490
11057SOL    HW133129   2.153   7.596   2.508
11057SOL    HW233130   2.193   7.466   2.575
11058SOL     OW33131   3.493   7.838   2.206
11058SOL    HW133132   3.526   7.773   2.268
11058SOL    HW233133   3.464   7.911   2.260
11059SOL     OW33134   2.896   8.206   2.818
11059SOL    HW133135   2.875   8.221   2.910
11059SOL    HW233136   2.866   8.117   2.800
11060SOL     OW33137   2.844   9.014   3.596
11060SOL    HW133138   2.822   9.057   3.513
11060SOL    HW233139   2.882   8.930   3.570
11061SOL     OW33140   3.700   8.943   3.464
11061SOL    HW133141   3.727   8.971   3.377
11061SOL    HW233142   3.778   8.953   3.518
11062SOL     OW33143   2.211   8.367   3.678
11062SOL    HW133144   2.288   8.384   3.733
11062SOL    HW233145   2.242   8.304   3.613
11063SOL     OW33146   3.383   7.716   1.981
11063SOL    HW133147   3.331   7.645   2.018
11063SOL    HW233148   3.423   7.760   2.056
11064SOL     OW33149   3.143   8.269   1.881
11064SOL    HW133150   3.182   8.183   1.889
11064SOL    HW233151   3.179   8.306   1.800
11065SOL     OW33152   2.932   8.801   2.728
11065SOL    HW133153   2.944   8.728   2.667
11065SOL    HW233154   2.985   8.872   2.691
11066SOL     OW33155   2.180   8.263   2.807
11066SOL    HW133156   2.275   8.278   2.804
11066SOL    HW233157   2.170   8.173   2.837
11067SOL     OW33158   2.175   7.986   2.873
11067SOL    HW133159   2.136   7.899   2.863
11067SOL    HW233160   2.253   7.984   2.817
11068SOL     OW33161   3.001   7.815   3.548
11068SOL    HW133162   2.955   7.867   3.615
11068SOL    HW233163   3.086   7.859   3.539
11069SOL     OW33164   3.018   7.638   3.337
11069SOL    HW133165   3.007   7.700   3.408
11069SOL    HW233166   3.064   7.687   3.269
11070SOL     OW33167   1.886   8.750   2.041
11070SOL    HW133168   1.796   8.772   2.016
11070SOL    HW233169   1.879   8.664   2.082
11071SOL     OW33170   1.956   9.216   2.814
11071SOL    HW133171   1.922   9.143   2.763
11071SOL    HW233172   2.042   9.234   2.776
11072SOL     OW33173   2.347   9.017   2.763
11072SOL    HW133174   2.417   9.079   2.784
11072SOL    HW233175   2.387   8.956   2.701
11073SOL     OW33176   2.811   8.229   3.076
11073SOL    HW133177   2.873   8.218   3.148
11073SOL    HW233178   2.732   8.183   3.105
11074SOL     OW33179   1.901   8.019   2.983
11074SOL    HW133180   1.982   8.016   2.933
11074SOL    HW233181   1.929   8.012   3.074
11075SOL     OW33182   2.048   7.987   3.605
11075SOL    HW133183   2.119   7.954   3.551
11075SOL    HW233184   2.012   8.061   3.556
11076SOL     OW33185   3.254   8.368   3.513
11076SOL    HW133186   3.271   8.463   3.508
11076SOL    HW233187   3.246   8.341   3.422
11077SOL     OW33188   2.680   8.017   2.234
11077SOL    HW133189   2.689   7.943   2.174
11077SOL    HW233190   2.603   8.064   2.203
11078SOL     OW33191   3.497   8.049   3.025
11078SOL    HW133192   3.487   7.991   3.100
11078SOL    HW233193   3.588   8.038   2.997
11079SOL     OW33194   2.087   8.986   3.586
11079SOL    HW133195   2.063   9.034   3.665
11079SOL    HW233196   2.100   8.896   3.615
11080SOL     OW33197   2.596   7.881   3.096
11080SOL    HW133198   2.532   7.812   3.080
11080SOL    HW233199   2.578   7.946   3.027
11081SOL     OW33200   2.768   9.127   3.350
11081SOL    HW133201   2.745   9.080   3.270
11081SOL    HW233202   2.770   9.219   3.323
11082SOL     OW33203   2.305   7.929   2.026
11082SOL    HW133204   2.369   7.995   2.051
11082SOL    HW233205   2.221   7.975   2.029
11083SOL     OW33206   1.992   8.598   3.343
11083SOL    HW133207   1.996   8.559   3.430
11083SOL    HW233208   2.013   8.527   3.283
11084SOL     OW33209   3.165   8.482   3.070
11084SOL    HW133210   3.175   8.418   2.999
11084SOL    HW233211   3.112   8.552   3.033
11085SOL     OW33212   3.188   8.308   2.153
11085SOL    HW133213   3.117   8.273   2.208
11085SOL    HW233214   3.159   8.293   2.063
11086SOL     OW33215   3.650   9.170   3.033
11086SOL    HW133216   3.711   9.197   2.964
11086SOL    HW233217   3.617   9.085   3.005
11087SOL     OW33218   3.102   9.179   2.954
11087SOL    HW133219   3.186   9.209   2.919
11087SOL    HW233220   3.117   9.088   2.978
11088SOL     OW33221   1.969   8.694   2.871
11088SOL    HW133222   1.941   8.716   2.960
11088SOL    HW233223   1.897   8.642   2.836
11089SOL     OW33224   2.551   9.129   3.612
11089SOL    HW133225   2.486   9.198   3.599
11089SOL    HW233226   2.623   9.152   3.553
11090SOL     OW33227   3.606   7.632   2.358
11090SOL    HW133228   3.665   7.612   2.286
11090SOL    HW233229   3.579   7.546   2.392
11091SOL     OW33230   3.259   9.016   2.365
11091SOL    HW133231   3.313   9.052   2.295
11091SOL    HW233232   3.204   9.090   2.392
11092SOL     OW33233   1.995   9.255   3.706
11092SOL    HW133234   1.955   9.178   3.747
11092SOL    HW233235   2.047   9.296   3.775
11093SOL     OW33236   3.141   8.384   2.526
11093SOL    HW133237   3.215   8.324   2.539
11093SOL    HW233238   3.177   8.456   2.474
11094SOL     OW33239   2.645   8.728   3.276
11094SOL    HW133240   2.619   8.775   3.355
11094SOL    HW233241   2.571   8.738   3.217
11095SOL     OW33242   2.530   9.084   2.022
11095SOL    HW133243   2.546   9.098   1.929
11095SOL    HW233244   2.478   9.004   2.027
11096SOL     OW33245   3.479   9.176   3.263
11096SOL    HW133246   3.536   9.176   3.187
11096SOL    HW233247   3.462   9.269   3.280
11097SOL     OW33248   3.706   7.609   2.827
11097SOL    HW133249   3.735   7.520   2.805
11097SOL    HW233250   3.619   7.616   2.788
11098SOL     OW33251   2.105   7.754   2.570
11098SOL    HW133252   2.019   7.791   2.548
11098SOL    HW233253   2.108   7.756   2.665
11099SOL     OW33254   3.071   9.035   1.900
11099SOL    HW133255   3.061   8.944   1.928
11099SOL    HW233256   3.002   9.048   1.835
11100SOL     OW33257   2.685   8.459   3.247
11100SOL    HW133258   2.722   8.450   3.159
11100SOL    HW233259   2.674   8.554   3.259
11101SOL     OW33260   2.782   8.358   2.157
11101SOL    HW133261   2.839   8.391   2.087
11101SOL    HW233262   2.834   8.291   2.200
11102SOL     OW33263   3.345   9.092   1.920
11102SOL    HW133264   3.253   9.072   1.902
11102SOL    HW233265   3.385   9.096   1.833
11103SOL     OW33266   2.224   8.761   3.364
11103SOL    HW133267   2.217   8.834   3.302
11103SOL    HW233268   2.147   8.707   3.347
11104SOL     OW33269   3.461   8.737   3.139
11104SOL    HW133270   3.516   8.713   3.214
11104SOL    HW233271   3.402   8.804   3.172
11105SOL     OW33272   2.939   8.568   2.592
11105SOL    HW133273   2.864   8.518   2.623
11105SOL    HW233274   3.001   8.501   2.561
11106SOL     OW33275   2.896   7.697   2.822
11106SOL    HW133276   2.894   7.655   2.736
11106SOL    HW233277   2.889   7.625   2.885
11107SOL     OW33278   2.465   8.933   2.336
11107SOL    HW133279   2.520   8.885   2.275
11107SOL    HW233280   2.383   8.946   2.289
11108SOL     OW33281   3.608   7.830   3.252
11108SOL    HW133282   3.678   7.894   3.247
11108SOL    HW233283   3.633   7.761   3.190
11109SOL     OW33284   2.141   8.789   2.161
11109SOL    HW133285   2.054   8.781   2.122
11109SOL    HW233286   2.126   8.837   2.242
11110SOL     OW33287   1.982   8.494   3.598
11110SOL    HW133288   1.905   8.466   3.647
11110SOL    HW233289   2.054   8.443   3.635
11111SOL     OW33290   2.541   7.635   3.356
11111SOL    HW133291   2.625   7.610   3.318
11111SOL    HW233292   2.564   7.670   3.443
11112SOL     OW33293   1.948   7.765   1.876
11112SOL    HW133294   1.870   7.744   1.824
11112SOL    HW233295   1.975   7.852   1.845
11113SOL     OW33296   3.277   8.302   3.250
11113SOL    HW133297   3.224   8.360   3.195
11113SOL    HW233298   3.365   8.306   3.212
11114SOL     OW33299   1.905   7.597   2.135
11114SOL    HW133300   1.892   7.667   2.071
11114SOL    HW233301   1.994   7.565   2.118
11115SOL     OW33302   3.044   8.770   1.985
11115SOL    HW133303   2.953   8.740   1.984
11115SOL    HW233304   3.068   8.773   2.077
11116SOL     OW33305   2.488   8.279   3.303
11116SOL    HW133306   2.547   8.354   3.292
11116SOL    HW233307   2.546   8.203   3.303
11117SOL     OW33308   3.347   9.243   2.851
11117SOL    HW133309   3.371   9.320   2.801
11117SOL    HW233310   3.431   9.201   2.872
11118SOL     OW33311   2.587   7.996   3.548
11118SOL    HW133312   2.633   8.050   3.612
11118SOL    HW233313   2.597   7.906   3.580
11119SOL     OW33314   3.330   8.632   3.481
11119SOL    HW133315   3.323   8.654   3.574
11119SOL    HW233316   3.420   8.656   3.458
11120SOL     OW33317   2.213   9.189   3.438
11120SOL    HW133318   2.131   9.236   3.420
11120SOL    HW233319   2.186   9.106   3.477
11121SOL     OW33320   3.517   8.323   3.115
11121SOL    HW133321   3.515   8.240   3.068
11121SOL    HW233322   3.505   8.389   3.046
11122SOL     OW33323   3.082   7.770   2.318
11122SOL    HW133324   3.142   7.696   2.317
11122SOL    HW233325   3.111   7.823   2.393
11123SOL     OW33326   2.439   8.174   2.543
11123SOL    HW133327   2.482   8.258   2.528
11123SOL    HW233328   2.377   8.165   2.470
11124SOL     OW33329   3.609   7.802   3.527
11124SOL    HW133330   3.607   7.819   3.433
11124SOL    HW233331   3.531   7.750   3.545
11125SOL     OW33332   3.622   8.372   3.366
11125SOL    HW133333   3.605   8.466   3.378
11125SOL    HW233334   3.595   8.355   3.275
11126SOL     OW33335   2.733   8.805   1.925
11126SOL    HW133336   2.695   8.823   2.011
11126SOL    HW233337   2.742   8.892   1.884
11127SOL     OW33338   2.530   9.215   2.785
11127SOL    HW133339   2.511   9.309   2.777
11127SOL    HW233340   2.625   9.210   2.785
11128SOL     OW33341   2.734   8.426   2.718
11128SOL    HW133342   2.784   8.352   2.753
11128SOL    HW233343   2.689   8.462   2.793
11129SOL     OW33344   2.935   8.432   1.949
11129SOL    HW133345   2.914   8.486   1.872
11129SOL    HW233346   3.008   8.378   1.920
11130SOL     OW33347   3.692   9.004   2.702
11130SOL    HW133348   3.616   8.996   2.645
11130SOL    HW233349   3.669   8.953   2.780
11131SOL     OW33350   2.074   8.732   3.698
11131SOL    HW133351   2.042   8.653   3.655
11131SOL    HW233352   2.015   8.744   3.772
11132SOL     OW33353   1.979   8.674   2.530
11132SOL    HW133354   2.008   8.632   2.611
11132SOL    HW233355   2.038   8.640   2.462
11133SOL     OW33356   2.553   8.866   3.495
11133SOL    HW133357   2.475   8.827   3.537
11133SOL    HW233358   2.558   8.954   3.532
11134SOL     OW33359   3.670   7.619   3.097
11134SOL    HW133360   3.674   7.524   3.109
11134SOL    HW233361   3.685   7.631   3.003
11135SOL     OW33362   2.281   7.870   2.380
11135SOL    HW133363   2.314   7.799   2.326
11135SOL    HW233364   2.228   7.826   2.448
11136SOL     OW33365   3.558   8.927   2.943
11136SOL    HW133366   3.479   8.908   2.892
11136SOL    HW233367   3.559   8.860   3.011
11137SOL     OW33368   2.214   8.014   3.153
11137SOL    HW133369   2.263   7.949   3.203
11137SOL    HW233370   2.221   7.984   3.062
11138SOL     OW33371   2.698   9.025   2.534
11138SOL    HW133372   2.664   9.090   2.473
11138SOL    HW233373   2.626   8.964   2.549
11139SOL     OW33374   3.283   7.681   2.977
11139SOL    HW133375   3.292   7.592   3.010
11139SOL    HW233376   3.237   7.728   3.047
11140SOL     OW33377   2.874   7.465   2.981
11140SOL    HW133378   2.820   7.402   2.932
11140SOL    HW233379   2.960   7.424   2.985
11141SOL     OW33380   2.642   8.780   2.190
11141SOL    HW133381   2.618   8.688   2.202
11141SOL    HW233382   2.722   8.791   2.242
11142SOL     OW33383   2.478   9.014   3.150
11142SOL    HW133384   2.473   9.097   3.197
11142SOL    HW233385   2.567   9.011   3.116
11143SOL     OW33386   3.242   7.486   2.054
11143SOL    HW133387   3.282   7.414   2.006
11143SOL    HW233388   3.151   7.460   2.065
11144SOL     OW33389   3.160   7.919   2.536
11144SOL    HW133390   3.109   8.000   2.534
11144SOL    HW233391   3.153   7.890   2.627
11145SOL     OW33392   3.443   7.636   2.755
11145SOL    HW133393   3.391   7.666   2.829
11145SOL    HW233394   3.444   7.711   2.694
11146SOL     OW33395   1.899   8.499   2.170
11146SOL    HW133396   1.992   8.488   2.152
11146SOL    HW233397   1.867   8.411   2.191
11147SOL     OW33398   2.755   9.124   2.196
11147SOL    HW133399   2.677   9.110   2.143
11147SOL    HW233400   2.732   9.197   2.254
11148SOL     OW33401   2.070   8.069   3.871
11148SOL    HW133402   1.982   8.057   3.908
11148SOL    HW233403   2.059   8.056   3.777
11149SOL     OW33404   2.081   7.736   4.714
11149SOL    HW133405   2.112   7.701   4.797
11149SOL    HW233406   1.994   7.699   4.702
11150SOL     OW33407   1.848   7.844   4.370
11150SOL    HW133408   1.769   7.869   4.417
11150SOL    HW233409   1.821   7.770   4.315
11151SOL     OW33410   2.437   8.754   4.932
11151SOL    HW133411   2.354   8.757   4.884
11151SOL    HW233412   2.454   8.845   4.956
11152SOL     OW33413   3.450   8.970   4.429
11152SOL    HW133414   3.403   8.940   4.507
11152SOL    HW233415   3.383   8.973   4.361
11153SOL     OW33416   2.999   8.152   4.410
11153SOL    HW133417   3.046   8.235   4.399
11153SOL    HW233418   2.951   8.163   4.492
11154SOL     OW33419   3.663   8.029   3.943
11154SOL    HW133420   3.624   8.028   3.856
11154SOL    HW233421   3.618   7.958   3.989
11155SOL     OW33422   2.589   8.577   4.782
11155SOL    HW133423   2.530   8.617   4.846
11155SOL    HW233424   2.632   8.651   4.738
11156SOL     OW33425   2.750   8.190   5.552
11156SOL    HW133426   2.741   8.257   5.620
11156SOL    HW233427   2.766   8.238   5.472
11157SOL     OW33428   2.548   8.433   4.368
11157SOL    HW133429   2.615   8.433   4.436
11157SOL    HW233430   2.482   8.495   4.399
11158SOL     OW33431   2.573   8.598   5.557
11158SOL    HW133432   2.625   8.670   5.591
11158SOL    HW233433   2.497   8.639   5.516
11159SOL     OW33434   2.205   8.844   4.793
11159SOL    HW133435   2.129   8.802   4.753
11159SOL    HW233436   2.241   8.899   4.723
11160SOL     OW33437   3.316   8.953   5.096
11160SOL    HW133438   3.371   9.030   5.109
11160SOL    HW233439   3.244   8.965   5.158
11161SOL     OW33440   2.320   7.822   5.179
11161SOL    HW133441   2.395   7.764   5.195
11161SOL    HW233442   2.244   7.771   5.206
11162SOL     OW33443   3.446   7.880   4.479
11162SOL    HW133444   3.378   7.890   4.412
11162SOL    HW233445   3.429   7.950   4.542
11163SOL     OW33446   2.080   9.178   4.189
11163SOL    HW133447   2.106   9.249   4.247
11163SOL    HW233448   2.154   9.167   4.129
11164SOL     OW33449   2.997   8.789   5.421
11164SOL    HW133450   3.043   8.778   5.504
11164SOL    HW233451   2.943   8.710   5.412
11165SOL     OW33452   2.095   8.907   4.257
11165SOL    HW133453   2.073   9.000   4.261
11165SOL    HW233454   2.045   8.867   4.328
11166SOL     OW33455   2.148   8.537   4.603
11166SOL    HW133456   2.148   8.448   4.637
11166SOL    HW233457   2.091   8.585   4.664
11167SOL     OW33458   2.438   9.244   5.148
11167SOL    HW133459   2.359   9.228   5.200
11167SOL    HW233460   2.468   9.331   5.177
11168SOL     OW33461   2.428   8.435   3.876
11168SOL    HW133462   2.479   8.478   3.807
11168SOL    HW233463   2.468   8.465   3.958
11169SOL     OW33464   3.451   7.582   5.182
11169SOL    HW133465   3.492   7.658   5.139
11169SOL    HW233466   3.421   7.615   5.266
11170SOL     OW33467   1.981   8.106   4.291
11170SOL    HW133468   1.948   8.020   4.315
11170SOL    HW233469   1.975   8.157   4.372
11171SOL     OW33470   3.709   9.188   4.040
11171SOL    HW133471   3.780   9.173   4.103
11171SOL    HW233472   3.717   9.281   4.016
11172SOL     OW33473   1.923   9.027   3.833
11172SOL    HW133474   1.901   8.935   3.851
11172SOL    HW233475   1.890   9.074   3.910
11173SOL     OW33476   3.560   8.373   4.377
11173SOL    HW133477   3.642   8.330   4.356
11173SOL    HW233478   3.539   8.425   4.299
11174SOL     OW33479   3.519   8.552   4.157
11174SOL    HW133480   3.604   8.544   4.113
11174SOL    HW233481   3.533   8.618   4.225
11175SOL     OW33482   1.983   8.197   5.302
11175SOL    HW133483   2.068   8.241   5.306
11175SOL    HW233484   1.920   8.268   5.288
11176SOL     OW33485   2.486   8.846   4.454
11176SOL    HW133486   2.444   8.760   4.459
11176SOL    HW233487   2.469   8.875   4.364
11177SOL     OW33488   3.132   8.673   5.141
11177SOL    HW133489   3.160   8.604   5.081
11177SOL    HW233490   3.194   8.668   5.214
11178SOL     OW33491   2.693   7.459   4.242
11178SOL    HW133492   2.734   7.541   4.215
11178SOL    HW233493   2.599   7.477   4.242
11179SOL     OW33494   2.049   8.404   5.026
11179SOL    HW133495   2.136   8.369   5.009
11179SOL    HW233496   1.995   8.369   4.955
11180SOL     OW33497   3.397   8.463   3.923
11180SOL    HW133498   3.328   8.403   3.953
11180SOL    HW233499   3.439   8.493   4.004
11181SOL     OW33500   3.046   9.269   5.357
11181SOL    HW133501   3.045   9.330   5.282
11181SOL    HW233502   3.060   9.183   5.317
11182SOL     OW33503   2.221   7.701   5.599
11182SOL    HW133504   2.257   7.781   5.637
11182SOL    HW233505   2.127   7.716   5.597
11183SOL     OW33506   3.334   8.865   4.655
11183SOL    HW133507   3.271   8.884   4.724
11183SOL    HW233508   3.316   8.774   4.631
11184SOL     OW33509   3.507   9.230   4.291
11184SOL    HW133510   3.485   9.188   4.208
11184SOL    HW233511   3.501   9.160   4.356
11185SOL     OW33512   2.449   8.147   3.996
11185SOL    HW133513   2.452   8.235   3.957
11185SOL    HW233514   2.384   8.154   4.066
11186SOL     OW33515   3.145   7.841   4.665
11186SOL    HW133516   3.056   7.806   4.670
11186SOL    HW233517   3.197   7.783   4.720
11187SOL     OW33518   3.441   9.120   4.043
11187SOL    HW133519   3.535   9.135   4.032
11187SOL    HW233520   3.407   9.108   3.954
11188SOL     OW33521   2.652   8.061   5.155
11188SOL    HW133522   2.629   8.032   5.243
11188SOL    HW233523   2.627   7.988   5.098
11189SOL     OW33524   3.254   7.924   5.398
11189SOL    HW133525   3.259   7.968   5.483
11189SOL    HW233526   3.304   7.844   5.409
11190SOL     OW33527   2.806   8.328   5.317
11190SOL    HW133528   2.862   8.265   5.273
11190SOL    HW233529   2.757   8.371   5.246
11191SOL     OW33530   2.870   7.846   4.933
11191SOL    HW133531   2.778   7.859   4.956
11191SOL    HW233532   2.867   7.803   4.848
11192SOL     OW33533   2.920   8.145   4.142
11192SOL    HW133534   2.941   8.142   4.236
11192SOL    HW233535   2.835   8.101   4.135
11193SOL     OW33536   1.955   8.273   4.507
11193SOL    HW133537   2.037   8.268   4.556
11193SOL    HW233538   1.907   8.345   4.548
11194SOL     OW33539   1.967   9.318   5.309
11194SOL    HW133540   1.975   9.302   5.402
11194SOL    HW233541   1.883   9.280   5.285
11195SOL     OW33542   2.751   7.798   3.924
11195SOL    HW133543   2.802   7.852   3.864
11195SOL    HW233544   2.728   7.721   3.874
11196SOL     OW33545   3.548   8.011   5.564
11196SOL    HW133546   3.527   8.088   5.512
11196SOL    HW233547   3.577   7.946   5.500
11197SOL     OW33548   3.255   8.597   4.268
11197SOL    HW133549   3.335   8.586   4.216
11197SOL    HW233550   3.202   8.658   4.216
11198SOL     OW33551   2.413   7.609   4.640
11198SOL    HW133552   2.419   7.637   4.731
11198SOL    HW233553   2.408   7.690   4.590
11199SOL     OW33554   2.859   8.903   4.189
11199SOL    HW133555   2.834   8.978   4.136
11199SOL    HW233556   2.829   8.925   4.277
11200SOL     OW33557   2.216   9.264   4.602
11200SOL    HW133558   2.261   9.180   4.607
11200SOL    HW233559   2.283   9.329   4.623
11201SOL     OW33560   3.666   8.493   4.613
11201SOL    HW133561   3.618   8.478   4.532
11201SOL    HW233562   3.598   8.501   4.680
11202SOL     OW33563   3.080   8.990   5.240
11202SOL    HW133564   3.068   8.920   5.304
11202SOL    HW233565   3.013   8.974   5.174
11203SOL     OW33566   2.162   8.407   3.990
11203SOL    HW133567   2.245   8.428   3.946
11203SOL    HW233568   2.139   8.320   3.957
11204SOL     OW33569   3.346   8.211   4.435
11204SOL    HW133570   3.348   8.168   4.520
11204SOL    HW233571   3.426   8.264   4.433
11205SOL     OW33572   2.335   8.732   5.472
11205SOL    HW133573   2.311   8.737   5.380
11205SOL    HW233574   2.252   8.719   5.518
11206SOL     OW33575   2.997   9.223   3.948
11206SOL    HW133576   2.916   9.192   3.989
11206SOL    HW233577   3.017   9.157   3.882
11207SOL     OW33578   2.070   7.704   5.222
11207SOL    HW133579   1.998   7.764   5.239
11207SOL    HW233580   2.040   7.620   5.256
11208SOL     OW33581   3.500   8.836   3.824
11208SOL    HW133582   3.459   8.922   3.811
11208SOL    HW233583   3.433   8.773   3.797
11209SOL     OW33584   2.319   9.193   4.038
11209SOL    HW133585   2.368   9.243   4.103
11209SOL    HW233586   2.387   9.150   3.985
11210SOL     OW33587   3.260   7.554   4.185
11210SOL    HW133588   3.259   7.531   4.092
11210SOL    HW233589   3.351   7.544   4.212
11211SOL     OW33590   2.113   9.232   4.937
11211SOL    HW133591   2.162   9.157   4.970
11211SOL    HW233592   2.096   9.211   4.845
11212SOL     OW33593   2.809   9.146   4.614
11212SOL    HW133594   2.895   9.106   4.627
11212SOL    HW233595   2.769   9.094   4.544
11213SOL     OW33596   2.257   8.133   4.197
11213SOL    HW133597   2.269   8.039   4.209
11213SOL    HW233598   2.164   8.148   4.214
11214SOL     OW33599   3.371   7.671   5.441
11214SOL    HW133600   3.383   7.690   5.534
11214SOL    HW233601   3.306   7.600   5.439
11215SOL     OW33602   2.525   7.558   3.826
11215SOL    HW133603   2.572   7.479   3.853
11215SOL    HW233604   2.463   7.527   3.760
11216SOL     OW33605   2.621   7.721   5.476
11216SOL    HW133606   2.705   7.676   5.474
11216SOL    HW233607   2.574   7.682   5.550
11217SOL     OW33608   2.732   8.975   4.923
11217SOL    HW133609   2.714   8.933   4.839
11217SOL    HW233610   2.799   8.920   4.963
11218SOL     OW33611   3.191   8.040   5.157
11218SOL    HW133612   3.224   8.009   5.242
11218SOL    HW233613   3.231   8.126   5.146
11219SOL     OW33614   2.679   8.823   4.682
11219SOL    HW133615   2.766   8.819   4.643
11219SOL    HW233616   2.620   8.838   4.608
11220SOL     OW33617   2.793   7.963   4.612
11220SOL    HW133618   2.767   7.952   4.520
11220SOL    HW233619   2.820   7.876   4.641
11221SOL     OW33620   2.426   7.511   4.214
11221SOL    HW133621   2.348   7.512   4.270
11221SOL    HW233622   2.414   7.586   4.156
11222SOL     OW33623   3.296   8.660   3.756
11222SOL    HW133624   3.326   8.586   3.809
11222SOL    HW233625   3.211   8.683   3.792
11223SOL     OW33626   2.144   7.496   3.913
11223SOL    HW133627   2.197   7.564   3.870
11223SOL    HW233628   2.208   7.438   3.954
11224SOL     OW33629   2.814   7.698   4.175
11224SOL    HW133630   2.788   7.734   4.090
11224SOL    HW233631   2.908   7.715   4.181
11225SOL     OW33632   2.937   8.142   5.169
11225SOL    HW133633   2.875   8.070   5.174
11225SOL    HW233634   3.023   8.099   5.166
11226SOL     OW33635   3.068   9.035   4.528
11226SOL    HW133636   3.083   9.094   4.454
11226SOL    HW233637   3.141   9.052   4.587
11227SOL     OW33638   2.344   8.610   4.432
11227SOL    HW133639   2.282   8.585   4.501
11227SOL    HW233640   2.294   8.603   4.351
11228SOL     OW33641   3.114   9.236   4.339
11228SOL    HW133642   3.162   9.300   4.286
11228SOL    HW233643   3.042   9.287   4.377
11229SOL     OW33644   2.894   7.963   3.754
11229SOL    HW133645   2.851   8.046   3.735
11229SOL    HW233646   2.957   7.983   3.823
11230SOL     OW33647   1.962   7.999   5.115
11230SOL    HW133648   2.054   8.001   5.089
11230SOL    HW233649   1.954   8.068   5.181
11231SOL     OW33650   2.421   7.669   4.909
11231SOL    HW133651   2.458   7.606   4.971
11231SOL    HW233652   2.328   7.670   4.929
11232SOL     OW33653   2.732   7.902   4.354
11232SOL    HW133654   2.692   7.958   4.287
11232SOL    HW233655   2.757   7.823   4.307
11233SOL     OW33656   2.885   7.506   4.463
11233SOL    HW133657   2.824   7.500   4.390
11233SOL    HW233658   2.860   7.434   4.521
11234SOL     OW33659   3.295   8.601   4.578
11234SOL    HW133660   3.226   8.536   4.588
11234SOL    HW233661   3.310   8.608   4.484
11235SOL     OW33662   3.325   8.064   4.673
11235SOL    HW133663   3.261   7.994   4.683
11235SOL    HW233664   3.381   8.058   4.750
11236SOL     OW33665   3.689   8.244   4.111
11236SOL    HW133666   3.750   8.201   4.171
11236SOL    HW233667   3.676   8.180   4.041
11237SOL     OW33668   2.360   8.872   3.875
11237SOL    HW133669   2.285   8.840   3.925
11237SOL    HW233670   2.356   8.824   3.792
11238SOL     OW33671   3.570   8.719   4.357
11238SOL    HW133672   3.664   8.713   4.378
11238SOL    HW233673   3.546   8.808   4.383
11239SOL     OW33674   3.254   8.024   3.790
11239SOL    HW133675   3.198   7.998   3.863
11239SOL    HW233676   3.343   8.002   3.818
11240SOL     OW33677   2.389   7.705   4.026
11240SOL    HW133678   2.443   7.664   3.959
11240SOL    HW233679   2.357   7.786   3.985
11241SOL     OW33680   3.597   8.692   5.256
11241SOL    HW133681   3.685   8.658   5.242
11241SOL    HW233682   3.611   8.779   5.294
11242SOL     OW33683   2.904   8.804   5.060
11242SOL    HW133684   2.827   8.769   5.104
11242SOL    HW233685   2.977   8.757   5.100
11243SOL     OW33686   3.470   9.083   5.396
11243SOL    HW133687   3.458   9.119   5.308
11243SOL    HW233688   3.547   9.027   5.390
11244SOL     OW33689   3.013   8.685   4.829
11244SOL    HW133690   2.951   8.720   4.894
11244SOL    HW233691   2.980   8.717   4.745
11245SOL     OW33692   3.471   8.539   4.801
11245SOL    HW133693   3.463   8.605   4.869
11245SOL    HW233694   3.401   8.560   4.739
11246SOL     OW33695   2.781   7.529   5.107
11246SOL    HW133696   2.803   7.514   5.015
11246SOL    HW233697   2.860   7.570   5.144
11247SOL     OW33698   2.841   8.563   5.448
11247SOL    HW133699   2.751   8.580   5.475
11247SOL    HW233700   2.836   8.483   5.397
11248SOL     OW33701   2.576   8.510   4.100
11248SOL    HW133702   2.561   8.484   4.191
11248SOL    HW233703   2.650   8.457   4.072
11249SOL     OW33704   2.288   8.276   4.983
11249SOL    HW133705   2.356   8.285   5.050
11249SOL    HW233706   2.258   8.185   4.993
11250SOL     OW33707   3.126   7.816   5.016
11250SOL    HW133708   3.154   7.897   5.060
11250SOL    HW233709   3.037   7.835   4.986
11251SOL     OW33710   1.940   9.017   5.087
11251SOL    HW133711   1.909   9.088   5.031
11251SOL    HW233712   2.035   9.017   5.077
11252SOL     OW33713   2.179   8.583   4.210
11252SOL    HW133714   2.180   8.654   4.147
11252SOL    HW233715   2.177   8.503   4.157
11253SOL     OW33716   2.396   7.964   4.583
11253SOL    HW133717   2.408   8.022   4.508
11253SOL    HW233718   2.464   7.990   4.645
11254SOL     OW33719   3.109   8.802   4.122
11254SOL    HW133720   3.165   8.871   4.156
11254SOL    HW233721   3.021   8.825   4.152
11255SOL     OW33722   3.171   8.915   4.867
11255SOL    HW133723   3.219   8.922   4.950
11255SOL    HW233724   3.120   8.834   4.875
11256SOL     OW33725   3.438   8.066   4.209
11256SOL    HW133726   3.386   8.107   4.279
11256SOL    HW233727   3.488   8.139   4.171
11257SOL     OW33728   2.206   8.979   5.026
11257SOL    HW133729   2.199   8.926   4.946
11257SOL    HW233730   2.300   8.995   5.035
11258SOL     OW33731   2.294   8.194   5.342
11258SOL    HW133732   2.353   8.238   5.280
11258SOL    HW233733   2.337   8.111   5.362
11259SOL     OW33734   3.489   8.234   5.422
11259SOL    HW133735   3.402   8.272   5.413
11259SOL    HW233736   3.540   8.272   5.350
11260SOL     OW33737   2.857   7.589   5.482
11260SOL    HW133738   2.916   7.662   5.463
11260SOL    HW233739   2.908   7.511   5.460
11261SOL     OW33740   2.357   7.483   5.486
11261SOL    HW133741   2.302   7.433   5.426
11261SOL    HW233742   2.305   7.560   5.508
11262SOL     OW33743   2.453   8.322   4.763
11262SOL    HW133744   2.491   8.410   4.766
11262SOL    HW233745   2.396   8.318   4.839
11263SOL     OW33746   3.170   8.301   4.727
11263SOL    HW133747   3.082   8.274   4.702
11263SOL    HW233748   3.225   8.225   4.708
11264SOL     OW33749   3.061   7.971   3.982
11264SOL    HW133750   3.071   7.894   4.038
11264SOL    HW233751   3.019   8.036   4.037
11265SOL     OW33752   2.154   7.642   4.963
11265SOL    HW133753   2.119   7.670   5.047
11265SOL    HW233754   2.137   7.548   4.960
11266SOL     OW33755   1.912   8.760   4.990
11266SOL    HW133756   1.942   8.704   5.062
11266SOL    HW233757   1.915   8.848   5.026
11267SOL     OW33758   2.573   8.070   4.763
11267SOL    HW133759   2.651   8.063   4.707
11267SOL    HW233760   2.545   8.160   4.753
11268SOL     OW33761   3.613   8.416   5.593
11268SOL    HW133762   3.573   8.343   5.545
11268SOL    HW233763   3.549   8.436   5.662
11269SOL     OW33764   2.187   7.508   4.352
11269SOL    HW133765   2.153   7.596   4.370
11269SOL    HW233766   2.193   7.466   4.438
11270SOL     OW33767   3.493   7.839   4.067
11270SOL    HW133768   3.525   7.773   4.130
11270SOL    HW233769   3.464   7.912   4.122
11271SOL     OW33770   2.896   8.206   4.680
11271SOL    HW133771   2.874   8.221   4.772
11271SOL    HW233772   2.866   8.117   4.663
11272SOL     OW33773   2.844   9.014   5.458
11272SOL    HW133774   2.822   9.057   5.375
11272SOL    HW233775   2.881   8.930   5.432
11273SOL     OW33776   3.700   8.943   5.327
11273SOL    HW133777   3.727   8.971   5.240
11273SOL    HW233778   3.778   8.953   5.381
11274SOL     OW33779   2.211   8.367   5.540
11274SOL    HW133780   2.288   8.384   5.595
11274SOL    HW233781   2.242   8.304   5.475
11275SOL     OW33782   3.385   7.716   3.843
11275SOL    HW133783   3.331   7.647   3.881
11275SOL    HW233784   3.424   7.760   3.918
11276SOL     OW33785   3.142   8.270   3.743
11276SOL    HW133786   3.182   8.183   3.751
11276SOL    HW233787   3.179   8.306   3.662
11277SOL     OW33788   2.932   8.801   4.590
11277SOL    HW133789   2.943   8.728   4.529
11277SOL    HW233790   2.984   8.872   4.553
11278SOL     OW33791   2.180   8.264   4.668
11278SOL    HW133792   2.275   8.278   4.667
11278SOL    HW233793   2.170   8.174   4.699
11279SOL     OW33794   2.175   7.986   4.735
11279SOL    HW133795   2.136   7.899   4.725
11279SOL    HW233796   2.252   7.984   4.679
11280SOL     OW33797   3.000   7.815   5.409
11280SOL    HW133798   2.955   7.867   5.476
11280SOL    HW233799   3.086   7.858   5.401
11281SOL     OW33800   3.018   7.638   5.198
11281SOL    HW133801   3.007   7.699   5.270
11281SOL    HW233802   3.065   7.687   5.130
11282SOL     OW33803   1.886   8.750   3.903
11282SOL    HW133804   1.796   8.773   3.878
11282SOL    HW233805   1.879   8.664   3.944
11283SOL     OW33806   1.956   9.216   4.676
11283SOL    HW133807   1.922   9.143   4.625
11283SOL    HW233808   2.042   9.234   4.638
11284SOL     OW33809   2.347   9.017   4.624
11284SOL    HW133810   2.417   9.079   4.646
11284SOL    HW233811   2.387   8.956   4.563
11285SOL     OW33812   2.810   8.229   4.939
11285SOL    HW133813   2.873   8.217   5.010
11285SOL    HW233814   2.731   8.183   4.968
11286SOL     OW33815   1.901   8.020   4.845
11286SOL    HW133816   1.982   8.017   4.795
11286SOL    HW233817   1.929   8.012   4.936
11287SOL     OW33818   2.048   7.986   5.468
11287SOL    HW133819   2.119   7.953   5.414
11287SOL    HW233820   2.012   8.060   5.418
11288SOL     OW33821   3.254   8.369   5.375
11288SOL    HW133822   3.271   8.463   5.370
11288SOL    HW233823   3.246   8.341   5.284
11289SOL     OW33824   2.680   8.017   4.096
11289SOL    HW133825   2.688   7.943   4.036
11289SOL    HW233826   2.603   8.064   4.065
11290SOL     OW33827   3.498   8.049   4.887
11290SOL    HW133828   3.488   7.990   4.961
11290SOL    HW233829   3.589   8.039   4.859
11291SOL     OW33830   2.087   8.986   5.448
11291SOL    HW133831   2.062   9.033   5.528
11291SOL    HW233832   2.100   8.895   5.477
11292SOL     OW33833   2.596   7.881   4.958
11292SOL    HW133834   2.532   7.811   4.943
11292SOL    HW233835   2.578   7.945   4.889
11293SOL     OW33836   2.767   9.128   5.213
11293SOL    HW133837   2.744   9.080   5.133
11293SOL    HW233838   2.769   9.220   5.185
11294SOL     OW33839   2.305   7.929   3.888
11294SOL    HW133840   2.369   7.995   3.913
11294SOL    HW233841   2.221   7.975   3.891
11295SOL     OW33842   1.992   8.598   5.205
11295SOL    HW133843   1.996   8.559   5.292
11295SOL    HW233844   2.013   8.527   5.145
11296SOL     OW33845   3.166   8.482   4.932
11296SOL    HW133846   3.175   8.418   4.861
11296SOL    HW233847   3.112   8.552   4.895
11297SOL     OW33848   3.187   8.309   4.015
11297SOL    HW133849   3.117   8.273   4.069
11297SOL    HW233850   3.158   8.293   3.925
11298SOL     OW33851   3.651   9.170   4.896
11298SOL    HW133852   3.712   9.196   4.827
11298SOL    HW233853   3.617   9.085   4.867
11299SOL     OW33854   3.102   9.180   4.817
11299SOL    HW133855   3.186   9.209   4.781
11299SOL    HW233856   3.117   9.088   4.841
11300SOL     OW33857   1.969   8.695   4.733
11300SOL    HW133858   1.941   8.716   4.822
11300SOL    HW233859   1.897   8.642   4.697
11301SOL     OW33860   2.552   9.129   5.474
11301SOL    HW133861   2.487   9.198   5.461
11301SOL    HW233862   2.624   9.151   5.415
11302SOL     OW33863   3.604   7.631   4.219
11302SOL    HW133864   3.664   7.611   4.148
11302SOL    HW233865   3.579   7.546   4.254
11303SOL     OW33866   3.259   9.016   4.227
11303SOL    HW133867   3.313   9.051   4.157
11303SOL    HW233868   3.204   9.090   4.255
11304SOL     OW33869   1.994   9.256   5.568
11304SOL    HW133870   1.955   9.179   5.609
11304SOL    HW233871   2.046   9.296   5.637
11305SOL     OW33872   3.141   8.384   4.388
11305SOL    HW133873   3.215   8.324   4.401
11305SOL    HW233874   3.177   8.455   4.336
11306SOL     OW33875   2.645   8.728   5.137
11306SOL    HW133876   2.619   8.775   5.216
11306SOL    HW233877   2.571   8.738   5.078
11307SOL     OW33878   2.530   9.084   3.884
11307SOL    HW133879   2.546   9.098   3.791
11307SOL    HW233880   2.478   9.004   3.888
11308SOL     OW33881   3.479   9.176   5.126
11308SOL    HW133882   3.536   9.175   5.049
11308SOL    HW233883   3.462   9.269   5.142
11309SOL     OW33884   3.707   7.609   4.688
11309SOL    HW133885   3.735   7.520   4.667
11309SOL    HW233886   3.619   7.615   4.650
11310SOL     OW33887   2.105   7.754   4.432
11310SOL    HW133888   2.019   7.791   4.411
11310SOL    HW233889   2.108   7.756   4.528
11311SOL     OW33890   3.071   9.035   3.762
11311SOL    HW133891   3.061   8.944   3.790
11311SOL    HW233892   3.002   9.048   3.697
11312SOL     OW33893   2.685   8.459   5.109
11312SOL    HW133894   2.723   8.449   5.022
11312SOL    HW233895   2.675   8.553   5.121
11313SOL     OW33896   2.782   8.358   4.018
11313SOL    HW133897   2.838   8.391   3.949
11313SOL    HW233898   2.834   8.291   4.062
11314SOL     OW33899   3.344   9.093   3.782
11314SOL    HW133900   3.253   9.072   3.764
11314SOL    HW233901   3.385   9.096   3.695
11315SOL     OW33902   2.224   8.761   5.226
11315SOL    HW133903   2.217   8.834   5.164
11315SOL    HW233904   2.147   8.707   5.209
11316SOL     OW33905   3.461   8.737   5.001
11316SOL    HW133906   3.515   8.713   5.076
11316SOL    HW233907   3.402   8.804   5.035
11317SOL     OW33908   2.939   8.567   4.453
11317SOL    HW133909   2.863   8.518   4.485
11317SOL    HW233910   3.001   8.501   4.424
11318SOL     OW33911   2.896   7.697   4.684
11318SOL    HW133912   2.895   7.655   4.598
11318SOL    HW233913   2.889   7.625   4.747
11319SOL     OW33914   2.465   8.933   4.198
11319SOL    HW133915   2.520   8.885   4.137
11319SOL    HW233916   2.383   8.946   4.151
11320SOL     OW33917   3.607   7.830   5.112
11320SOL    HW133918   3.678   7.894   5.108
11320SOL    HW233919   3.633   7.761   5.051
11321SOL     OW33920   2.141   8.789   4.023
11321SOL    HW133921   2.054   8.781   3.984
11321SOL    HW233922   2.127   8.837   4.104
11322SOL     OW33923   1.982   8.494   5.460
11322SOL    HW133924   1.905   8.466   5.509
11322SOL    HW233925   2.054   8.443   5.496
11323SOL     OW33926   2.541   7.636   5.219
11323SOL    HW133927   2.625   7.611   5.180
11323SOL    HW233928   2.564   7.670   5.306
11324SOL     OW33929   1.948   7.765   3.737
11324SOL    HW133930   1.871   7.745   3.685
11324SOL    HW233931   1.976   7.852   3.706
11325SOL     OW33932   3.277   8.302   5.112
11325SOL    HW133933   3.225   8.360   5.057
11325SOL    HW233934   3.365   8.306   5.074
11326SOL     OW33935   1.905   7.597   3.997
11326SOL    HW133936   1.892   7.667   3.933
11326SOL    HW233937   1.994   7.565   3.980
11327SOL     OW33938   3.045   8.769   3.847
11327SOL    HW133939   2.954   8.739   3.846
11327SOL    HW233940   3.068   8.773   3.940
11328SOL     OW33941   2.487   8.279   5.166
11328SOL    HW133942   2.546   8.354   5.154
11328SOL    HW233943   2.545   8.203   5.165
11329SOL     OW33944   3.347   9.243   4.714
11329SOL    HW133945   3.372   9.320   4.663
11329SOL    HW233946   3.430   9.200   4.734
11330SOL     OW33947   2.587   7.996   5.410
11330SOL    HW133948   2.634   8.049   5.474
11330SOL    HW233949   2.597   7.906   5.442
11331SOL     OW33950   3.330   8.632   5.343
11331SOL    HW133951   3.323   8.654   5.436
11331SOL    HW233952   3.420   8.656   5.320
11332SOL     OW33953   2.213   9.189   5.300
11332SOL    HW133954   2.131   9.236   5.283
11332SOL    HW233955   2.186   9.106   5.340
11333SOL     OW33956   3.517   8.323   4.977
11333SOL    HW133957   3.515   8.239   4.930
11333SOL    HW233958   3.505   8.389   4.908
11334SOL     OW33959   3.082   7.771   4.181
11334SOL    HW133960   3.142   7.696   4.180
11334SOL    HW233961   3.110   7.823   4.256
11335SOL     OW33962   2.439   8.173   4.404
11335SOL    HW133963   2.482   8.258   4.390
11335SOL    HW233964   2.377   8.165   4.331
11336SOL     OW33965   3.610   7.803   5.388
11336SOL    HW133966   3.606   7.819   5.294
11336SOL    HW233967   3.532   7.750   5.406
11337SOL     OW33968   3.622   8.373   5.227
11337SOL    HW133969   3.605   8.466   5.240
11337SOL    HW233970   3.595   8.355   5.137
11338SOL     OW33971   2.733   8.805   3.786
11338SOL    HW133972   2.695   8.823   3.873
11338SOL    HW233973   2.742   8.892   3.746
11339SOL     OW33974   2.530   9.215   4.647
11339SOL    HW133975   2.511   9.309   4.639
11339SOL    HW233976   2.625   9.210   4.647
11340SOL     OW33977   2.734   8.425   4.580
11340SOL    HW133978   2.784   8.352   4.615
11340SOL    HW233979   2.689   8.462   4.655
11341SOL     OW33980   2.935   8.433   3.811
11341SOL    HW133981   2.913   8.487   3.734
11341SOL    HW233982   3.008   8.379   3.782
11342SOL     OW33983   3.693   9.004   4.563
11342SOL    HW133984   3.617   8.996   4.507
11342SOL    HW233985   3.673   8.951   4.640
11343SOL     OW33986   2.074   8.732   5.560
11343SOL    HW133987   2.042   8.653   5.517
11343SOL    HW233988   2.015   8.744   5.634
11344SOL     OW33989   1.979   8.674   4.392
11344SOL    HW133990   2.008   8.632   4.473
11344SOL    HW233991   2.038   8.640   4.324
11345SOL     OW33992   2.553   8.866   5.356
11345SOL    HW133993   2.476   8.827   5.398
11345SOL    HW233994   2.558   8.954   5.393
11346SOL     OW33995   3.671   7.619   4.958
11346SOL    HW133996   3.674   7.524   4.971
11346SOL    HW233997   3.685   7.631   4.864
11347SOL     OW33998   2.280   7.871   4.242
11347SOL    HW133999   2.314   7.799   4.188
11347SOL    HW234000   2.228   7.827   4.310
11348SOL     OW34001   3.557   8.928   4.806
11348SOL    HW134002   3.479   8.909   4.754
11348SOL    HW234003   3.557   8.860   4.874
11349SOL     OW34004   2.214   8.014   5.015
11349SOL    HW134005   2.263   7.949   5.066
11349SOL    HW234006   2.221   7.984   4.925
11350SOL     OW34007   2.698   9.025   4.397
11350SOL    HW134008   2.663   9.088   4.334
11350SOL    HW234009   2.626   8.963   4.411
11351SOL     OW34010   3.284   7.682   4.840
11351SOL    HW134011   3.296   7.594   4.874
11351SOL    HW234012   3.238   7.729   4.909
11352SOL     OW34013   2.873   7.466   4.843
11352SOL    HW134014   2.818   7.403   4.797
11352SOL    HW234015   2.959   7.425   4.846
11353SOL     OW34016   2.642   8.780   4.052
11353SOL    HW134017   2.618   8.688   4.064
11353SOL    HW234018   2.722   8.791   4.104
11354SOL     OW34019   2.478   9.015   5.011
11354SOL    HW134020   2.473   9.098   5.059
11354SOL    HW234021   2.567   9.012   4.978
11355SOL     OW34022   3.240   7.489   3.918
11355SOL    HW134023   3.280   7.417   3.869
11355SOL    HW234024   3.149   7.463   3.929
11356SOL     OW34025   3.160   7.920   4.399
11356SOL    HW134026   3.109   8.001   4.396
11356SOL    HW234027   3.153   7.890   4.490
11357SOL     OW34028   3.444   7.635   4.617
11357SOL    HW134029   3.391   7.665   4.692
11357SOL    HW234030   3.444   7.710   4.557
11358SOL     OW34031   1.899   8.499   4.032
11358SOL    HW134032   1.992   8.487   4.014
11358SOL    HW234033   1.867   8.411   4.053
11359SOL     OW34034   2.755   9.125   4.058
11359SOL    HW134035   2.677   9.110   4.006
11359SOL    HW234036   2.732   9.197   4.117
11360SOL     OW34037   2.070   8.070   5.734
11360SOL    HW134038   1.982   8.058   5.770
11360SOL    HW234039   2.059   8.056   5.640
11361SOL     OW34040   2.081   7.737   6.576
11361SOL    HW134041   2.112   7.701   6.659
11361SOL    HW234042   1.994   7.699   6.564
11362SOL     OW34043   1.849   7.844   6.232
11362SOL    HW134044   1.769   7.869   6.279
11362SOL    HW234045   1.822   7.770   6.177
11363SOL     OW34046   2.437   8.754   6.794
11363SOL    HW134047   2.354   8.758   6.746
11363SOL    HW234048   2.454   8.846   6.818
11364SOL     OW34049   3.450   8.971   6.291
11364SOL    HW134050   3.403   8.940   6.369
11364SOL    HW234051   3.383   8.973   6.223
11365SOL     OW34052   2.999   8.153   6.272
11365SOL    HW134053   3.046   8.236   6.261
11365SOL    HW234054   2.951   8.163   6.354
11366SOL     OW34055   3.662   8.029   5.806
11366SOL    HW134056   3.624   8.029   5.718
11366SOL    HW234057   3.619   7.958   5.852
11367SOL     OW34058   2.589   8.577   6.644
11367SOL    HW134059   2.530   8.617   6.708
11367SOL    HW234060   2.632   8.651   6.600
11368SOL     OW34061   2.750   8.190   7.414
11368SOL    HW134062   2.741   8.257   7.482
11368SOL    HW234063   2.766   8.238   7.333
11369SOL     OW34064   2.548   8.433   6.230
11369SOL    HW134065   2.615   8.433   6.298
11369SOL    HW234066   2.482   8.495   6.261
11370SOL     OW34067   2.573   8.598   7.419
11370SOL    HW134068   2.625   8.670   7.453
11370SOL    HW234069   2.497   8.639   7.378
11371SOL     OW34070   2.205   8.844   6.655
11371SOL    HW134071   2.129   8.802   6.615
11371SOL    HW234072   2.241   8.899   6.585
11372SOL     OW34073   3.316   8.953   6.958
11372SOL    HW134074   3.371   9.030   6.971
11372SOL    HW234075   3.244   8.965   7.020
11373SOL     OW34076   2.320   7.823   7.042
11373SOL    HW134077   2.395   7.765   7.057
11373SOL    HW234078   2.244   7.771   7.068
11374SOL     OW34079   3.447   7.880   6.341
11374SOL    HW134080   3.382   7.891   6.272
11374SOL    HW234081   3.428   7.950   6.403
11375SOL     OW34082   2.080   9.178   6.051
11375SOL    HW134083   2.106   9.249   6.109
11375SOL    HW234084   2.154   9.167   5.991
11376SOL     OW34085   2.997   8.789   7.283
11376SOL    HW134086   3.043   8.778   7.366
11376SOL    HW234087   2.943   8.710   7.274
11377SOL     OW34088   2.095   8.907   6.119
11377SOL    HW134089   2.073   9.000   6.123
11377SOL    HW234090   2.045   8.867   6.190
11378SOL     OW34091   2.148   8.537   6.465
11378SOL    HW134092   2.148   8.448   6.498
11378SOL    HW234093   2.091   8.585   6.526
11379SOL     OW34094   2.437   9.245   7.009
11379SOL    HW134095   2.359   9.228   7.062
11379SOL    HW234096   2.467   9.331   7.038
11380SOL     OW34097   2.427   8.435   5.738
11380SOL    HW134098   2.478   8.478   5.669
11380SOL    HW234099   2.468   8.465   5.820
11381SOL     OW34100   3.453   7.580   7.045
11381SOL    HW134101   3.492   7.656   7.002
11381SOL    HW234102   3.422   7.614   7.129
11382SOL     OW34103   1.981   8.107   6.153
11382SOL    HW134104   1.949   8.019   6.177
11382SOL    HW234105   1.975   8.157   6.234
11383SOL     OW34106   3.709   9.188   5.902
11383SOL    HW134107   3.779   9.173   5.965
11383SOL    HW234108   3.717   9.281   5.878
11384SOL     OW34109   1.923   9.027   5.695
11384SOL    HW134110   1.902   8.935   5.713
11384SOL    HW234111   1.891   9.075   5.771
11385SOL     OW34112   3.560   8.374   6.239
11385SOL    HW134113   3.641   8.329   6.216
11385SOL    HW234114   3.539   8.425   6.161
11386SOL     OW34115   3.519   8.552   6.019
11386SOL    HW134116   3.603   8.544   5.975
11386SOL    HW234117   3.533   8.618   6.087
11387SOL     OW34118   1.983   8.197   7.164
11387SOL    HW134119   2.068   8.240   7.167
11387SOL    HW234120   1.921   8.268   7.150
11388SOL     OW34121   2.485   8.846   6.316
11388SOL    HW134122   2.444   8.760   6.321
11388SOL    HW234123   2.469   8.875   6.226
11389SOL     OW34124   3.132   8.673   7.003
11389SOL    HW134125   3.160   8.604   6.943
11389SOL    HW234126   3.194   8.668   7.076
11390SOL     OW34127   2.693   7.460   6.105
11390SOL    HW134128   2.733   7.542   6.077
11390SOL    HW234129   2.599   7.478   6.105
11391SOL     OW34130   2.049   8.404   6.888
11391SOL    HW134131   2.136   8.369   6.871
11391SOL    HW234132   1.995   8.369   6.816
11392SOL     OW34133   3.397   8.463   5.785
11392SOL    HW134134   3.328   8.403   5.815
11392SOL    HW234135   3.439   8.493   5.866
11393SOL     OW34136   3.045   9.269   7.218
11393SOL    HW134137   3.044   9.330   7.144
11393SOL    HW234138   3.060   9.183   7.179
11394SOL     OW34139   2.221   7.701   7.462
11394SOL    HW134140   2.257   7.781   7.499
11394SOL    HW234141   2.127   7.716   7.459
11395SOL     OW34142   3.334   8.865   6.517
11395SOL    HW134143   3.271   8.884   6.586
11395SOL    HW234144   3.316   8.774   6.493
11396SOL     OW34145   3.507   9.231   6.153
11396SOL    HW134146   3.484   9.189   6.070
11396SOL    HW234147   3.501   9.161   6.218
11397SOL     OW34148   2.449   8.147   5.857
11397SOL    HW134149   2.452   8.235   5.819
11397SOL    HW234150   2.384   8.154   5.928
11398SOL     OW34151   3.144   7.842   6.527
11398SOL    HW134152   3.055   7.806   6.532
11398SOL    HW234153   3.196   7.783   6.582
11399SOL     OW34154   3.441   9.120   5.905
11399SOL    HW134155   3.535   9.135   5.894
11399SOL    HW234156   3.407   9.108   5.816
11400SOL     OW34157   2.652   8.061   7.017
11400SOL    HW134158   2.629   8.032   7.105
11400SOL    HW234159   2.627   7.988   6.960
11401SOL     OW34160   3.253   7.925   7.260
11401SOL    HW134161   3.258   7.968   7.345
11401SOL    HW234162   3.304   7.844   7.270
11402SOL     OW34163   2.806   8.328   7.179
11402SOL    HW134164   2.862   8.265   7.135
11402SOL    HW234165   2.758   8.371   7.108
11403SOL     OW34166   2.870   7.846   6.795
11403SOL    HW134167   2.778   7.858   6.817
11403SOL    HW234168   2.868   7.802   6.710
11404SOL     OW34169   2.920   8.145   6.004
11404SOL    HW134170   2.941   8.142   6.098
11404SOL    HW234171   2.836   8.101   5.997
11405SOL     OW34172   1.955   8.273   6.369
11405SOL    HW134173   2.037   8.268   6.418
11405SOL    HW234174   1.907   8.345   6.410
11406SOL     OW34175   1.967   9.318   7.171
11406SOL    HW134176   1.975   9.302   7.264
11406SOL    HW234177   1.883   9.280   7.147
11407SOL     OW34178   2.751   7.798   5.786
11407SOL    HW134179   2.802   7.852   5.725
11407SOL    HW234180   2.728   7.720   5.736
11408SOL     OW34181   3.548   8.011   7.426
11408SOL    HW134182   3.527   8.088   7.374
11408SOL    HW234183   3.577   7.946   7.362
11409SOL     OW34184   3.255   8.598   6.129
11409SOL    HW134185   3.335   8.586   6.077
11409SOL    HW234186   3.202   8.658   6.078
11410SOL     OW34187   2.413   7.608   6.501
11410SOL    HW134188   2.419   7.637   6.592
11410SOL    HW234189   2.409   7.690   6.451
11411SOL     OW34190   2.859   8.903   6.051
11411SOL    HW134191   2.834   8.979   5.998
11411SOL    HW234192   2.829   8.925   6.139
11412SOL     OW34193   2.216   9.264   6.464
11412SOL    HW134194   2.261   9.180   6.469
11412SOL    HW234195   2.283   9.329   6.485
11413SOL     OW34196   3.666   8.493   6.475
11413SOL    HW134197   3.619   8.477   6.393
11413SOL    HW234198   3.598   8.501   6.541
11414SOL     OW34199   3.079   8.990   7.102
11414SOL    HW134200   3.068   8.920   7.166
11414SOL    HW234201   3.013   8.973   7.035
11415SOL     OW34202   2.162   8.406   5.852
11415SOL    HW134203   2.245   8.427   5.808
11415SOL    HW234204   2.139   8.319   5.819
11416SOL     OW34205   3.346   8.212   6.297
11416SOL    HW134206   3.348   8.168   6.382
11416SOL    HW234207   3.426   8.265   6.295
11417SOL     OW34208   2.335   8.732   7.334
11417SOL    HW134209   2.311   8.737   7.242
11417SOL    HW234210   2.252   8.719   7.380
11418SOL     OW34211   2.997   9.224   5.810
11418SOL    HW134212   2.916   9.192   5.851
11418SOL    HW234213   3.017   9.157   5.744
11419SOL     OW34214   2.071   7.704   7.084
11419SOL    HW134215   1.998   7.764   7.101
11419SOL    HW234216   2.040   7.620   7.118
11420SOL     OW34217   3.501   8.836   5.686
11420SOL    HW134218   3.459   8.922   5.673
11420SOL    HW234219   3.434   8.773   5.659
11421SOL     OW34220   2.319   9.193   5.900
11421SOL    HW134221   2.368   9.243   5.965
11421SOL    HW234222   2.387   9.150   5.847
11422SOL     OW34223   3.259   7.553   6.045
11422SOL    HW134224   3.259   7.529   5.952
11422SOL    HW234225   3.350   7.539   6.073
11423SOL     OW34226   2.113   9.232   6.799
11423SOL    HW134227   2.162   9.157   6.832
11423SOL    HW234228   2.097   9.211   6.707
11424SOL     OW34229   2.809   9.146   6.476
11424SOL    HW134230   2.895   9.106   6.489
11424SOL    HW234231   2.769   9.094   6.406
11425SOL     OW34232   2.257   8.133   6.059
11425SOL    HW134233   2.269   8.039   6.071
11425SOL    HW234234   2.164   8.148   6.076
11426SOL     OW34235   3.370   7.671   7.303
11426SOL    HW134236   3.382   7.690   7.396
11426SOL    HW234237   3.305   7.601   7.301
11427SOL     OW34238   2.525   7.557   5.689
11427SOL    HW134239   2.572   7.478   5.715
11427SOL    HW234240   2.464   7.527   5.621
11428SOL     OW34241   2.621   7.721   7.338
11428SOL    HW134242   2.705   7.676   7.337
11428SOL    HW234243   2.574   7.682   7.412
11429SOL     OW34244   2.732   8.975   6.785
11429SOL    HW134245   2.714   8.933   6.701
11429SOL    HW234246   2.799   8.921   6.825
11430SOL     OW34247   3.191   8.040   7.019
11430SOL    HW134248   3.224   8.009   7.103
11430SOL    HW234249   3.230   8.126   7.008
11431SOL     OW34250   2.679   8.823   6.544
11431SOL    HW134251   2.766   8.819   6.505
11431SOL    HW234252   2.620   8.838   6.470
11432SOL     OW34253   2.792   7.963   6.474
11432SOL    HW134254   2.767   7.952   6.382
11432SOL    HW234255   2.820   7.876   6.503
11433SOL     OW34256   2.426   7.512   6.076
11433SOL    HW134257   2.348   7.512   6.132
11433SOL    HW234258   2.414   7.586   6.018
11434SOL     OW34259   3.297   8.661   5.618
11434SOL    HW134260   3.326   8.586   5.671
11434SOL    HW234261   3.211   8.683   5.654
11435SOL     OW34262   2.144   7.496   5.774
11435SOL    HW134263   2.197   7.563   5.731
11435SOL    HW234264   2.208   7.438   5.816
11436SOL     OW34265   2.814   7.699   6.037
11436SOL    HW134266   2.788   7.734   5.951
11436SOL    HW234267   2.908   7.716   6.042
11437SOL     OW34268   2.937   8.142   7.031
11437SOL    HW134269   2.874   8.069   7.035
11437SOL    HW234270   3.023   8.099   7.027
11438SOL     OW34271   3.068   9.035   6.390
11438SOL    HW134272   3.083   9.095   6.316
11438SOL    HW234273   3.141   9.052   6.449
11439SOL     OW34274   2.344   8.610   6.294
11439SOL    HW134275   2.282   8.585   6.363
11439SOL    HW234276   2.294   8.603   6.213
11440SOL     OW34277   3.114   9.237   6.201
11440SOL    HW134278   3.162   9.300   6.148
11440SOL    HW234279   3.041   9.287   6.238
11441SOL     OW34280   2.894   7.963   5.616
11441SOL    HW134281   2.852   8.046   5.597
11441SOL    HW234282   2.958   7.983   5.684
11442SOL     OW34283   1.962   7.999   6.977
11442SOL    HW134284   2.054   8.001   6.951
11442SOL    HW234285   1.955   8.068   7.043
11443SOL     OW34286   2.421   7.669   6.771
11443SOL    HW134287   2.458   7.604   6.831
11443SOL    HW234288   2.328   7.670   6.791
11444SOL     OW34289   2.732   7.903   6.216
11444SOL    HW134290   2.693   7.958   6.149
11444SOL    HW234291   2.757   7.823   6.169
11445SOL     OW34292   2.883   7.507   6.326
11445SOL    HW134293   2.822   7.501   6.252
11445SOL    HW234294   2.859   7.434   6.383
11446SOL     OW34295   3.296   8.601   6.440
11446SOL    HW134296   3.226   8.536   6.449
11446SOL    HW234297   3.310   8.608   6.345
11447SOL     OW34298   3.325   8.064   6.534
11447SOL    HW134299   3.261   7.994   6.545
11447SOL    HW234300   3.380   8.058   6.612
11448SOL     OW34301   3.690   8.244   5.974
11448SOL    HW134302   3.750   8.201   6.034
11448SOL    HW234303   3.676   8.181   5.903
11449SOL     OW34304   2.360   8.873   5.737
11449SOL    HW134305   2.285   8.840   5.787
11449SOL    HW234306   2.357   8.824   5.655
11450SOL     OW34307   3.570   8.719   6.219
11450SOL    HW134308   3.663   8.713   6.240
11450SOL    HW234309   3.546   8.808   6.245
11451SOL     OW34310   3.254   8.023   5.651
11451SOL    HW134311   3.199   7.996   5.724
11451SOL    HW234312   3.343   7.999   5.679
11452SOL     OW34313   2.389   7.705   5.888
11452SOL    HW134314   2.442   7.663   5.821
11452SOL    HW234315   2.357   7.785   5.847
11453SOL     OW34316   3.597   8.692   7.118
11453SOL    HW134317   3.685   8.658   7.104
11453SOL    HW234318   3.611   8.779   7.155
11454SOL     OW34319   2.904   8.804   6.922
11454SOL    HW134320   2.827   8.769   6.966
11454SOL    HW234321   2.978   8.757   6.962
11455SOL     OW34322   3.470   9.083   7.258
11455SOL    HW134323   3.458   9.119   7.170
11455SOL    HW234324   3.547   9.027   7.252
11456SOL     OW34325   3.013   8.686   6.692
11456SOL    HW134326   2.951   8.720   6.756
11456SOL    HW234327   2.980   8.717   6.607
11457SOL     OW34328   3.471   8.539   6.662
11457SOL    HW134329   3.463   8.605   6.731
11457SOL    HW234330   3.402   8.560   6.600
11458SOL     OW34331   2.781   7.529   6.969
11458SOL    HW134332   2.802   7.514   6.877
11458SOL    HW234333   2.859   7.570   7.005
11459SOL     OW34334   2.841   8.563   7.310
11459SOL    HW134335   2.751   8.580   7.337
11459SOL    HW234336   2.836   8.483   7.259
11460SOL     OW34337   2.576   8.510   5.962
11460SOL    HW134338   2.561   8.484   6.053
11460SOL    HW234339   2.651   8.457   5.934
11461SOL     OW34340   2.288   8.276   6.845
11461SOL    HW134341   2.356   8.285   6.912
11461SOL    HW234342   2.258   8.186   6.855
11462SOL     OW34343   3.126   7.816   6.878
11462SOL    HW134344   3.154   7.896   6.922
11462SOL    HW234345   3.037   7.834   6.848
11463SOL     OW34346   1.940   9.017   6.949
11463SOL    HW134347   1.910   9.088   6.893
11463SOL    HW234348   2.035   9.017   6.939
11464SOL     OW34349   2.179   8.582   6.072
11464SOL    HW134350   2.180   8.654   6.009
11464SOL    HW234351   2.177   8.503   6.019
11465SOL     OW34352   2.396   7.965   6.445
11465SOL    HW134353   2.408   8.023   6.370
11465SOL    HW234354   2.464   7.990   6.507
11466SOL     OW34355   3.109   8.802   5.984
11466SOL    HW134356   3.165   8.871   6.018
11466SOL    HW234357   3.021   8.825   6.014
11467SOL     OW34358   3.171   8.915   6.729
11467SOL    HW134359   3.219   8.922   6.812
11467SOL    HW234360   3.121   8.834   6.737
11468SOL     OW34361   3.436   8.064   6.073
11468SOL    HW134362   3.385   8.106   6.142
11468SOL    HW234363   3.485   8.136   6.033
11469SOL     OW34364   2.206   8.979   6.888
11469SOL    HW134365   2.200   8.926   6.808
11469SOL    HW234366   2.300   8.995   6.898
11470SOL     OW34367   2.293   8.194   7.204
11470SOL    HW134368   2.353   8.238   7.142
11470SOL    HW234369   2.336   8.111   7.224
11471SOL     OW34370   3.489   8.234   7.284
11471SOL    HW134371   3.402   8.272   7.275
11471SOL    HW234372   3.540   8.272   7.212
11472SOL     OW34373   2.857   7.588   7.344
11472SOL    HW134374   2.916   7.662   7.325
11472SOL    HW234375   2.908   7.510   7.322
11473SOL     OW34376   2.357   7.483   7.349
11473SOL    HW134377   2.302   7.433   7.288
11473SOL    HW234378   2.305   7.560   7.370
11474SOL     OW34379   2.454   8.322   6.625
11474SOL    HW134380   2.492   8.410   6.628
11474SOL    HW234381   2.396   8.318   6.701
11475SOL     OW34382   3.170   8.301   6.589
11475SOL    HW134383   3.082   8.274   6.564
11475SOL    HW234384   3.225   8.225   6.570
11476SOL     OW34385   3.061   7.971   5.843
11476SOL    HW134386   3.071   7.894   5.900
11476SOL    HW234387   3.019   8.036   5.899
11477SOL     OW34388   2.154   7.642   6.825
11477SOL    HW134389   2.119   7.670   6.909
11477SOL    HW234390   2.137   7.547   6.822
11478SOL     OW34391   1.912   8.759   6.852
11478SOL    HW134392   1.941   8.704   6.924
11478SOL    HW234393   1.915   8.848   6.888
11479SOL     OW34394   2.574   8.070   6.625
11479SOL    HW134395   2.651   8.062   6.570
11479SOL    HW234396   2.545   8.160   6.615
11480SOL     OW34397   3.613   8.416   7.455
11480SOL    HW134398   3.573   8.343   7.407
11480SOL    HW234399   3.549   8.436   7.524
11481SOL     OW34400   2.187   7.508   6.214
11481SOL    HW134401   2.153   7.596   6.233
11481SOL    HW234402   2.193   7.466   6.300
11482SOL     OW34403   3.494   7.838   5.930
11482SOL    HW134404   3.526   7.772   5.991
11482SOL    HW234405   3.464   7.910   5.985
11483SOL     OW34406   2.896   8.207   6.542
11483SOL    HW134407   2.874   8.221   6.634
11483SOL    HW234408   2.866   8.117   6.524
11484SOL     OW34409   2.844   9.014   7.320
11484SOL    HW134410   2.822   9.057   7.238
11484SOL    HW234411   2.882   8.930   7.294
11485SOL     OW34412   3.700   8.943   7.189
11485SOL    HW134413   3.727   8.971   7.101
11485SOL    HW234414   3.778   8.953   7.243
11486SOL     OW34415   2.211   8.367   7.402
11486SOL    HW134416   2.288   8.384   7.456
11486SOL    HW234417   2.242   8.304   7.337
11487SOL     OW34418   3.382   7.717   5.705
11487SOL    HW134419   3.330   7.646   5.742
11487SOL    HW234420   3.422   7.760   5.781
11488SOL     OW34421   3.143   8.269   5.605
11488SOL    HW134422   3.182   8.183   5.613
11488SOL    HW234423   3.179   8.305   5.524
11489SOL     OW34424   2.932   8.801   6.452
11489SOL    HW134425   2.943   8.728   6.391
11489SOL    HW234426   2.984   8.872   6.415
11490SOL     OW34427   2.180   8.264   6.530
11490SOL    HW134428   2.275   8.278   6.528
11490SOL    HW234429   2.170   8.174   6.561
11491SOL     OW34430   2.175   7.986   6.597
11491SOL    HW134431   2.136   7.899   6.587
11491SOL    HW234432   2.252   7.984   6.541
11492SOL     OW34433   3.000   7.815   7.271
11492SOL    HW134434   2.955   7.866   7.338
11492SOL    HW234435   3.086   7.858   7.262
11493SOL     OW34436   3.018   7.637   7.060
11493SOL    HW134437   3.006   7.699   7.132
11493SOL    HW234438   3.064   7.687   6.992
11494SOL     OW34439   1.886   8.750   5.765
11494SOL    HW134440   1.796   8.773   5.740
11494SOL    HW234441   1.879   8.664   5.806
11495SOL     OW34442   1.956   9.216   6.538
11495SOL    HW134443   1.922   9.143   6.486
11495SOL    HW234444   2.042   9.234   6.500
11496SOL     OW34445   2.347   9.017   6.486
11496SOL    HW134446   2.417   9.079   6.508
11496SOL    HW234447   2.387   8.956   6.425
11497SOL     OW34448   2.810   8.229   6.801
11497SOL    HW134449   2.872   8.217   6.872
11497SOL    HW234450   2.731   8.183   6.829
11498SOL     OW34451   1.901   8.020   6.707
11498SOL    HW134452   1.982   8.017   6.657
11498SOL    HW234453   1.929   8.012   6.798
11499SOL     OW34454   2.048   7.986   7.330
11499SOL    HW134455   2.120   7.953   7.276
11499SOL    HW234456   2.013   8.060   7.280
11500SOL     OW34457   3.254   8.369   7.237
11500SOL    HW134458   3.271   8.463   7.232
11500SOL    HW234459   3.246   8.341   7.146
11501SOL     OW34460   2.680   8.017   5.958
11501SOL    HW134461   2.689   7.942   5.898
11501SOL    HW234462   2.603   8.064   5.926
11502SOL     OW34463   3.497   8.050   6.749
11502SOL    HW134464   3.487   7.990   6.823
11502SOL    HW234465   3.588   8.039   6.721
11503SOL     OW34466   2.087   8.986   7.310
11503SOL    HW134467   2.062   9.033   7.390
11503SOL    HW234468   2.100   8.896   7.339
11504SOL     OW34469   2.596   7.881   6.820
11504SOL    HW134470   2.532   7.811   6.805
11504SOL    HW234471   2.578   7.945   6.751
11505SOL     OW34472   2.765   9.129   7.076
11505SOL    HW134473   2.743   9.080   6.997
11505SOL    HW234474   2.768   9.220   7.048
11506SOL     OW34475   2.304   7.929   5.750
11506SOL    HW134476   2.369   7.995   5.775
11506SOL    HW234477   2.220   7.975   5.753
11507SOL     OW34478   1.992   8.598   7.067
11507SOL    HW134479   1.996   8.558   7.154
11507SOL    HW234480   2.013   8.527   7.007
11508SOL     OW34481   3.166   8.482   6.794
11508SOL    HW134482   3.175   8.418   6.724
11508SOL    HW234483   3.112   8.552   6.757
11509SOL     OW34484   3.187   8.309   5.877
11509SOL    HW134485   3.117   8.272   5.931
11509SOL    HW234486   3.159   8.293   5.787
11510SOL     OW34487   3.651   9.170   6.758
11510SOL    HW134488   3.711   9.196   6.689
11510SOL    HW234489   3.617   9.085   6.729
11511SOL     OW34490   3.102   9.180   6.679
11511SOL    HW134491   3.186   9.209   6.644
11511SOL    HW234492   3.117   9.088   6.703
11512SOL     OW34493   1.969   8.695   6.595
11512SOL    HW134494   1.940   8.716   6.684
11512SOL    HW234495   1.897   8.642   6.559
11513SOL     OW34496   2.552   9.129   7.335
11513SOL    HW134497   2.487   9.198   7.323
11513SOL    HW234498   2.623   9.151   7.276
11514SOL     OW34499   3.607   7.633   6.082
11514SOL    HW134500   3.666   7.612   6.009
11514SOL    HW234501   3.580   7.547   6.115
11515SOL     OW34502   3.259   9.016   6.089
11515SOL    HW134503   3.313   9.051   6.019
11515SOL    HW234504   3.204   9.090   6.117
11516SOL     OW34505   1.994   9.256   7.430
11516SOL    HW134506   1.955   9.179   7.471
11516SOL    HW234507   2.046   9.296   7.499
11517SOL     OW34508   3.141   8.384   6.251
11517SOL    HW134509   3.214   8.325   6.264
11517SOL    HW234510   3.177   8.456   6.198
11518SOL     OW34511   2.646   8.728   6.999
11518SOL    HW134512   2.619   8.775   7.078
11518SOL    HW234513   2.571   8.738   6.940
11519SOL     OW34514   2.530   9.085   5.746
11519SOL    HW134515   2.546   9.098   5.653
11519SOL    HW234516   2.478   9.004   5.751
11520SOL     OW34517   3.479   9.176   6.988
11520SOL    HW134518   3.536   9.175   6.911
11520SOL    HW234519   3.462   9.269   7.004
11521SOL     OW34520   3.707   7.608   6.551
11521SOL    HW134521   3.735   7.519   6.530
11521SOL    HW234522   3.619   7.615   6.513
11522SOL     OW34523   2.105   7.754   6.294
11522SOL    HW134524   2.019   7.791   6.273
11522SOL    HW234525   2.109   7.756   6.390
11523SOL     OW34526   3.071   9.035   5.624
11523SOL    HW134527   3.061   8.944   5.652
11523SOL    HW234528   3.001   9.048   5.560
11524SOL     OW34529   2.685   8.459   6.971
11524SOL    HW134530   2.723   8.449   6.884
11524SOL    HW234531   2.675   8.553   6.982
11525SOL     OW34532   2.782   8.359   5.880
11525SOL    HW134533   2.839   8.392   5.811
11525SOL    HW234534   2.834   8.291   5.924
11526SOL     OW34535   3.344   9.093   5.644
11526SOL    HW134536   3.252   9.072   5.626
11526SOL    HW234537   3.385   9.097   5.557
11527SOL     OW34538   2.224   8.761   7.088
11527SOL    HW134539   2.217   8.834   7.026
11527SOL    HW234540   2.147   8.707   7.071
11528SOL     OW34541   3.461   8.737   6.863
11528SOL    HW134542   3.515   8.713   6.938
11528SOL    HW234543   3.402   8.804   6.897
11529SOL     OW34544   2.939   8.568   6.315
11529SOL    HW134545   2.863   8.518   6.346
11529SOL    HW234546   3.001   8.501   6.286
11530SOL     OW34547   2.895   7.697   6.546
11530SOL    HW134548   2.894   7.655   6.461
11530SOL    HW234549   2.888   7.625   6.609
11531SOL     OW34550   2.465   8.933   6.060
11531SOL    HW134551   2.521   8.885   5.999
11531SOL    HW234552   2.383   8.945   6.013
11532SOL     OW34553   3.608   7.830   6.975
11532SOL    HW134554   3.678   7.894   6.970
11532SOL    HW234555   3.634   7.761   6.913
11533SOL     OW34556   2.141   8.789   5.885
11533SOL    HW134557   2.054   8.781   5.846
11533SOL    HW234558   2.126   8.837   5.966
11534SOL     OW34559   1.982   8.494   7.322
11534SOL    HW134560   1.905   8.466   7.371
11534SOL    HW234561   2.054   8.443   7.358
11535SOL     OW34562   2.541   7.636   7.081
11535SOL    HW134563   2.625   7.611   7.042
11535SOL    HW234564   2.564   7.670   7.168
11536SOL     OW34565   1.948   7.766   5.601
11536SOL    HW134566   1.871   7.745   5.548
11536SOL    HW234567   1.975   7.852   5.569
11537SOL     OW34568   3.277   8.302   6.974
11537SOL    HW134569   3.225   8.360   6.919
11537SOL    HW234570   3.365   8.306   6.936
11538SOL     OW34571   1.906   7.597   5.858
11538SOL    HW134572   1.893   7.667   5.794
11538SOL    HW234573   1.994   7.565   5.842
11539SOL     OW34574   3.045   8.769   5.709
11539SOL    HW134575   2.955   8.737   5.709
11539SOL    HW234576   3.069   8.773   5.802
11540SOL     OW34577   2.488   8.279   7.028
11540SOL    HW134578   2.546   8.354   7.016
11540SOL    HW234579   2.545   8.203   7.027
11541SOL     OW34580   3.347   9.242   6.576
11541SOL    HW134581   3.372   9.320   6.525
11541SOL    HW234582   3.430   9.199   6.596
11542SOL     OW34583   2.587   7.996   7.272
11542SOL    HW134584   2.634   8.049   7.336
11542SOL    HW234585   2.597   7.906   7.304
11543SOL     OW34586   3.330   8.632   7.205
11543SOL    HW134587   3.323   8.654   7.298
11543SOL    HW234588   3.420   8.656   7.181
11544SOL     OW34589   2.213   9.189   7.162
11544SOL    HW134590   2.131   9.236   7.145
11544SOL    HW234591   2.186   9.106   7.202
11545SOL     OW34592   3.517   8.323   6.839
11545SOL    HW134593   3.515   8.239   6.792
11545SOL    HW234594   3.505   8.389   6.770
11546SOL     OW34595   3.083   7.770   6.042
11546SOL    HW134596   3.143   7.696   6.041
11546SOL    HW234597   3.111   7.823   6.117
11547SOL     OW34598   2.438   8.174   6.267
11547SOL    HW134599   2.481   8.258   6.252
11547SOL    HW234600   2.377   8.166   6.194
11548SOL     OW34601   3.609   7.803   7.251
11548SOL    HW134602   3.606   7.819   7.156
11548SOL    HW234603   3.532   7.750   7.268
11549SOL     OW34604   3.622   8.372   7.089
11549SOL    HW134605   3.605   8.466   7.102
11549SOL    HW234606   3.595   8.355   6.999
11550SOL     OW34607   2.731   8.805   5.647
11550SOL    HW134608   2.694   8.823   5.734
11550SOL    HW234609   2.742   8.892   5.608
11551SOL     OW34610   2.530   9.215   6.509
11551SOL    HW134611   2.511   9.309   6.501
11551SOL    HW234612   2.625   9.210   6.509
11552SOL     OW34613   2.734   8.425   6.442
11552SOL    HW134614   2.784   8.351   6.477
11552SOL    HW234615   2.689   8.462   6.518
11553SOL     OW34616   2.935   8.434   5.673
11553SOL    HW134617   2.914   8.486   5.596
11553SOL    HW234618   3.009   8.379   5.644
11554SOL     OW34619   3.693   9.004   6.425
11554SOL    HW134620   3.616   8.996   6.369
11554SOL    HW234621   3.673   8.951   6.502
11555SOL     OW34622   2.074   8.732   7.422
11555SOL    HW134623   2.042   8.653   7.379
11555SOL    HW234624   2.015   8.744   7.496
11556SOL     OW34625   1.979   8.674   6.253
11556SOL    HW134626   2.009   8.632   6.334
11556SOL    HW234627   2.038   8.640   6.186
11557SOL     OW34628   2.553   8.866   7.218
11557SOL    HW134629   2.476   8.827   7.260
11557SOL    HW234630   2.558   8.954   7.255
11558SOL     OW34631   3.672   7.618   6.821
11558SOL    HW134632   3.674   7.523   6.834
11558SOL    HW234633   3.686   7.630   6.727
11559SOL     OW34634   2.280   7.871   6.104
11559SOL    HW134635   2.314   7.800   6.049
11559SOL    HW234636   2.228   7.827   6.171
11560SOL     OW34637   3.557   8.928   6.668
11560SOL    HW134638   3.479   8.909   6.616
11560SOL    HW234639   3.557   8.860   6.736
11561SOL     OW34640   2.214   8.014   6.877
11561SOL    HW134641   2.264   7.949   6.928
11561SOL    HW234642   2.222   7.984   6.787
11562SOL     OW34643   2.698   9.025   6.259
11562SOL    HW134644   2.663   9.088   6.196
11562SOL    HW234645   2.626   8.963   6.274
11563SOL     OW34646   3.283   7.681   6.700
11563SOL    HW134647   3.292   7.591   6.732
11563SOL    HW234648   3.237   7.727   6.770
11564SOL     OW34649   2.872   7.465   6.705
11564SOL    HW134650   2.819   7.402   6.657
11564SOL    HW234651   2.959   7.425   6.710
11565SOL     OW34652   2.643   8.780   5.914
11565SOL    HW134653   2.619   8.688   5.926
11565SOL    HW234654   2.722   8.791   5.966
11566SOL     OW34655   2.478   9.015   6.873
11566SOL    HW134656   2.472   9.098   6.920
11566SOL    HW234657   2.567   9.012   6.840
11567SOL     OW34658   3.243   7.486   5.778
11567SOL    HW134659   3.283   7.414   5.730
11567SOL    HW234660   3.151   7.460   5.788
11568SOL     OW34661   3.159   7.920   6.260
11568SOL    HW134662   3.108   8.001   6.258
11568SOL    HW234663   3.153   7.890   6.351
11569SOL     OW34664   3.444   7.636   6.479
11569SOL    HW134665   3.392   7.665   6.553
11569SOL    HW234666   3.445   7.710   6.418
11570SOL     OW34667   1.899   8.499   5.894
11570SOL    HW134668   1.992   8.487   5.876
11570SOL    HW234669   1.867   8.411   5.915
11571SOL     OW34670   2.756   9.125   5.920
11571SOL    HW134671   2.677   9.110   5.868
11571SOL    HW234672   2.732   9.197   5.979
11572SOL     OW34673   2.070   8.070   7.596
11572SOL    HW134674   1.982   8.058   7.632
11572SOL    HW234675   2.059   8.056   7.502
11573SOL     OW34676   2.081   7.737   8.438
11573SOL    HW134677   2.111   7.701   8.521
11573SOL    HW234678   1.994   7.699   8.426
11574SOL     OW34679   1.849   7.844   8.094
11574SOL    HW134680   1.769   7.869   8.141
11574SOL    HW234681   1.822   7.770   8.039
11575SOL     OW34682   2.437   8.755   8.656
11575SOL    HW134683   2.354   8.758   8.608
11575SOL    HW234684   2.454   8.846   8.680
11576SOL     OW34685   3.449   8.970   8.153
11576SOL    HW134686   3.403   8.940   8.231
11576SOL    HW234687   3.383   8.973   8.085
11577SOL     OW34688   2.999   8.152   8.134
11577SOL    HW134689   3.046   8.235   8.123
11577SOL    HW234690   2.951   8.163   8.216
11578SOL     OW34691   3.663   8.029   7.668
11578SOL    HW134692   3.624   8.029   7.580
11578SOL    HW234693   3.619   7.958   7.714
11579SOL     OW34694   2.589   8.577   8.506
11579SOL    HW134695   2.530   8.617   8.570
11579SOL    HW234696   2.631   8.651   8.462
11580SOL     OW34697   2.750   8.192   9.275
11580SOL    HW134698   2.750   8.260   9.342
11580SOL    HW234699   2.766   8.239   9.193
11581SOL     OW34700   2.548   8.433   8.092
11581SOL    HW134701   2.615   8.433   8.160
11581SOL    HW234702   2.482   8.495   8.123
11582SOL     OW34703   2.574   8.599   9.273
11582SOL    HW134704   2.625   8.672   9.307
11582SOL    HW234705   2.496   8.641   9.234
11583SOL     OW34706   2.205   8.844   8.517
11583SOL    HW134707   2.129   8.802   8.477
11583SOL    HW234708   2.241   8.899   8.447
11584SOL     OW34709   3.316   8.954   8.819
11584SOL    HW134710   3.371   9.031   8.830
11584SOL    HW234711   3.244   8.965   8.882
11585SOL     OW34712   2.319   7.822   8.904
11585SOL    HW134713   2.394   7.765   8.920
11585SOL    HW234714   2.243   7.770   8.931
11586SOL     OW34715   3.446   7.880   8.203
11586SOL    HW134716   3.381   7.891   8.134
11586SOL    HW234717   3.428   7.950   8.265
11587SOL     OW34718   2.080   9.178   7.913
11587SOL    HW134719   2.107   9.249   7.971
11587SOL    HW234720   2.154   9.167   7.853
11588SOL     OW34721   2.997   8.790   9.142
11588SOL    HW134722   3.040   8.780   9.226
11588SOL    HW234723   2.944   8.711   9.132
11589SOL     OW34724   2.094   8.907   7.981
11589SOL    HW134725   2.073   9.000   7.985
11589SOL    HW234726   2.044   8.867   8.053
11590SOL     OW34727   2.147   8.537   8.327
11590SOL    HW134728   2.148   8.448   8.360
11590SOL    HW234729   2.091   8.585   8.387
11591SOL     OW34730   2.437   9.246   8.870
11591SOL    HW134731   2.359   9.229   8.923
11591SOL    HW234732   2.468   9.332   8.900
11592SOL     OW34733   2.427   8.435   7.600
11592SOL    HW134734   2.478   8.478   7.531
11592SOL    HW234735   2.468   8.465   7.682
11593SOL     OW34736   3.452   7.581   8.904
11593SOL    HW134737   3.491   7.658   8.862
11593SOL    HW234738   3.420   7.614   8.989
11594SOL     OW34739   1.981   8.107   8.015
11594SOL    HW134740   1.949   8.019   8.039
11594SOL    HW234741   1.975   8.157   8.096
11595SOL     OW34742   3.709   9.188   7.764
11595SOL    HW134743   3.780   9.173   7.827
11595SOL    HW234744   3.717   9.281   7.740
11596SOL     OW34745   1.923   9.027   7.557
11596SOL    HW134746   1.902   8.935   7.575
11596SOL    HW234747   1.891   9.075   7.634
11597SOL     OW34748   3.560   8.374   8.100
11597SOL    HW134749   3.641   8.328   8.077
11597SOL    HW234750   3.538   8.426   8.023
11598SOL     OW34751   3.519   8.553   7.880
11598SOL    HW134752   3.603   8.544   7.837
11598SOL    HW234753   3.533   8.618   7.949
11599SOL     OW34754   1.983   8.196   9.026
11599SOL    HW134755   2.068   8.240   9.030
11599SOL    HW234756   1.920   8.267   9.013
11600SOL     OW34757   2.485   8.846   8.178
11600SOL    HW134758   2.444   8.760   8.183
11600SOL    HW234759   2.469   8.875   8.088
11601SOL     OW34760   3.133   8.674   8.865
11601SOL    HW134761   3.161   8.605   8.805
11601SOL    HW234762   3.194   8.669   8.938
11602SOL     OW34763   2.693   7.460   7.967
11602SOL    HW134764   2.733   7.542   7.939
11602SOL    HW234765   2.599   7.478   7.967
11603SOL     OW34766   2.049   8.404   8.749
11603SOL    HW134767   2.136   8.369   8.733
11603SOL    HW234768   1.995   8.369   8.678
11604SOL     OW34769   3.397   8.463   7.647
11604SOL    HW134770   3.328   8.403   7.677
11604SOL    HW234771   3.439   8.493   7.728
11605SOL     OW34772   3.042   9.269   9.080
11605SOL    HW134773   3.043   9.330   9.007
11605SOL    HW234774   3.058   9.183   9.041
11606SOL     OW34775   2.222   7.702   9.323
11606SOL    HW134776   2.258   7.781   9.363
11606SOL    HW234777   2.128   7.718   9.319
11607SOL     OW34778   3.334   8.865   8.379
11607SOL    HW134779   3.270   8.884   8.448
11607SOL    HW234780   3.316   8.774   8.355
11608SOL     OW34781   3.507   9.230   8.015
11608SOL    HW134782   3.485   9.188   7.932
11608SOL    HW234783   3.501   9.160   8.080
11609SOL     OW34784   2.449   8.147   7.720
11609SOL    HW134785   2.452   8.235   7.681
11609SOL    HW234786   2.384   8.154   7.790
11610SOL     OW34787   3.144   7.842   8.389
11610SOL    HW134788   3.055   7.806   8.394
11610SOL    HW234789   3.196   7.783   8.444
11611SOL     OW34790   3.441   9.120   7.767
11611SOL    HW134791   3.535   9.135   7.756
11611SOL    HW234792   3.407   9.108   7.678
11612SOL     OW34793   2.651   8.061   8.879
11612SOL    HW134794   2.628   8.032   8.967
11612SOL    HW234795   2.627   7.988   8.823
11613SOL     OW34796   3.254   7.923   9.118
11613SOL    HW134797   3.258   7.967   9.203
11613SOL    HW234798   3.303   7.842   9.130
11614SOL     OW34799   2.807   8.328   9.040
11614SOL    HW134800   2.863   8.264   8.995
11614SOL    HW234801   2.758   8.371   8.969
11615SOL     OW34802   2.869   7.846   8.657
11615SOL    HW134803   2.777   7.859   8.679
11615SOL    HW234804   2.867   7.802   8.572
11616SOL     OW34805   2.920   8.145   7.866
11616SOL    HW134806   2.941   8.142   7.960
11616SOL    HW234807   2.836   8.101   7.859
11617SOL     OW34808   1.955   8.273   8.231
11617SOL    HW134809   2.037   8.268   8.280
11617SOL    HW234810   1.907   8.345   8.272
11618SOL     OW34811   1.968   9.318   9.037
11618SOL    HW134812   1.978   9.300   9.131
11618SOL    HW234813   1.884   9.277   9.014
11619SOL     OW34814   2.751   7.799   7.648
11619SOL    HW134815   2.802   7.852   7.587
11619SOL    HW234816   2.728   7.720   7.598
11620SOL     OW34817   3.544   8.009   9.285
11620SOL    HW134818   3.524   8.088   9.234
11620SOL    HW234819   3.573   7.945   9.219
11621SOL     OW34820   3.255   8.598   7.992
11621SOL    HW134821   3.334   8.586   7.939
11621SOL    HW234822   3.201   8.658   7.940
11622SOL     OW34823   2.413   7.608   8.363
11622SOL    HW134824   2.419   7.637   8.454
11622SOL    HW234825   2.409   7.690   8.313
11623SOL     OW34826   2.859   8.903   7.913
11623SOL    HW134827   2.834   8.978   7.860
11623SOL    HW234828   2.830   8.925   8.001
11624SOL     OW34829   2.216   9.264   8.326
11624SOL    HW134830   2.262   9.180   8.331
11624SOL    HW234831   2.283   9.329   8.347
11625SOL     OW34832   3.666   8.492   8.337
11625SOL    HW134833   3.619   8.477   8.255
11625SOL    HW234834   3.598   8.501   8.403
11626SOL     OW34835   3.079   8.991   8.963
11626SOL    HW134836   3.068   8.920   9.026
11626SOL    HW234837   3.014   8.974   8.896
11627SOL     OW34838   2.162   8.406   7.714
11627SOL    HW134839   2.245   8.427   7.670
11627SOL    HW234840   2.139   8.319   7.681
11628SOL     OW34841   3.346   8.212   8.159
11628SOL    HW134842   3.348   8.168   8.244
11628SOL    HW234843   3.426   8.265   8.157
11629SOL     OW34844   2.333   8.734   9.196
11629SOL    HW134845   2.309   8.738   9.103
11629SOL    HW234846   2.250   8.723   9.242
11630SOL     OW34847   2.996   9.223   7.672
11630SOL    HW134848   2.916   9.192   7.713
11630SOL    HW234849   3.017   9.157   7.606
11631SOL     OW34850   2.070   7.703   8.947
11631SOL    HW134851   1.996   7.763   8.962
11631SOL    HW234852   2.040   7.619   8.982
11632SOL     OW34853   3.501   8.836   7.548
11632SOL    HW134854   3.459   8.922   7.535
11632SOL    HW234855   3.434   8.773   7.521
11633SOL     OW34856   2.319   9.193   7.762
11633SOL    HW134857   2.368   9.243   7.827
11633SOL    HW234858   2.387   9.150   7.709
11634SOL     OW34859   3.259   7.553   7.907
11634SOL    HW134860   3.259   7.529   7.814
11634SOL    HW234861   3.350   7.540   7.935
11635SOL     OW34862   2.113   9.232   8.660
11635SOL    HW134863   2.163   9.157   8.694
11635SOL    HW234864   2.098   9.211   8.568
11636SOL     OW34865   2.809   9.146   8.338
11636SOL    HW134866   2.895   9.106   8.351
11636SOL    HW234867   2.769   9.094   8.268
11637SOL     OW34868   2.257   8.133   7.921
11637SOL    HW134869   2.269   8.039   7.933
11637SOL    HW234870   2.164   8.148   7.938
11638SOL     OW34871   3.370   7.669   9.163
11638SOL    HW134872   3.382   7.689   9.255
11638SOL    HW234873   3.306   7.597   9.162
11639SOL     OW34874   2.525   7.557   7.551
11639SOL    HW134875   2.572   7.478   7.577
11639SOL    HW234876   2.464   7.527   7.483
11640SOL     OW34877   2.620   7.720   9.202
11640SOL    HW134878   2.704   7.675   9.200
11640SOL    HW234879   2.573   7.682   9.276
11641SOL     OW34880   2.732   8.975   8.647
11641SOL    HW134881   2.714   8.933   8.563
11641SOL    HW234882   2.799   8.920   8.688
11642SOL     OW34883   3.192   8.040   8.879
11642SOL    HW134884   3.225   8.009   8.963
11642SOL    HW234885   3.231   8.127   8.868
11643SOL     OW34886   2.678   8.823   8.406
11643SOL    HW134887   2.766   8.819   8.367
11643SOL    HW234888   2.620   8.838   8.331
11644SOL     OW34889   2.792   7.963   8.336
11644SOL    HW134890   2.767   7.952   8.244
11644SOL    HW234891   2.820   7.876   8.364
11645SOL     OW34892   2.426   7.511   7.938
11645SOL    HW134893   2.348   7.512   7.994
11645SOL    HW234894   2.414   7.586   7.879
11646SOL     OW34895   3.297   8.661   7.480
11646SOL    HW134896   3.326   8.586   7.533
11646SOL    HW234897   3.211   8.683   7.516
11647SOL     OW34898   2.144   7.496   7.636
11647SOL    HW134899   2.197   7.563   7.593
11647SOL    HW234900   2.208   7.438   7.678
11648SOL     OW34901   2.814   7.699   7.899
11648SOL    HW134902   2.788   7.734   7.813
11648SOL    HW234903   2.908   7.716   7.904
11649SOL     OW34904   2.937   8.141   8.892
11649SOL    HW134905   2.875   8.069   8.897
11649SOL    HW234906   3.023   8.099   8.888
11650SOL     OW34907   3.068   9.036   8.252
11650SOL    HW134908   3.083   9.095   8.178
11650SOL    HW234909   3.141   9.053   8.311
11651SOL     OW34910   2.344   8.610   8.156
11651SOL    HW134911   2.282   8.585   8.225
11651SOL    HW234912   2.294   8.603   8.075
11652SOL     OW34913   3.114   9.237   8.063
11652SOL    HW134914   3.162   9.300   8.010
11652SOL    HW234915   3.042   9.287   8.100
11653SOL     OW34916   2.894   7.963   7.478
11653SOL    HW134917   2.852   8.046   7.459
11653SOL    HW234918   2.958   7.983   7.546
11654SOL     OW34919   1.962   7.999   8.839
11654SOL    HW134920   2.054   8.001   8.813
11654SOL    HW234921   1.954   8.068   8.905
11655SOL     OW34922   2.421   7.669   8.633
11655SOL    HW134923   2.458   7.604   8.693
11655SOL    HW234924   2.328   7.670   8.653
11656SOL     OW34925   2.732   7.903   8.077
11656SOL    HW134926   2.693   7.958   8.010
11656SOL    HW234927   2.757   7.823   8.031
11657SOL     OW34928   2.883   7.507   8.188
11657SOL    HW134929   2.823   7.501   8.114
11657SOL    HW234930   2.859   7.434   8.245
11658SOL     OW34931   3.296   8.601   8.302
11658SOL    HW134932   3.226   8.536   8.311
11658SOL    HW234933   3.310   8.608   8.208
11659SOL     OW34934   3.325   8.065   8.396
11659SOL    HW134935   3.261   7.994   8.407
11659SOL    HW234936   3.380   8.058   8.474
11660SOL     OW34937   3.690   8.244   7.836
11660SOL    HW134938   3.751   8.201   7.896
11660SOL    HW234939   3.677   8.180   7.766
11661SOL     OW34940   2.360   8.873   7.599
11661SOL    HW134941   2.285   8.840   7.649
11661SOL    HW234942   2.357   8.824   7.517
11662SOL     OW34943   3.570   8.719   8.081
11662SOL    HW134944   3.663   8.713   8.102
11662SOL    HW234945   3.545   8.808   8.107
11663SOL     OW34946   3.254   8.023   7.513
11663SOL    HW134947   3.199   7.996   7.586
11663SOL    HW234948   3.343   7.999   7.541
11664SOL     OW34949   2.389   7.705   7.750
11664SOL    HW134950   2.443   7.663   7.683
11664SOL    HW234951   2.357   7.785   7.709
11665SOL     OW34952   3.597   8.691   8.980
11665SOL    HW134953   3.685   8.657   8.966
11665SOL    HW234954   3.610   8.778   9.017
11666SOL     OW34955   2.904   8.804   8.784
11666SOL    HW134956   2.827   8.769   8.828
11666SOL    HW234957   2.978   8.758   8.824
11667SOL     OW34958   3.470   9.083   9.113
11667SOL    HW134959   3.461   9.119   9.024
11667SOL    HW234960   3.547   9.027   9.108
11668SOL     OW34961   3.012   8.686   8.554
11668SOL    HW134962   2.951   8.720   8.618
11668SOL    HW234963   2.979   8.717   8.470
11669SOL     OW34964   3.472   8.539   8.525
11669SOL    HW134965   3.464   8.606   8.593
11669SOL    HW234966   3.402   8.560   8.463
11670SOL     OW34967   2.780   7.530   8.831
11670SOL    HW134968   2.801   7.514   8.738
11670SOL    HW234969   2.859   7.570   8.867
11671SOL     OW34970   2.843   8.562   9.171
11671SOL    HW134971   2.752   8.580   9.197
11671SOL    HW234972   2.838   8.482   9.120
11672SOL     OW34973   2.576   8.510   7.824
11672SOL    HW134974   2.561   8.484   7.915
11672SOL    HW234975   2.651   8.457   7.796
11673SOL     OW34976   2.288   8.276   8.707
11673SOL    HW134977   2.356   8.286   8.774
11673SOL    HW234978   2.258   8.185   8.717
11674SOL     OW34979   3.126   7.816   8.739
11674SOL    HW134980   3.154   7.896   8.783
11674SOL    HW234981   3.037   7.834   8.710
11675SOL     OW34982   1.940   9.017   8.810
11675SOL    HW134983   1.910   9.088   8.753
11675SOL    HW234984   2.035   9.017   8.800
11676SOL     OW34985   2.179   8.582   7.934
11676SOL    HW134986   2.180   8.654   7.870
11676SOL    HW234987   2.177   8.503   7.881
11677SOL     OW34988   2.396   7.965   8.307
11677SOL    HW134989   2.408   8.023   8.232
11677SOL    HW234990   2.464   7.990   8.369
11678SOL     OW34991   3.109   8.802   7.846
11678SOL    HW134992   3.165   8.871   7.880
11678SOL    HW234993   3.021   8.825   7.876
11679SOL     OW34994   3.171   8.915   8.591
11679SOL    HW134995   3.219   8.922   8.673
11679SOL    HW234996   3.120   8.834   8.598
11680SOL     OW34997   3.436   8.065   7.935
11680SOL    HW134998   3.385   8.106   8.004
11680SOL    HW234999   3.485   8.136   7.894
11681SOL     OW35000   2.207   8.979   8.750
11681SOL    HW135001   2.200   8.926   8.670
11681SOL    HW235002   2.300   8.995   8.759
11682SOL     OW35003   2.292   8.195   9.065
11682SOL    HW135004   2.352   8.238   9.004
11682SOL    HW235005   2.334   8.112   9.085
11683SOL     OW35006   3.489   8.236   9.148
11683SOL    HW135007   3.401   8.274   9.138
11683SOL    HW235008   3.540   8.274   9.077
11684SOL     OW35009   2.857   7.590   9.209
11684SOL    HW135010   2.916   7.663   9.188
11684SOL    HW235011   2.908   7.512   9.186
11685SOL     OW35012   2.358   7.483   9.211
11685SOL    HW135013   2.304   7.433   9.150
11685SOL    HW235014   2.306   7.560   9.232
11686SOL     OW35015   2.454   8.322   8.487
11686SOL    HW135016   2.492   8.410   8.490
11686SOL    HW235017   2.396   8.318   8.563
11687SOL     OW35018   3.170   8.301   8.451
11687SOL    HW135019   3.082   8.274   8.426
11687SOL    HW235020   3.225   8.225   8.432
11688SOL     OW35021   3.061   7.971   7.705
11688SOL    HW135022   3.071   7.894   7.762
11688SOL    HW235023   3.019   8.036   7.761
11689SOL     OW35024   2.154   7.641   8.687
11689SOL    HW135025   2.119   7.670   8.772
11689SOL    HW235026   2.137   7.547   8.684
11690SOL     OW35027   1.912   8.759   8.713
11690SOL    HW135028   1.941   8.703   8.786
11690SOL    HW235029   1.915   8.848   8.749
11691SOL     OW35030   2.574   8.069   8.487
11691SOL    HW135031   2.651   8.062   8.431
11691SOL    HW235032   2.545   8.160   8.477
11692SOL     OW35033   3.617   8.419   9.317
11692SOL    HW135034   3.573   8.347   9.272
11692SOL    HW235035   3.559   8.441   9.390
11693SOL     OW35036   2.187   7.508   8.076
11693SOL    HW135037   2.154   7.595   8.095
11693SOL    HW235038   2.193   7.466   8.162
11694SOL     OW35039   3.494   7.838   7.792
11694SOL    HW135040   3.526   7.773   7.854
11694SOL    HW235041   3.464   7.910   7.847
11695SOL     OW35042   2.896   8.206   8.404
11695SOL    HW135043   2.874   8.221   8.496
11695SOL    HW235044   2.866   8.117   8.386
11696SOL     OW35045   2.843   9.015   9.181
11696SOL    HW135046   2.822   9.058   9.098
11696SOL    HW235047   2.882   8.931   9.155
11697SOL     OW35048   3.700   8.942   9.049
11697SOL    HW135049   3.727   8.970   8.961
11697SOL    HW235050   3.778   8.953   9.103
11698SOL     OW35051   2.212   8.364   9.266
11698SOL    HW135052   2.291   8.384   9.316
11698SOL    HW235053   2.241   8.302   9.199
11699SOL     OW35054   3.382   7.717   7.567
11699SOL    HW135055   3.330   7.646   7.604
11699SOL    HW235056   3.422   7.760   7.643
11700SOL     OW35057   3.143   8.270   7.467
11700SOL    HW135058   3.182   8.183   7.475
11700SOL    HW235059   3.179   8.306   7.386
11701SOL     OW35060   2.932   8.801   8.314
11701SOL    HW135061   2.943   8.728   8.253
11701SOL    HW235062   2.984   8.872   8.277
11702SOL     OW35063   2.180   8.264   8.392
11702SOL    HW135064   2.275   8.278   8.390
11702SOL    HW235065   2.170   8.174   8.423
11703SOL     OW35066   2.175   7.986   8.459
11703SOL    HW135067   2.136   7.899   8.449
11703SOL    HW235068   2.252   7.984   8.403
11704SOL     OW35069   3.000   7.816   9.133
11704SOL    HW135070   2.955   7.868   9.199
11704SOL    HW235071   3.085   7.858   9.123
11705SOL     OW35072   3.017   7.638   8.922
11705SOL    HW135073   3.006   7.700   8.994
11705SOL    HW235074   3.064   7.687   8.854
11706SOL     OW35075   1.886   8.750   7.627
11706SOL    HW135076   1.796   8.773   7.602
11706SOL    HW235077   1.879   8.664   7.668
11707SOL     OW35078   1.956   9.217   8.399
11707SOL    HW135079   1.922   9.143   8.347
11707SOL    HW235080   2.042   9.234   8.361
11708SOL     OW35081   2.347   9.017   8.349
11708SOL    HW135082   2.417   9.079   8.371
11708SOL    HW235083   2.387   8.956   8.287
11709SOL     OW35084   2.810   8.229   8.662
11709SOL    HW135085   2.872   8.217   8.734
11709SOL    HW235086   2.731   8.183   8.691
11710SOL     OW35087   1.901   8.020   8.569
11710SOL    HW135088   1.982   8.017   8.518
11710SOL    HW235089   1.929   8.012   8.660
11711SOL     OW35090   2.049   7.983   9.187
11711SOL    HW135091   2.118   7.948   9.130
11711SOL    HW235092   2.014   8.058   9.139
11712SOL     OW35093   3.253   8.369   9.098
11712SOL    HW135094   3.270   8.463   9.094
11712SOL    HW235095   3.246   8.341   9.007
11713SOL     OW35096   2.680   8.017   7.820
11713SOL    HW135097   2.689   7.943   7.760
11713SOL    HW235098   2.603   8.064   7.788
11714SOL     OW35099   3.497   8.050   8.611
11714SOL    HW135100   3.487   7.990   8.685
11714SOL    HW235101   3.588   8.038   8.583
11715SOL     OW35102   2.086   8.989   9.170
11715SOL    HW135103   2.066   9.043   9.247
11715SOL    HW235104   2.097   8.901   9.205
11716SOL     OW35105   2.596   7.881   8.682
11716SOL    HW135106   2.532   7.811   8.667
11716SOL    HW235107   2.578   7.945   8.613
11717SOL     OW35108   2.765   9.129   8.937
11717SOL    HW135109   2.743   9.080   8.857
11717SOL    HW235110   2.768   9.220   8.909
11718SOL     OW35111   2.304   7.929   7.612
11718SOL    HW135112   2.369   7.995   7.637
11718SOL    HW235113   2.220   7.975   7.616
11719SOL     OW35114   1.991   8.598   8.928
11719SOL    HW135115   1.996   8.559   9.015
11719SOL    HW235116   2.013   8.526   8.868
11720SOL     OW35117   3.166   8.482   8.656
11720SOL    HW135118   3.175   8.419   8.585
11720SOL    HW235119   3.112   8.552   8.619
11721SOL     OW35120   3.188   8.309   7.739
11721SOL    HW135121   3.117   8.273   7.793
11721SOL    HW235122   3.159   8.293   7.649
11722SOL     OW35123   3.650   9.171   8.618
11722SOL    HW135124   3.711   9.197   8.549
11722SOL    HW235125   3.618   9.085   8.590
11723SOL     OW35126   3.102   9.180   8.541
11723SOL    HW135127   3.186   9.209   8.506
11723SOL    HW235128   3.117   9.088   8.564
11724SOL     OW35129   1.969   8.695   8.456
11724SOL    HW135130   1.941   8.717   8.546
11724SOL    HW235131   1.897   8.642   8.421
11725SOL     OW35132   2.552   9.128   9.200
11725SOL    HW135133   2.488   9.198   9.185
11725SOL    HW235134   2.625   9.150   9.141
11726SOL     OW35135   3.607   7.632   7.944
11726SOL    HW135136   3.666   7.612   7.872
11726SOL    HW235137   3.580   7.547   7.978
11727SOL     OW35138   3.259   9.016   7.951
11727SOL    HW135139   3.313   9.051   7.881
11727SOL    HW235140   3.204   9.090   7.979
11728SOL     OW35141   2.002   9.252   9.296
11728SOL    HW135142   1.957   9.179   9.340
11728SOL    HW235143   2.052   9.295   9.365
11729SOL     OW35144   3.141   8.384   8.112
11729SOL    HW135145   3.214   8.325   8.126
11729SOL    HW235146   3.177   8.456   8.060
11730SOL     OW35147   2.645   8.728   8.861
11730SOL    HW135148   2.618   8.776   8.939
11730SOL    HW235149   2.571   8.737   8.801
11731SOL     OW35150   2.530   9.085   7.608
11731SOL    HW135151   2.546   9.098   7.515
11731SOL    HW235152   2.478   9.004   7.612
11732SOL     OW35153   3.478   9.178   8.846
11732SOL    HW135154   3.536   9.177   8.769
11732SOL    HW235155   3.462   9.270   8.863
11733SOL     OW35156   3.707   7.608   8.412
11733SOL    HW135157   3.735   7.519   8.391
11733SOL    HW235158   3.620   7.615   8.374
11734SOL     OW35159   2.105   7.754   8.156
11734SOL    HW135160   2.019   7.791   8.135
11734SOL    HW235161   2.109   7.756   8.252
11735SOL     OW35162   3.071   9.035   7.486
11735SOL    HW135163   3.061   8.944   7.514
11735SOL    HW235164   3.001   9.048   7.422
11736SOL     OW35165   2.685   8.459   8.833
11736SOL    HW135166   2.722   8.449   8.745
11736SOL    HW235167   2.674   8.553   8.844
11737SOL     OW35168   2.782   8.359   7.742
11737SOL    HW135169   2.839   8.392   7.673
11737SOL    HW235170   2.834   8.291   7.786
11738SOL     OW35171   3.344   9.093   7.506
11738SOL    HW135172   3.252   9.072   7.488
11738SOL    HW235173   3.385   9.097   7.419
11739SOL     OW35174   2.223   8.761   8.950
11739SOL    HW135175   2.216   8.834   8.888
11739SOL    HW235176   2.146   8.708   8.933
11740SOL     OW35177   3.462   8.737   8.725
11740SOL    HW135178   3.515   8.712   8.800
11740SOL    HW235179   3.402   8.805   8.759
11741SOL     OW35180   2.939   8.568   8.178
11741SOL    HW135181   2.863   8.518   8.209
11741SOL    HW235182   3.001   8.501   8.148
11742SOL     OW35183   2.895   7.697   8.408
11742SOL    HW135184   2.894   7.655   8.322
11742SOL    HW235185   2.888   7.625   8.471
11743SOL     OW35186   2.465   8.933   7.922
11743SOL    HW135187   2.521   8.885   7.861
11743SOL    HW235188   2.383   8.946   7.875
11744SOL     OW35189   3.608   7.830   8.836
11744SOL    HW135190   3.678   7.894   8.831
11744SOL    HW235191   3.634   7.761   8.775
11745SOL     OW35192   2.141   8.789   7.747
11745SOL    HW135193   2.054   8.781   7.708
11745SOL    HW235194   2.126   8.837   7.828
11746SOL     OW35195   1.985   8.495   9.184
11746SOL    HW135196   1.908   8.468   9.232
11746SOL    HW235197   2.057   8.443   9.221
11747SOL     OW35198   2.541   7.637   8.944
11747SOL    HW135199   2.625   7.612   8.905
11747SOL    HW235200   2.563   7.670   9.031
11748SOL     OW35201   1.947   7.766   7.463
11748SOL    HW135202   1.871   7.745   7.409
11748SOL    HW235203   1.975   7.852   7.431
11749SOL     OW35204   3.278   8.302   8.835
11749SOL    HW135205   3.226   8.361   8.780
11749SOL    HW235206   3.366   8.307   8.798
11750SOL     OW35207   1.906   7.597   7.720
11750SOL    HW135208   1.893   7.667   7.656
11750SOL    HW235209   1.994   7.565   7.703
11751SOL     OW35210   3.045   8.769   7.571
11751SOL    HW135211   2.955   8.737   7.571
11751SOL    HW235212   3.069   8.773   7.664
11752SOL     OW35213   2.487   8.280   8.890
11752SOL    HW135214   2.546   8.354   8.878
11752SOL    HW235215   2.545   8.203   8.889
11753SOL     OW35216   3.347   9.243   8.438
11753SOL    HW135217   3.371   9.320   8.387
11753SOL    HW235218   3.430   9.200   8.458
11754SOL     OW35219   2.587   7.996   9.135
11754SOL    HW135220   2.633   8.050   9.199
11754SOL    HW235221   2.597   7.906   9.167
11755SOL     OW35222   3.330   8.632   9.069
11755SOL    HW135223   3.325   8.652   9.162
11755SOL    HW235224   3.420   8.656   9.045
11756SOL     OW35225   2.214   9.190   9.023
11756SOL    HW135226   2.132   9.237   9.007
11756SOL    HW235227   2.187   9.107   9.061
11757SOL     OW35228   3.518   8.323   8.701
11757SOL    HW135229   3.516   8.240   8.654
11757SOL    HW235230   3.507   8.389   8.632
11758SOL     OW35231   3.083   7.771   7.904
11758SOL    HW135232   3.142   7.696   7.903
11758SOL    HW235233   3.111   7.823   7.979
11759SOL     OW35234   2.438   8.174   8.129
11759SOL    HW135235   2.481   8.258   8.114
11759SOL    HW235236   2.377   8.166   8.056
11760SOL     OW35237   3.609   7.801   9.111
11760SOL    HW135238   3.606   7.817   9.017
11760SOL    HW235239   3.532   7.747   9.128
11761SOL     OW35240   3.622   8.372   8.952
11761SOL    HW135241   3.605   8.465   8.965
11761SOL    HW235242   3.596   8.355   8.862
11762SOL     OW35243   2.731   8.805   7.510
11762SOL    HW135244   2.694   8.823   7.596
11762SOL    HW235245   2.742   8.892   7.470
11763SOL     OW35246   2.530   9.215   8.371
11763SOL    HW135247   2.511   9.309   8.363
11763SOL    HW235248   2.625   9.210   8.371
11764SOL     OW35249   2.734   8.425   8.304
11764SOL    HW135250   2.784   8.351   8.339
11764SOL    HW235251   2.689   8.461   8.380
11765SOL     OW35252   2.935   8.433   7.535
11765SOL    HW135253   2.914   8.486   7.458
11765SOL    HW235254   3.009   8.379   7.506
11766SOL     OW35255   3.693   9.004   8.288
11766SOL    HW135256   3.616   8.996   8.231
11766SOL    HW235257   3.671   8.952   8.365
11767SOL     OW35258   2.073   8.736   9.284
11767SOL    HW135259   2.042   8.656   9.241
11767SOL    HW235260   2.011   8.751   9.355
11768SOL     OW35261   1.979   8.673   8.115
11768SOL    HW135262   2.009   8.632   8.196
11768SOL    HW235263   2.038   8.640   8.048
11769SOL     OW35264   2.550   8.868   9.078
11769SOL    HW135265   2.473   8.829   9.120
11769SOL    HW235266   2.557   8.955   9.116
11770SOL     OW35267   3.674   7.619   8.682
11770SOL    HW135268   3.675   7.524   8.696
11770SOL    HW235269   3.687   7.630   8.588
11771SOL     OW35270   2.280   7.871   7.966
11771SOL    HW135271   2.314   7.800   7.911
11771SOL    HW235272   2.228   7.826   8.033
11772SOL     OW35273   3.557   8.927   8.530
11772SOL    HW135274   3.479   8.908   8.478
11772SOL    HW235275   3.558   8.860   8.598
11773SOL     OW35276   2.214   8.013   8.740
11773SOL    HW135277   2.263   7.949   8.790
11773SOL    HW235278   2.222   7.984   8.649
11774SOL     OW35279   2.698   9.025   8.120
11774SOL    HW135280   2.663   9.088   8.058
11774SOL    HW235281   2.626   8.963   8.135
11775SOL     OW35282   3.283   7.681   8.562
11775SOL    HW135283   3.292   7.591   8.595
11775SOL    HW235284   3.237   7.727   8.632
11776SOL     OW35285   2.872   7.466   8.567
11776SOL    HW135286   2.818   7.402   8.519
11776SOL    HW235287   2.959   7.425   8.571
11777SOL     OW35288   2.643   8.780   7.776
11777SOL    HW135289   2.619   8.688   7.788
11777SOL    HW235290   2.723   8.791   7.828
11778SOL     OW35291   2.478   9.015   8.735
11778SOL    HW135292   2.472   9.099   8.781
11778SOL    HW235293   2.567   9.012   8.702
11779SOL     OW35294   3.242   7.486   7.640
11779SOL    HW135295   3.283   7.414   7.592
11779SOL    HW235296   3.151   7.460   7.651
11780SOL     OW35297   3.159   7.920   8.122
11780SOL    HW135298   3.109   8.001   8.120
11780SOL    HW235299   3.153   7.890   8.213
11781SOL     OW35300   3.444   7.636   8.341
11781SOL    HW135301   3.392   7.665   8.415
11781SOL    HW235302   3.445   7.710   8.281
11782SOL     OW35303   1.899   8.499   7.756
11782SOL    HW135304   1.992   8.487   7.738
11782SOL    HW235305   1.867   8.411   7.777
11783SOL     OW35306   2.755   9.125   7.782
11783SOL    HW135307   2.677   9.110   7.730
11783SOL    HW235308   2.732   9.197   7.841
11784SOL     OW35309   2.073   8.054   9.454
11784SOL    HW135310   1.984   8.044   9.488
11784SOL    HW235311   2.064   8.047   9.359
11785SOL     OW35312   3.668   8.018   9.521
11785SOL    HW135313   3.626   8.019   9.435
11785SOL    HW235314   3.619   7.951   9.570
11786SOL     OW35315   2.074   9.204   9.767
11786SOL    HW135316   2.096   9.279   9.823
11786SOL    HW235317   2.154   9.185   9.719
11787SOL     OW35318   2.087   8.914   9.844
11787SOL    HW135319   2.063   8.997   9.884
11787SOL    HW235320   2.019   8.853   9.873
11788SOL     OW35321   2.433   8.433   9.451
11788SOL    HW135322   2.483   8.476   9.382
11788SOL    HW235323   2.473   8.463   9.533
11789SOL     OW35324   1.927   8.124   9.883
11789SOL    HW135325   1.841   8.090   9.860
11789SOL    HW235326   1.908   8.202   9.936
11790SOL     OW35327   3.693   9.195   9.642
11790SOL    HW135328   3.770   9.178   9.697
11790SOL    HW235329   3.707   9.284   9.609
11791SOL     OW35330   1.914   9.037   9.431
11791SOL    HW135331   1.898   8.944   9.446
11791SOL    HW235332   1.877   9.080   9.508
11792SOL     OW35333   3.536   8.318   9.919
11792SOL    HW135334   3.608   8.339   9.979
11792SOL    HW235335   3.529   8.395   9.862
11793SOL     OW35336   3.555   8.548   9.758
11793SOL    HW135337   3.639   8.546   9.712
11793SOL    HW235338   3.559   8.628   9.811
11794SOL     OW35339   2.503   8.790   9.992
11794SOL    HW135340   2.446   8.713   9.990
11794SOL    HW235341   2.480   8.839   9.913
11795SOL     OW35342   2.680   7.477   9.827
11795SOL    HW135343   2.725   7.556   9.798
11795SOL    HW235344   2.587   7.502   9.829
11796SOL     OW35345   3.420   8.472   9.521
11796SOL    HW135346   3.359   8.403   9.547
11796SOL    HW235347   3.458   8.503   9.603
11797SOL     OW35348   2.447   8.146   9.583
11797SOL    HW135349   2.455   8.232   9.542
11797SOL    HW235350   2.388   8.161   9.658
11798SOL     OW35351   3.424   9.122   9.627
11798SOL    HW135352   3.517   9.140   9.634
11798SOL    HW235353   3.408   9.110   9.534
11799SOL     OW35354   2.908   8.138   9.734
11799SOL    HW135355   2.936   8.114   9.823
11799SOL    HW235356   2.823   8.096   9.724
11800SOL     OW35357   1.914   8.331   0.069
11800SOL    HW135358   1.988   8.285   0.109
11800SOL    HW235359   1.892   8.399   0.132
11801SOL     OW35360   2.753   7.795   9.503
11801SOL    HW135361   2.802   7.852   9.444
11801SOL    HW235362   2.738   7.715   9.452
11802SOL     OW35363   3.176   8.544   9.797
11802SOL    HW135364   3.228   8.573   9.871
11802SOL    HW235365   3.151   8.624   9.751
11803SOL     OW35366   2.855   8.883   9.783
11803SOL    HW135367   2.825   8.969   9.751
11803SOL    HW235368   2.828   8.881   9.874
11804SOL     OW35369   2.186   9.318   0.174
11804SOL    HW135370   2.181   9.227   0.204
11804SOL    HW235371   2.279   9.339   0.175
11805SOL     OW35372   2.178   8.406   9.575
11805SOL    HW135373   2.259   8.421   9.526
11805SOL    HW235374   2.138   8.330   9.534
11806SOL     OW35375   2.999   9.222   9.543
11806SOL    HW135376   2.920   9.189   9.586
11806SOL    HW235377   3.019   9.157   9.476
11807SOL     OW35378   3.499   8.841   9.403
11807SOL    HW135379   3.455   8.925   9.391
11807SOL    HW235380   3.433   8.775   9.380
11808SOL     OW35381   2.330   9.212   9.633
11808SOL    HW135382   2.381   9.232   9.712
11808SOL    HW235383   2.391   9.163   9.578
11809SOL     OW35384   3.286   7.599   9.737
11809SOL    HW135385   3.275   7.557   9.652
11809SOL    HW235386   3.381   7.602   9.751
11810SOL     OW35387   2.258   8.136   9.800
11810SOL    HW135388   2.262   8.043   9.820
11810SOL    HW235389   2.165   8.156   9.794
11811SOL     OW35390   2.523   7.555   9.416
11811SOL    HW135391   2.568   7.475   9.443
11811SOL    HW235392   2.462   7.527   9.348
11812SOL     OW35393   2.407   7.547   9.840
11812SOL    HW135394   2.315   7.541   9.866
11812SOL    HW235395   2.407   7.605   9.764
11813SOL     OW35396   3.302   8.656   9.345
11813SOL    HW135397   3.336   8.588   9.403
11813SOL    HW235398   3.215   8.676   9.380
11814SOL     OW35399   2.146   7.502   9.500
11814SOL    HW135400   2.197   7.567   9.452
11814SOL    HW235401   2.213   7.449   9.545
11815SOL     OW35402   2.810   7.709   9.758
11815SOL    HW135403   2.786   7.739   9.670
11815SOL    HW235404   2.904   7.728   9.764
11816SOL     OW35405   2.305   8.599   0.034
11816SOL    HW135406   2.236   8.633   0.090
11816SOL    HW235407   2.263   8.584   9.949
11817SOL     OW35408   3.159   9.283   9.904
11817SOL    HW135409   3.206   9.341   9.844
11817SOL    HW235410   3.069   9.314   9.901
11818SOL     OW35411   2.894   7.965   9.338
11818SOL    HW135412   2.851   8.048   9.318
11818SOL    HW235413   2.957   7.986   9.407
11819SOL     OW35414   2.707   7.890   9.942
11819SOL    HW135415   2.669   7.953   9.881
11819SOL    HW235416   2.738   7.819   9.886
11820SOL     OW35417   3.743   8.254   9.637
11820SOL    HW135418   3.774   8.214   9.719
11820SOL    HW235419   3.708   8.180   9.587
11821SOL     OW35420   2.356   8.875   9.464
11821SOL    HW135421   2.281   8.840   9.511
11821SOL    HW235422   2.357   8.826   9.381
11822SOL     OW35423   3.251   8.024   9.370
11822SOL    HW135424   3.195   8.001   9.445
11822SOL    HW235425   3.339   8.000   9.398
11823SOL     OW35426   2.404   7.708   9.624
11823SOL    HW135427   2.451   7.663   9.554
11823SOL    HW235428   2.367   7.785   9.582
11824SOL     OW35429   2.569   8.502   9.684
11824SOL    HW135430   2.536   8.456   9.761
11824SOL    HW235431   2.649   8.456   9.660
11825SOL     OW35432   2.172   8.574   9.797
11825SOL    HW135433   2.172   8.650   9.739
11825SOL    HW235434   2.181   8.499   9.738
11826SOL     OW35435   3.100   8.803   9.691
11826SOL    HW135436   3.155   8.874   9.723
11826SOL    HW235437   3.013   8.823   9.726
11827SOL     OW35438   3.498   8.086   9.789
11827SOL    HW135439   3.501   8.160   9.850
11827SOL    HW235440   3.449   8.118   9.713
11828SOL     OW35441   3.058   7.979   9.565
11828SOL    HW135442   3.065   7.903   9.623
11828SOL    HW235443   3.019   8.048   9.619
11829SOL     OW35444   2.144   7.537   9.928
11829SOL    HW135445   2.075   7.602   9.945
11829SOL    HW235446   2.160   7.496   0.013
11830SOL     OW35447   3.493   7.843   9.655
11830SOL    HW135448   3.516   7.767   9.709
11830SOL    HW235449   3.484   7.915   9.718
11831SOL     OW35450   3.382   7.721   9.425
11831SOL    HW135451   3.329   7.649   9.460
11831SOL    HW235452   3.419   7.763   9.503
11832SOL     OW35453   3.142   8.272   9.329
11832SOL    HW135454   3.180   8.185   9.337
11832SOL    HW235455   3.178   8.308   9.248
11833SOL     OW35456   1.886   8.763   9.484
11833SOL    HW135457   1.795   8.782   9.458
11833SOL    HW235458   1.882   8.676   9.524
11834SOL     OW35459   2.669   8.007   9.682
11834SOL    HW135460   2.682   7.938   9.617
11834SOL    HW235461   2.597   8.059   9.649
11835SOL     OW35462   2.309   7.924   9.483
11835SOL    HW135463   2.370   7.994   9.506
11835SOL    HW235464   2.223   7.967   9.481
11836SOL     OW35465   3.230   8.294   9.604
11836SOL    HW135466   3.176   8.343   9.665
11836SOL    HW235467   3.177   8.286   9.525
11837SOL     OW35468   3.569   7.605   9.771
11837SOL    HW135469   3.640   7.607   9.707
11837SOL    HW235470   3.585   7.525   9.822
11838SOL     OW35471   3.225   9.038   9.795
11838SOL    HW135472   3.295   9.056   9.733
11838SOL    HW235473   3.196   9.124   9.824
11839SOL     OW35474   2.529   9.087   9.473
11839SOL    HW135475   2.546   9.099   9.380
11839SOL    HW235476   2.475   9.008   9.478
11840SOL     OW35477   3.070   9.039   9.348
11840SOL    HW135478   3.062   8.947   9.373
11840SOL    HW235479   3.001   9.053   9.284
11841SOL     OW35480   2.786   8.361   9.614
11841SOL    HW135481   2.842   8.390   9.541
11841SOL    HW235482   2.836   8.292   9.657
11842SOL     OW35483   3.345   9.094   9.358
11842SOL    HW135484   3.253   9.073   9.342
11842SOL    HW235485   3.385   9.096   9.271
11843SOL     OW35486   2.453   8.927   9.761
11843SOL    HW135487   2.513   8.883   9.702
11843SOL    HW235488   2.369   8.928   9.714
11844SOL     OW35489   2.140   8.790   9.614
11844SOL    HW135490   2.054   8.785   9.572
11844SOL    HW235491   2.125   8.843   9.693
11845SOL     OW35492   1.946   7.764   9.323
11845SOL    HW135493   1.870   7.744   9.268
11845SOL    HW235494   1.975   7.850   9.292
11846SOL     OW35495   1.904   7.602   9.577
11846SOL    HW135496   1.896   7.669   9.508
11846SOL    HW235497   1.992   7.568   9.567
11847SOL     OW35498   3.044   8.769   9.423
11847SOL    HW135499   2.953   8.738   9.423
11847SOL    HW235500   3.067   8.775   9.515
11848SOL     OW35501   3.078   7.783   9.768
11848SOL    HW135502   3.153   7.724   9.759
11848SOL    HW235503   3.098   7.837   9.844
11849SOL     OW35504   2.470   8.296   9.889
11849SOL    HW135505   2.474   8.295   9.985
11849SOL    HW235506   2.397   8.237   9.868
11850SOL     OW35507   2.731   8.806   9.363
11850SOL    HW135508   2.696   8.822   9.451
11850SOL    HW235509   2.743   8.893   9.326
11851SOL     OW35510   2.931   8.428   9.397
11851SOL    HW135511   2.912   8.483   9.321
11851SOL    HW235512   3.006   8.375   9.370
11852SOL     OW35513   1.926   8.696   9.899
11852SOL    HW135514   1.915   8.698   9.994
11852SOL    HW235515   1.994   8.630   9.884
11853SOL     OW35516   2.272   7.874   9.865
11853SOL    HW135517   2.319   7.810   9.812
11853SOL    HW235518   2.308   7.863   9.953
11854SOL     OW35519   2.644   8.777   9.627
11854SOL    HW135520   2.618   8.686   9.644
11854SOL    HW235521   2.721   8.791   9.683
11855SOL     OW35522   3.239   7.489   9.492
11855SOL    HW135523   3.282   7.413   9.453
11855SOL    HW235524   3.149   7.461   9.508
11856SOL     OW35525   1.919   8.517   9.599
11856SOL    HW135526   2.014   8.510   9.592
11856SOL    HW235527   1.888   8.427   9.603
11857SOL     OW35528   2.757   9.122   9.665
11857SOL    HW135529   2.681   9.104   9.610
11857SOL    HW235530   2.728   9.193   9.723
11858SOL     OW35531   2.073   9.601   0.997
11858SOL    HW135532   2.104   9.560   1.078
11858SOL    HW235533   1.988   9.562   0.981
11859SOL     OW35534   1.846   9.688   0.647
11859SOL    HW135535   1.765   9.707   0.695
11859SOL    HW235536   1.822   9.616   0.589
11860SOL     OW35537   3.620   9.887   0.196
11860SOL    HW135538   3.627   9.861   0.104
11860SOL    HW235539   3.571   9.815   0.237
11861SOL     OW35540   2.283   9.722   1.497
11861SOL    HW135541   2.367   9.677   1.491
11861SOL    HW235542   2.218   9.652   1.491
11862SOL     OW35543   3.460   9.721   0.755
11862SOL    HW135544   3.398   9.740   0.685
11862SOL    HW235545   3.436   9.781   0.826
11863SOL     OW35546   3.452   9.441   1.455
11863SOL    HW135547   3.495   9.517   1.416
11863SOL    HW235548   3.418   9.473   1.539
11864SOL     OW35549   1.896   9.966   0.609
11864SOL    HW135550   1.889   9.871   0.618
11864SOL    HW235551   1.990   9.983   0.606
11865SOL     OW35552   2.695   9.337   0.522
11865SOL    HW135553   2.732   9.422   0.496
11865SOL    HW235554   2.600   9.353   0.526
11866SOL     OW35555   2.207   9.549   1.837
11866SOL    HW135556   2.230   9.634   1.802
11866SOL    HW235557   2.113   9.554   1.854
11867SOL     OW35558   3.138   9.682   0.940
11867SOL    HW135559   3.049   9.647   0.941
11867SOL    HW235560   3.187   9.625   0.999
11868SOL     OW35561   2.712   9.833   1.432
11868SOL    HW135562   2.668   9.842   1.517
11868SOL    HW235563   2.640   9.822   1.370
11869SOL     OW35564   3.268   9.786   1.679
11869SOL    HW135565   3.315   9.831   1.748
11869SOL    HW235566   3.301   9.696   1.682
11870SOL     OW35567   2.872   9.761   1.227
11870SOL    HW135568   2.821   9.781   1.305
11870SOL    HW235569   2.815   9.705   1.174
11871SOL     OW35570   2.926   9.983   0.432
11871SOL    HW135571   2.912   0.059   0.489
11871SOL    HW235572   2.838   9.958   0.404
11872SOL     OW35573   2.684   9.642   0.193
11872SOL    HW135574   2.691   9.690   0.111
11872SOL    HW235575   2.703   9.551   0.170
11873SOL     OW35576   3.538   9.899   1.810
11873SOL    HW135577   3.584   9.970   1.764
11873SOL    HW235578   3.568   9.819   1.766
11874SOL     OW35579   2.411   9.469   0.911
11874SOL    HW135580   2.416   9.498   1.002
11874SOL    HW235581   2.411   9.550   0.859
11875SOL     OW35582   3.349   0.020   0.730
11875SOL    HW135583   3.339   9.971   0.812
11875SOL    HW235584   3.388   0.103   0.757
11876SOL     OW35585   2.061   9.559   1.496
11876SOL    HW135586   2.000   9.620   1.538
11876SOL    HW235587   2.032   9.472   1.525
11877SOL     OW35588   3.257   9.406   0.446
11877SOL    HW135589   3.255   9.384   0.353
11877SOL    HW235590   3.350   9.403   0.469
11878SOL     OW35591   3.363   9.524   1.711
11878SOL    HW135592   3.374   9.539   1.804
11878SOL    HW235593   3.296   9.455   1.706
11879SOL     OW35594   2.453   9.399   0.122
11879SOL    HW135595   2.546   9.379   0.134
11879SOL    HW235596   2.442   9.404   0.027
11880SOL     OW35597   2.621   9.573   1.748
11880SOL    HW135598   2.706   9.529   1.748
11880SOL    HW235599   2.576   9.537   1.824
11881SOL     OW35600   3.242   9.899   1.423
11881SOL    HW135601   3.241   9.867   1.513
11881SOL    HW235602   3.295   9.979   1.426
11882SOL     OW35603   2.801   9.798   0.897
11882SOL    HW135604   2.770   9.783   0.808
11882SOL    HW235605   2.837   9.714   0.925
11883SOL     OW35606   2.424   9.392   0.499
11883SOL    HW135607   2.347   9.387   0.556
11883SOL    HW235608   2.420   9.480   0.461
11884SOL     OW35609   2.803   9.581   0.446
11884SOL    HW135610   2.778   9.610   0.358
11884SOL    HW235611   2.897   9.594   0.450
11885SOL     OW35612   2.935   9.950   1.564
11885SOL    HW135613   2.869   9.909   1.508
11885SOL    HW235614   2.975   0.018   1.509
11886SOL     OW35615   2.967   9.879   0.030
11886SOL    HW135616   2.879   9.842   0.025
11886SOL    HW235617   2.992   9.870   0.121
11887SOL     OW35618   1.935   9.893   1.378
11887SOL    HW135619   2.030   9.897   1.368
11887SOL    HW235620   1.909   9.983   1.400
11888SOL     OW35621   2.415   9.538   1.179
11888SOL    HW135622   2.460   9.488   1.248
11888SOL    HW235623   2.322   9.529   1.199
11889SOL     OW35624   2.722   9.772   0.644
11889SOL    HW135625   2.703   9.854   0.598
11889SOL    HW235626   2.742   9.709   0.575
11890SOL     OW35627   2.887   9.355   0.734
11890SOL    HW135628   2.822   9.354   0.664
11890SOL    HW235629   2.860   9.284   0.793
11891SOL     OW35630   3.342   9.872   0.955
11891SOL    HW135631   3.265   9.819   0.974
11891SOL    HW235632   3.384   9.885   1.040
11892SOL     OW35633   2.410   9.606   0.302
11892SOL    HW135634   2.407   9.532   0.241
11892SOL    HW235635   2.499   9.641   0.291
11893SOL     OW35636   2.784   9.391   1.381
11893SOL    HW135637   2.806   9.372   1.290
11893SOL    HW235638   2.862   9.432   1.417
11894SOL     OW35639   3.129   9.688   1.294
11894SOL    HW135640   3.168   9.764   1.336
11894SOL    HW235641   3.043   9.718   1.264
11895SOL     OW35642   2.413   9.766   0.866
11895SOL    HW135643   2.416   9.761   0.771
11895SOL    HW235644   2.480   9.830   0.889
11896SOL     OW35645   3.447   9.913   0.503
11896SOL    HW135646   3.411   9.948   0.584
11896SOL    HW235647   3.530   9.959   0.492
11897SOL     OW35648   2.861   9.446   1.764
11897SOL    HW135649   2.921   9.518   1.747
11897SOL    HW235650   2.911   9.368   1.740
11898SOL     OW35651   2.355   9.333   1.759
11898SOL    HW135652   2.303   9.281   1.697
11898SOL    HW235653   2.301   9.410   1.777
11899SOL     OW35654   3.082   9.840   0.272
11899SOL    HW135655   3.097   9.758   0.319
11899SOL    HW235656   3.035   9.895   0.334
11900SOL     OW35657   2.152   9.498   1.240
11900SOL    HW135658   2.112   9.526   1.323
11900SOL    HW235659   2.137   9.404   1.237
11901SOL     OW35660   2.588   9.937   1.001
11901SOL    HW135661   2.671   9.900   0.969
11901SOL    HW235662   2.594   0.030   0.980
11902SOL     OW35663   2.179   9.375   0.631
11902SOL    HW135664   2.150   9.464   0.651
11902SOL    HW235665   2.187   9.332   0.716
11903SOL     OW35666   3.482   9.688   0.346
11903SOL    HW135667   3.525   9.624   0.403
11903SOL    HW235668   3.459   9.760   0.404
11904SOL     OW35669   3.335   9.608   0.127
11904SOL    HW135670   3.299   9.523   0.151
11904SOL    HW235671   3.386   9.635   0.203
11905SOL     OW35672   2.185   0.056   0.900
11905SOL    HW135673   2.262   0.112   0.911
11905SOL    HW235674   2.198   9.985   0.962
11906SOL     OW35675   2.219   9.821   1.046
11906SOL    HW135676   2.165   9.744   1.031
11906SOL    HW235677   2.295   9.808   0.990
11907SOL     OW35678   3.011   9.668   1.695
11907SOL    HW135679   2.955   9.726   1.746
11907SOL    HW235680   3.091   9.719   1.680
11908SOL     OW35681   3.019   9.503   1.471
11908SOL    HW135682   3.010   9.560   1.548
11908SOL    HW235683   3.064   9.557   1.406
11909SOL     OW35684   1.887   9.844   1.109
11909SOL    HW135685   1.965   9.829   1.057
11909SOL    HW235686   1.920   9.859   1.198
11910SOL     OW35687   2.130   9.809   1.725
11910SOL    HW135688   2.178   9.797   1.643
11910SOL    HW235689   2.169   9.888   1.764
11911SOL     OW35690   2.694   9.900   0.308
11911SOL    HW135691   2.682   9.812   0.273
11911SOL    HW235692   2.606   9.933   0.324
11912SOL     OW35693   3.495   9.903   1.184
11912SOL    HW135694   3.482   9.846   1.260
11912SOL    HW235695   3.579   9.875   1.147
11913SOL     OW35696   2.538   9.785   1.228
11913SOL    HW135697   2.492   9.706   1.199
11913SOL    HW235698   2.543   9.839   1.150
11914SOL     OW35699   2.737   9.383   0.102
11914SOL    HW135700   2.734   9.361   0.009
11914SOL    HW235701   2.815   9.339   0.135
11915SOL     OW35702   3.616   9.482   0.485
11915SOL    HW135703   3.680   9.458   0.419
11915SOL    HW235704   3.588   9.399   0.524
11916SOL     OW35705   3.704   9.467   0.963
11916SOL    HW135706   3.733   9.378   0.943
11916SOL    HW235707   3.615   9.471   0.928
11917SOL     OW35708   2.105   9.625   0.716
11917SOL    HW135709   2.016   9.653   0.693
11917SOL    HW235710   2.105   9.625   0.812
11918SOL     OW35711   2.899   9.542   0.948
11918SOL    HW135712   2.898   9.491   0.867
11918SOL    HW235713   2.888   9.476   1.017
11919SOL     OW35714   3.616   9.686   1.401
11919SOL    HW135715   3.678   9.758   1.390
11919SOL    HW235716   3.643   9.620   1.337
11920SOL     OW35717   2.542   9.494   1.486
11920SOL    HW135718   2.627   9.469   1.450
11920SOL    HW235719   2.563   9.528   1.573
11921SOL     OW35720   1.936   9.612   0.027
11921SOL    HW135721   1.846   9.600   9.996
11921SOL    HW235722   1.957   9.703   0.006
11922SOL     OW35723   1.941   9.444   0.266
11922SOL    HW135724   1.929   9.510   0.198
11922SOL    HW235725   2.030   9.411   0.252
11923SOL     OW35726   2.604   9.847   1.683
11923SOL    HW135727   2.657   9.895   1.746
11923SOL    HW235728   2.607   9.756   1.713
11924SOL     OW35729   3.079   9.623   0.454
11924SOL    HW135730   3.139   9.548   0.452
11924SOL    HW235731   3.108   9.673   0.530
11925SOL     OW35732   3.602   9.668   1.674
11925SOL    HW135733   3.605   9.678   1.579
11925SOL    HW235734   3.528   9.609   1.689
11926SOL     OW35735   2.993   0.241   0.067
11926SOL    HW135736   2.991   0.335   0.047
11926SOL    HW235737   3.081   0.226   0.101
11927SOL     OW35738   3.673   9.481   1.235
11927SOL    HW135739   3.675   9.386   1.247
11927SOL    HW235740   3.684   9.494   1.140
11928SOL     OW35741   2.353   9.686   0.605
11928SOL    HW135742   2.341   9.715   0.515
11928SOL    HW235743   2.264   9.673   0.638
11929SOL     OW35744   2.197   9.910   1.306
11929SOL    HW135745   2.246   9.854   1.366
11929SOL    HW235746   2.218   9.876   1.219
11930SOL     OW35747   3.282   9.539   1.124
11930SOL    HW135748   3.295   9.454   1.166
11930SOL    HW235749   3.236   9.592   1.189
11931SOL     OW35750   2.871   9.321   1.122
11931SOL    HW135751   2.817   9.258   1.074
11931SOL    HW235752   2.958   9.281   1.124
11932SOL     OW35753   3.211   9.356   0.177
11932SOL    HW135754   3.229   9.323   0.089
11932SOL    HW235755   3.121   9.328   0.195
11933SOL     OW35756   3.174   9.762   0.673
11933SOL    HW135757   3.171   9.857   0.675
11933SOL    HW235758   3.157   9.736   0.764
11934SOL     OW35759   3.439   9.487   0.900
11934SOL    HW135760   3.387   9.520   0.973
11934SOL    HW235761   3.442   9.560   0.838
11935SOL     OW35762   2.070   9.607   2.862
11935SOL    HW135763   2.102   9.563   2.941
11935SOL    HW235764   1.986   9.565   2.843
11936SOL     OW35765   1.855   9.687   2.509
11936SOL    HW135766   1.778   9.705   2.563
11936SOL    HW235767   1.828   9.615   2.453
11937SOL     OW35768   3.489   9.912   2.080
11937SOL    HW135769   3.521   9.910   1.990
11937SOL    HW235770   3.502   9.822   2.112
11938SOL     OW35771   2.282   9.722   3.359
11938SOL    HW135772   2.366   9.678   3.353
11938SOL    HW235773   2.217   9.652   3.353
11939SOL     OW35774   3.469   9.726   2.618
11939SOL    HW135775   3.447   9.767   2.535
11939SOL    HW235776   3.433   9.784   2.685
11940SOL     OW35777   3.451   9.441   3.316
11940SOL    HW135778   3.495   9.517   3.278
11940SOL    HW235779   3.418   9.473   3.400
11941SOL     OW35780   1.892   9.973   2.468
11941SOL    HW135781   1.886   9.878   2.475
11941SOL    HW235782   1.986   9.992   2.467
11942SOL     OW35783   2.697   9.333   2.376
11942SOL    HW135784   2.732   9.418   2.351
11942SOL    HW235785   2.602   9.346   2.378
11943SOL     OW35786   2.207   9.549   3.699
11943SOL    HW135787   2.229   9.634   3.664
11943SOL    HW235788   2.113   9.553   3.716
11944SOL     OW35789   3.138   9.683   2.802
11944SOL    HW135790   3.050   9.646   2.802
11944SOL    HW235791   3.188   9.625   2.860
11945SOL     OW35792   2.712   9.832   3.294
11945SOL    HW135793   2.669   9.842   3.379
11945SOL    HW235794   2.640   9.822   3.232
11946SOL     OW35795   3.267   9.785   3.541
11946SOL    HW135796   3.314   9.830   3.611
11946SOL    HW235797   3.300   9.695   3.544
11947SOL     OW35798   2.872   9.763   3.088
11947SOL    HW135799   2.821   9.782   3.166
11947SOL    HW235800   2.817   9.704   3.036
11948SOL     OW35801   2.936   9.982   2.299
11948SOL    HW135802   2.991   0.023   2.366
11948SOL    HW235803   2.847   9.996   2.329
11949SOL     OW35804   2.750   9.661   2.050
11949SOL    HW135805   2.799   9.720   1.992
11949SOL    HW235806   2.751   9.576   2.004
11950SOL     OW35807   3.539   9.899   3.672
11950SOL    HW135808   3.584   9.970   3.625
11950SOL    HW235809   3.568   9.819   3.629
11951SOL     OW35810   2.411   9.473   2.776
11951SOL    HW135811   2.417   9.498   2.868
11951SOL    HW235812   2.411   9.556   2.728
11952SOL     OW35813   3.341   0.021   2.591
11952SOL    HW135814   3.334   9.973   2.673
11952SOL    HW235815   3.382   0.104   2.615
11953SOL     OW35816   2.061   9.558   3.358
11953SOL    HW135817   1.999   9.619   3.399
11953SOL    HW235818   2.032   9.472   3.387
11954SOL     OW35819   3.255   9.412   2.316
11954SOL    HW135820   3.255   9.388   2.224
11954SOL    HW235821   3.347   9.414   2.341
11955SOL     OW35822   3.363   9.523   3.572
11955SOL    HW135823   3.374   9.539   3.666
11955SOL    HW235824   3.297   9.454   3.568
11956SOL     OW35825   2.514   9.418   1.964
11956SOL    HW135826   2.564   9.341   1.993
11956SOL    HW235827   2.457   9.384   1.895
11957SOL     OW35828   2.621   9.573   3.611
11957SOL    HW135829   2.706   9.529   3.610
11957SOL    HW235830   2.576   9.536   3.686
11958SOL     OW35831   3.239   9.900   3.286
11958SOL    HW135832   3.240   9.868   3.376
11958SOL    HW235833   3.293   9.979   3.289
11959SOL     OW35834   2.799   9.800   2.757
11959SOL    HW135835   2.769   9.781   2.668
11959SOL    HW235836   2.837   9.718   2.787
11960SOL     OW35837   2.427   9.374   2.350
11960SOL    HW135838   2.350   9.376   2.407
11960SOL    HW235839   2.419   9.454   2.297
11961SOL     OW35840   2.147   9.363   2.046
11961SOL    HW135841   2.203   9.426   1.999
11961SOL    HW235842   2.209   9.304   2.088
11962SOL     OW35843   2.804   9.582   2.308
11962SOL    HW135844   2.782   9.610   2.219
11962SOL    HW235845   2.898   9.593   2.315
11963SOL     OW35846   2.936   9.948   3.426
11963SOL    HW135847   2.869   9.907   3.370
11963SOL    HW235848   2.977   0.013   3.370
11964SOL     OW35849   2.888   9.831   1.890
11964SOL    HW135850   2.867   9.920   1.859
11964SOL    HW235851   2.955   9.844   1.956
11965SOL     OW35852   1.935   9.892   3.239
11965SOL    HW135853   2.031   9.896   3.228
11965SOL    HW235854   1.911   9.982   3.262
11966SOL     OW35855   2.416   9.536   3.044
11966SOL    HW135856   2.459   9.487   3.114
11966SOL    HW235857   2.323   9.528   3.064
11967SOL     OW35858   2.721   9.767   2.504
11967SOL    HW135859   2.699   9.844   2.452
11967SOL    HW235860   2.743   9.700   2.440
11968SOL     OW35861   2.883   9.358   2.595
11968SOL    HW135862   2.822   9.354   2.522
11968SOL    HW235863   2.856   9.286   2.652
11969SOL     OW35864   3.340   9.873   2.814
11969SOL    HW135865   3.264   9.817   2.832
11969SOL    HW235866   3.382   9.885   2.899
11970SOL     OW35867   2.411   9.582   2.170
11970SOL    HW135868   2.445   9.530   2.097
11970SOL    HW235869   2.428   9.673   2.143
11971SOL     OW35870   2.784   9.391   3.243
11971SOL    HW135871   2.805   9.372   3.152
11971SOL    HW235872   2.862   9.432   3.278
11972SOL     OW35873   3.129   9.688   3.156
11972SOL    HW135874   3.168   9.764   3.198
11972SOL    HW235875   3.043   9.718   3.126
11973SOL     OW35876   2.410   9.763   2.714
11973SOL    HW135877   2.405   9.770   2.619
11973SOL    HW235878   2.476   9.826   2.740
11974SOL     OW35879   3.438   9.878   2.382
11974SOL    HW135880   3.400   9.939   2.445
11974SOL    HW235881   3.487   9.933   2.320
11975SOL     OW35882   2.861   9.446   3.626
11975SOL    HW135883   2.921   9.518   3.609
11975SOL    HW235884   2.910   9.367   3.602
11976SOL     OW35885   2.355   9.333   3.621
11976SOL    HW135886   2.303   9.281   3.559
11976SOL    HW235887   2.301   9.410   3.639
11977SOL     OW35888   3.059   9.841   2.107
11977SOL    HW135889   3.078   9.759   2.153
11977SOL    HW235890   3.013   9.894   2.172
11978SOL     OW35891   2.152   9.498   3.103
11978SOL    HW135892   2.112   9.525   3.185
11978SOL    HW235893   2.136   9.404   3.098
11979SOL     OW35894   2.582   9.932   2.860
11979SOL    HW135895   2.666   9.897   2.830
11979SOL    HW235896   2.587   0.026   2.844
11980SOL     OW35897   2.187   9.373   2.490
11980SOL    HW135898   2.157   9.461   2.510
11980SOL    HW235899   2.193   9.329   2.575
11981SOL     OW35900   3.476   9.665   2.213
11981SOL    HW135901   3.524   9.600   2.264
11981SOL    HW235902   3.447   9.730   2.277
11982SOL     OW35903   3.376   9.568   1.974
11982SOL    HW135904   3.322   9.495   2.006
11982SOL    HW235905   3.412   9.608   2.054
11983SOL     OW35906   2.187   0.055   2.759
11983SOL    HW135907   2.265   0.111   2.771
11983SOL    HW235908   2.200   9.984   2.822
11984SOL     OW35909   2.226   9.821   2.906
11984SOL    HW135910   2.169   9.745   2.892
11984SOL    HW235911   2.299   9.807   2.846
11985SOL     OW35912   3.011   9.668   3.557
11985SOL    HW135913   2.954   9.726   3.608
11985SOL    HW235914   3.091   9.719   3.543
11986SOL     OW35915   3.019   9.503   3.333
11986SOL    HW135916   3.010   9.560   3.410
11986SOL    HW235917   3.064   9.557   3.268
11987SOL     OW35918   1.883   9.842   2.970
11987SOL    HW135919   1.958   9.814   2.917
11987SOL    HW235920   1.919   9.857   3.057
11988SOL     OW35921   2.130   9.809   3.587
11988SOL    HW135922   2.177   9.797   3.505
11988SOL    HW235923   2.169   9.888   3.626
11989SOL     OW35924   2.586   9.885   2.113
11989SOL    HW135925   2.645   9.811   2.100
11989SOL    HW235926   2.594   9.906   2.206
11990SOL     OW35927   3.492   9.903   3.044
11990SOL    HW135928   3.479   9.846   3.120
11990SOL    HW235929   3.576   9.875   3.007
11991SOL     OW35930   2.536   9.784   3.092
11991SOL    HW135931   2.491   9.704   3.065
11991SOL    HW235932   2.539   9.837   3.012
11992SOL     OW35933   3.612   9.476   2.361
11992SOL    HW135934   3.672   9.456   2.290
11992SOL    HW235935   3.585   9.391   2.395
11993SOL     OW35936   3.704   9.467   2.825
11993SOL    HW135937   3.733   9.379   2.805
11993SOL    HW235938   3.616   9.473   2.789
11994SOL     OW35939   2.110   9.620   2.578
11994SOL    HW135940   2.023   9.649   2.553
11994SOL    HW235941   2.110   9.622   2.673
11995SOL     OW35942   2.899   9.543   2.810
11995SOL    HW135943   2.897   9.494   2.728
11995SOL    HW235944   2.889   9.477   2.879
11996SOL     OW35945   3.616   9.686   3.263
11996SOL    HW135946   3.678   9.758   3.252
11996SOL    HW235947   3.643   9.620   3.199
11997SOL     OW35948   2.542   9.494   3.348
11997SOL    HW135949   2.627   9.468   3.312
11997SOL    HW235950   2.563   9.528   3.435
11998SOL     OW35951   1.946   9.638   1.865
11998SOL    HW135952   1.866   9.635   1.812
11998SOL    HW235953   1.994   9.713   1.830
11999SOL     OW35954   1.907   9.455   2.134
11999SOL    HW135955   1.890   9.525   2.072
11999SOL    HW235956   1.996   9.427   2.114
12000SOL     OW35957   2.604   9.847   3.545
12000SOL    HW135958   2.657   9.895   3.608
12000SOL    HW235959   2.607   9.756   3.575
12001SOL     OW35960   3.077   9.632   2.309
12001SOL    HW135961   3.137   9.558   2.312
12001SOL    HW235962   3.100   9.685   2.386
12002SOL     OW35963   3.602   9.668   3.537
12002SOL    HW135964   3.606   9.678   3.442
12002SOL    HW235965   3.528   9.609   3.551
12003SOL     OW35966   2.996   0.224   1.923
12003SOL    HW135967   2.997   0.320   1.917
12003SOL    HW235968   3.068   0.203   1.982
12004SOL     OW35969   3.673   9.481   3.097
12004SOL    HW135970   3.675   9.387   3.109
12004SOL    HW235971   3.684   9.494   3.002
12005SOL     OW35972   2.336   9.715   2.444
12005SOL    HW135973   2.335   9.673   2.358
12005SOL    HW235974   2.253   9.688   2.484
12006SOL     OW35975   2.197   9.909   3.166
12006SOL    HW135976   2.246   9.854   3.227
12006SOL    HW235977   2.221   9.877   3.079
12007SOL     OW35978   3.283   9.540   2.985
12007SOL    HW135979   3.296   9.454   3.026
12007SOL    HW235980   3.237   9.591   3.052
12008SOL     OW35981   2.871   9.321   2.984
12008SOL    HW135982   2.817   9.258   2.935
12008SOL    HW235983   2.958   9.282   2.986
12009SOL     OW35984   3.238   9.342   2.049
12009SOL    HW135985   3.278   9.268   2.003
12009SOL    HW235986   3.147   9.317   2.061
12010SOL     OW35987   3.150   9.774   2.534
12010SOL    HW135988   3.190   9.860   2.542
12010SOL    HW235989   3.146   9.741   2.624
12011SOL     OW35990   3.440   9.489   2.759
12011SOL    HW135991   3.388   9.523   2.832
12011SOL    HW235992   3.443   9.562   2.697
12012SOL     OW35993   2.070   9.607   4.724
12012SOL    HW135994   2.102   9.564   4.803
12012SOL    HW235995   1.986   9.565   4.705
12013SOL     OW35996   1.855   9.687   4.371
12013SOL    HW135997   1.778   9.705   4.425
12013SOL    HW235998   1.828   9.615   4.314
12014SOL     OW35999   3.489   9.912   3.942
12014SOL    HW136000   3.521   9.911   3.852
12014SOL    HW236001   3.502   9.823   3.974
12015SOL     OW36002   2.282   9.722   5.221
12015SOL    HW136003   2.366   9.677   5.215
12015SOL    HW236004   2.217   9.652   5.215
12016SOL     OW36005   3.469   9.726   4.480
12016SOL    HW136006   3.446   9.767   4.397
12016SOL    HW236007   3.433   9.784   4.547
12017SOL     OW36008   3.451   9.442   5.178
12017SOL    HW136009   3.494   9.517   5.139
12017SOL    HW236010   3.418   9.473   5.262
12018SOL     OW36011   1.892   9.973   4.329
12018SOL    HW136012   1.886   9.878   4.337
12018SOL    HW236013   1.986   9.992   4.329
12019SOL     OW36014   2.697   9.333   4.238
12019SOL    HW136015   2.732   9.419   4.213
12019SOL    HW236016   2.602   9.347   4.240
12020SOL     OW36017   2.207   9.549   5.561
12020SOL    HW136018   2.229   9.634   5.526
12020SOL    HW236019   2.112   9.553   5.578
12021SOL     OW36020   3.138   9.683   4.664
12021SOL    HW136021   3.050   9.646   4.664
12021SOL    HW236022   3.188   9.625   4.722
12022SOL     OW36023   2.712   9.832   5.156
12022SOL    HW136024   2.669   9.842   5.241
12022SOL    HW236025   2.640   9.822   5.094
12023SOL     OW36026   3.267   9.784   5.403
12023SOL    HW136027   3.312   9.829   5.475
12023SOL    HW236028   3.300   9.695   5.406
12024SOL     OW36029   2.873   9.763   4.950
12024SOL    HW136030   2.821   9.782   5.028
12024SOL    HW236031   2.818   9.703   4.899
12025SOL     OW36032   2.936   9.982   4.161
12025SOL    HW136033   2.990   0.023   4.229
12025SOL    HW236034   2.846   9.996   4.191
12026SOL     OW36035   2.750   9.661   3.911
12026SOL    HW136036   2.799   9.720   3.854
12026SOL    HW236037   2.751   9.577   3.866
12027SOL     OW36038   3.541   9.899   5.533
12027SOL    HW136039   3.584   9.969   5.484
12027SOL    HW236040   3.569   9.819   5.490
12028SOL     OW36041   2.411   9.473   4.638
12028SOL    HW136042   2.417   9.498   4.730
12028SOL    HW236043   2.411   9.556   4.590
12029SOL     OW36044   3.342   0.022   4.453
12029SOL    HW136045   3.334   9.973   4.535
12029SOL    HW236046   3.384   0.104   4.478
12030SOL     OW36047   2.061   9.558   5.220
12030SOL    HW136048   1.999   9.619   5.261
12030SOL    HW236049   2.032   9.472   5.249
12031SOL     OW36050   3.255   9.412   4.178
12031SOL    HW136051   3.255   9.388   4.086
12031SOL    HW236052   3.347   9.412   4.203
12032SOL     OW36053   3.363   9.523   5.434
12032SOL    HW136054   3.374   9.539   5.528
12032SOL    HW236055   3.298   9.453   5.430
12033SOL     OW36056   2.514   9.417   3.826
12033SOL    HW136057   2.564   9.341   3.855
12033SOL    HW236058   2.457   9.384   3.757
12034SOL     OW36059   2.621   9.573   5.473
12034SOL    HW136060   2.706   9.529   5.472
12034SOL    HW236061   2.575   9.536   5.548
12035SOL     OW36062   3.238   9.900   5.149
12035SOL    HW136063   3.239   9.867   5.239
12035SOL    HW236064   3.292   9.979   5.152
12036SOL     OW36065   2.799   9.800   4.619
12036SOL    HW136066   2.769   9.782   4.530
12036SOL    HW236067   2.837   9.718   4.649
12037SOL     OW36068   2.427   9.374   4.213
12037SOL    HW136069   2.350   9.376   4.270
12037SOL    HW236070   2.419   9.454   4.160
12038SOL     OW36071   2.147   9.363   3.908
12038SOL    HW136072   2.203   9.426   3.861
12038SOL    HW236073   2.209   9.304   3.951
12039SOL     OW36074   2.804   9.583   4.170
12039SOL    HW136075   2.782   9.611   4.081
12039SOL    HW236076   2.899   9.594   4.176
12040SOL     OW36077   2.936   9.947   5.289
12040SOL    HW136078   2.869   9.907   5.233
12040SOL    HW236079   2.978   0.012   5.232
12041SOL     OW36080   2.887   9.832   3.752
12041SOL    HW136081   2.867   9.920   3.721
12041SOL    HW236082   2.955   9.845   3.818
12042SOL     OW36083   1.936   9.892   5.101
12042SOL    HW136084   2.031   9.896   5.090
12042SOL    HW236085   1.911   9.982   5.124
12043SOL     OW36086   2.416   9.536   4.906
12043SOL    HW136087   2.459   9.486   4.976
12043SOL    HW236088   2.323   9.528   4.926
12044SOL     OW36089   2.721   9.767   4.366
12044SOL    HW136090   2.699   9.844   4.314
12044SOL    HW236091   2.743   9.700   4.302
12045SOL     OW36092   2.883   9.358   4.457
12045SOL    HW136093   2.822   9.354   4.384
12045SOL    HW236094   2.856   9.286   4.514
12046SOL     OW36095   3.339   9.873   4.676
12046SOL    HW136096   3.264   9.817   4.694
12046SOL    HW236097   3.381   9.885   4.761
12047SOL     OW36098   2.411   9.582   4.031
12047SOL    HW136099   2.445   9.529   3.960
12047SOL    HW236100   2.428   9.672   4.005
12048SOL     OW36101   2.783   9.391   5.105
12048SOL    HW136102   2.805   9.372   5.014
12048SOL    HW236103   2.862   9.432   5.140
12049SOL     OW36104   3.129   9.688   5.018
12049SOL    HW136105   3.168   9.764   5.060
12049SOL    HW236106   3.043   9.718   4.988
12050SOL     OW36107   2.410   9.762   4.576
12050SOL    HW136108   2.405   9.770   4.481
12050SOL    HW236109   2.476   9.826   4.602
12051SOL     OW36110   3.438   9.878   4.244
12051SOL    HW136111   3.401   9.939   4.307
12051SOL    HW236112   3.487   9.932   4.182
12052SOL     OW36113   2.861   9.445   5.487
12052SOL    HW136114   2.921   9.518   5.471
12052SOL    HW236115   2.910   9.367   5.463
12053SOL     OW36116   2.356   9.333   5.482
12053SOL    HW136117   2.304   9.281   5.421
12053SOL    HW236118   2.301   9.410   5.501
12054SOL     OW36119   3.059   9.841   3.969
12054SOL    HW136120   3.078   9.759   4.014
12054SOL    HW236121   3.013   9.895   4.034
12055SOL     OW36122   2.152   9.498   4.965
12055SOL    HW136123   2.112   9.525   5.047
12055SOL    HW236124   2.136   9.404   4.960
12056SOL     OW36125   2.581   9.931   4.722
12056SOL    HW136126   2.666   9.898   4.692
12056SOL    HW236127   2.586   0.026   4.705
12057SOL     OW36128   2.187   9.373   4.352
12057SOL    HW136129   2.157   9.461   4.372
12057SOL    HW236130   2.193   9.329   4.437
12058SOL     OW36131   3.476   9.665   4.074
12058SOL    HW136132   3.524   9.600   4.126
12058SOL    HW236133   3.447   9.730   4.139
12059SOL     OW36134   3.375   9.568   3.836
12059SOL    HW136135   3.321   9.496   3.868
12059SOL    HW236136   3.411   9.608   3.915
12060SOL     OW36137   2.188   0.056   4.621
12060SOL    HW136138   2.266   0.111   4.633
12060SOL    HW236139   2.200   9.984   4.684
12061SOL     OW36140   2.227   9.821   4.768
12061SOL    HW136141   2.169   9.746   4.754
12061SOL    HW236142   2.300   9.807   4.708
12062SOL     OW36143   3.010   9.668   5.419
12062SOL    HW136144   2.954   9.726   5.470
12062SOL    HW236145   3.090   9.718   5.405
12063SOL     OW36146   3.018   9.503   5.195
12063SOL    HW136147   3.009   9.559   5.271
12063SOL    HW236148   3.064   9.556   5.130
12064SOL     OW36149   1.883   9.843   4.832
12064SOL    HW136150   1.957   9.813   4.779
12064SOL    HW236151   1.919   9.858   4.919
12065SOL     OW36152   2.129   9.809   5.449
12065SOL    HW136153   2.177   9.797   5.367
12065SOL    HW236154   2.169   9.888   5.487
12066SOL     OW36155   2.586   9.885   3.975
12066SOL    HW136156   2.645   9.811   3.962
12066SOL    HW236157   2.593   9.905   4.068
12067SOL     OW36158   3.492   9.904   4.906
12067SOL    HW136159   3.479   9.846   4.981
12067SOL    HW236160   3.576   9.876   4.868
12068SOL     OW36161   2.536   9.784   4.954
12068SOL    HW136162   2.491   9.704   4.927
12068SOL    HW236163   2.539   9.837   4.874
12069SOL     OW36164   3.612   9.477   4.223
12069SOL    HW136165   3.672   9.456   4.151
12069SOL    HW236166   3.585   9.392   4.257
12070SOL     OW36167   3.705   9.467   4.687
12070SOL    HW136168   3.734   9.379   4.667
12070SOL    HW236169   3.616   9.472   4.651
12071SOL     OW36170   2.110   9.620   4.440
12071SOL    HW136171   2.023   9.649   4.415
12071SOL    HW236172   2.110   9.623   4.536
12072SOL     OW36173   2.899   9.543   4.672
12072SOL    HW136174   2.897   9.494   4.590
12072SOL    HW236175   2.888   9.477   4.740
12073SOL     OW36176   3.615   9.686   5.124
12073SOL    HW136177   3.678   9.757   5.113
12073SOL    HW236178   3.642   9.620   5.060
12074SOL     OW36179   2.542   9.494   5.210
12074SOL    HW136180   2.626   9.469   5.174
12074SOL    HW236181   2.563   9.528   5.297
12075SOL     OW36182   1.946   9.638   3.727
12075SOL    HW136183   1.866   9.635   3.674
12075SOL    HW236184   1.994   9.713   3.692
12076SOL     OW36185   1.907   9.455   3.996
12076SOL    HW136186   1.890   9.525   3.933
12076SOL    HW236187   1.996   9.426   3.976
12077SOL     OW36188   2.604   9.846   5.407
12077SOL    HW136189   2.657   9.894   5.471
12077SOL    HW236190   2.606   9.755   5.437
12078SOL     OW36191   3.077   9.632   4.171
12078SOL    HW136192   3.137   9.557   4.174
12078SOL    HW236193   3.100   9.684   4.248
12079SOL     OW36194   3.602   9.668   5.398
12079SOL    HW136195   3.605   9.678   5.303
12079SOL    HW236196   3.528   9.608   5.413
12080SOL     OW36197   2.997   0.222   3.786
12080SOL    HW136198   3.000   0.317   3.780
12080SOL    HW236199   3.069   0.199   3.844
12081SOL     OW36200   3.673   9.481   4.958
12081SOL    HW136201   3.675   9.387   4.971
12081SOL    HW236202   3.684   9.493   4.864
12082SOL     OW36203   2.335   9.715   4.306
12082SOL    HW136204   2.335   9.672   4.220
12082SOL    HW236205   2.253   9.688   4.346
12083SOL     OW36206   2.197   9.909   5.028
12083SOL    HW136207   2.246   9.854   5.089
12083SOL    HW236208   2.221   9.877   4.941
12084SOL     OW36209   3.283   9.540   4.847
12084SOL    HW136210   3.295   9.453   4.886
12084SOL    HW236211   3.237   9.590   4.914
12085SOL     OW36212   2.871   9.321   4.846
12085SOL    HW136213   2.817   9.258   4.797
12085SOL    HW236214   2.958   9.282   4.848
12086SOL     OW36215   3.238   9.342   3.911
12086SOL    HW136216   3.278   9.268   3.865
12086SOL    HW236217   3.147   9.317   3.923
12087SOL     OW36218   3.150   9.773   4.396
12087SOL    HW136219   3.190   9.860   4.404
12087SOL    HW236220   3.146   9.741   4.486
12088SOL     OW36221   3.440   9.489   4.621
12088SOL    HW136222   3.388   9.523   4.694
12088SOL    HW236223   3.443   9.561   4.559
12089SOL     OW36224   2.070   9.607   6.586
12089SOL    HW136225   2.102   9.563   6.665
12089SOL    HW236226   1.986   9.565   6.567
12090SOL     OW36227   1.855   9.687   6.233
12090SOL    HW136228   1.778   9.705   6.288
12090SOL    HW236229   1.828   9.615   6.176
12091SOL     OW36230   3.488   9.914   5.802
12091SOL    HW136231   3.522   9.911   5.713
12091SOL    HW236232   3.501   9.824   5.835
12092SOL     OW36233   2.282   9.722   7.083
12092SOL    HW136234   2.366   9.677   7.077
12092SOL    HW236235   2.217   9.652   7.077
12093SOL     OW36236   3.468   9.725   6.342
12093SOL    HW136237   3.445   9.766   6.259
12093SOL    HW236238   3.432   9.783   6.408
12094SOL     OW36239   3.451   9.442   7.040
12094SOL    HW136240   3.495   9.517   7.001
12094SOL    HW236241   3.418   9.473   7.124
12095SOL     OW36242   1.892   9.973   6.191
12095SOL    HW136243   1.886   9.878   6.199
12095SOL    HW236244   1.986   9.992   6.190
12096SOL     OW36245   2.697   9.334   6.100
12096SOL    HW136246   2.733   9.419   6.075
12096SOL    HW236247   2.602   9.347   6.103
12097SOL     OW36248   2.207   9.549   7.423
12097SOL    HW136249   2.230   9.635   7.388
12097SOL    HW236250   2.113   9.554   7.440
12098SOL     OW36251   3.138   9.682   6.526
12098SOL    HW136252   3.050   9.645   6.526
12098SOL    HW236253   3.188   9.625   6.584
12099SOL     OW36254   2.712   9.832   7.018
12099SOL    HW136255   2.669   9.842   7.103
12099SOL    HW236256   2.640   9.822   6.956
12100SOL     OW36257   3.268   9.785   7.265
12100SOL    HW136258   3.316   9.831   7.334
12100SOL    HW236259   3.301   9.695   7.268
12101SOL     OW36260   2.872   9.764   6.812
12101SOL    HW136261   2.821   9.783   6.890
12101SOL    HW236262   2.818   9.703   6.761
12102SOL     OW36263   2.937   9.982   6.024
12102SOL    HW136264   2.991   0.023   6.093
12102SOL    HW236265   2.847   9.996   6.053
12103SOL     OW36266   2.750   9.661   5.773
12103SOL    HW136267   2.799   9.720   5.716
12103SOL    HW236268   2.750   9.577   5.728
12104SOL     OW36269   3.538   9.899   7.395
12104SOL    HW136270   3.585   9.969   7.351
12104SOL    HW236271   3.567   9.819   7.352
12105SOL     OW36272   2.411   9.473   6.500
12105SOL    HW136273   2.417   9.498   6.592
12105SOL    HW236274   2.411   9.556   6.452
12106SOL     OW36275   3.344   0.023   6.315
12106SOL    HW136276   3.335   9.973   6.396
12106SOL    HW236277   3.385   0.105   6.341
12107SOL     OW36278   2.061   9.558   7.082
12107SOL    HW136279   1.999   9.619   7.123
12107SOL    HW236280   2.032   9.472   7.111
12108SOL     OW36281   3.255   9.412   6.040
12108SOL    HW136282   3.255   9.388   5.948
12108SOL    HW236283   3.347   9.411   6.065
12109SOL     OW36284   3.363   9.523   7.297
12109SOL    HW136285   3.374   9.539   7.390
12109SOL    HW236286   3.298   9.454   7.292
12110SOL     OW36287   2.514   9.417   5.688
12110SOL    HW136288   2.563   9.340   5.717
12110SOL    HW236289   2.457   9.384   5.619
12111SOL     OW36290   2.621   9.574   7.335
12111SOL    HW136291   2.706   9.529   7.334
12111SOL    HW236292   2.576   9.536   7.410
12112SOL     OW36293   3.238   9.900   7.010
12112SOL    HW136294   3.239   9.868   7.100
12112SOL    HW236295   3.292   9.979   7.013
12113SOL     OW36296   2.799   9.800   6.481
12113SOL    HW136297   2.769   9.781   6.392
12113SOL    HW236298   2.838   9.718   6.511
12114SOL     OW36299   2.427   9.374   6.075
12114SOL    HW136300   2.350   9.376   6.132
12114SOL    HW236301   2.419   9.454   6.022
12115SOL     OW36302   2.147   9.363   5.770
12115SOL    HW136303   2.203   9.426   5.723
12115SOL    HW236304   2.209   9.304   5.813
12116SOL     OW36305   2.804   9.583   6.032
12116SOL    HW136306   2.782   9.611   5.943
12116SOL    HW236307   2.899   9.594   6.038
12117SOL     OW36308   2.935   9.948   7.151
12117SOL    HW136309   2.869   9.908   7.095
12117SOL    HW236310   2.977   0.013   7.094
12118SOL     OW36311   2.888   9.832   5.614
12118SOL    HW136312   2.867   9.920   5.583
12118SOL    HW236313   2.955   9.845   5.681
12119SOL     OW36314   1.936   9.892   6.963
12119SOL    HW136315   2.031   9.895   6.952
12119SOL    HW236316   1.912   9.981   6.988
12120SOL     OW36317   2.416   9.536   6.768
12120SOL    HW136318   2.459   9.486   6.837
12120SOL    HW236319   2.322   9.528   6.788
12121SOL     OW36320   2.721   9.767   6.228
12121SOL    HW136321   2.699   9.844   6.176
12121SOL    HW236322   2.743   9.700   6.164
12122SOL     OW36323   2.883   9.358   6.319
12122SOL    HW136324   2.821   9.354   6.245
12122SOL    HW236325   2.856   9.286   6.376
12123SOL     OW36326   3.339   9.873   6.537
12123SOL    HW136327   3.264   9.817   6.555
12123SOL    HW236328   3.381   9.885   6.622
12124SOL     OW36329   2.410   9.582   5.893
12124SOL    HW136330   2.445   9.529   5.822
12124SOL    HW236331   2.428   9.672   5.867
12125SOL     OW36332   2.783   9.391   6.967
12125SOL    HW136333   2.805   9.372   6.876
12125SOL    HW236334   2.862   9.432   7.002
12126SOL     OW36335   3.129   9.688   6.880
12126SOL    HW136336   3.168   9.764   6.922
12126SOL    HW236337   3.043   9.718   6.849
12127SOL     OW36338   2.410   9.763   6.438
12127SOL    HW136339   2.406   9.771   6.343
12127SOL    HW236340   2.476   9.826   6.464
12128SOL     OW36341   3.438   9.879   6.106
12128SOL    HW136342   3.402   9.940   6.170
12128SOL    HW236343   3.490   9.933   6.047
12129SOL     OW36344   2.861   9.446   7.349
12129SOL    HW136345   2.922   9.518   7.333
12129SOL    HW236346   2.910   9.367   7.325
12130SOL     OW36347   2.356   9.333   7.344
12130SOL    HW136348   2.304   9.281   7.283
12130SOL    HW236349   2.301   9.410   7.363
12131SOL     OW36350   3.059   9.842   5.831
12131SOL    HW136351   3.078   9.760   5.876
12131SOL    HW236352   3.014   9.895   5.896
12132SOL     OW36353   2.151   9.498   6.827
12132SOL    HW136354   2.112   9.525   6.909
12132SOL    HW236355   2.136   9.404   6.822
12133SOL     OW36356   2.582   9.931   6.585
12133SOL    HW136357   2.666   9.897   6.555
12133SOL    HW236358   2.588   0.025   6.570
12134SOL     OW36359   2.187   9.373   6.214
12134SOL    HW136360   2.157   9.461   6.235
12134SOL    HW236361   2.193   9.329   6.299
12135SOL     OW36362   3.476   9.667   5.936
12135SOL    HW136363   3.523   9.602   5.987
12135SOL    HW236364   3.447   9.732   6.000
12136SOL     OW36365   3.375   9.569   5.698
12136SOL    HW136366   3.322   9.496   5.730
12136SOL    HW236367   3.411   9.609   5.777
12137SOL     OW36368   2.187   0.055   6.483
12137SOL    HW136369   2.264   0.111   6.495
12137SOL    HW236370   2.200   9.984   6.546
12138SOL     OW36371   2.226   9.821   6.630
12138SOL    HW136372   2.169   9.745   6.616
12138SOL    HW236373   2.299   9.807   6.570
12139SOL     OW36374   3.011   9.668   7.281
12139SOL    HW136375   2.955   9.726   7.332
12139SOL    HW236376   3.091   9.719   7.267
12140SOL     OW36377   3.018   9.503   7.057
12140SOL    HW136378   3.010   9.560   7.134
12140SOL    HW236379   3.064   9.557   6.992
12141SOL     OW36380   1.883   9.843   6.694
12141SOL    HW136381   1.958   9.814   6.642
12141SOL    HW236382   1.919   9.858   6.781
12142SOL     OW36383   2.131   9.810   7.311
12142SOL    HW136384   2.177   9.796   7.229
12142SOL    HW236385   2.172   9.888   7.349
12143SOL     OW36386   2.587   9.886   5.836
12143SOL    HW136387   2.646   9.811   5.823
12143SOL    HW236388   2.594   9.905   5.930
12144SOL     OW36389   3.492   9.904   6.767
12144SOL    HW136390   3.479   9.847   6.842
12144SOL    HW236391   3.576   9.876   6.730
12145SOL     OW36392   2.535   9.784   6.817
12145SOL    HW136393   2.490   9.704   6.790
12145SOL    HW236394   2.539   9.837   6.737
12146SOL     OW36395   3.611   9.478   6.084
12146SOL    HW136396   3.672   9.457   6.013
12146SOL    HW236397   3.584   9.392   6.118
12147SOL     OW36398   3.704   9.467   6.549
12147SOL    HW136399   3.734   9.379   6.529
12147SOL    HW236400   3.616   9.472   6.513
12148SOL     OW36401   2.110   9.620   6.302
12148SOL    HW136402   2.023   9.649   6.277
12148SOL    HW236403   2.110   9.623   6.397
12149SOL     OW36404   2.899   9.543   6.534
12149SOL    HW136405   2.897   9.494   6.452
12149SOL    HW236406   2.888   9.477   6.603
12150SOL     OW36407   3.615   9.686   6.986
12150SOL    HW136408   3.678   9.757   6.975
12150SOL    HW236409   3.642   9.620   6.922
12151SOL     OW36410   2.542   9.494   7.073
12151SOL    HW136411   2.627   9.469   7.036
12151SOL    HW236412   2.563   9.528   7.160
12152SOL     OW36413   1.946   9.638   5.590
12152SOL    HW136414   1.866   9.634   5.537
12152SOL    HW236415   1.994   9.713   5.555
12153SOL     OW36416   1.907   9.455   5.858
12153SOL    HW136417   1.890   9.525   5.795
12153SOL    HW236418   1.996   9.426   5.838
12154SOL     OW36419   2.604   9.847   7.269
12154SOL    HW136420   2.658   9.895   7.332
12154SOL    HW236421   2.607   9.756   7.299
12155SOL     OW36422   3.078   9.632   6.032
12155SOL    HW136423   3.137   9.558   6.035
12155SOL    HW236424   3.101   9.684   6.109
12156SOL     OW36425   3.602   9.668   7.260
12156SOL    HW136426   3.606   9.678   7.165
12156SOL    HW236427   3.529   9.608   7.275
12157SOL     OW36428   3.001   0.221   5.645
12157SOL    HW136429   3.002   0.317   5.646
12157SOL    HW236430   3.072   0.196   5.704
12158SOL     OW36431   3.673   9.481   6.820
12158SOL    HW136432   3.674   9.386   6.833
12158SOL    HW236433   3.684   9.493   6.726
12159SOL     OW36434   2.335   9.716   6.167
12159SOL    HW136435   2.335   9.672   6.082
12159SOL    HW236436   2.253   9.688   6.208
12160SOL     OW36437   2.197   9.909   6.890
12160SOL    HW136438   2.247   9.854   6.951
12160SOL    HW236439   2.221   9.877   6.803
12161SOL     OW36440   3.283   9.540   6.709
12161SOL    HW136441   3.296   9.454   6.749
12161SOL    HW236442   3.237   9.591   6.776
12162SOL     OW36443   2.871   9.321   6.708
12162SOL    HW136444   2.817   9.258   6.660
12162SOL    HW236445   2.958   9.282   6.710
12163SOL     OW36446   3.239   9.342   5.772
12163SOL    HW136447   3.278   9.268   5.727
12163SOL    HW236448   3.147   9.317   5.785
12164SOL     OW36449   3.150   9.773   6.258
12164SOL    HW136450   3.189   9.860   6.266
12164SOL    HW236451   3.146   9.740   6.348
12165SOL     OW36452   3.440   9.489   6.483
12165SOL    HW136453   3.388   9.522   6.556
12165SOL    HW236454   3.443   9.561   6.421
12166SOL     OW36455   2.070   9.607   8.448
12166SOL    HW136456   2.102   9.563   8.527
12166SOL    HW236457   1.986   9.565   8.429
12167SOL     OW36458   1.855   9.687   8.095
12167SOL    HW136459   1.778   9.705   8.149
12167SOL    HW236460   1.828   9.615   8.038
12168SOL     OW36461   3.488   9.912   7.666
12168SOL    HW136462   3.521   9.910   7.576
12168SOL    HW236463   3.501   9.823   7.698
12169SOL     OW36464   2.282   9.720   8.947
12169SOL    HW136465   2.366   9.676   8.938
12169SOL    HW236466   2.217   9.650   8.939
12170SOL     OW36467   3.469   9.726   8.204
12170SOL    HW136468   3.446   9.767   8.121
12170SOL    HW236469   3.433   9.784   8.271
12171SOL     OW36470   3.450   9.442   8.902
12171SOL    HW136471   3.495   9.518   8.865
12171SOL    HW236472   3.418   9.473   8.987
12172SOL     OW36473   1.892   9.973   8.053
12172SOL    HW136474   1.886   9.878   8.061
12172SOL    HW236475   1.986   9.992   8.053
12173SOL     OW36476   2.697   9.333   7.962
12173SOL    HW136477   2.732   9.419   7.937
12173SOL    HW236478   2.602   9.347   7.964
12174SOL     OW36479   2.206   9.548   9.286
12174SOL    HW136480   2.229   9.634   9.250
12174SOL    HW236481   2.112   9.554   9.303
12175SOL     OW36482   3.138   9.683   8.388
12175SOL    HW136483   3.050   9.646   8.388
12175SOL    HW236484   3.188   9.625   8.446
12176SOL     OW36485   2.709   9.831   8.884
12176SOL    HW136486   2.665   9.842   8.968
12176SOL    HW236487   2.638   9.821   8.821
12177SOL     OW36488   3.267   9.782   9.127
12177SOL    HW136489   3.311   9.827   9.198
12177SOL    HW236490   3.300   9.692   9.129
12178SOL     OW36491   2.871   9.765   8.676
12178SOL    HW136492   2.819   9.783   8.754
12178SOL    HW236493   2.817   9.705   8.625
12179SOL     OW36494   2.937   9.982   7.885
12179SOL    HW136495   2.991   0.023   7.953
12179SOL    HW236496   2.847   9.996   7.915
12180SOL     OW36497   2.750   9.661   7.635
12180SOL    HW136498   2.799   9.719   7.578
12180SOL    HW236499   2.751   9.576   7.590
12181SOL     OW36500   3.542   9.901   9.255
12181SOL    HW136501   3.580   9.971   9.202
12181SOL    HW236502   3.570   9.820   9.213
12182SOL     OW36503   2.411   9.473   8.362
12182SOL    HW136504   2.418   9.499   8.454
12182SOL    HW236505   2.411   9.556   8.314
12183SOL     OW36506   3.342   0.022   8.177
12183SOL    HW136507   3.334   9.973   8.259
12183SOL    HW236508   3.383   0.104   8.202
12184SOL     OW36509   2.060   9.557   8.944
12184SOL    HW136510   1.999   9.618   8.985
12184SOL    HW236511   2.032   9.471   8.975
12185SOL     OW36512   3.255   9.412   7.902
12185SOL    HW136513   3.255   9.388   7.810
12185SOL    HW236514   3.347   9.412   7.927
12186SOL     OW36515   3.365   9.522   9.162
12186SOL    HW136516   3.375   9.542   9.255
12186SOL    HW236517   3.303   9.449   9.159
12187SOL     OW36518   2.514   9.417   7.550
12187SOL    HW136519   2.564   9.341   7.579
12187SOL    HW236520   2.457   9.384   7.481
12188SOL     OW36521   2.621   9.573   9.197
12188SOL    HW136522   2.707   9.530   9.195
12188SOL    HW236523   2.576   9.535   9.272
12189SOL     OW36524   3.240   9.899   8.873
12189SOL    HW136525   3.241   9.866   8.963
12189SOL    HW236526   3.294   9.978   8.875
12190SOL     OW36527   2.798   9.799   8.343
12190SOL    HW136528   2.768   9.781   8.254
12190SOL    HW236529   2.837   9.717   8.373
12191SOL     OW36530   2.427   9.374   7.936
12191SOL    HW136531   2.350   9.376   7.993
12191SOL    HW236532   2.419   9.454   7.884
12192SOL     OW36533   2.147   9.363   7.632
12192SOL    HW136534   2.203   9.426   7.585
12192SOL    HW236535   2.209   9.304   7.674
12193SOL     OW36536   2.804   9.583   7.894
12193SOL    HW136537   2.782   9.611   7.805
12193SOL    HW236538   2.898   9.594   7.901
12194SOL     OW36539   2.933   9.950   9.014
12194SOL    HW136540   2.867   9.909   8.958
12194SOL    HW236541   2.975   0.015   8.958
12195SOL     OW36542   2.888   9.832   7.476
12195SOL    HW136543   2.868   9.920   7.445
12195SOL    HW236544   2.955   9.844   7.542
12196SOL     OW36545   1.935   9.893   8.825
12196SOL    HW136546   2.030   9.896   8.814
12196SOL    HW236547   1.910   9.983   8.845
12197SOL     OW36548   2.416   9.536   8.630
12197SOL    HW136549   2.459   9.485   8.698
12197SOL    HW236550   2.323   9.528   8.649
12198SOL     OW36551   2.720   9.767   8.090
12198SOL    HW136552   2.699   9.844   8.038
12198SOL    HW236553   2.743   9.700   8.026
12199SOL     OW36554   2.883   9.358   8.181
12199SOL    HW136555   2.822   9.354   8.107
12199SOL    HW236556   2.856   9.286   8.238
12200SOL     OW36557   3.339   9.873   8.399
12200SOL    HW136558   3.264   9.817   8.418
12200SOL    HW236559   3.382   9.885   8.485
12201SOL     OW36560   2.411   9.582   7.756
12201SOL    HW136561   2.445   9.529   7.683
12201SOL    HW236562   2.429   9.673   7.730
12202SOL     OW36563   2.782   9.392   8.828
12202SOL    HW136564   2.804   9.372   8.737
12202SOL    HW236565   2.862   9.432   8.864
12203SOL     OW36566   3.128   9.688   8.742
12203SOL    HW136567   3.168   9.764   8.784
12203SOL    HW236568   3.043   9.719   8.712
12204SOL     OW36569   2.410   9.764   8.300
12204SOL    HW136570   2.406   9.771   8.205
12204SOL    HW236571   2.477   9.827   8.326
12205SOL     OW36572   3.438   9.878   7.968
12205SOL    HW136573   3.401   9.940   8.031
12205SOL    HW236574   3.487   9.933   7.907
12206SOL     OW36575   2.862   9.447   9.214
12206SOL    HW136576   2.922   9.519   9.195
12206SOL    HW236577   2.910   9.368   9.189
12207SOL     OW36578   2.356   9.334   9.206
12207SOL    HW136579   2.305   9.282   9.145
12207SOL    HW236580   2.301   9.410   9.225
12208SOL     OW36581   3.059   9.841   7.693
12208SOL    HW136582   3.078   9.759   7.739
12208SOL    HW236583   3.013   9.894   7.758
12209SOL     OW36584   2.152   9.498   8.689
12209SOL    HW136585   2.112   9.524   8.771
12209SOL    HW236586   2.137   9.404   8.684
12210SOL     OW36587   2.583   9.931   8.448
12210SOL    HW136588   2.666   9.895   8.418
12210SOL    HW236589   2.589   0.025   8.433
12211SOL     OW36590   2.187   9.373   8.076
12211SOL    HW136591   2.157   9.461   8.097
12211SOL    HW236592   2.193   9.329   8.161
12212SOL     OW36593   3.476   9.666   7.799
12212SOL    HW136594   3.524   9.600   7.850
12212SOL    HW236595   3.447   9.730   7.863
12213SOL     OW36596   3.376   9.568   7.560
12213SOL    HW136597   3.322   9.496   7.592
12213SOL    HW236598   3.412   9.608   7.640
12214SOL     OW36599   2.186   0.055   8.346
12214SOL    HW136600   2.263   0.111   8.356
12214SOL    HW236601   2.200   9.984   8.408
12215SOL     OW36602   2.227   9.821   8.493
12215SOL    HW136603   2.169   9.746   8.479
12215SOL    HW236604   2.300   9.807   8.433
12216SOL     OW36605   3.010   9.669   9.142
12216SOL    HW136606   2.954   9.728   9.192
12216SOL    HW236607   3.091   9.717   9.128
12217SOL     OW36608   3.018   9.503   8.919
12217SOL    HW136609   3.009   9.560   8.995
12217SOL    HW236610   3.064   9.556   8.854
12218SOL     OW36611   1.883   9.842   8.556
12218SOL    HW136612   1.958   9.813   8.503
12218SOL    HW236613   1.920   9.857   8.643
12219SOL     OW36614   2.126   9.807   9.169
12219SOL    HW136615   2.175   9.793   9.088
12219SOL    HW236616   2.162   9.887   9.206
12220SOL     OW36617   2.587   9.885   7.699
12220SOL    HW136618   2.646   9.811   7.685
12220SOL    HW236619   2.595   9.906   7.792
12221SOL     OW36620   3.492   9.903   8.629
12221SOL    HW136621   3.478   9.846   8.705
12221SOL    HW236622   3.576   9.874   8.593
12222SOL     OW36623   2.533   9.785   8.680
12222SOL    HW136624   2.490   9.704   8.653
12222SOL    HW236625   2.538   9.838   8.601
12223SOL     OW36626   3.612   9.477   7.947
12223SOL    HW136627   3.672   9.456   7.875
12223SOL    HW236628   3.585   9.392   7.981
12224SOL     OW36629   3.704   9.468   8.411
12224SOL    HW136630   3.734   9.379   8.391
12224SOL    HW236631   3.616   9.473   8.375
12225SOL     OW36632   2.111   9.620   8.164
12225SOL    HW136633   2.023   9.649   8.139
12225SOL    HW236634   2.110   9.623   8.259
12226SOL     OW36635   2.899   9.543   8.396
12226SOL    HW136636   2.897   9.493   8.314
12226SOL    HW236637   2.888   9.476   8.465
12227SOL     OW36638   3.616   9.686   8.850
12227SOL    HW136639   3.678   9.758   8.838
12227SOL    HW236640   3.643   9.620   8.786
12228SOL     OW36641   2.542   9.495   8.935
12228SOL    HW136642   2.626   9.469   8.898
12228SOL    HW236643   2.563   9.528   9.022
12229SOL     OW36644   1.946   9.639   7.451
12229SOL    HW136645   1.867   9.636   7.398
12229SOL    HW236646   1.995   9.714   7.416
12230SOL     OW36647   1.907   9.455   7.720
12230SOL    HW136648   1.890   9.525   7.658
12230SOL    HW236649   1.996   9.426   7.700
12231SOL     OW36650   2.598   9.848   9.137
12231SOL    HW136651   2.658   9.893   9.196
12231SOL    HW236652   2.603   9.756   9.163
12232SOL     OW36653   3.077   9.632   7.895
12232SOL    HW136654   3.137   9.558   7.898
12232SOL    HW236655   3.100   9.685   7.972
12233SOL     OW36656   3.602   9.668   9.123
12233SOL    HW136657   3.606   9.678   9.028
12233SOL    HW236658   3.528   9.608   9.138
12234SOL     OW36659   2.998   0.224   7.508
12234SOL    HW136660   2.998   0.320   7.505
12234SOL    HW236661   3.070   0.202   7.567
12235SOL     OW36662   3.674   9.482   8.683
12235SOL    HW136663   3.676   9.387   8.695
12235SOL    HW236664   3.684   9.494   8.588
12236SOL     OW36665   2.335   9.715   8.029
12236SOL    HW136666   2.335   9.673   7.944
12236SOL    HW236667   2.253   9.688   8.070
12237SOL     OW36668   2.197   9.909   8.753
12237SOL    HW136669   2.247   9.854   8.813
12237SOL    HW236670   2.220   9.877   8.666
12238SOL     OW36671   3.283   9.540   8.571
12238SOL    HW136672   3.295   9.454   8.611
12238SOL    HW236673   3.236   9.591   8.638
12239SOL     OW36674   2.870   9.321   8.570
12239SOL    HW136675   2.817   9.257   8.521
12239SOL    HW236676   2.958   9.282   8.572
12240SOL     OW36677   3.238   9.342   7.635
12240SOL    HW136678   3.278   9.268   7.589
12240SOL    HW236679   3.147   9.317   7.647
12241SOL     OW36680   3.150   9.774   8.120
12241SOL    HW136681   3.190   9.860   8.128
12241SOL    HW236682   3.146   9.741   8.210
12242SOL     OW36683   3.440   9.489   8.345
12242SOL    HW136684   3.388   9.523   8.418
12242SOL    HW236685   3.443   9.561   8.283
12243SOL     OW36686   3.492   9.916   9.524
12243SOL    HW136687   3.523   9.915   9.433
12243SOL    HW236688   3.503   9.826   9.554
12244SOL     OW36689   1.957   9.869   9.920
12244SOL    HW136690   1.939   9.873   9.826
12244SOL    HW236691   2.011   9.946   9.937
12245SOL     OW36692   2.684   9.348   9.826
12245SOL    HW136693   2.726   9.429   9.797
12245SOL    HW236694   2.591   9.370   9.830
12246SOL     OW36695   2.940   9.961   9.764
12246SOL    HW136696   2.971   9.947   9.853
12246SOL    HW236697   2.848   9.986   9.774
12247SOL     OW36698   2.757   9.654   9.491
12247SOL    HW136699   2.804   9.715   9.435
12247SOL    HW236700   2.761   9.570   9.445
12248SOL     OW36701   3.291   9.433   9.725
12248SOL    HW136702   3.285   9.391   9.639
12248SOL    HW236703   3.385   9.440   9.742
12249SOL     OW36704   2.518   9.412   9.411
12249SOL    HW136705   2.566   9.334   9.439
12249SOL    HW236706   2.459   9.382   9.342
12250SOL     OW36707   2.407   9.408   9.844
12250SOL    HW136708   2.314   9.409   9.866
12250SOL    HW236709   2.414   9.465   9.767
12251SOL     OW36710   2.150   9.369   9.498
12251SOL    HW136711   2.201   9.431   9.446
12251SOL    HW236712   2.214   9.316   9.543
12252SOL     OW36713   2.809   9.590   9.754
12252SOL    HW136714   2.784   9.613   9.664
12252SOL    HW236715   2.905   9.596   9.754
12253SOL     OW36716   2.890   9.834   9.337
12253SOL    HW136717   2.868   9.922   9.306
12253SOL    HW236718   2.957   9.849   9.404
12254SOL     OW36719   2.721   9.768   9.953
12254SOL    HW136720   2.692   9.846   9.907
12254SOL    HW236721   2.747   9.707   9.884
12255SOL     OW36722   2.426   9.568   9.625
12255SOL    HW136723   2.457   9.518   9.549
12255SOL    HW236724   2.437   9.660   9.599
12256SOL     OW36725   3.482   9.963   9.797
12256SOL    HW136726   3.401   0.012   9.812
12256SOL    HW236727   3.491   9.959   9.702
12257SOL     OW36728   3.062   9.849   9.554
12257SOL    HW136729   3.080   9.763   9.591
12257SOL    HW236730   3.019   9.897   9.624
12258SOL     OW36731   2.141   9.423   9.928
12258SOL    HW136732   2.075   9.491   9.940
12258SOL    HW236733   2.149   9.381   0.013
12259SOL     OW36734   3.473   9.686   9.670
12259SOL    HW136735   3.509   9.609   9.715
12259SOL    HW236736   3.447   9.744   9.741
12260SOL     OW36737   3.375   9.579   9.424
12260SOL    HW136738   3.322   9.503   9.451
12260SOL    HW236739   3.404   9.618   9.507
12261SOL     OW36740   2.210   9.802   0.276
12261SOL    HW136741   2.128   9.759   0.300
12261SOL    HW236742   2.276   9.732   0.281
12262SOL     OW36743   2.606   9.887   9.555
12262SOL    HW136744   2.657   9.808   9.540
12262SOL    HW236745   2.634   9.919   9.641
12263SOL     OW36746   3.572   9.453   9.777
12263SOL    HW136747   3.644   9.456   9.714
12263SOL    HW236748   3.587   9.372   9.826
12264SOL     OW36749   1.945   9.638   9.314
12264SOL    HW136750   1.865   9.634   9.261
12264SOL    HW236751   1.994   9.712   9.278
12265SOL     OW36752   1.904   9.458   9.582
12265SOL    HW136753   1.892   9.527   9.518
12265SOL    HW236754   1.994   9.427   9.568
12266SOL     OW36755   3.086   9.622   9.731
12266SOL    HW136756   3.152   9.554   9.718
12266SOL    HW236757   3.121   9.676   9.802
12267SOL     OW36758   2.991   0.238   9.370
12267SOL    HW136759   2.982   0.332   9.358
12267SOL    HW236760   3.057   0.228   9.439
12268SOL     OW36761   2.256   9.753   9.778
12268SOL    HW136762   2.292   9.668   9.750
12268SOL    HW236763   2.247   9.745   9.872
12269SOL     OW36764   3.240   9.342   9.473
12269SOL    HW136765   3.279   9.264   9.434
12269SOL    HW236766   3.150   9.316   9.494
12270SOL     OW36767   3.197   9.752   9.939
12270SOL    HW136768   3.125   9.794   9.986
12270SOL    HW236769   3.247   9.706   0.008
12271SOL     OW36770   3.910   0.606   0.148
12271SOL    HW136771   3.831   0.594   0.201
12271SOL    HW236772   3.895   0.551   0.071
12272SOL     OW36773   3.915   0.322   1.036
12272SOL    HW136774   3.960   0.270   1.103
12272SOL    HW236775   3.848   0.264   1.002
12273SOL     OW36776   3.712   0.420   0.654
12273SOL    HW136777   3.629   0.445   0.694
12273SOL    HW236778   3.691   0.342   0.603
12274SOL     OW36779   4.299   1.308   1.210
12274SOL    HW136780   4.217   1.311   1.161
12274SOL    HW236781   4.316   1.400   1.233
12275SOL     OW36782   5.314   1.524   0.706
12275SOL    HW136783   5.267   1.491   0.783
12275SOL    HW236784   5.248   1.527   0.637
12276SOL     OW36785   4.863   0.705   0.688
12276SOL    HW136786   4.907   0.790   0.679
12276SOL    HW236787   4.811   0.714   0.768
12277SOL     OW36788   5.500   0.583   0.222
12277SOL    HW136789   5.439   0.601   0.151
12277SOL    HW236790   5.459   0.512   0.272
12278SOL     OW36791   4.452   1.131   1.059
12278SOL    HW136792   4.393   1.171   1.123
12278SOL    HW236793   4.494   1.205   1.016
12279SOL     OW36794   4.609   0.738   1.826
12279SOL    HW136795   4.594   0.805   1.893
12279SOL    HW236796   4.627   0.788   1.746
12280SOL     OW36797   4.409   0.975   0.646
12280SOL    HW136798   4.476   0.977   0.714
12280SOL    HW236799   4.342   1.037   0.676
12281SOL     OW36800   4.435   1.149   1.833
12281SOL    HW136801   4.487   1.222   1.868
12281SOL    HW236802   4.360   1.191   1.792
12282SOL     OW36803   4.066   1.397   1.071
12282SOL    HW136804   3.990   1.354   1.031
12282SOL    HW236805   4.102   1.452   1.001
12283SOL     OW36806   5.177   1.506   1.372
12283SOL    HW136807   5.232   1.584   1.385
12283SOL    HW236808   5.105   1.517   1.434
12284SOL     OW36809   4.181   0.402   1.456
12284SOL    HW136810   4.258   0.349   1.475
12284SOL    HW236811   4.107   0.345   1.478
12285SOL     OW36812   5.309   0.463   0.749
12285SOL    HW136813   5.237   0.463   0.685
12285SOL    HW236814   5.286   0.532   0.811
12286SOL     OW36815   3.951   1.722   0.469
12286SOL    HW136816   3.968   1.796   0.527
12286SOL    HW236817   4.036   1.701   0.431
12287SOL     OW36818   4.859   1.342   1.697
12287SOL    HW136819   4.904   1.331   1.781
12287SOL    HW236820   4.806   1.262   1.688
12288SOL     OW36821   3.934   1.445   0.509
12288SOL    HW136822   3.925   1.540   0.519
12288SOL    HW236823   3.894   1.409   0.589
12289SOL     OW36824   4.005   1.088   0.881
12289SOL    HW136825   4.007   0.999   0.917
12289SOL    HW236826   3.950   1.137   0.943
12290SOL     OW36827   4.297   1.804   1.421
12290SOL    HW136828   4.221   1.784   1.475
12290SOL    HW236829   4.330   1.888   1.455
12291SOL     OW36830   4.291   0.951   0.174
12291SOL    HW136831   4.265   1.021   0.114
12291SOL    HW236832   4.349   0.993   0.237
12292SOL     OW36833   5.266   0.124   1.454
12292SOL    HW136834   5.330   0.175   1.405
12292SOL    HW236835   5.256   0.170   1.537
12293SOL     OW36836   3.846   0.657   0.576
12293SOL    HW136837   3.806   0.573   0.599
12293SOL    HW236838   3.837   0.710   0.655
12294SOL     OW36839   5.585   1.737   0.306
12294SOL    HW136840   5.655   1.716   0.368
12294SOL    HW236841   5.599   1.829   0.285
12295SOL     OW36842   3.790   1.575   0.085
12295SOL    HW136843   3.764   1.488   0.114
12295SOL    HW236844   3.764   1.633   0.157
12296SOL     OW36845   5.424   0.923   0.665
12296SOL    HW136846   5.506   0.876   0.646
12296SOL    HW236847   5.405   0.970   0.584
12297SOL     OW36848   5.387   1.091   0.441
12297SOL    HW136849   5.468   1.087   0.390
12297SOL    HW236850   5.402   1.160   0.505
12298SOL     OW36851   3.831   0.752   1.570
12298SOL    HW136852   3.913   0.801   1.569
12298SOL    HW236853   3.763   0.817   1.553
12299SOL     OW36854   4.340   1.382   0.756
12299SOL    HW136855   4.299   1.295   0.752
12299SOL    HW236856   4.335   1.415   0.666
12300SOL     OW36857   4.994   1.226   1.418
12300SOL    HW136858   5.021   1.158   1.357
12300SOL    HW236859   5.056   1.220   1.491
12301SOL     OW36860   4.535   0.054   0.582
12301SOL    HW136861   4.567   0.133   0.540
12301SOL    HW236862   4.441   0.053   0.561
12302SOL     OW36863   3.910   0.957   1.303
12302SOL    HW136864   3.999   0.926   1.285
12302SOL    HW236865   3.858   0.920   1.232
12303SOL     OW36866   5.209   1.033   0.236
12303SOL    HW136867   5.156   0.960   0.268
12303SOL    HW236868   5.275   1.047   0.305
12304SOL     OW36869   4.904   1.822   1.635
12304SOL    HW136870   4.905   1.884   1.562
12304SOL    HW236871   4.920   1.737   1.595
12305SOL     OW36872   4.043   0.258   1.772
12305SOL    HW136873   4.101   0.317   1.821
12305SOL    HW236874   3.960   0.260   1.821
12306SOL     OW36875   5.196   1.417   0.930
12306SOL    HW136876   5.133   1.436   0.999
12306SOL    HW236877   5.178   1.326   0.905
12307SOL     OW36878   5.366   1.797   0.564
12307SOL    HW136879   5.350   1.751   0.482
12307SOL    HW236880   5.365   1.729   0.631
12308SOL     OW36881   4.312   0.696   0.285
12308SOL    HW136882   4.314   0.783   0.244
12308SOL    HW236883   4.245   0.704   0.353
12309SOL     OW36884   5.006   0.392   0.941
12309SOL    HW136885   4.917   0.358   0.950
12309SOL    HW236886   5.060   0.333   0.993
12310SOL     OW36887   5.314   1.677   0.324
12310SOL    HW136888   5.408   1.687   0.309
12310SOL    HW236889   5.278   1.659   0.237
12311SOL     OW36890   4.518   0.615   1.444
12311SOL    HW136891   4.491   0.580   1.529
12311SOL    HW236892   4.494   0.546   1.381
12312SOL     OW36893   5.122   0.491   1.678
12312SOL    HW136894   5.127   0.531   1.765
12312SOL    HW236895   5.168   0.408   1.686
12313SOL     OW36896   4.669   0.879   1.594
12313SOL    HW136897   4.726   0.816   1.549
12313SOL    HW236898   4.621   0.922   1.523
12314SOL     OW36899   4.738   0.422   1.214
12314SOL    HW136900   4.646   0.429   1.240
12314SOL    HW236901   4.735   0.379   1.129
12315SOL     OW36902   4.790   0.707   0.419
12315SOL    HW136903   4.812   0.701   0.512
12315SOL    HW236904   4.703   0.667   0.412
12316SOL     OW36905   3.819   0.828   0.787
12316SOL    HW136906   3.900   0.819   0.836
12316SOL    HW236907   3.772   0.900   0.830
12317SOL     OW36908   3.834   1.879   1.587
12317SOL    HW136909   3.841   1.859   1.681
12317SOL    HW236910   3.748   1.844   1.562
12318SOL     OW36911   4.564   0.371   0.213
12318SOL    HW136912   4.547   0.417   0.131
12318SOL    HW236913   4.575   0.280   0.188
12319SOL     OW36914   5.414   0.565   1.836
12319SOL    HW136915   5.390   0.643   1.787
12319SOL    HW236916   5.437   0.500   1.769
12320SOL     OW36917   5.121   1.151   0.554
12320SOL    HW136918   5.199   1.139   0.500
12320SOL    HW236919   5.065   1.211   0.505
12321SOL     OW36920   4.260   0.222   0.927
12321SOL    HW136921   4.283   0.236   1.019
12321SOL    HW236922   4.274   0.308   0.886
12322SOL     OW36923   4.724   1.454   0.472
12322SOL    HW136924   4.700   1.530   0.419
12322SOL    HW236925   4.691   1.474   0.560
12323SOL     OW36926   4.077   1.817   0.880
12323SOL    HW136927   4.122   1.732   0.884
12323SOL    HW236928   4.145   1.881   0.901
12324SOL     OW36929   5.529   1.046   0.896
12324SOL    HW136930   5.482   1.027   0.814
12324SOL    HW236931   5.459   1.055   0.961
12325SOL     OW36932   4.941   1.543   1.517
12325SOL    HW136933   4.930   1.472   1.580
12325SOL    HW236934   4.874   1.526   1.450
12326SOL     OW36935   4.033   0.935   0.286
12326SOL    HW136936   4.117   0.941   0.239
12326SOL    HW236937   4.025   0.842   0.307
12327SOL     OW36938   5.206   0.768   0.717
12327SOL    HW136939   5.205   0.729   0.804
12327SOL    HW236940   5.287   0.820   0.715
12328SOL     OW36941   4.197   1.284   1.748
12328SOL    HW136942   4.173   1.288   1.655
12328SOL    HW236943   4.114   1.272   1.794
12329SOL     OW36944   4.828   1.784   0.181
12329SOL    HW136945   4.772   1.744   0.247
12329SOL    HW236946   4.867   1.710   0.134
12330SOL     OW36947   3.942   0.265   1.509
12330SOL    HW136948   3.874   0.332   1.510
12330SOL    HW236949   3.966   0.253   1.601
12331SOL     OW36950   5.353   1.371   0.111
12331SOL    HW136951   5.311   1.457   0.104
12331SOL    HW236952   5.287   1.310   0.077
12332SOL     OW36953   4.211   1.708   0.375
12332SOL    HW136954   4.247   1.784   0.421
12332SOL    HW236955   4.277   1.686   0.310
12333SOL     OW36956   5.121   0.148   0.409
12333SOL    HW136957   5.115   0.110   0.321
12333SOL    HW236958   5.174   0.085   0.459
12334SOL     OW36959   3.976   1.789   1.214
12334SOL    HW136960   4.025   1.714   1.249
12334SOL    HW236961   3.962   1.767   1.122
12335SOL     OW36962   4.670   1.702   0.891
12335SOL    HW136963   4.754   1.658   0.905
12335SOL    HW236964   4.629   1.651   0.821
12336SOL     OW36965   4.104   0.686   0.469
12336SOL    HW136966   4.126   0.594   0.478
12336SOL    HW236967   4.015   0.693   0.503
12337SOL     OW36968   5.226   0.230   1.718
12337SOL    HW136969   5.241   0.249   1.811
12337SOL    HW236970   5.154   0.167   1.718
12338SOL     OW36971   4.349   0.107   0.112
12338SOL    HW136972   4.445   0.108   0.108
12338SOL    HW236973   4.322   0.095   0.021
12339SOL     OW36974   4.482   0.266   1.771
12339SOL    HW136975   4.557   0.208   1.760
12339SOL    HW236976   4.434   0.230   1.846
12340SOL     OW36977   4.594   1.529   1.201
12340SOL    HW136978   4.575   1.487   1.117
12340SOL    HW236979   4.661   1.473   1.241
12341SOL     OW36980   5.062   0.594   1.431
12341SOL    HW136981   5.094   0.568   1.517
12341SOL    HW236982   5.095   0.683   1.419
12342SOL     OW36983   4.541   1.378   0.961
12342SOL    HW136984   4.627   1.374   0.919
12342SOL    HW236985   4.479   1.390   0.890
12343SOL     OW36986   4.659   0.522   0.896
12343SOL    HW136987   4.632   0.510   0.805
12343SOL    HW236988   4.682   0.434   0.925
12344SOL     OW36989   4.275   0.055   0.495
12344SOL    HW136990   4.193   0.040   0.542
12344SOL    HW236991   4.254   0.121   0.429
12345SOL     OW36992   5.147   1.199   0.031
12345SOL    HW136993   5.172   1.134   0.097
12345SOL    HW236994   5.066   1.238   0.065
12346SOL     OW36995   4.029   0.058   0.179
12346SOL    HW136996   4.072   0.118   0.239
12346SOL    HW236997   4.045   9.971   0.216
12347SOL     OW36998   4.666   0.268   0.459
12347SOL    HW136999   4.629   0.305   0.379
12347SOL    HW237000   4.759   0.292   0.457
12348SOL     OW37001   4.803   0.692   1.446
12348SOL    HW137002   4.739   0.621   1.453
12348SOL    HW237003   4.887   0.647   1.441
12349SOL     OW37004   4.929   1.588   0.801
12349SOL    HW137005   4.945   1.648   0.727
12349SOL    HW237006   5.002   1.604   0.861
12350SOL     OW37007   4.204   1.149   0.711
12350SOL    HW137008   4.140   1.127   0.779
12350SOL    HW237009   4.154   1.145   0.629
12351SOL     OW37010   4.976   1.793   0.613
12351SOL    HW137011   5.025   1.857   0.561
12351SOL    HW237012   4.907   1.844   0.655
12352SOL     OW37013   4.826   0.510   9.981
12352SOL    HW137014   4.730   0.506   9.985
12352SOL    HW237015   4.853   0.538   0.068
12353SOL     OW37016   3.826   0.537   1.398
12353SOL    HW137017   3.915   0.550   1.365
12353SOL    HW237018   3.812   0.608   1.460
12354SOL     OW37019   4.291   0.237   1.202
12354SOL    HW137020   4.334   0.189   1.273
12354SOL    HW237021   4.197   0.226   1.218
12355SOL     OW37022   4.592   0.471   0.640
12355SOL    HW137023   4.557   0.528   0.572
12355SOL    HW237024   4.613   0.390   0.595
12356SOL     OW37025   4.696   0.064   0.804
12356SOL    HW137026   4.639   0.059   0.727
12356SOL    HW237027   4.706   9.973   0.833
12357SOL     OW37028   5.154   1.153   0.854
12357SOL    HW137029   5.087   1.086   0.866
12357SOL    HW237030   5.165   1.159   0.759
12358SOL     OW37031   5.180   0.622   0.954
12358SOL    HW137032   5.119   0.549   0.961
12358SOL    HW237033   5.235   0.615   1.032
12359SOL     OW37034   5.584   0.793   0.377
12359SOL    HW137035   5.630   0.746   0.446
12359SOL    HW237036   5.541   0.725   0.325
12360SOL     OW37037   4.228   1.442   0.214
12360SOL    HW137038   4.146   1.398   0.235
12360SOL    HW237039   4.270   1.386   0.148
12361SOL     OW37040   5.436   1.272   0.629
12361SOL    HW137041   5.528   1.264   0.653
12361SOL    HW237042   5.411   1.361   0.656
12362SOL     OW37043   5.135   0.563   0.096
12362SOL    HW137044   5.062   0.552   0.157
12362SOL    HW237045   5.176   0.476   0.092
12363SOL     OW37046   4.212   0.244   0.299
12363SOL    HW137047   4.265   0.195   0.237
12363SOL    HW237048   4.196   0.328   0.256
12364SOL     OW37049   5.459   1.244   1.533
12364SOL    HW137050   5.547   1.210   1.519
12364SOL    HW237051   5.472   1.331   1.570
12365SOL     OW37052   4.766   1.357   1.337
12365SOL    HW137053   4.688   1.322   1.381
12365SOL    HW237054   4.839   1.311   1.377
12366SOL     OW37055   5.332   1.634   1.672
12366SOL    HW137056   5.320   1.671   1.584
12366SOL    HW237057   5.409   1.579   1.665
12367SOL     OW37058   4.874   1.241   1.106
12367SOL    HW137059   4.812   1.274   1.170
12367SOL    HW237060   4.841   1.271   1.021
12368SOL     OW37061   5.330   1.092   1.078
12368SOL    HW137062   5.322   1.158   1.146
12368SOL    HW237063   5.261   1.113   1.015
12369SOL     OW37064   4.610   0.163   1.372
12369SOL    HW137065   4.636   0.118   1.292
12369SOL    HW237066   4.693   0.188   1.414
12370SOL     OW37067   4.703   1.115   1.724
12370SOL    HW137068   4.613   1.132   1.751
12370SOL    HW237069   4.699   1.034   1.673
12371SOL     OW37070   4.447   1.055   0.378
12371SOL    HW137071   4.432   1.025   0.468
12371SOL    HW237072   4.527   1.011   0.351
12372SOL     OW37073   4.154   0.839   1.259
12372SOL    HW137074   4.222   0.844   1.327
12372SOL    HW237075   4.120   0.750   1.266
12373SOL     OW37076   4.995   0.375   1.284
12373SOL    HW137077   5.026   0.452   1.332
12373SOL    HW237078   4.906   0.397   1.257
12374SOL     OW37079   3.802   1.570   1.363
12374SOL    HW137080   3.771   1.641   1.307
12374SOL    HW237081   3.897   1.570   1.353
12375SOL     OW37082   4.040   1.127   0.489
12375SOL    HW137083   4.038   1.197   0.424
12375SOL    HW237084   4.045   1.046   0.438
12376SOL     OW37085   4.282   0.492   0.851
12376SOL    HW137086   4.286   0.549   0.773
12376SOL    HW237087   4.342   0.533   0.913
12377SOL     OW37088   4.973   1.349   0.418
12377SOL    HW137089   5.029   1.422   0.446
12377SOL    HW237090   4.885   1.375   0.443
12378SOL     OW37091   5.034   1.469   1.142
12378SOL    HW137092   5.081   1.475   1.225
12378SOL    HW237093   4.982   1.389   1.149
12379SOL     OW37094   5.258   0.633   0.476
12379SOL    HW137095   5.236   0.673   0.560
12379SOL    HW237096   5.217   0.690   0.411
12380SOL     OW37097   4.068   1.534   1.302
12380SOL    HW137098   4.061   1.481   1.223
12380SOL    HW237099   4.162   1.550   1.312
12381SOL     OW37100   4.169   0.728   1.626
12381SOL    HW137101   4.218   0.778   1.561
12381SOL    HW237102   4.221   0.649   1.640
12382SOL     OW37103   5.350   0.788   1.698
12382SOL    HW137104   5.262   0.826   1.690
12382SOL    HW237105   5.399   0.826   1.626
12383SOL     OW37106   4.685   0.077   1.774
12383SOL    HW137107   4.753   0.131   1.816
12383SOL    HW237108   4.728   0.041   1.696
12384SOL     OW37109   4.192   0.020   1.766
12384SOL    HW137110   4.251   0.013   1.690
12384SOL    HW237111   4.145   0.102   1.751
12385SOL     OW37112   4.315   0.881   1.036
12385SOL    HW137113   4.355   0.968   1.041
12385SOL    HW237114   4.258   0.876   1.114
12386SOL     OW37115   5.030   0.858   1.003
12386SOL    HW137116   4.941   0.832   0.979
12386SOL    HW237117   5.083   0.780   0.987
12387SOL     OW37118   4.908   0.526   0.248
12387SOL    HW137119   4.920   0.453   0.309
12387SOL    HW237120   4.869   0.595   0.302
12388SOL     OW37121   4.024   0.180   1.256
12388SOL    HW137122   3.990   0.211   1.340
12388SOL    HW237123   4.035   0.085   1.269
12389SOL     OW37124   3.772   1.313   1.267
12389SOL    HW137125   3.803   1.257   1.339
12389SOL    HW237126   3.776   1.401   1.303
12390SOL     OW37127   4.433   0.628   1.034
12390SOL    HW137128   4.514   0.625   0.983
12390SOL    HW237129   4.403   0.719   1.024
12391SOL     OW37130   5.476   0.968   1.869
12391SOL    HW137131   5.435   0.896   1.821
12391SOL    HW237132   5.413   0.989   1.938
12392SOL     OW37133   4.024   0.058   0.630
12392SOL    HW137134   4.004   0.152   0.627
12392SOL    HW237135   4.036   0.039   0.723
12393SOL     OW37136   5.353   0.400   0.365
12393SOL    HW137137   5.378   0.335   0.431
12393SOL    HW237138   5.316   0.473   0.415
12394SOL     OW37139   4.760   0.764   0.961
12394SOL    HW137140   4.738   0.779   1.053
12394SOL    HW237141   4.732   0.674   0.944
12395SOL     OW37142   4.704   1.566   1.735
12395SOL    HW137143   4.683   1.609   1.652
12395SOL    HW237144   4.743   1.482   1.709
12396SOL     OW37145   5.562   1.495   1.602
12396SOL    HW137146   5.589   1.524   1.515
12396SOL    HW237147   5.641   1.505   1.656
12397SOL     OW37148   4.074   0.913   1.809
12397SOL    HW137149   4.148   0.932   1.865
12397SOL    HW237150   4.106   0.845   1.749
12398SOL     OW37151   5.219   0.306   0.141
12398SOL    HW137152   5.192   0.215   0.152
12398SOL    HW237153   5.264   0.328   0.222
12399SOL     OW37154   5.046   0.813   0.035
12399SOL    HW137155   5.080   0.723   0.041
12399SOL    HW237156   5.111   0.859   9.982
12400SOL     OW37157   4.793   1.354   0.866
12400SOL    HW137158   4.803   1.281   0.805
12400SOL    HW237159   4.846   1.425   0.828
12401SOL     OW37160   4.046   0.815   0.945
12401SOL    HW137161   4.139   0.834   0.943
12401SOL    HW237162   4.041   0.724   0.976
12402SOL     OW37163   4.073   0.543   1.015
12402SOL    HW137164   4.015   0.467   1.012
12402SOL    HW237165   4.142   0.524   0.953
12403SOL     OW37166   4.859   0.408   1.653
12403SOL    HW137167   4.813   0.445   1.728
12403SOL    HW237168   4.947   0.445   1.659
12404SOL     OW37169   4.866   0.208   1.468
12404SOL    HW137170   4.858   0.272   1.539
12404SOL    HW237171   4.921   0.252   1.403
12405SOL     OW37172   3.740   1.291   0.172
12405SOL    HW137173   3.650   1.319   0.156
12405SOL    HW237174   3.732   1.209   0.220
12406SOL     OW37175   3.817   1.770   0.951
12406SOL    HW137176   3.783   1.696   0.901
12406SOL    HW237177   3.904   1.787   0.915
12407SOL     OW37178   4.208   1.572   0.905
12407SOL    HW137179   4.279   1.633   0.925
12407SOL    HW237180   4.250   1.504   0.851
12408SOL     OW37181   4.674   0.785   1.219
12408SOL    HW137182   4.736   0.769   1.290
12408SOL    HW237183   4.595   0.737   1.244
12409SOL     OW37184   3.741   0.523   1.130
12409SOL    HW137185   3.798   0.464   1.082
12409SOL    HW237186   3.785   0.538   1.213
12410SOL     OW37187   3.909   0.556   1.748
12410SOL    HW137188   3.995   0.550   1.706
12410SOL    HW237189   3.863   0.622   1.696
12411SOL     OW37190   5.114   0.921   1.652
12411SOL    HW137191   5.132   1.015   1.647
12411SOL    HW237192   5.106   0.894   1.561
12412SOL     OW37193   4.546   0.586   0.385
12412SOL    HW137194   4.551   0.510   0.327
12412SOL    HW237195   4.467   0.632   0.358
12413SOL     OW37196   5.350   0.605   1.170
12413SOL    HW137197   5.331   0.550   1.247
12413SOL    HW237198   5.438   0.579   1.143
12414SOL     OW37199   3.950   1.540   1.723
12414SOL    HW137200   3.926   1.588   1.802
12414SOL    HW237201   3.962   1.450   1.753
12415SOL     OW37202   4.462   0.450   1.236
12415SOL    HW137203   4.400   0.378   1.225
12415SOL    HW237204   4.442   0.510   1.164
12416SOL     OW37205   4.627   1.680   1.489
12416SOL    HW137206   4.607   1.632   1.409
12416SOL    HW237207   4.630   1.772   1.462
12417SOL     OW37208   4.174   0.484   0.160
12417SOL    HW137209   4.236   0.547   0.195
12417SOL    HW237210   4.089   0.528   0.166
12418SOL     OW37211   3.853   1.151   1.481
12418SOL    HW137212   3.858   1.112   1.568
12418SOL    HW237213   3.874   1.080   1.421
12419SOL     OW37214   5.027   1.037   1.209
12419SOL    HW137215   5.035   0.973   1.138
12419SOL    HW237216   4.973   1.107   1.172
12420SOL     OW37217   5.049   0.822   0.318
12420SOL    HW137218   4.964   0.800   0.356
12420SOL    HW237219   5.035   0.815   0.223
12421SOL     OW37220   5.511   1.724   1.171
12421SOL    HW137221   5.573   1.749   1.102
12421SOL    HW237222   5.479   1.638   1.143
12422SOL     OW37223   4.965   1.734   1.091
12422SOL    HW137224   5.049   1.764   1.057
12422SOL    HW237225   4.979   1.643   1.115
12423SOL     OW37226   3.829   1.250   1.010
12423SOL    HW137227   3.801   1.271   1.099
12423SOL    HW237228   3.759   1.196   0.975
12424SOL     OW37229   4.411   1.683   1.749
12424SOL    HW137230   4.348   1.754   1.736
12424SOL    HW237231   4.484   1.706   1.691
12425SOL     OW37232   4.620   0.117   0.128
12425SOL    HW137233   4.707   0.146   0.099
12425SOL    HW237234   4.638   0.044   0.187
12426SOL     OW37235   5.495   0.194   0.523
12426SOL    HW137236   5.511   0.182   0.429
12426SOL    HW237237   5.536   0.118   0.564
12427SOL     OW37238   5.124   1.571   0.504
12427SOL    HW137239   5.181   1.606   0.435
12427SOL    HW237240   5.071   1.646   0.530
12428SOL     OW37241   3.858   1.807   1.844
12428SOL    HW137242   3.817   1.731   1.885
12428SOL    HW237243   3.908   1.848   1.914
12429SOL     OW37244   5.001   0.938   0.669
12429SOL    HW137245   5.074   0.878   0.683
12429SOL    HW237246   5.038   1.010   0.618
12430SOL     OW37247   4.507   1.280   1.413
12430SOL    HW137248   4.481   1.328   1.492
12430SOL    HW237249   4.433   1.290   1.354
12431SOL     OW37250   4.409   1.637   0.188
12431SOL    HW137251   4.413   1.652   0.094
12431SOL    HW237252   4.353   1.560   0.198
12432SOL     OW37253   5.340   1.730   1.402
12432SOL    HW137254   5.397   1.730   1.325
12432SOL    HW237255   5.324   1.823   1.420
12433SOL     OW37256   5.576   0.154   0.963
12433SOL    HW137257   5.607   0.082   0.909
12433SOL    HW237258   5.490   0.176   0.926
12434SOL     OW37259   3.969   0.321   0.700
12434SOL    HW137260   3.883   0.361   0.688
12434SOL    HW237261   3.978   0.312   0.795
12435SOL     OW37262   4.940   1.568   0.052
12435SOL    HW137263   4.927   1.478   0.083
12435SOL    HW237264   4.952   1.559   9.958
12436SOL     OW37265   4.548   1.011   1.387
12436SOL    HW137266   4.586   1.000   1.300
12436SOL    HW237267   4.537   1.106   1.397
12437SOL     OW37268   4.668   0.929   0.295
12437SOL    HW137269   4.716   0.945   0.214
12437SOL    HW237270   4.714   0.856   0.336
12438SOL     OW37271   5.212   1.612   0.074
12438SOL    HW137272   5.117   1.604   0.082
12438SOL    HW237273   5.228   1.620   9.980
12439SOL     OW37274   4.086   1.313   1.502
12439SOL    HW137275   4.079   1.386   1.441
12439SOL    HW237276   4.009   1.260   1.485
12440SOL     OW37277   5.322   1.290   1.277
12440SOL    HW137278   5.377   1.266   1.352
12440SOL    HW237279   5.263   1.357   1.311
12441SOL     OW37280   4.798   1.121   0.730
12441SOL    HW137281   4.722   1.071   0.761
12441SOL    HW237282   4.860   1.054   0.701
12442SOL     OW37283   4.751   0.260   0.984
12442SOL    HW137284   4.735   0.211   0.904
12442SOL    HW237285   4.746   0.195   1.054
12443SOL     OW37286   4.345   1.485   0.506
12443SOL    HW137287   4.386   1.430   0.439
12443SOL    HW237288   4.275   1.531   0.460
12444SOL     OW37289   5.465   0.371   1.389
12444SOL    HW137290   5.538   0.431   1.378
12444SOL    HW237291   5.479   0.303   1.322
12445SOL     OW37292   3.993   1.315   0.283
12445SOL    HW137293   3.909   1.315   0.236
12445SOL    HW237294   3.977   1.367   0.361
12446SOL     OW37295   3.846   1.047   1.736
12446SOL    HW137296   3.769   1.018   1.785
12446SOL    HW237297   3.918   0.994   1.770
12447SOL     OW37298   4.385   0.230   1.510
12447SOL    HW137299   4.464   0.204   1.461
12447SOL    HW237300   4.417   0.247   1.599
12448SOL     OW37301   3.814   0.440   9.936
12448SOL    HW137302   3.744   0.375   9.925
12448SOL    HW237303   3.890   0.400   9.894
12449SOL     OW37304   5.138   0.857   1.388
12449SOL    HW137305   5.085   0.916   1.333
12449SOL    HW237306   5.226   0.862   1.350
12450SOL     OW37307   4.919   1.312   0.144
12450SOL    HW137308   4.829   1.281   0.137
12450SOL    HW237309   4.937   1.309   0.238
12451SOL     OW37310   4.351   0.831   1.444
12451SOL    HW137311   4.409   0.905   1.432
12451SOL    HW237312   4.409   0.755   1.445
12452SOL     OW37313   5.211   1.803   0.993
12452SOL    HW137314   5.239   1.877   0.939
12452SOL    HW237315   5.293   1.757   1.014
12453SOL     OW37316   4.442   0.541   1.696
12453SOL    HW137317   4.490   0.599   1.755
12453SOL    HW237318   4.457   0.453   1.730
12454SOL     OW37319   5.192   1.184   1.620
12454SOL    HW137320   5.185   1.207   1.712
12454SOL    HW237321   5.282   1.208   1.596
12455SOL     OW37322   4.078   1.747   1.580
12455SOL    HW137323   3.996   1.793   1.562
12455SOL    HW237324   4.051   1.663   1.618
12456SOL     OW37325   5.378   0.877   1.253
12456SOL    HW137326   5.375   0.793   1.208
12456SOL    HW237327   5.366   0.942   1.184
12457SOL     OW37328   4.933   0.340   0.453
12457SOL    HW137329   4.998   0.271   0.437
12457SOL    HW237330   4.966   0.386   0.530
12458SOL     OW37331   4.297   0.716   0.678
12458SOL    HW137332   4.342   0.800   0.667
12458SOL    HW237333   4.232   0.713   0.609
12459SOL     OW37334   5.465   0.356   1.662
12459SOL    HW137335   5.466   0.368   1.567
12459SOL    HW237336   5.385   0.305   1.679
12460SOL     OW37337   5.482   0.926   1.503
12460SOL    HW137338   5.466   1.019   1.517
12460SOL    HW237339   5.454   0.910   1.413
12461SOL     OW37340   4.623   1.417   0.045
12461SOL    HW137341   4.538   1.377   0.026
12461SOL    HW237342   4.615   1.449   0.135
12462SOL     OW37343   4.391   1.768   0.929
12462SOL    HW137344   4.373   1.862   0.919
12462SOL    HW237345   4.487   1.762   0.926
12463SOL     OW37346   4.596   0.976   0.857
12463SOL    HW137347   4.648   0.905   0.893
12463SOL    HW237348   4.551   1.014   0.933
12464SOL     OW37349   4.821   0.966   0.070
12464SOL    HW137350   4.818   1.021   9.991
12464SOL    HW237351   4.897   0.910   0.056
12465SOL     OW37352   5.555   1.557   0.840
12465SOL    HW137353   5.479   1.549   0.783
12465SOL    HW237354   5.536   1.503   0.916
12466SOL     OW37355   3.936   1.286   1.836
12466SOL    HW137356   3.905   1.206   1.793
12466SOL    HW237357   3.877   1.298   1.910
12467SOL     OW37358   3.842   1.220   0.670
12467SOL    HW137359   3.872   1.179   0.752
12467SOL    HW237360   3.902   1.186   0.604
12468SOL     OW37361   4.414   1.419   1.633
12468SOL    HW137362   4.338   1.380   1.674
12468SOL    HW237363   4.419   1.507   1.669
12469SOL     OW37364   5.484   0.150   1.228
12469SOL    HW137365   5.435   0.068   1.221
12469SOL    HW237366   5.527   0.159   1.143
12470SOL     OW37367   4.147   0.426   0.512
12470SOL    HW137368   4.173   0.352   0.457
12470SOL    HW237369   4.094   0.387   0.581
12471SOL     OW37370   5.418   1.481   1.083
12471SOL    HW137371   5.341   1.461   1.030
12471SOL    HW237372   5.419   1.413   1.150
12472SOL     OW37373   4.069   0.582   1.288
12472SOL    HW137374   4.123   0.521   1.338
12472SOL    HW237375   4.084   0.557   1.196
12473SOL     OW37376   4.560   1.595   0.664
12473SOL    HW137377   4.547   1.676   0.615
12473SOL    HW237378   4.484   1.542   0.641
12474SOL     OW37379   5.158   0.238   1.112
12474SOL    HW137380   5.194   0.161   1.157
12474SOL    HW237381   5.108   0.284   1.179
12475SOL     OW37382   4.750   0.040   1.160
12475SOL    HW137383   4.720   9.949   1.157
12475SOL    HW237384   4.844   0.035   1.178
12476SOL     OW37385   4.501   1.327   0.342
12476SOL    HW137386   4.479   1.234   0.347
12476SOL    HW237387   4.586   1.334   0.387
12477SOL     OW37388   4.339   1.570   1.288
12477SOL    HW137389   4.334   1.654   1.334
12477SOL    HW237390   4.429   1.566   1.255
12478SOL     OW37391   5.097   0.045   0.154
12478SOL    HW137392   5.114   0.018   0.064
12478SOL    HW237393   5.049   9.971   0.192
12479SOL     OW37394   5.024   0.476   0.676
12479SOL    HW137395   4.972   0.556   0.675
12479SOL    HW237396   5.015   0.443   0.766
12480SOL     OW37397   5.324   0.224   0.882
12480SOL    HW137398   5.267   0.237   0.958
12480SOL    HW237399   5.321   0.308   0.835
12481SOL     OW37400   3.767   1.042   0.295
12481SOL    HW137401   3.863   1.040   0.295
12481SOL    HW237402   3.741   0.957   0.330
12482SOL     OW37403   4.630   1.681   0.345
12482SOL    HW137404   4.552   1.665   0.292
12482SOL    HW237405   4.605   1.751   0.405
12483SOL     OW37406   3.935   0.635   2.015
12483SOL    HW137407   3.848   0.619   2.051
12483SOL    HW237408   3.924   0.622   1.920
12484SOL     OW37409   3.916   0.321   2.896
12484SOL    HW137410   3.961   0.270   2.963
12484SOL    HW237411   3.847   0.263   2.863
12485SOL     OW37412   3.712   0.409   2.501
12485SOL    HW137413   3.629   0.433   2.542
12485SOL    HW237414   3.690   0.334   2.446
12486SOL     OW37415   4.299   1.308   3.071
12486SOL    HW137416   4.217   1.311   3.022
12486SOL    HW237417   4.316   1.400   3.095
12487SOL     OW37418   5.312   1.524   2.567
12487SOL    HW137419   5.265   1.493   2.644
12487SOL    HW237420   5.246   1.528   2.498
12488SOL     OW37421   4.861   0.707   2.549
12488SOL    HW137422   4.907   0.790   2.538
12488SOL    HW237423   4.811   0.717   2.630
12489SOL     OW37424   5.528   0.587   2.078
12489SOL    HW137425   5.491   0.586   1.990
12489SOL    HW237426   5.487   0.514   2.123
12490SOL     OW37427   4.452   1.132   2.920
12490SOL    HW137428   4.394   1.172   2.984
12490SOL    HW237429   4.493   1.206   2.876
12491SOL     OW37430   4.608   0.740   3.688
12491SOL    HW137431   4.594   0.808   3.754
12491SOL    HW237432   4.626   0.789   3.607
12492SOL     OW37433   4.409   0.982   2.507
12492SOL    HW137434   4.476   0.983   2.575
12492SOL    HW237435   4.342   1.044   2.538
12493SOL     OW37436   4.436   1.151   3.697
12493SOL    HW137437   4.488   1.224   3.732
12493SOL    HW237438   4.361   1.193   3.656
12494SOL     OW37439   4.067   1.397   2.932
12494SOL    HW137440   3.991   1.354   2.892
12494SOL    HW237441   4.103   1.452   2.862
12495SOL     OW37442   5.178   1.506   3.234
12495SOL    HW137443   5.233   1.583   3.247
12495SOL    HW237444   5.106   1.517   3.296
12496SOL     OW37445   4.181   0.403   3.319
12496SOL    HW137446   4.258   0.350   3.337
12496SOL    HW237447   4.107   0.345   3.340
12497SOL     OW37448   5.313   0.458   2.606
12497SOL    HW137449   5.243   0.463   2.542
12497SOL    HW237450   5.297   0.532   2.665
12498SOL     OW37451   3.942   1.728   2.327
12498SOL    HW137452   3.969   1.799   2.385
12498SOL    HW237453   4.016   1.717   2.267
12499SOL     OW37454   4.860   1.341   3.558
12499SOL    HW137455   4.905   1.330   3.641
12499SOL    HW237456   4.806   1.262   3.549
12500SOL     OW37457   3.957   1.457   2.395
12500SOL    HW137458   3.936   1.551   2.398
12500SOL    HW237459   3.907   1.419   2.467
12501SOL     OW37460   4.009   1.090   2.740
12501SOL    HW137461   4.010   1.000   2.774
12501SOL    HW237462   3.953   1.138   2.801
12502SOL     OW37463   4.298   1.803   3.284
12502SOL    HW137464   4.221   1.784   3.338
12502SOL    HW237465   4.330   1.887   3.318
12503SOL     OW37466   4.288   0.988   2.015
12503SOL    HW137467   4.339   1.030   1.946
12503SOL    HW237468   4.328   1.019   2.096
12504SOL     OW37469   5.265   0.123   3.315
12504SOL    HW137470   5.330   0.173   3.266
12504SOL    HW237471   5.256   0.171   3.398
12505SOL     OW37472   3.844   0.662   2.428
12505SOL    HW137473   3.810   0.575   2.450
12505SOL    HW237474   3.838   0.712   2.510
12506SOL     OW37475   5.570   1.743   2.180
12506SOL    HW137476   5.642   1.728   2.241
12506SOL    HW237477   5.577   1.836   2.157
12507SOL     OW37478   3.784   1.580   1.972
12507SOL    HW137479   3.763   1.489   1.991
12507SOL    HW237480   3.752   1.628   2.049
12508SOL     OW37481   5.423   0.927   2.517
12508SOL    HW137482   5.504   0.883   2.495
12508SOL    HW237483   5.402   0.979   2.439
12509SOL     OW37484   5.381   1.105   2.295
12509SOL    HW137485   5.466   1.097   2.251
12509SOL    HW237486   5.395   1.171   2.364
12510SOL     OW37487   3.831   0.751   3.431
12510SOL    HW137488   3.913   0.800   3.429
12510SOL    HW237489   3.763   0.817   3.415
12511SOL     OW37490   4.346   1.398   2.593
12511SOL    HW137491   4.305   1.312   2.597
12511SOL    HW237492   4.331   1.427   2.503
12512SOL     OW37493   4.994   1.226   3.280
12512SOL    HW137494   5.021   1.157   3.219
12512SOL    HW237495   5.056   1.220   3.352
12513SOL     OW37496   4.542   0.034   2.399
12513SOL    HW137497   4.572   0.122   2.378
12513SOL    HW237498   4.446   0.040   2.396
12514SOL     OW37499   3.910   0.957   3.165
12514SOL    HW137500   3.999   0.926   3.148
12514SOL    HW237501   3.859   0.923   3.092
12515SOL     OW37502   5.260   1.015   2.062
12515SOL    HW137503   5.191   0.955   2.091
12515SOL    HW237504   5.302   1.045   2.142
12516SOL     OW37505   4.900   1.821   3.499
12516SOL    HW137506   4.903   1.884   3.427
12516SOL    HW237507   4.918   1.737   3.457
12517SOL     OW37508   4.041   0.258   3.632
12517SOL    HW137509   4.100   0.316   3.682
12517SOL    HW237510   3.959   0.260   3.682
12518SOL     OW37511   5.196   1.418   2.792
12518SOL    HW137512   5.133   1.437   2.861
12518SOL    HW237513   5.179   1.327   2.768
12519SOL     OW37514   5.362   1.796   2.424
12519SOL    HW137515   5.345   1.749   2.342
12519SOL    HW237516   5.362   1.727   2.491
12520SOL     OW37517   4.309   0.710   2.136
12520SOL    HW137518   4.309   0.797   2.096
12520SOL    HW237519   4.244   0.716   2.206
12521SOL     OW37520   5.006   0.391   2.800
12521SOL    HW137521   4.917   0.356   2.808
12521SOL    HW237522   5.060   0.332   2.853
12522SOL     OW37523   5.303   1.673   2.181
12522SOL    HW137524   5.397   1.688   2.170
12522SOL    HW237525   5.270   1.661   2.092
12523SOL     OW37526   4.518   0.614   3.305
12523SOL    HW137527   4.492   0.580   3.391
12523SOL    HW237528   4.494   0.546   3.243
12524SOL     OW37529   5.122   0.491   3.539
12524SOL    HW137530   5.128   0.531   3.626
12524SOL    HW237531   5.169   0.408   3.547
12525SOL     OW37532   4.669   0.880   3.455
12525SOL    HW137533   4.725   0.817   3.411
12525SOL    HW237534   4.620   0.923   3.384
12526SOL     OW37535   4.738   0.418   3.071
12526SOL    HW137536   4.647   0.426   3.099
12526SOL    HW237537   4.733   0.375   2.986
12527SOL     OW37538   4.779   0.704   2.282
12527SOL    HW137539   4.801   0.699   2.375
12527SOL    HW237540   4.693   0.661   2.276
12528SOL     OW37541   3.818   0.825   2.647
12528SOL    HW137542   3.899   0.817   2.697
12528SOL    HW237543   3.771   0.897   2.689
12529SOL     OW37544   3.833   1.880   3.449
12529SOL    HW137545   3.840   1.859   3.542
12529SOL    HW237546   3.747   1.847   3.424
12530SOL     OW37547   4.611   0.361   2.067
12530SOL    HW137548   4.653   0.419   2.004
12530SOL    HW237549   4.617   0.274   2.027
12531SOL     OW37550   5.413   0.565   3.698
12531SOL    HW137551   5.390   0.644   3.649
12531SOL    HW237552   5.437   0.501   3.631
12532SOL     OW37553   5.117   1.151   2.405
12532SOL    HW137554   5.197   1.139   2.353
12532SOL    HW237555   5.064   1.211   2.354
12533SOL     OW37556   4.264   0.221   2.789
12533SOL    HW137557   4.284   0.236   2.881
12533SOL    HW237558   4.276   0.307   2.748
12534SOL     OW37559   4.721   1.456   2.327
12534SOL    HW137560   4.697   1.530   2.272
12534SOL    HW237561   4.691   1.480   2.415
12535SOL     OW37562   4.077   1.816   2.742
12535SOL    HW137563   4.123   1.732   2.746
12535SOL    HW237564   4.144   1.881   2.763
12536SOL     OW37565   5.529   1.045   2.753
12536SOL    HW137566   5.482   1.030   2.671
12536SOL    HW237567   5.459   1.054   2.819
12537SOL     OW37568   4.941   1.543   3.378
12537SOL    HW137569   4.930   1.472   3.441
12537SOL    HW237570   4.875   1.525   3.311
12538SOL     OW37571   4.022   0.956   2.126
12538SOL    HW137572   4.105   0.977   2.082
12538SOL    HW237573   4.001   0.867   2.097
12539SOL     OW37574   5.209   0.766   2.573
12539SOL    HW137575   5.206   0.729   2.662
12539SOL    HW237576   5.288   0.820   2.572
12540SOL     OW37577   4.195   1.285   3.611
12540SOL    HW137578   4.172   1.289   3.518
12540SOL    HW237579   4.112   1.272   3.656
12541SOL     OW37580   4.863   1.776   2.088
12541SOL    HW137581   4.781   1.746   2.127
12541SOL    HW237582   4.883   1.711   2.021
12542SOL     OW37583   3.942   0.265   3.369
12542SOL    HW137584   3.874   0.332   3.370
12542SOL    HW237585   3.965   0.253   3.461
12543SOL     OW37586   5.362   1.388   1.962
12543SOL    HW137587   5.321   1.474   1.949
12543SOL    HW237588   5.295   1.325   1.935
12544SOL     OW37589   4.183   1.741   2.178
12544SOL    HW137590   4.232   1.792   2.242
12544SOL    HW237591   4.250   1.701   2.123
12545SOL     OW37592   5.130   0.163   2.281
12545SOL    HW137593   5.123   0.108   2.203
12545SOL    HW237594   5.222   0.157   2.306
12546SOL     OW37595   3.975   1.788   3.076
12546SOL    HW137596   4.024   1.713   3.110
12546SOL    HW237597   3.959   1.768   2.984
12547SOL     OW37598   4.672   1.702   2.752
12547SOL    HW137599   4.758   1.661   2.766
12547SOL    HW237600   4.633   1.652   2.681
12548SOL     OW37601   4.118   0.689   2.337
12548SOL    HW137602   4.134   0.595   2.348
12548SOL    HW237603   4.025   0.700   2.354
12549SOL     OW37604   5.227   0.230   3.581
12549SOL    HW137605   5.240   0.250   3.673
12549SOL    HW237606   5.157   0.165   3.580
12550SOL     OW37607   4.365   0.104   1.968
12550SOL    HW137608   4.401   0.030   2.017
12550SOL    HW237609   4.303   0.065   1.907
12551SOL     OW37610   4.482   0.266   3.633
12551SOL    HW137611   4.557   0.208   3.621
12551SOL    HW237612   4.435   0.231   3.709
12552SOL     OW37613   4.592   1.527   3.061
12552SOL    HW137614   4.575   1.486   2.977
12552SOL    HW237615   4.660   1.472   3.101
12553SOL     OW37616   5.060   0.594   3.293
12553SOL    HW137617   5.093   0.568   3.379
12553SOL    HW237618   5.094   0.683   3.281
12554SOL     OW37619   4.540   1.377   2.818
12554SOL    HW137620   4.628   1.373   2.779
12554SOL    HW237621   4.482   1.392   2.744
12555SOL     OW37622   4.659   0.521   2.755
12555SOL    HW137623   4.631   0.511   2.664
12555SOL    HW237624   4.682   0.432   2.783
12556SOL     OW37625   4.275   0.061   2.356
12556SOL    HW137626   4.194   0.044   2.403
12556SOL    HW237627   4.253   0.130   2.293
12557SOL     OW37628   5.158   1.213   1.894
12557SOL    HW137629   5.188   1.139   1.948
12557SOL    HW237630   5.073   1.236   1.931
12558SOL     OW37631   4.020   0.068   2.084
12558SOL    HW137632   4.090   0.132   2.102
12558SOL    HW237633   4.051   9.987   2.124
12559SOL     OW37634   4.662   0.271   2.324
12559SOL    HW137635   4.635   0.304   2.238
12559SOL    HW237636   4.756   0.288   2.328
12560SOL     OW37637   4.802   0.693   3.307
12560SOL    HW137638   4.737   0.623   3.314
12560SOL    HW237639   4.886   0.648   3.303
12561SOL     OW37640   4.930   1.588   2.665
12561SOL    HW137641   4.944   1.648   2.591
12561SOL    HW237642   5.003   1.604   2.724
12562SOL     OW37643   4.206   1.161   2.569
12562SOL    HW137644   4.144   1.137   2.638
12562SOL    HW237645   4.156   1.154   2.488
12563SOL     OW37646   4.975   1.792   2.479
12563SOL    HW137647   5.025   1.855   2.426
12563SOL    HW237648   4.904   1.844   2.517
12564SOL     OW37649   4.762   0.518   1.892
12564SOL    HW137650   4.714   0.598   1.869
12564SOL    HW237651   4.820   0.544   1.963
12565SOL     OW37652   3.826   0.536   3.260
12565SOL    HW137653   3.915   0.550   3.227
12565SOL    HW237654   3.812   0.607   3.322
12566SOL     OW37655   4.291   0.237   3.064
12566SOL    HW137656   4.333   0.190   3.137
12566SOL    HW237657   4.198   0.225   3.080
12567SOL     OW37658   4.587   0.475   2.500
12567SOL    HW137659   4.544   0.530   2.435
12567SOL    HW237660   4.609   0.394   2.453
12568SOL     OW37661   4.686   0.062   2.651
12568SOL    HW137662   4.634   0.050   2.572
12568SOL    HW237663   4.698   9.974   2.686
12569SOL     OW37664   5.157   1.153   2.716
12569SOL    HW137665   5.088   1.088   2.726
12569SOL    HW237666   5.172   1.160   2.622
12570SOL     OW37667   5.181   0.624   2.814
12570SOL    HW137668   5.120   0.550   2.819
12570SOL    HW237669   5.236   0.616   2.891
12571SOL     OW37670   5.548   0.797   2.251
12571SOL    HW137671   5.610   0.755   2.310
12571SOL    HW237672   5.537   0.735   2.179
12572SOL     OW37673   4.222   1.424   2.012
12572SOL    HW137674   4.147   1.392   2.062
12572SOL    HW237675   4.218   1.375   1.930
12573SOL     OW37676   5.432   1.272   2.496
12573SOL    HW137677   5.525   1.265   2.517
12573SOL    HW237678   5.409   1.361   2.521
12574SOL     OW37679   5.118   0.578   1.936
12574SOL    HW137680   5.060   0.556   2.009
12574SOL    HW237681   5.205   0.551   1.966
12575SOL     OW37682   4.224   0.250   2.157
12575SOL    HW137683   4.289   0.213   2.096
12575SOL    HW237684   4.202   0.336   2.120
12576SOL     OW37685   5.459   1.244   3.395
12576SOL    HW137686   5.547   1.210   3.381
12576SOL    HW237687   5.472   1.332   3.432
12577SOL     OW37688   4.766   1.357   3.199
12577SOL    HW137689   4.688   1.322   3.243
12577SOL    HW237690   4.839   1.310   3.238
12578SOL     OW37691   5.332   1.634   3.534
12578SOL    HW137692   5.320   1.671   3.447
12578SOL    HW237693   5.410   1.579   3.527
12579SOL     OW37694   4.875   1.240   2.968
12579SOL    HW137695   4.812   1.274   3.032
12579SOL    HW237696   4.842   1.271   2.884
12580SOL     OW37697   5.332   1.091   2.938
12580SOL    HW137698   5.324   1.158   3.007
12580SOL    HW237699   5.263   1.112   2.876
12581SOL     OW37700   4.610   0.162   3.233
12581SOL    HW137701   4.636   0.117   3.152
12581SOL    HW237702   4.693   0.186   3.275
12582SOL     OW37703   4.703   1.115   3.586
12582SOL    HW137704   4.613   1.131   3.613
12582SOL    HW237705   4.699   1.035   3.535
12583SOL     OW37706   4.436   1.063   2.239
12583SOL    HW137707   4.421   1.035   2.330
12583SOL    HW237708   4.510   1.011   2.210
12584SOL     OW37709   4.154   0.839   3.122
12584SOL    HW137710   4.222   0.844   3.189
12584SOL    HW237711   4.120   0.750   3.128
12585SOL     OW37712   4.995   0.375   3.145
12585SOL    HW137713   5.025   0.452   3.193
12585SOL    HW237714   4.906   0.396   3.117
12586SOL     OW37715   3.801   1.569   3.224
12586SOL    HW137716   3.771   1.640   3.168
12586SOL    HW237717   3.897   1.570   3.214
12587SOL     OW37718   4.041   1.133   2.347
12587SOL    HW137719   4.042   1.205   2.283
12587SOL    HW237720   4.038   1.054   2.294
12588SOL     OW37721   4.283   0.492   2.713
12588SOL    HW137722   4.288   0.547   2.635
12588SOL    HW237723   4.343   0.534   2.776
12589SOL     OW37724   4.971   1.355   2.260
12589SOL    HW137725   5.027   1.424   2.294
12589SOL    HW237726   4.883   1.378   2.290
12590SOL     OW37727   5.034   1.469   3.004
12590SOL    HW137728   5.081   1.475   3.087
12590SOL    HW237729   4.983   1.388   3.011
12591SOL     OW37730   5.300   0.626   2.342
12591SOL    HW137731   5.249   0.667   2.412
12591SOL    HW237732   5.353   0.697   2.306
12592SOL     OW37733   4.068   1.533   3.164
12592SOL    HW137734   4.061   1.481   3.084
12592SOL    HW237735   4.162   1.550   3.173
12593SOL     OW37736   4.167   0.729   3.486
12593SOL    HW137737   4.218   0.779   3.422
12593SOL    HW237738   4.217   0.649   3.500
12594SOL     OW37739   5.350   0.789   3.560
12594SOL    HW137740   5.262   0.826   3.552
12594SOL    HW237741   5.400   0.827   3.488
12595SOL     OW37742   4.684   0.077   3.634
12595SOL    HW137743   4.752   0.130   3.676
12595SOL    HW237744   4.727   0.041   3.556
12596SOL     OW37745   4.195   0.020   3.630
12596SOL    HW137746   4.253   0.009   3.555
12596SOL    HW237747   4.148   0.102   3.611
12597SOL     OW37748   4.316   0.881   2.899
12597SOL    HW137749   4.355   0.968   2.903
12597SOL    HW237750   4.259   0.876   2.975
12598SOL     OW37751   5.029   0.858   2.864
12598SOL    HW137752   4.941   0.831   2.840
12598SOL    HW237753   5.083   0.781   2.848
12599SOL     OW37754   4.917   0.530   2.122
12599SOL    HW137755   4.926   0.457   2.182
12599SOL    HW237756   4.876   0.599   2.174
12600SOL     OW37757   4.024   0.180   3.117
12600SOL    HW137758   3.990   0.210   3.201
12600SOL    HW237759   4.035   0.085   3.129
12601SOL     OW37760   3.773   1.311   3.128
12601SOL    HW137761   3.803   1.256   3.200
12601SOL    HW237762   3.776   1.400   3.163
12602SOL     OW37763   4.434   0.629   2.896
12602SOL    HW137764   4.514   0.625   2.843
12602SOL    HW237765   4.403   0.719   2.886
12603SOL     OW37766   5.476   0.968   3.732
12603SOL    HW137767   5.436   0.897   3.683
12603SOL    HW237768   5.412   0.989   3.801
12604SOL     OW37769   4.022   0.064   2.489
12604SOL    HW137770   4.002   0.157   2.491
12604SOL    HW237771   4.036   0.039   2.581
12605SOL     OW37772   5.360   0.397   2.202
12605SOL    HW137773   5.399   0.334   2.262
12605SOL    HW237774   5.331   0.469   2.258
12606SOL     OW37775   4.760   0.764   2.821
12606SOL    HW137776   4.738   0.778   2.913
12606SOL    HW237777   4.732   0.674   2.804
12607SOL     OW37778   4.703   1.563   3.598
12607SOL    HW137779   4.681   1.608   3.517
12607SOL    HW237780   4.744   1.481   3.570
12608SOL     OW37781   5.562   1.495   3.464
12608SOL    HW137782   5.588   1.523   3.376
12608SOL    HW237783   5.641   1.506   3.517
12609SOL     OW37784   4.074   0.912   3.672
12609SOL    HW137785   4.149   0.932   3.728
12609SOL    HW237786   4.106   0.846   3.611
12610SOL     OW37787   5.240   0.279   1.981
12610SOL    HW137788   5.201   0.200   2.018
12610SOL    HW237789   5.286   0.320   2.054
12611SOL     OW37790   5.004   0.822   1.882
12611SOL    HW137791   5.047   0.736   1.891
12611SOL    HW237792   5.040   0.858   1.801
12612SOL     OW37793   4.794   1.353   2.728
12612SOL    HW137794   4.805   1.281   2.667
12612SOL    HW237795   4.846   1.425   2.691
12613SOL     OW37796   4.046   0.815   2.806
12613SOL    HW137797   4.139   0.834   2.803
12613SOL    HW237798   4.040   0.725   2.837
12614SOL     OW37799   4.073   0.543   2.877
12614SOL    HW137800   4.016   0.467   2.873
12614SOL    HW237801   4.143   0.525   2.815
12615SOL     OW37802   4.861   0.404   3.520
12615SOL    HW137803   4.813   0.444   3.593
12615SOL    HW237804   4.948   0.443   3.524
12616SOL     OW37805   4.865   0.209   3.329
12616SOL    HW137806   4.858   0.270   3.402
12616SOL    HW237807   4.920   0.254   3.265
12617SOL     OW37808   3.748   1.303   2.041
12617SOL    HW137809   3.658   1.325   2.016
12617SOL    HW237810   3.741   1.217   2.082
12618SOL     OW37811   3.817   1.770   2.814
12618SOL    HW137812   3.783   1.696   2.763
12618SOL    HW237813   3.904   1.787   2.777
12619SOL     OW37814   4.209   1.570   2.763
12619SOL    HW137815   4.280   1.631   2.786
12619SOL    HW237816   4.249   1.508   2.702
12620SOL     OW37817   4.674   0.785   3.079
12620SOL    HW137818   4.736   0.770   3.151
12620SOL    HW237819   4.595   0.737   3.104
12621SOL     OW37820   3.741   0.522   2.992
12621SOL    HW137821   3.798   0.463   2.944
12621SOL    HW237822   3.785   0.537   3.075
12622SOL     OW37823   3.909   0.557   3.611
12622SOL    HW137824   3.995   0.548   3.568
12622SOL    HW237825   3.863   0.623   3.559
12623SOL     OW37826   5.114   0.922   3.514
12623SOL    HW137827   5.132   1.016   3.509
12623SOL    HW237828   5.106   0.894   3.423
12624SOL     OW37829   4.537   0.580   2.236
12624SOL    HW137830   4.543   0.504   2.178
12624SOL    HW237831   4.460   0.628   2.206
12625SOL     OW37832   5.350   0.605   3.030
12625SOL    HW137833   5.330   0.551   3.107
12625SOL    HW237834   5.438   0.579   3.004
12626SOL     OW37835   3.950   1.540   3.584
12626SOL    HW137836   3.927   1.589   3.663
12626SOL    HW237837   3.961   1.450   3.616
12627SOL     OW37838   4.463   0.450   3.098
12627SOL    HW137839   4.400   0.378   3.087
12627SOL    HW237840   4.443   0.510   3.026
12628SOL     OW37841   4.624   1.681   3.355
12628SOL    HW137842   4.605   1.632   3.274
12628SOL    HW237843   4.629   1.772   3.326
12629SOL     OW37844   4.169   0.488   2.034
12629SOL    HW137845   4.231   0.556   2.059
12629SOL    HW237846   4.084   0.532   2.035
12630SOL     OW37847   3.854   1.151   3.343
12630SOL    HW137848   3.858   1.112   3.430
12630SOL    HW237849   3.875   1.079   3.283
12631SOL     OW37850   5.027   1.036   3.071
12631SOL    HW137851   5.036   0.973   2.999
12631SOL    HW237852   4.974   1.107   3.033
12632SOL     OW37853   5.049   0.863   2.154
12632SOL    HW137854   4.977   0.832   2.209
12632SOL    HW237855   5.019   0.848   2.064
12633SOL     OW37856   5.511   1.724   3.033
12633SOL    HW137857   5.573   1.750   2.964
12633SOL    HW237858   5.479   1.638   3.005
12634SOL     OW37859   4.965   1.734   2.953
12634SOL    HW137860   5.049   1.764   2.919
12634SOL    HW237861   4.980   1.642   2.977
12635SOL     OW37862   3.831   1.248   2.871
12635SOL    HW137863   3.802   1.269   2.960
12635SOL    HW237864   3.760   1.194   2.835
12636SOL     OW37865   4.411   1.684   3.610
12636SOL    HW137866   4.346   1.754   3.598
12636SOL    HW237867   4.481   1.706   3.549
12637SOL     OW37868   5.487   0.187   2.346
12637SOL    HW137869   5.539   0.188   2.266
12637SOL    HW237870   5.521   0.113   2.396
12638SOL     OW37871   5.121   1.570   2.365
12638SOL    HW137872   5.176   1.605   2.295
12638SOL    HW237873   5.066   1.644   2.391
12639SOL     OW37874   3.858   1.806   3.705
12639SOL    HW137875   3.817   1.730   3.747
12639SOL    HW237876   3.908   1.848   3.776
12640SOL     OW37877   5.003   0.938   2.525
12640SOL    HW137878   5.076   0.878   2.538
12640SOL    HW237879   5.039   1.010   2.473
12641SOL     OW37880   4.508   1.280   3.277
12641SOL    HW137881   4.481   1.327   3.356
12641SOL    HW237882   4.433   1.291   3.217
12642SOL     OW37883   4.392   1.636   2.021
12642SOL    HW137884   4.407   1.650   1.928
12642SOL    HW237885   4.340   1.556   2.025
12643SOL     OW37886   5.340   1.729   3.264
12643SOL    HW137887   5.397   1.729   3.187
12643SOL    HW237888   5.324   1.822   3.282
12644SOL     OW37889   5.575   0.154   2.824
12644SOL    HW137890   5.607   0.081   2.772
12644SOL    HW237891   5.490   0.175   2.787
12645SOL     OW37892   3.969   0.323   2.564
12645SOL    HW137893   3.881   0.359   2.547
12645SOL    HW237894   3.973   0.315   2.660
12646SOL     OW37895   4.934   1.588   1.900
12646SOL    HW137896   4.924   1.497   1.928
12646SOL    HW237897   4.864   1.602   1.836
12647SOL     OW37898   4.547   1.011   3.248
12647SOL    HW137899   4.585   1.001   3.160
12647SOL    HW237900   4.537   1.106   3.258
12648SOL     OW37901   4.642   0.914   2.154
12648SOL    HW137902   4.699   0.947   2.085
12648SOL    HW237903   4.693   0.847   2.199
12649SOL     OW37904   5.208   1.645   1.920
12649SOL    HW137905   5.115   1.625   1.903
12649SOL    HW237906   5.248   1.648   1.833
12650SOL     OW37907   4.087   1.314   3.364
12650SOL    HW137908   4.079   1.387   3.303
12650SOL    HW237909   4.009   1.260   3.347
12651SOL     OW37910   5.322   1.290   3.138
12651SOL    HW137911   5.378   1.266   3.212
12651SOL    HW237912   5.264   1.357   3.173
12652SOL     OW37913   4.801   1.120   2.591
12652SOL    HW137914   4.725   1.070   2.622
12652SOL    HW237915   4.863   1.054   2.561
12653SOL     OW37916   4.748   0.256   2.838
12653SOL    HW137917   4.729   0.208   2.757
12653SOL    HW237918   4.744   0.190   2.907
12654SOL     OW37919   4.329   1.487   2.338
12654SOL    HW137920   4.383   1.438   2.276
12654SOL    HW237921   4.247   1.502   2.290
12655SOL     OW37922   5.465   0.370   3.251
12655SOL    HW137923   5.539   0.430   3.240
12655SOL    HW237924   5.479   0.303   3.185
12656SOL     OW37925   4.004   1.340   2.161
12656SOL    HW137926   3.916   1.333   2.122
12656SOL    HW237927   3.989   1.389   2.242
12657SOL     OW37928   3.846   1.047   3.598
12657SOL    HW137929   3.769   1.018   3.647
12657SOL    HW237930   3.918   0.994   3.632
12658SOL     OW37931   4.386   0.230   3.371
12658SOL    HW137932   4.464   0.204   3.322
12658SOL    HW237933   4.417   0.247   3.460
12659SOL     OW37934   3.796   0.336   1.877
12659SOL    HW137935   3.715   0.326   1.827
12659SOL    HW237936   3.832   0.420   1.848
12660SOL     OW37937   5.138   0.857   3.250
12660SOL    HW137938   5.085   0.916   3.195
12660SOL    HW237939   5.226   0.862   3.212
12661SOL     OW37940   3.784   0.201   2.127
12661SOL    HW137941   3.782   0.256   2.049
12661SOL    HW237942   3.862   0.146   2.116
12662SOL     OW37943   4.907   1.322   1.985
12662SOL    HW137944   4.816   1.291   1.984
12662SOL    HW237945   4.930   1.326   2.078
12663SOL     OW37946   4.352   0.830   3.306
12663SOL    HW137947   4.410   0.905   3.293
12663SOL    HW237948   4.410   0.754   3.307
12664SOL     OW37949   5.211   1.803   2.854
12664SOL    HW137950   5.236   1.877   2.800
12664SOL    HW237951   5.293   1.759   2.875
12665SOL     OW37952   4.443   0.541   3.557
12665SOL    HW137953   4.491   0.599   3.617
12665SOL    HW237954   4.458   0.453   3.592
12666SOL     OW37955   5.193   1.184   3.481
12666SOL    HW137956   5.186   1.207   3.574
12666SOL    HW237957   5.282   1.208   3.457
12667SOL     OW37958   4.077   1.747   3.441
12667SOL    HW137959   3.996   1.794   3.423
12667SOL    HW237960   4.050   1.664   3.479
12668SOL     OW37961   5.378   0.877   3.115
12668SOL    HW137962   5.375   0.793   3.070
12668SOL    HW237963   5.366   0.942   3.046
12669SOL     OW37964   4.930   0.338   2.320
12669SOL    HW137965   4.999   0.273   2.305
12669SOL    HW237966   4.961   0.387   2.397
12670SOL     OW37967   4.306   0.718   2.542
12670SOL    HW137968   4.347   0.803   2.529
12670SOL    HW237969   4.241   0.712   2.472
12671SOL     OW37970   5.465   0.355   3.525
12671SOL    HW137971   5.466   0.367   3.430
12671SOL    HW237972   5.386   0.305   3.542
12672SOL     OW37973   5.482   0.926   3.365
12672SOL    HW137974   5.466   1.019   3.378
12672SOL    HW237975   5.454   0.910   3.274
12673SOL     OW37976   4.594   1.357   1.924
12673SOL    HW137977   4.557   1.375   2.010
12673SOL    HW237978   4.605   1.443   1.884
12674SOL     OW37979   4.393   1.766   2.788
12674SOL    HW137980   4.373   1.860   2.780
12674SOL    HW237981   4.488   1.762   2.786
12675SOL     OW37982   4.597   0.978   2.718
12675SOL    HW137983   4.647   0.905   2.754
12675SOL    HW237984   4.551   1.015   2.793
12676SOL     OW37985   4.799   0.988   1.950
12676SOL    HW137986   4.776   1.040   1.873
12676SOL    HW237987   4.871   0.932   1.920
12677SOL     OW37988   5.555   1.558   2.701
12677SOL    HW137989   5.478   1.550   2.644
12677SOL    HW237990   5.533   1.506   2.778
12678SOL     OW37991   3.935   1.286   3.699
12678SOL    HW137992   3.903   1.206   3.656
12678SOL    HW237993   3.876   1.298   3.773
12679SOL     OW37994   3.842   1.225   2.529
12679SOL    HW137995   3.872   1.183   2.610
12679SOL    HW237996   3.900   1.191   2.461
12680SOL     OW37997   4.415   1.418   3.497
12680SOL    HW137998   4.336   1.380   3.537
12680SOL    HW237999   4.420   1.507   3.532
12681SOL     OW38000   5.482   0.149   3.089
12681SOL    HW138001   5.434   0.067   3.081
12681SOL    HW238002   5.527   0.158   3.004
12682SOL     OW38003   4.153   0.428   2.383
12682SOL    HW138004   4.178   0.354   2.327
12682SOL    HW238005   4.097   0.388   2.450
12683SOL     OW38006   5.419   1.480   2.943
12683SOL    HW138007   5.341   1.461   2.891
12683SOL    HW238008   5.420   1.413   3.011
12684SOL     OW38009   4.069   0.582   3.149
12684SOL    HW138010   4.123   0.521   3.200
12684SOL    HW238011   4.084   0.558   3.058
12685SOL     OW38012   4.562   1.585   2.532
12685SOL    HW138013   4.532   1.655   2.474
12685SOL    HW238014   4.487   1.527   2.539
12686SOL     OW38015   5.158   0.238   2.973
12686SOL    HW138016   5.193   0.161   3.018
12686SOL    HW238017   5.108   0.285   3.040
12687SOL     OW38018   4.751   0.040   3.018
12687SOL    HW138019   4.726   9.947   3.018
12687SOL    HW238020   4.844   0.039   3.041
12688SOL     OW38021   4.504   1.332   2.190
12688SOL    HW138022   4.479   1.241   2.203
12688SOL    HW238023   4.584   1.343   2.242
12689SOL     OW38024   4.339   1.569   3.151
12689SOL    HW138025   4.335   1.653   3.197
12689SOL    HW238026   4.429   1.565   3.117
12690SOL     OW38027   5.113   0.032   2.042
12690SOL    HW138028   5.196   9.985   2.048
12690SOL    HW238029   5.046   9.964   2.051
12691SOL     OW38030   5.022   0.478   2.537
12691SOL    HW138031   4.971   0.558   2.538
12691SOL    HW238032   5.015   0.445   2.627
12692SOL     OW38033   5.323   0.223   2.743
12692SOL    HW138034   5.267   0.236   2.819
12692SOL    HW238035   5.321   0.307   2.697
12693SOL     OW38036   3.760   1.051   2.170
12693SOL    HW138037   3.853   1.038   2.150
12693SOL    HW238038   3.728   0.964   2.191
12694SOL     OW38039   4.619   1.675   2.191
12694SOL    HW138040   4.541   1.660   2.139
12694SOL    HW238041   4.593   1.744   2.253
12695SOL     OW38042   3.934   0.637   3.877
12695SOL    HW138043   3.847   0.620   3.913
12695SOL    HW238044   3.924   0.624   3.783
12696SOL     OW38045   3.914   0.321   4.761
12696SOL    HW138046   3.959   0.269   4.827
12696SOL    HW238047   3.847   0.262   4.727
12697SOL     OW38048   3.712   0.408   4.363
12697SOL    HW138049   3.629   0.433   4.404
12697SOL    HW238050   3.690   0.334   4.308
12698SOL     OW38051   4.287   1.274   4.938
12698SOL    HW138052   4.208   1.227   4.967
12698SOL    HW238053   4.254   1.335   4.872
12699SOL     OW38054   5.316   1.523   4.428
12699SOL    HW138055   5.268   1.493   4.505
12699SOL    HW238056   5.250   1.528   4.358
12700SOL     OW38057   4.863   0.709   4.411
12700SOL    HW138058   4.908   0.792   4.402
12700SOL    HW238059   4.813   0.717   4.492
12701SOL     OW38060   5.528   0.587   3.940
12701SOL    HW138061   5.490   0.586   3.852
12701SOL    HW238062   5.486   0.514   3.985
12702SOL     OW38063   4.459   1.125   4.776
12702SOL    HW138064   4.400   1.162   4.841
12702SOL    HW238065   4.495   1.200   4.729
12703SOL     OW38066   4.610   0.736   5.557
12703SOL    HW138067   4.588   0.801   5.624
12703SOL    HW238068   4.628   0.787   5.479
12704SOL     OW38069   4.410   0.979   4.367
12704SOL    HW138070   4.478   0.980   4.435
12704SOL    HW238071   4.344   1.040   4.399
12705SOL     OW38072   4.426   1.147   5.543
12705SOL    HW138073   4.468   1.225   5.580
12705SOL    HW238074   4.350   1.180   5.496
12706SOL     OW38075   4.075   1.404   4.791
12706SOL    HW138076   4.000   1.359   4.753
12706SOL    HW238077   4.108   1.460   4.721
12707SOL     OW38078   5.177   1.503   5.097
12707SOL    HW138079   5.234   1.580   5.103
12707SOL    HW238080   5.113   1.514   5.167
12708SOL     OW38081   4.178   0.405   5.185
12708SOL    HW138082   4.256   0.352   5.200
12708SOL    HW238083   4.105   0.346   5.203
12709SOL     OW38084   5.314   0.458   4.467
12709SOL    HW138085   5.243   0.462   4.404
12709SOL    HW238086   5.301   0.534   4.523
12710SOL     OW38087   3.942   1.726   4.187
12710SOL    HW138088   3.968   1.798   4.244
12710SOL    HW238089   4.015   1.716   4.126
12711SOL     OW38090   4.847   1.346   5.428
12711SOL    HW138091   4.901   1.331   5.505
12711SOL    HW238092   4.795   1.266   5.419
12712SOL     OW38093   3.965   1.457   4.259
12712SOL    HW138094   3.939   1.549   4.259
12712SOL    HW238095   3.910   1.417   4.326
12713SOL     OW38096   4.026   1.088   4.621
12713SOL    HW138097   4.015   0.997   4.651
12713SOL    HW238098   3.962   1.137   4.672
12714SOL     OW38099   4.325   1.777   5.164
12714SOL    HW138100   4.236   1.767   5.199
12714SOL    HW238101   4.347   1.869   5.180
12715SOL     OW38102   4.288   0.987   3.876
12715SOL    HW138103   4.338   1.030   3.807
12715SOL    HW238104   4.328   1.018   3.958
12716SOL     OW38105   5.263   0.122   5.177
12716SOL    HW138106   5.329   0.169   5.127
12716SOL    HW238107   5.255   0.171   5.259
12717SOL     OW38108   3.844   0.661   4.290
12717SOL    HW138109   3.810   0.574   4.312
12717SOL    HW238110   3.839   0.710   4.372
12718SOL     OW38111   5.570   1.743   4.043
12718SOL    HW138112   5.643   1.728   4.103
12718SOL    HW238113   5.577   1.836   4.019
12719SOL     OW38114   3.784   1.580   3.835
12719SOL    HW138115   3.763   1.488   3.854
12719SOL    HW238116   3.751   1.628   3.911
12720SOL     OW38117   5.424   0.926   4.381
12720SOL    HW138118   5.506   0.881   4.362
12720SOL    HW238119   5.404   0.975   4.302
12721SOL     OW38120   5.381   1.104   4.159
12721SOL    HW138121   5.466   1.097   4.115
12721SOL    HW238122   5.395   1.168   4.229
12722SOL     OW38123   3.832   0.749   5.293
12722SOL    HW138124   3.916   0.796   5.293
12722SOL    HW238125   3.767   0.817   5.277
12723SOL     OW38126   4.338   1.388   4.472
12723SOL    HW138127   4.294   1.303   4.464
12723SOL    HW238128   4.340   1.423   4.383
12724SOL     OW38129   4.992   1.228   5.143
12724SOL    HW138130   5.018   1.160   5.081
12724SOL    HW238131   5.056   1.222   5.214
12725SOL     OW38132   4.542   0.035   4.262
12725SOL    HW138133   4.572   0.123   4.240
12725SOL    HW238134   4.447   0.041   4.258
12726SOL     OW38135   3.913   0.961   5.026
12726SOL    HW138136   4.000   0.925   5.007
12726SOL    HW238137   3.856   0.922   4.960
12727SOL     OW38138   5.259   1.015   3.924
12727SOL    HW138139   5.190   0.955   3.954
12727SOL    HW238140   5.302   1.044   4.005
12728SOL     OW38141   4.870   1.810   5.337
12728SOL    HW138142   4.892   1.885   5.281
12728SOL    HW238143   4.922   1.738   5.302
12729SOL     OW38144   4.040   0.258   5.495
12729SOL    HW138145   4.100   0.311   5.547
12729SOL    HW238146   3.958   0.258   5.545
12730SOL     OW38147   5.193   1.421   4.650
12730SOL    HW138148   5.132   1.438   4.722
12730SOL    HW238149   5.178   1.329   4.627
12731SOL     OW38150   5.364   1.795   4.287
12731SOL    HW138151   5.346   1.749   4.205
12731SOL    HW238152   5.366   1.726   4.353
12732SOL     OW38153   4.309   0.710   3.998
12732SOL    HW138154   4.308   0.797   3.958
12732SOL    HW238155   4.244   0.716   4.068
12733SOL     OW38156   5.006   0.392   4.662
12733SOL    HW138157   4.917   0.356   4.670
12733SOL    HW238158   5.060   0.333   4.715
12734SOL     OW38159   5.304   1.672   4.044
12734SOL    HW138160   5.397   1.687   4.033
12734SOL    HW238161   5.270   1.660   3.955
12735SOL     OW38162   4.514   0.614   5.170
12735SOL    HW138163   4.491   0.578   5.255
12735SOL    HW238164   4.493   0.544   5.108
12736SOL     OW38165   5.121   0.491   5.402
12736SOL    HW138166   5.127   0.531   5.489
12736SOL    HW238167   5.167   0.407   5.411
12737SOL     OW38168   4.671   0.878   5.323
12737SOL    HW138169   4.727   0.813   5.280
12737SOL    HW238170   4.621   0.916   5.251
12738SOL     OW38171   4.738   0.421   4.932
12738SOL    HW138172   4.647   0.426   4.961
12738SOL    HW238173   4.734   0.374   4.848
12739SOL     OW38174   4.780   0.704   4.144
12739SOL    HW138175   4.802   0.700   4.237
12739SOL    HW238176   4.694   0.661   4.138
12740SOL     OW38177   3.819   0.822   4.509
12740SOL    HW138178   3.899   0.814   4.561
12740SOL    HW238179   3.772   0.896   4.548
12741SOL     OW38180   3.837   1.880   5.313
12741SOL    HW138181   3.848   1.850   5.403
12741SOL    HW238182   3.747   1.859   5.292
12742SOL     OW38183   4.614   0.361   3.929
12742SOL    HW138184   4.654   0.420   3.865
12742SOL    HW238185   4.622   0.274   3.890
12743SOL     OW38186   5.412   0.565   5.560
12743SOL    HW138187   5.388   0.643   5.510
12743SOL    HW238188   5.436   0.501   5.493
12744SOL     OW38189   5.116   1.149   4.262
12744SOL    HW138190   5.196   1.137   4.210
12744SOL    HW238191   5.064   1.210   4.210
12745SOL     OW38192   4.266   0.219   4.651
12745SOL    HW138193   4.286   0.234   4.743
12745SOL    HW238194   4.277   0.305   4.609
12746SOL     OW38195   4.723   1.458   4.189
12746SOL    HW138196   4.697   1.530   4.132
12746SOL    HW238197   4.692   1.484   4.276
12747SOL     OW38198   4.079   1.816   4.600
12747SOL    HW138199   4.125   1.732   4.607
12747SOL    HW238200   4.145   1.881   4.623
12748SOL     OW38201   5.530   1.046   4.617
12748SOL    HW138202   5.484   1.031   4.534
12748SOL    HW238203   5.459   1.052   4.682
12749SOL     OW38204   4.906   1.537   5.227
12749SOL    HW138205   4.905   1.473   5.298
12749SOL    HW238206   4.879   1.487   5.150
12750SOL     OW38207   4.022   0.956   3.989
12750SOL    HW138208   4.104   0.977   3.944
12750SOL    HW238209   4.000   0.867   3.959
12751SOL     OW38210   5.209   0.767   4.437
12751SOL    HW138211   5.206   0.729   4.525
12751SOL    HW238212   5.289   0.819   4.437
12752SOL     OW38213   4.206   1.282   5.437
12752SOL    HW138214   4.168   1.293   5.350
12752SOL    HW238215   4.132   1.273   5.495
12753SOL     OW38216   4.863   1.773   3.952
12753SOL    HW138217   4.780   1.743   3.988
12753SOL    HW238218   4.884   1.710   3.884
12754SOL     OW38219   3.942   0.262   5.233
12754SOL    HW138220   3.867   0.321   5.237
12754SOL    HW238221   3.967   0.250   5.325
12755SOL     OW38222   5.362   1.388   3.826
12755SOL    HW138223   5.322   1.473   3.812
12755SOL    HW238224   5.295   1.325   3.798
12756SOL     OW38225   4.184   1.741   4.039
12756SOL    HW138226   4.233   1.793   4.102
12756SOL    HW238227   4.250   1.700   3.984
12757SOL     OW38228   5.130   0.163   4.142
12757SOL    HW138229   5.122   0.107   4.065
12757SOL    HW238230   5.222   0.156   4.168
12758SOL     OW38231   3.975   1.795   4.938
12758SOL    HW138232   4.024   1.717   4.964
12758SOL    HW238233   3.943   1.774   4.850
12759SOL     OW38234   4.673   1.701   4.607
12759SOL    HW138235   4.758   1.658   4.610
12759SOL    HW238236   4.626   1.656   4.537
12760SOL     OW38237   4.118   0.688   4.199
12760SOL    HW138238   4.135   0.595   4.211
12760SOL    HW238239   4.024   0.698   4.216
12761SOL     OW38240   5.227   0.230   5.444
12761SOL    HW138241   5.240   0.251   5.536
12761SOL    HW238242   5.159   0.163   5.444
12762SOL     OW38243   4.366   0.106   3.832
12762SOL    HW138244   4.402   0.031   3.880
12762SOL    HW238245   4.305   0.067   3.770
12763SOL     OW38246   4.484   0.266   5.494
12763SOL    HW138247   4.560   0.209   5.482
12763SOL    HW238248   4.436   0.227   5.567
12764SOL     OW38249   4.551   1.503   4.931
12764SOL    HW138250   4.534   1.474   4.841
12764SOL    HW238251   4.635   1.464   4.954
12765SOL     OW38252   5.061   0.596   5.157
12765SOL    HW138253   5.093   0.568   5.242
12765SOL    HW238254   5.096   0.685   5.146
12766SOL     OW38255   4.529   1.377   4.678
12766SOL    HW138256   4.616   1.376   4.639
12766SOL    HW238257   4.470   1.388   4.603
12767SOL     OW38258   4.660   0.521   4.616
12767SOL    HW138259   4.633   0.511   4.525
12767SOL    HW238260   4.683   0.433   4.644
12768SOL     OW38261   4.276   0.061   4.219
12768SOL    HW138262   4.194   0.043   4.265
12768SOL    HW238263   4.253   0.130   4.156
12769SOL     OW38264   5.158   1.212   3.756
12769SOL    HW138265   5.188   1.138   3.809
12769SOL    HW238266   5.073   1.235   3.792
12770SOL     OW38267   4.019   0.066   3.942
12770SOL    HW138268   4.091   0.127   3.955
12770SOL    HW238269   4.048   9.986   3.986
12771SOL     OW38270   4.663   0.271   4.186
12771SOL    HW138271   4.636   0.304   4.100
12771SOL    HW238272   4.757   0.288   4.190
12772SOL     OW38273   4.801   0.691   5.171
12772SOL    HW138274   4.740   0.618   5.181
12772SOL    HW238275   4.887   0.649   5.166
12773SOL     OW38276   4.926   1.594   4.530
12773SOL    HW138277   4.943   1.652   4.457
12773SOL    HW238278   5.005   1.597   4.584
12774SOL     OW38279   4.206   1.153   4.432
12774SOL    HW138280   4.147   1.130   4.504
12774SOL    HW238281   4.152   1.146   4.354
12775SOL     OW38282   4.976   1.794   4.343
12775SOL    HW138283   5.027   1.854   4.289
12775SOL    HW238284   4.907   1.848   4.381
12776SOL     OW38285   4.761   0.520   3.753
12776SOL    HW138286   4.714   0.601   3.731
12776SOL    HW238287   4.819   0.546   3.825
12777SOL     OW38288   3.825   0.539   5.116
12777SOL    HW138289   3.914   0.552   5.085
12777SOL    HW238290   3.811   0.608   5.181
12778SOL     OW38291   4.291   0.237   4.926
12778SOL    HW138292   4.333   0.187   4.996
12778SOL    HW238293   4.197   0.225   4.942
12779SOL     OW38294   4.588   0.476   4.361
12779SOL    HW138295   4.546   0.530   4.295
12779SOL    HW238296   4.610   0.395   4.315
12780SOL     OW38297   4.685   0.063   4.514
12780SOL    HW138298   4.633   0.051   4.435
12780SOL    HW238299   4.698   9.975   4.549
12781SOL     OW38300   5.161   1.155   4.576
12781SOL    HW138301   5.090   1.091   4.578
12781SOL    HW238302   5.184   1.162   4.483
12782SOL     OW38303   5.181   0.625   4.677
12782SOL    HW138304   5.121   0.550   4.682
12782SOL    HW238305   5.237   0.616   4.755
12783SOL     OW38306   5.546   0.797   4.113
12783SOL    HW138307   5.609   0.755   4.172
12783SOL    HW238308   5.536   0.735   4.041
12784SOL     OW38309   4.223   1.423   3.871
12784SOL    HW138310   4.150   1.390   3.924
12784SOL    HW238311   4.216   1.374   3.789
12785SOL     OW38312   5.430   1.266   4.365
12785SOL    HW138313   5.524   1.259   4.382
12785SOL    HW238314   5.409   1.358   4.384
12786SOL     OW38315   5.118   0.578   3.797
12786SOL    HW138316   5.060   0.556   3.870
12786SOL    HW238317   5.205   0.550   3.826
12787SOL     OW38318   4.226   0.252   4.021
12787SOL    HW138319   4.291   0.215   3.961
12787SOL    HW238320   4.204   0.337   3.983
12788SOL     OW38321   5.458   1.245   5.259
12788SOL    HW138322   5.546   1.210   5.245
12788SOL    HW238323   5.472   1.332   5.295
12789SOL     OW38324   4.762   1.350   5.057
12789SOL    HW138325   4.683   1.312   5.096
12789SOL    HW238326   4.834   1.299   5.095
12790SOL     OW38327   5.321   1.630   5.388
12790SOL    HW138328   5.318   1.671   5.301
12790SOL    HW238329   5.401   1.577   5.386
12791SOL     OW38330   4.875   1.242   4.825
12791SOL    HW138331   4.810   1.274   4.888
12791SOL    HW238332   4.842   1.271   4.740
12792SOL     OW38333   5.329   1.087   4.799
12792SOL    HW138334   5.320   1.154   4.866
12792SOL    HW238335   5.261   1.108   4.734
12793SOL     OW38336   4.610   0.164   5.093
12793SOL    HW138337   4.636   0.117   5.014
12793SOL    HW238338   4.692   0.186   5.136
12794SOL     OW38339   4.694   1.116   5.449
12794SOL    HW138340   4.603   1.126   5.476
12794SOL    HW238341   4.695   1.035   5.398
12795SOL     OW38342   4.435   1.062   4.100
12795SOL    HW138343   4.420   1.034   4.190
12795SOL    HW238344   4.510   1.011   4.071
12796SOL     OW38345   4.156   0.842   4.982
12796SOL    HW138346   4.224   0.843   5.050
12796SOL    HW238347   4.121   0.753   4.986
12797SOL     OW38348   4.996   0.379   5.006
12797SOL    HW138349   5.025   0.456   5.055
12797SOL    HW238350   4.907   0.400   4.978
12798SOL     OW38351   3.798   1.574   5.089
12798SOL    HW138352   3.752   1.636   5.032
12798SOL    HW238353   3.891   1.586   5.068
12799SOL     OW38354   4.037   1.130   4.214
12799SOL    HW138355   4.040   1.202   4.150
12799SOL    HW238356   4.034   1.051   4.161
12800SOL     OW38357   4.283   0.491   4.576
12800SOL    HW138358   4.287   0.546   4.499
12800SOL    HW238359   4.344   0.531   4.638
12801SOL     OW38360   4.971   1.355   4.120
12801SOL    HW138361   5.028   1.424   4.154
12801SOL    HW238362   4.884   1.379   4.151
12802SOL     OW38363   5.034   1.467   4.866
12802SOL    HW138364   5.083   1.470   4.949
12802SOL    HW238365   4.985   1.385   4.870
12803SOL     OW38366   5.301   0.626   4.205
12803SOL    HW138367   5.249   0.668   4.274
12803SOL    HW238368   5.355   0.697   4.169
12804SOL     OW38369   4.067   1.546   5.020
12804SOL    HW138370   4.071   1.496   4.938
12804SOL    HW238371   4.078   1.480   5.089
12805SOL     OW38372   4.160   0.735   5.344
12805SOL    HW138373   4.217   0.780   5.282
12805SOL    HW238374   4.202   0.649   5.357
12806SOL     OW38375   5.348   0.789   5.423
12806SOL    HW138376   5.261   0.827   5.414
12806SOL    HW238377   5.398   0.826   5.350
12807SOL     OW38378   4.687   0.080   5.494
12807SOL    HW138379   4.757   0.130   5.536
12807SOL    HW238380   4.728   0.042   5.417
12808SOL     OW38381   4.200   0.022   5.493
12808SOL    HW138382   4.256   0.007   5.417
12808SOL    HW238383   4.151   0.102   5.471
12809SOL     OW38384   4.320   0.874   4.757
12809SOL    HW138385   4.359   0.961   4.759
12809SOL    HW238386   4.261   0.872   4.832
12810SOL     OW38387   5.030   0.857   4.732
12810SOL    HW138388   4.942   0.830   4.706
12810SOL    HW238389   5.084   0.780   4.714
12811SOL     OW38390   4.917   0.530   3.983
12811SOL    HW138391   4.926   0.456   4.043
12811SOL    HW238392   4.876   0.599   4.035
12812SOL     OW38393   4.025   0.180   4.980
12812SOL    HW138394   3.990   0.210   5.064
12812SOL    HW238395   4.035   0.085   4.991
12813SOL     OW38396   3.782   1.313   4.992
12813SOL    HW138397   3.806   1.257   5.066
12813SOL    HW238398   3.780   1.401   5.029
12814SOL     OW38399   4.439   0.624   4.758
12814SOL    HW138400   4.517   0.618   4.703
12814SOL    HW238401   4.407   0.714   4.745
12815SOL     OW38402   5.475   0.969   5.592
12815SOL    HW138403   5.436   0.897   5.545
12815SOL    HW238404   5.413   0.988   5.663
12816SOL     OW38405   4.022   0.063   4.351
12816SOL    HW138406   4.003   0.156   4.353
12816SOL    HW238407   4.036   0.039   4.443
12817SOL     OW38408   5.360   0.397   4.064
12817SOL    HW138409   5.399   0.333   4.124
12817SOL    HW238410   5.331   0.469   4.121
12818SOL     OW38411   4.761   0.764   4.685
12818SOL    HW138412   4.739   0.778   4.777
12818SOL    HW238413   4.733   0.674   4.668
12819SOL     OW38414   4.701   1.573   5.474
12819SOL    HW138415   4.709   1.629   5.397
12819SOL    HW238416   4.736   1.489   5.446
12820SOL     OW38417   5.558   1.498   5.326
12820SOL    HW138418   5.587   1.524   5.238
12820SOL    HW238419   5.636   1.507   5.380
12821SOL     OW38420   4.077   0.922   5.529
12821SOL    HW138421   4.149   0.931   5.591
12821SOL    HW238422   4.106   0.853   5.469
12822SOL     OW38423   5.239   0.280   3.843
12822SOL    HW138424   5.200   0.201   3.880
12822SOL    HW238425   5.285   0.321   3.917
12823SOL     OW38426   5.006   0.822   3.744
12823SOL    HW138427   5.048   0.737   3.753
12823SOL    HW238428   5.041   0.858   3.663
12824SOL     OW38429   4.786   1.357   4.589
12824SOL    HW138430   4.798   1.283   4.529
12824SOL    HW238431   4.840   1.427   4.552
12825SOL     OW38432   4.044   0.810   4.670
12825SOL    HW138433   4.137   0.826   4.657
12825SOL    HW238434   4.039   0.720   4.702
12826SOL     OW38435   4.073   0.541   4.741
12826SOL    HW138436   4.015   0.464   4.737
12826SOL    HW238437   4.143   0.521   4.678
12827SOL     OW38438   4.857   0.414   5.375
12827SOL    HW138439   4.813   0.445   5.454
12827SOL    HW238440   4.946   0.447   5.383
12828SOL     OW38441   4.864   0.213   5.189
12828SOL    HW138442   4.855   0.276   5.261
12828SOL    HW238443   4.921   0.258   5.126
12829SOL     OW38444   3.749   1.303   3.906
12829SOL    HW138445   3.659   1.325   3.880
12829SOL    HW238446   3.742   1.217   3.946
12830SOL     OW38447   3.825   1.765   4.687
12830SOL    HW138448   3.788   1.695   4.634
12830SOL    HW238449   3.909   1.785   4.645
12831SOL     OW38450   4.215   1.577   4.628
12831SOL    HW138451   4.287   1.634   4.655
12831SOL    HW238452   4.256   1.513   4.569
12832SOL     OW38453   4.673   0.787   4.944
12832SOL    HW138454   4.734   0.767   5.016
12832SOL    HW238455   4.597   0.731   4.961
12833SOL     OW38456   3.740   0.525   4.851
12833SOL    HW138457   3.797   0.463   4.804
12833SOL    HW238458   3.782   0.538   4.936
12834SOL     OW38459   3.905   0.554   5.474
12834SOL    HW138460   3.986   0.533   5.427
12834SOL    HW238461   3.863   0.621   5.421
12835SOL     OW38462   5.113   0.925   5.378
12835SOL    HW138463   5.131   1.019   5.372
12835SOL    HW238464   5.106   0.896   5.287
12836SOL     OW38465   4.537   0.581   4.098
12836SOL    HW138466   4.544   0.505   4.040
12836SOL    HW238467   4.460   0.628   4.067
12837SOL     OW38468   5.350   0.604   4.894
12837SOL    HW138469   5.332   0.548   4.969
12837SOL    HW238470   5.439   0.579   4.867
12838SOL     OW38471   3.959   1.530   5.427
12838SOL    HW138472   3.942   1.605   5.484
12838SOL    HW238473   3.962   1.455   5.487
12839SOL     OW38474   4.462   0.449   4.962
12839SOL    HW138475   4.401   0.376   4.951
12839SOL    HW238476   4.444   0.508   4.889
12840SOL     OW38477   4.647   1.682   5.185
12840SOL    HW138478   4.738   1.655   5.186
12840SOL    HW238479   4.650   1.776   5.168
12841SOL     OW38480   4.168   0.488   3.896
12841SOL    HW138481   4.231   0.557   3.921
12841SOL    HW238482   4.083   0.533   3.897
12842SOL     OW38483   3.861   1.153   5.210
12842SOL    HW138484   3.860   1.110   5.296
12842SOL    HW238485   3.879   1.082   5.148
12843SOL     OW38486   5.024   1.040   4.934
12843SOL    HW138487   5.035   0.974   4.865
12843SOL    HW238488   4.973   1.109   4.892
12844SOL     OW38489   5.048   0.863   4.016
12844SOL    HW138490   4.976   0.830   4.070
12844SOL    HW238491   5.020   0.848   3.926
12845SOL     OW38492   5.513   1.725   4.896
12845SOL    HW138493   5.574   1.751   4.826
12845SOL    HW238494   5.479   1.640   4.867
12846SOL     OW38495   4.971   1.736   4.833
12846SOL    HW138496   5.052   1.766   4.792
12846SOL    HW238497   4.985   1.642   4.848
12847SOL     OW38498   3.838   1.248   4.735
12847SOL    HW138499   3.810   1.270   4.824
12847SOL    HW238500   3.764   1.198   4.698
12848SOL     OW38501   4.413   1.689   5.477
12848SOL    HW138502   4.352   1.762   5.469
12848SOL    HW238503   4.500   1.728   5.464
12849SOL     OW38504   5.487   0.186   4.207
12849SOL    HW138505   5.540   0.187   4.127
12849SOL    HW238506   5.521   0.112   4.257
12850SOL     OW38507   5.122   1.570   4.229
12850SOL    HW138508   5.177   1.604   4.158
12850SOL    HW238509   5.067   1.644   4.253
12851SOL     OW38510   3.885   1.773   5.557
12851SOL    HW138511   3.834   1.708   5.606
12851SOL    HW238512   3.925   1.827   5.625
12852SOL     OW38513   5.005   0.941   4.392
12852SOL    HW138514   5.078   0.880   4.404
12852SOL    HW238515   5.040   1.010   4.336
12853SOL     OW38516   4.500   1.273   5.121
12853SOL    HW138517   4.467   1.322   5.197
12853SOL    HW238518   4.430   1.279   5.056
12854SOL     OW38519   4.393   1.633   3.882
12854SOL    HW138520   4.407   1.649   3.789
12854SOL    HW238521   4.339   1.554   3.886
12855SOL     OW38522   5.336   1.730   5.122
12855SOL    HW138523   5.396   1.729   5.047
12855SOL    HW238524   5.321   1.822   5.140
12856SOL     OW38525   5.575   0.155   4.688
12856SOL    HW138526   5.608   0.080   4.638
12856SOL    HW238527   5.490   0.175   4.650
12857SOL     OW38528   3.969   0.323   4.426
12857SOL    HW138529   3.882   0.359   4.409
12857SOL    HW238530   3.972   0.312   4.521
12858SOL     OW38531   4.934   1.589   3.762
12858SOL    HW138532   4.924   1.497   3.788
12858SOL    HW238533   4.865   1.603   3.697
12859SOL     OW38534   4.551   1.002   5.110
12859SOL    HW138535   4.594   0.979   5.028
12859SOL    HW238536   4.542   1.097   5.106
12860SOL     OW38537   4.644   0.917   4.018
12860SOL    HW138538   4.701   0.948   3.948
12860SOL    HW238539   4.695   0.848   4.062
12861SOL     OW38540   5.208   1.644   3.782
12861SOL    HW138541   5.116   1.625   3.765
12861SOL    HW238542   5.248   1.648   3.696
12862SOL     OW38543   4.048   1.357   5.222
12862SOL    HW138544   4.008   1.417   5.285
12862SOL    HW238545   3.985   1.286   5.213
12863SOL     OW38546   5.319   1.287   4.995
12863SOL    HW138547   5.382   1.265   5.064
12863SOL    HW238548   5.263   1.353   5.035
12864SOL     OW38549   4.802   1.122   4.457
12864SOL    HW138550   4.726   1.070   4.484
12864SOL    HW238551   4.865   1.058   4.426
12865SOL     OW38552   4.747   0.256   4.701
12865SOL    HW138553   4.728   0.208   4.620
12865SOL    HW238554   4.745   0.189   4.769
12866SOL     OW38555   4.348   1.495   4.219
12866SOL    HW138556   4.394   1.442   4.154
12866SOL    HW238557   4.263   1.511   4.179
12867SOL     OW38558   5.463   0.374   5.112
12867SOL    HW138559   5.538   0.432   5.101
12867SOL    HW238560   5.476   0.305   5.046
12868SOL     OW38561   4.006   1.337   4.025
12868SOL    HW138562   3.919   1.332   3.986
12868SOL    HW238563   3.994   1.387   4.105
12869SOL     OW38564   3.846   1.052   5.463
12869SOL    HW138565   3.768   1.023   5.511
12869SOL    HW238566   3.916   0.997   5.496
12870SOL     OW38567   4.386   0.234   5.232
12870SOL    HW138568   4.464   0.207   5.183
12870SOL    HW238569   4.418   0.249   5.321
12871SOL     OW38570   3.796   0.337   3.739
12871SOL    HW138571   3.715   0.327   3.689
12871SOL    HW238572   3.831   0.421   3.711
12872SOL     OW38573   5.138   0.861   5.114
12872SOL    HW138574   5.086   0.918   5.059
12872SOL    HW238575   5.226   0.863   5.075
12873SOL     OW38576   3.785   0.202   3.990
12873SOL    HW138577   3.782   0.257   3.911
12873SOL    HW238578   3.862   0.146   3.977
12874SOL     OW38579   4.906   1.322   3.845
12874SOL    HW138580   4.814   1.294   3.844
12874SOL    HW238581   4.929   1.325   3.938
12875SOL     OW38582   4.351   0.829   5.169
12875SOL    HW138583   4.412   0.901   5.156
12875SOL    HW238584   4.405   0.751   5.171
12876SOL     OW38585   5.210   1.802   4.715
12876SOL    HW138586   5.233   1.878   4.661
12876SOL    HW238587   5.293   1.757   4.731
12877SOL     OW38588   4.447   0.538   5.422
12877SOL    HW138589   4.495   0.594   5.483
12877SOL    HW238590   4.461   0.450   5.455
12878SOL     OW38591   5.191   1.189   5.342
12878SOL    HW138592   5.187   1.207   5.436
12878SOL    HW238593   5.281   1.209   5.318
12879SOL     OW38594   4.084   1.751   5.293
12879SOL    HW138595   4.003   1.799   5.276
12879SOL    HW238596   4.055   1.666   5.327
12880SOL     OW38597   5.377   0.875   4.978
12880SOL    HW138598   5.374   0.790   4.934
12880SOL    HW238599   5.365   0.939   4.907
12881SOL     OW38600   4.931   0.339   4.182
12881SOL    HW138601   4.999   0.273   4.167
12881SOL    HW238602   4.962   0.388   4.258
12882SOL     OW38603   4.302   0.719   4.408
12882SOL    HW138604   4.346   0.803   4.393
12882SOL    HW238605   4.238   0.712   4.337
12883SOL     OW38606   5.464   0.356   5.385
12883SOL    HW138607   5.465   0.369   5.291
12883SOL    HW238608   5.385   0.305   5.403
12884SOL     OW38609   5.482   0.925   5.227
12884SOL    HW138610   5.468   1.019   5.240
12884SOL    HW238611   5.455   0.908   5.137
12885SOL     OW38612   4.597   1.359   3.788
12885SOL    HW138613   4.556   1.383   3.871
12885SOL    HW238614   4.608   1.442   3.742
12886SOL     OW38615   4.402   1.764   4.682
12886SOL    HW138616   4.378   1.855   4.665
12886SOL    HW238617   4.495   1.759   4.662
12887SOL     OW38618   4.599   0.973   4.576
12887SOL    HW138619   4.651   0.900   4.612
12887SOL    HW238620   4.555   1.010   4.652
12888SOL     OW38621   4.799   0.987   3.811
12888SOL    HW138622   4.776   1.040   3.734
12888SOL    HW238623   4.872   0.932   3.782
12889SOL     OW38624   5.564   1.554   4.555
12889SOL    HW138625   5.484   1.547   4.503
12889SOL    HW238626   5.553   1.490   4.625
12890SOL     OW38627   3.950   1.288   5.558
12890SOL    HW138628   3.915   1.207   5.520
12890SOL    HW238629   3.897   1.302   5.637
12891SOL     OW38630   3.835   1.231   4.389
12891SOL    HW138631   3.849   1.183   4.470
12891SOL    HW238632   3.897   1.193   4.327
12892SOL     OW38633   4.392   1.471   5.302
12892SOL    HW138634   4.336   1.408   5.348
12892SOL    HW238635   4.409   1.539   5.367
12893SOL     OW38636   5.479   0.150   4.952
12893SOL    HW138637   5.432   0.067   4.944
12893SOL    HW238638   5.525   0.160   4.868
12894SOL     OW38639   4.155   0.428   4.247
12894SOL    HW138640   4.180   0.355   4.189
12894SOL    HW238641   4.099   0.387   4.313
12895SOL     OW38642   5.413   1.485   4.808
12895SOL    HW138643   5.339   1.466   4.751
12895SOL    HW238644   5.414   1.414   4.872
12896SOL     OW38645   4.071   0.584   5.012
12896SOL    HW138646   4.123   0.522   5.063
12896SOL    HW238647   4.085   0.557   4.921
12897SOL     OW38648   4.554   1.617   4.373
12897SOL    HW138649   4.555   1.703   4.330
12897SOL    HW238650   4.480   1.572   4.333
12898SOL     OW38651   5.158   0.240   4.835
12898SOL    HW138652   5.193   0.163   4.880
12898SOL    HW238653   5.108   0.287   4.902
12899SOL     OW38654   4.751   0.039   4.880
12899SOL    HW138655   4.725   9.947   4.879
12899SOL    HW238656   4.844   0.038   4.906
12900SOL     OW38657   4.501   1.333   4.058
12900SOL    HW138658   4.476   1.241   4.065
12900SOL    HW238659   4.585   1.339   4.104
12901SOL     OW38660   5.111   0.032   3.902
12901SOL    HW138661   5.194   9.986   3.908
12901SOL    HW238662   5.044   9.964   3.912
12902SOL     OW38663   5.024   0.479   4.399
12902SOL    HW138664   4.972   0.559   4.399
12902SOL    HW238665   5.016   0.445   4.489
12903SOL     OW38666   5.324   0.223   4.605
12903SOL    HW138667   5.267   0.236   4.681
12903SOL    HW238668   5.322   0.307   4.558
12904SOL     OW38669   3.761   1.051   4.034
12904SOL    HW138670   3.853   1.039   4.013
12904SOL    HW238671   3.728   0.964   4.055
12905SOL     OW38672   4.617   1.674   4.049
12905SOL    HW138673   4.540   1.657   3.996
12905SOL    HW238674   4.590   1.743   4.110
12906SOL     OW38675   3.936   0.641   5.738
12906SOL    HW138676   3.850   0.623   5.776
12906SOL    HW238677   3.925   0.624   5.644
12907SOL     OW38678   3.916   0.321   6.621
12907SOL    HW138679   3.961   0.270   6.689
12907SOL    HW238680   3.848   0.263   6.588
12908SOL     OW38681   3.712   0.410   6.226
12908SOL    HW138682   3.629   0.435   6.267
12908SOL    HW238683   3.690   0.335   6.170
12909SOL     OW38684   4.300   1.308   6.795
12909SOL    HW138685   4.217   1.311   6.747
12909SOL    HW238686   4.316   1.400   6.819
12910SOL     OW38687   5.312   1.524   6.292
12910SOL    HW138688   5.266   1.492   6.370
12910SOL    HW238689   5.246   1.527   6.224
12911SOL     OW38690   4.860   0.707   6.271
12911SOL    HW138691   4.906   0.791   6.262
12911SOL    HW238692   4.810   0.716   6.353
12912SOL     OW38693   5.528   0.587   5.801
12912SOL    HW138694   5.490   0.585   5.713
12912SOL    HW238695   5.487   0.514   5.847
12913SOL     OW38696   4.451   1.131   6.642
12913SOL    HW138697   4.393   1.171   6.707
12913SOL    HW238698   4.494   1.206   6.600
12914SOL     OW38699   4.609   0.737   7.413
12914SOL    HW138700   4.594   0.804   7.480
12914SOL    HW238701   4.627   0.788   7.333
12915SOL     OW38702   4.411   0.984   6.227
12915SOL    HW138703   4.477   0.983   6.296
12915SOL    HW238704   4.344   1.044   6.259
12916SOL     OW38705   4.435   1.149   7.419
12916SOL    HW138706   4.486   1.222   7.454
12916SOL    HW238707   4.359   1.191   7.378
12917SOL     OW38708   4.067   1.398   6.656
12917SOL    HW138709   3.991   1.355   6.616
12917SOL    HW238710   4.103   1.452   6.585
12918SOL     OW38711   5.178   1.507   6.958
12918SOL    HW138712   5.233   1.584   6.971
12918SOL    HW238713   5.106   1.518   7.020
12919SOL     OW38714   4.180   0.402   7.041
12919SOL    HW138715   4.258   0.349   7.060
12919SOL    HW238716   4.107   0.345   7.064
12920SOL     OW38717   5.313   0.459   6.331
12920SOL    HW138718   5.243   0.464   6.266
12920SOL    HW238719   5.295   0.531   6.391
12921SOL     OW38720   3.939   1.728   6.052
12921SOL    HW138721   3.965   1.799   6.111
12921SOL    HW238722   4.014   1.718   5.992
12922SOL     OW38723   4.859   1.342   7.283
12922SOL    HW138724   4.904   1.331   7.366
12922SOL    HW238725   4.805   1.263   7.274
12923SOL     OW38726   3.959   1.456   6.119
12923SOL    HW138727   3.936   1.549   6.125
12923SOL    HW238728   3.910   1.415   6.190
12924SOL     OW38729   4.012   1.090   6.466
12924SOL    HW138730   4.012   1.000   6.499
12924SOL    HW238731   3.956   1.138   6.526
12925SOL     OW38732   4.298   1.803   7.007
12925SOL    HW138733   4.222   1.783   7.061
12925SOL    HW238734   4.331   1.886   7.041
12926SOL     OW38735   4.287   0.987   5.737
12926SOL    HW138736   4.338   1.028   5.667
12926SOL    HW238737   4.329   1.018   5.818
12927SOL     OW38738   5.264   0.124   7.039
12927SOL    HW138739   5.329   0.174   6.990
12927SOL    HW238740   5.256   0.170   7.123
12928SOL     OW38741   3.844   0.663   6.152
12928SOL    HW138742   3.810   0.576   6.175
12928SOL    HW238743   3.838   0.712   6.234
12929SOL     OW38744   5.570   1.744   5.906
12929SOL    HW138745   5.642   1.728   5.966
12929SOL    HW238746   5.578   1.836   5.882
12930SOL     OW38747   3.774   1.573   5.696
12930SOL    HW138748   3.753   1.483   5.717
12930SOL    HW238749   3.744   1.624   5.771
12931SOL     OW38750   5.423   0.927   6.243
12931SOL    HW138751   5.507   0.883   6.226
12931SOL    HW238752   5.405   0.976   6.163
12932SOL     OW38753   5.382   1.105   6.019
12932SOL    HW138754   5.467   1.096   5.976
12932SOL    HW238755   5.397   1.170   6.088
12933SOL     OW38756   3.831   0.751   7.156
12933SOL    HW138757   3.913   0.801   7.156
12933SOL    HW238758   3.764   0.817   7.140
12934SOL     OW38759   4.349   1.398   6.314
12934SOL    HW138760   4.307   1.312   6.321
12934SOL    HW238761   4.334   1.426   6.224
12935SOL     OW38762   4.994   1.227   7.003
12935SOL    HW138763   5.022   1.158   6.943
12935SOL    HW238764   5.056   1.221   7.076
12936SOL     OW38765   4.542   0.035   6.123
12936SOL    HW138766   4.573   0.123   6.101
12936SOL    HW238767   4.447   0.041   6.120
12937SOL     OW38768   3.911   0.957   6.888
12937SOL    HW138769   4.000   0.926   6.871
12937SOL    HW238770   3.858   0.919   6.818
12938SOL     OW38771   5.260   1.015   5.786
12938SOL    HW138772   5.191   0.956   5.816
12938SOL    HW238773   5.303   1.045   5.867
12939SOL     OW38774   4.904   1.823   7.222
12939SOL    HW138775   4.905   1.884   7.149
12939SOL    HW238776   4.921   1.737   7.182
12940SOL     OW38777   4.043   0.258   7.358
12940SOL    HW138778   4.101   0.315   7.408
12940SOL    HW238779   3.960   0.259   7.407
12941SOL     OW38780   5.196   1.416   6.517
12941SOL    HW138781   5.133   1.436   6.586
12941SOL    HW238782   5.179   1.325   6.493
12942SOL     OW38783   5.363   1.795   6.151
12942SOL    HW138784   5.347   1.748   6.069
12942SOL    HW238785   5.363   1.726   6.217
12943SOL     OW38786   4.308   0.709   5.861
12943SOL    HW138787   4.307   0.797   5.821
12943SOL    HW238788   4.243   0.714   5.931
12944SOL     OW38789   5.006   0.391   6.524
12944SOL    HW138790   4.917   0.356   6.532
12944SOL    HW238791   5.060   0.332   6.577
12945SOL     OW38792   5.304   1.673   5.905
12945SOL    HW138793   5.398   1.689   5.896
12945SOL    HW238794   5.273   1.658   5.816
12946SOL     OW38795   4.518   0.615   7.029
12946SOL    HW138796   4.491   0.580   7.115
12946SOL    HW238797   4.494   0.546   6.967
12947SOL     OW38798   5.121   0.491   7.264
12947SOL    HW138799   5.127   0.530   7.351
12947SOL    HW238800   5.168   0.407   7.272
12948SOL     OW38801   4.670   0.879   7.180
12948SOL    HW138802   4.726   0.816   7.136
12948SOL    HW238803   4.620   0.922   7.110
12949SOL     OW38804   4.738   0.418   6.794
12949SOL    HW138805   4.647   0.427   6.823
12949SOL    HW238806   4.733   0.373   6.710
12950SOL     OW38807   4.777   0.709   6.004
12950SOL    HW138808   4.800   0.704   6.097
12950SOL    HW238809   4.693   0.665   5.998
12951SOL     OW38810   3.819   0.827   6.370
12951SOL    HW138811   3.900   0.819   6.420
12951SOL    HW238812   3.772   0.899   6.412
12952SOL     OW38813   3.834   1.879   7.174
12952SOL    HW138814   3.841   1.859   7.267
12952SOL    HW238815   3.747   1.847   7.149
12953SOL     OW38816   4.606   0.360   5.792
12953SOL    HW138817   4.654   0.412   5.727
12953SOL    HW238818   4.589   0.277   5.748
12954SOL     OW38819   5.415   0.565   7.422
12954SOL    HW138820   5.390   0.643   7.373
12954SOL    HW238821   5.437   0.500   7.355
12955SOL     OW38822   5.119   1.151   6.131
12955SOL    HW138823   5.199   1.139   6.080
12955SOL    HW238824   5.067   1.213   6.080
12956SOL     OW38825   4.263   0.222   6.513
12956SOL    HW138826   4.284   0.236   6.605
12956SOL    HW238827   4.276   0.307   6.472
12957SOL     OW38828   4.720   1.456   6.051
12957SOL    HW138829   4.697   1.532   5.997
12957SOL    HW238830   4.690   1.479   6.139
12958SOL     OW38831   4.077   1.815   6.466
12958SOL    HW138832   4.123   1.732   6.470
12958SOL    HW238833   4.144   1.880   6.488
12959SOL     OW38834   5.528   1.046   6.478
12959SOL    HW138835   5.481   1.031   6.397
12959SOL    HW238836   5.460   1.055   6.545
12960SOL     OW38837   4.942   1.544   7.103
12960SOL    HW138838   4.931   1.473   7.166
12960SOL    HW238839   4.873   1.530   7.039
12961SOL     OW38840   4.022   0.953   5.851
12961SOL    HW138841   4.105   0.972   5.806
12961SOL    HW238842   4.001   0.863   5.826
12962SOL     OW38843   5.208   0.767   6.298
12962SOL    HW138844   5.206   0.729   6.385
12962SOL    HW238845   5.287   0.820   6.297
12963SOL     OW38846   4.197   1.284   7.333
12963SOL    HW138847   4.173   1.288   7.241
12963SOL    HW238848   4.114   1.272   7.379
12964SOL     OW38849   4.863   1.778   5.807
12964SOL    HW138850   4.782   1.750   5.849
12964SOL    HW238851   4.885   1.707   5.747
12965SOL     OW38852   3.943   0.265   7.095
12965SOL    HW138853   3.872   0.329   7.098
12965SOL    HW238854   3.967   0.252   7.187
12966SOL     OW38855   5.363   1.387   5.687
12966SOL    HW138856   5.321   1.472   5.674
12966SOL    HW238857   5.297   1.323   5.659
12967SOL     OW38858   4.179   1.746   5.903
12967SOL    HW138859   4.227   1.796   5.969
12967SOL    HW238860   4.247   1.702   5.852
12968SOL     OW38861   5.131   0.163   6.003
12968SOL    HW138862   5.123   0.106   5.927
12968SOL    HW238863   5.222   0.153   6.031
12969SOL     OW38864   3.974   1.788   6.801
12969SOL    HW138865   4.023   1.714   6.835
12969SOL    HW238866   3.959   1.767   6.709
12970SOL     OW38867   4.672   1.703   6.477
12970SOL    HW138868   4.756   1.662   6.496
12970SOL    HW238869   4.635   1.651   6.406
12971SOL     OW38870   4.117   0.688   6.060
12971SOL    HW138871   4.133   0.595   6.072
12971SOL    HW238872   4.024   0.700   6.080
12972SOL     OW38873   5.227   0.229   7.304
12972SOL    HW138874   5.241   0.249   7.397
12972SOL    HW238875   5.155   0.166   7.304
12973SOL     OW38876   4.372   0.108   5.694
12973SOL    HW138877   4.407   0.033   5.743
12973SOL    HW238878   4.309   0.069   5.633
12974SOL     OW38879   4.482   0.266   7.356
12974SOL    HW138880   4.558   0.208   7.345
12974SOL    HW238881   4.434   0.229   7.430
12975SOL     OW38882   4.593   1.528   6.785
12975SOL    HW138883   4.575   1.485   6.701
12975SOL    HW238884   4.660   1.472   6.826
12976SOL     OW38885   5.062   0.594   7.017
12976SOL    HW138886   5.093   0.567   7.103
12976SOL    HW238887   5.095   0.683   7.006
12977SOL     OW38888   4.541   1.377   6.543
12977SOL    HW138889   4.629   1.372   6.504
12977SOL    HW238890   4.483   1.392   6.468
12978SOL     OW38891   4.659   0.521   6.479
12978SOL    HW138892   4.631   0.511   6.388
12978SOL    HW238893   4.682   0.433   6.507
12979SOL     OW38894   4.276   0.062   6.081
12979SOL    HW138895   4.195   0.044   6.128
12979SOL    HW238896   4.252   0.130   6.018
12980SOL     OW38897   5.162   1.209   5.617
12980SOL    HW138898   5.194   1.136   5.669
12980SOL    HW238899   5.079   1.234   5.657
12981SOL     OW38900   4.020   0.071   5.811
12981SOL    HW138901   4.089   0.133   5.834
12981SOL    HW238902   4.053   9.986   5.841
12982SOL     OW38903   4.663   0.271   6.048
12982SOL    HW138904   4.637   0.303   5.961
12982SOL    HW238905   4.758   0.287   6.052
12983SOL     OW38906   4.803   0.692   7.031
12983SOL    HW138907   4.739   0.622   7.041
12983SOL    HW238908   4.887   0.648   7.028
12984SOL     OW38909   4.932   1.584   6.386
12984SOL    HW138910   4.947   1.646   6.314
12984SOL    HW238911   5.001   1.603   6.449
12985SOL     OW38912   4.207   1.161   6.292
12985SOL    HW138913   4.146   1.137   6.362
12985SOL    HW238914   4.156   1.154   6.212
12986SOL     OW38915   4.977   1.792   6.203
12986SOL    HW138916   5.027   1.856   6.152
12986SOL    HW238917   4.906   1.843   6.243
12987SOL     OW38918   4.762   0.514   5.619
12987SOL    HW138919   4.715   0.594   5.597
12987SOL    HW238920   4.820   0.539   5.691
12988SOL     OW38921   3.825   0.538   6.981
12988SOL    HW138922   3.914   0.551   6.949
12988SOL    HW238923   3.812   0.609   7.045
12989SOL     OW38924   4.291   0.237   6.789
12989SOL    HW138925   4.334   0.191   6.861
12989SOL    HW238926   4.198   0.225   6.804
12990SOL     OW38927   4.588   0.475   6.223
12990SOL    HW138928   4.544   0.530   6.158
12990SOL    HW238929   4.610   0.395   6.176
12991SOL     OW38930   4.688   0.062   6.374
12991SOL    HW138931   4.634   0.049   6.296
12991SOL    HW238932   4.699   9.974   6.410
12992SOL     OW38933   5.157   1.152   6.442
12992SOL    HW138934   5.089   1.084   6.454
12992SOL    HW238935   5.169   1.158   6.348
12993SOL     OW38936   5.181   0.623   6.537
12993SOL    HW138937   5.120   0.550   6.544
12993SOL    HW238938   5.236   0.616   6.615
12994SOL     OW38939   5.546   0.797   5.974
12994SOL    HW138940   5.608   0.755   6.034
12994SOL    HW238941   5.536   0.734   5.902
12995SOL     OW38942   4.218   1.427   5.753
12995SOL    HW138943   4.139   1.396   5.797
12995SOL    HW238944   4.231   1.366   5.680
12996SOL     OW38945   5.433   1.273   6.219
12996SOL    HW138946   5.526   1.265   6.240
12996SOL    HW238947   5.410   1.361   6.246
12997SOL     OW38948   5.116   0.582   5.660
12997SOL    HW138949   5.060   0.557   5.734
12997SOL    HW238950   5.204   0.553   5.687
12998SOL     OW38951   4.223   0.249   5.880
12998SOL    HW138952   4.288   0.213   5.820
12998SOL    HW238953   4.200   0.335   5.843
12999SOL     OW38954   5.459   1.244   7.118
12999SOL    HW138955   5.547   1.210   7.104
12999SOL    HW238956   5.472   1.332   7.156
13000SOL     OW38957   4.765   1.355   6.920
13000SOL    HW138958   4.688   1.320   6.965
13000SOL    HW238959   4.839   1.310   6.961
13001SOL     OW38960   5.331   1.634   7.258
13001SOL    HW138961   5.320   1.671   7.170
13001SOL    HW238962   5.409   1.579   7.251
13002SOL     OW38963   4.874   1.239   6.691
13002SOL    HW138964   4.813   1.273   6.756
13002SOL    HW238965   4.841   1.271   6.607
13003SOL     OW38966   5.332   1.092   6.664
13003SOL    HW138967   5.325   1.158   6.732
13003SOL    HW238968   5.263   1.113   6.602
13004SOL     OW38969   4.610   0.162   6.956
13004SOL    HW138970   4.636   0.117   6.876
13004SOL    HW238971   4.693   0.186   6.997
13005SOL     OW38972   4.703   1.115   7.310
13005SOL    HW138973   4.613   1.132   7.337
13005SOL    HW238974   4.699   1.034   7.259
13006SOL     OW38975   4.440   1.062   5.958
13006SOL    HW138976   4.426   1.035   6.049
13006SOL    HW238977   4.514   1.008   5.928
13007SOL     OW38978   4.155   0.839   6.845
13007SOL    HW138979   4.222   0.844   6.913
13007SOL    HW238980   4.120   0.750   6.852
13008SOL     OW38981   4.996   0.376   6.868
13008SOL    HW138982   5.025   0.453   6.917
13008SOL    HW238983   4.907   0.398   6.840
13009SOL     OW38984   3.801   1.569   6.948
13009SOL    HW138985   3.771   1.642   6.893
13009SOL    HW238986   3.896   1.570   6.939
13010SOL     OW38987   4.040   1.132   6.072
13010SOL    HW138988   4.038   1.203   6.007
13010SOL    HW238989   4.037   1.052   6.020
13011SOL     OW38990   4.284   0.492   6.436
13011SOL    HW138991   4.289   0.548   6.358
13011SOL    HW238992   4.342   0.534   6.499
13012SOL     OW38993   4.973   1.358   5.987
13012SOL    HW138994   5.029   1.427   6.023
13012SOL    HW238995   4.885   1.380   6.017
13013SOL     OW38996   5.034   1.468   6.729
13013SOL    HW138997   5.081   1.476   6.812
13013SOL    HW238998   4.983   1.388   6.737
13014SOL     OW38999   5.301   0.627   6.067
13014SOL    HW139000   5.250   0.669   6.137
13014SOL    HW239001   5.357   0.697   6.033
13015SOL     OW39002   4.068   1.534   6.888
13015SOL    HW139003   4.061   1.481   6.808
13015SOL    HW239004   4.162   1.550   6.898
13016SOL     OW39005   4.168   0.729   7.211
13016SOL    HW139006   4.218   0.778   7.147
13016SOL    HW239007   4.220   0.649   7.227
13017SOL     OW39008   5.350   0.788   7.285
13017SOL    HW139009   5.262   0.826   7.276
13017SOL    HW239010   5.399   0.826   7.212
13018SOL     OW39011   4.686   0.079   7.359
13018SOL    HW139012   4.754   0.132   7.401
13018SOL    HW239013   4.728   0.042   7.282
13019SOL     OW39014   4.193   0.020   7.353
13019SOL    HW139015   4.251   0.011   7.277
13019SOL    HW239016   4.146   0.102   7.337
13020SOL     OW39017   4.315   0.881   6.622
13020SOL    HW139018   4.355   0.968   6.627
13020SOL    HW239019   4.259   0.876   6.699
13021SOL     OW39020   5.030   0.860   6.585
13021SOL    HW139021   4.941   0.832   6.564
13021SOL    HW239022   5.083   0.781   6.571
13022SOL     OW39023   4.917   0.532   5.847
13022SOL    HW139024   4.927   0.458   5.907
13022SOL    HW239025   4.875   0.600   5.899
13023SOL     OW39026   4.024   0.180   6.842
13023SOL    HW139027   3.990   0.211   6.926
13023SOL    HW239028   4.035   0.085   6.854
13024SOL     OW39029   3.775   1.312   6.851
13024SOL    HW139030   3.803   1.256   6.923
13024SOL    HW239031   3.777   1.401   6.887
13025SOL     OW39032   4.434   0.628   6.619
13025SOL    HW139033   4.515   0.625   6.568
13025SOL    HW239034   4.403   0.718   6.609
13026SOL     OW39035   5.476   0.969   7.455
13026SOL    HW139036   5.435   0.896   7.407
13026SOL    HW239037   5.413   0.989   7.524
13027SOL     OW39038   4.022   0.064   6.213
13027SOL    HW139039   4.002   0.158   6.215
13027SOL    HW239040   4.035   0.040   6.304
13028SOL     OW39041   5.361   0.398   5.926
13028SOL    HW139042   5.399   0.334   5.986
13028SOL    HW239043   5.332   0.470   5.983
13029SOL     OW39044   4.760   0.764   6.545
13029SOL    HW139045   4.738   0.779   6.638
13029SOL    HW239046   4.732   0.674   6.528
13030SOL     OW39047   4.704   1.566   7.321
13030SOL    HW139048   4.684   1.609   7.237
13030SOL    HW239049   4.743   1.482   7.295
13031SOL     OW39050   5.562   1.495   7.188
13031SOL    HW139051   5.589   1.524   7.100
13031SOL    HW239052   5.640   1.506   7.242
13032SOL     OW39053   4.074   0.914   7.394
13032SOL    HW139054   4.148   0.933   7.452
13032SOL    HW239055   4.106   0.846   7.335
13033SOL     OW39056   5.238   0.283   5.706
13033SOL    HW139057   5.198   0.204   5.744
13033SOL    HW239058   5.284   0.323   5.780
13034SOL     OW39059   4.998   0.825   5.607
13034SOL    HW139060   5.039   0.739   5.617
13034SOL    HW239061   5.035   0.861   5.526
13035SOL     OW39062   4.794   1.352   6.451
13035SOL    HW139063   4.804   1.280   6.389
13035SOL    HW239064   4.847   1.423   6.414
13036SOL     OW39065   4.046   0.815   6.530
13036SOL    HW139066   4.140   0.834   6.530
13036SOL    HW239067   4.040   0.724   6.561
13037SOL     OW39068   4.073   0.543   6.600
13037SOL    HW139069   4.016   0.466   6.597
13037SOL    HW239070   4.143   0.524   6.538
13038SOL     OW39071   4.858   0.411   7.237
13038SOL    HW139072   4.812   0.445   7.314
13038SOL    HW239073   4.946   0.446   7.244
13039SOL     OW39074   4.865   0.210   7.052
13039SOL    HW139075   4.856   0.273   7.123
13039SOL    HW239076   4.921   0.254   6.988
13040SOL     OW39077   3.747   1.298   5.761
13040SOL    HW139078   3.658   1.320   5.734
13040SOL    HW239079   3.740   1.211   5.801
13041SOL     OW39080   3.817   1.770   6.538
13041SOL    HW139081   3.783   1.696   6.487
13041SOL    HW239082   3.903   1.787   6.501
13042SOL     OW39083   4.209   1.569   6.485
13042SOL    HW139084   4.279   1.630   6.507
13042SOL    HW239085   4.249   1.507   6.424
13043SOL     OW39086   4.674   0.785   6.804
13043SOL    HW139087   4.736   0.769   6.875
13043SOL    HW239088   4.595   0.737   6.830
13044SOL     OW39089   3.741   0.523   6.714
13044SOL    HW139090   3.799   0.463   6.668
13044SOL    HW239091   3.783   0.538   6.799
13045SOL     OW39092   3.909   0.555   7.334
13045SOL    HW139093   3.995   0.548   7.292
13045SOL    HW239094   3.863   0.622   7.282
13046SOL     OW39095   5.115   0.922   7.238
13046SOL    HW139096   5.132   1.016   7.233
13046SOL    HW239097   5.107   0.894   7.147
13047SOL     OW39098   4.538   0.582   5.959
13047SOL    HW139099   4.545   0.505   5.902
13047SOL    HW239100   4.460   0.627   5.928
13048SOL     OW39101   5.349   0.605   6.754
13048SOL    HW139102   5.330   0.551   6.830
13048SOL    HW239103   5.438   0.580   6.728
13049SOL     OW39104   3.950   1.540   7.308
13049SOL    HW139105   3.926   1.589   7.387
13049SOL    HW239106   3.962   1.450   7.340
13050SOL     OW39107   4.463   0.450   6.822
13050SOL    HW139108   4.401   0.378   6.811
13050SOL    HW239109   4.443   0.510   6.750
13051SOL     OW39110   4.632   1.679   7.073
13051SOL    HW139111   4.608   1.632   6.993
13051SOL    HW239112   4.634   1.771   7.047
13052SOL     OW39113   4.168   0.488   5.758
13052SOL    HW139114   4.231   0.555   5.783
13052SOL    HW239115   4.083   0.533   5.759
13053SOL     OW39116   3.853   1.151   7.066
13053SOL    HW139117   3.858   1.112   7.154
13053SOL    HW239118   3.875   1.080   7.007
13054SOL     OW39119   5.027   1.036   6.794
13054SOL    HW139120   5.036   0.973   6.722
13054SOL    HW239121   4.974   1.106   6.757
13055SOL     OW39122   5.047   0.866   5.878
13055SOL    HW139123   4.980   0.828   5.935
13055SOL    HW239124   5.018   0.847   5.789
13056SOL     OW39125   5.510   1.725   6.756
13056SOL    HW139126   5.572   1.750   6.688
13056SOL    HW239127   5.479   1.639   6.729
13057SOL     OW39128   4.963   1.731   6.671
13057SOL    HW139129   5.048   1.762   6.640
13057SOL    HW239130   4.979   1.641   6.698
13058SOL     OW39131   3.832   1.248   6.595
13058SOL    HW139132   3.804   1.269   6.683
13058SOL    HW239133   3.761   1.194   6.559
13059SOL     OW39134   4.411   1.683   7.336
13059SOL    HW139135   4.348   1.754   7.323
13059SOL    HW239136   4.485   1.707   7.280
13060SOL     OW39137   5.487   0.187   6.071
13060SOL    HW139138   5.539   0.188   5.991
13060SOL    HW239139   5.521   0.113   6.121
13061SOL     OW39140   5.122   1.572   6.090
13061SOL    HW139141   5.178   1.607   6.020
13061SOL    HW239142   5.069   1.647   6.118
13062SOL     OW39143   3.859   1.806   7.430
13062SOL    HW139144   3.818   1.730   7.472
13062SOL    HW239145   3.908   1.848   7.500
13063SOL     OW39146   5.002   0.938   6.249
13063SOL    HW139147   5.075   0.878   6.263
13063SOL    HW239148   5.039   1.010   6.198
13064SOL     OW39149   4.507   1.280   6.999
13064SOL    HW139150   4.481   1.327   7.078
13064SOL    HW239151   4.432   1.289   6.940
13065SOL     OW39152   4.388   1.639   5.751
13065SOL    HW139153   4.402   1.648   5.656
13065SOL    HW239154   4.338   1.558   5.759
13066SOL     OW39155   5.340   1.730   6.988
13066SOL    HW139156   5.397   1.730   6.911
13066SOL    HW239157   5.324   1.823   7.006
13067SOL     OW39158   5.576   0.154   6.549
13067SOL    HW139159   5.607   0.079   6.498
13067SOL    HW239160   5.491   0.175   6.511
13068SOL     OW39161   3.969   0.325   6.288
13068SOL    HW139162   3.881   0.360   6.272
13068SOL    HW239163   3.973   0.314   6.383
13069SOL     OW39164   4.934   1.577   5.632
13069SOL    HW139165   4.925   1.487   5.663
13069SOL    HW239166   4.858   1.590   5.574
13070SOL     OW39167   4.548   1.011   6.973
13070SOL    HW139168   4.587   1.000   6.886
13070SOL    HW239169   4.537   1.105   6.983
13071SOL     OW39170   4.645   0.914   5.860
13071SOL    HW139171   4.711   0.957   5.805
13071SOL    HW239172   4.695   0.850   5.910
13072SOL     OW39173   5.208   1.641   5.643
13072SOL    HW139174   5.116   1.619   5.629
13072SOL    HW239175   5.245   1.644   5.555
13073SOL     OW39176   4.087   1.313   7.087
13073SOL    HW139177   4.078   1.387   7.027
13073SOL    HW239178   4.009   1.260   7.071
13074SOL     OW39179   5.322   1.290   6.863
13074SOL    HW139180   5.377   1.266   6.938
13074SOL    HW239181   5.263   1.357   6.897
13075SOL     OW39182   4.798   1.120   6.311
13075SOL    HW139183   4.724   1.070   6.345
13075SOL    HW239184   4.862   1.054   6.284
13076SOL     OW39185   4.747   0.256   6.561
13076SOL    HW139186   4.729   0.208   6.481
13076SOL    HW239187   4.745   0.189   6.630
13077SOL     OW39188   4.330   1.480   6.057
13077SOL    HW139189   4.384   1.433   5.994
13077SOL    HW239190   4.246   1.492   6.012
13078SOL     OW39191   5.464   0.371   6.974
13078SOL    HW139192   5.538   0.431   6.963
13078SOL    HW239193   5.478   0.303   6.908
13079SOL     OW39194   3.995   1.338   5.884
13079SOL    HW139195   3.907   1.330   5.849
13079SOL    HW239196   3.984   1.387   5.966
13080SOL     OW39197   3.846   1.048   7.321
13080SOL    HW139198   3.769   1.019   7.371
13080SOL    HW239199   3.917   0.994   7.356
13081SOL     OW39200   4.386   0.230   7.094
13081SOL    HW139201   4.465   0.204   7.046
13081SOL    HW239202   4.417   0.247   7.183
13082SOL     OW39203   3.794   0.335   5.605
13082SOL    HW139204   3.710   0.326   5.560
13082SOL    HW239205   3.828   0.419   5.575
13083SOL     OW39206   5.138   0.858   6.974
13083SOL    HW139207   5.086   0.916   6.919
13083SOL    HW239208   5.226   0.862   6.937
13084SOL     OW39209   3.784   0.202   5.854
13084SOL    HW139210   3.782   0.256   5.775
13084SOL    HW239211   3.862   0.148   5.844
13085SOL     OW39212   4.917   1.307   5.719
13085SOL    HW139213   4.861   1.230   5.723
13085SOL    HW239214   4.939   1.325   5.810
13086SOL     OW39215   4.351   0.830   7.030
13086SOL    HW139216   4.409   0.905   7.018
13086SOL    HW239217   4.409   0.754   7.031
13087SOL     OW39218   5.211   1.802   6.579
13087SOL    HW139219   5.237   1.877   6.525
13087SOL    HW239220   5.294   1.760   6.602
13088SOL     OW39221   4.442   0.541   7.281
13088SOL    HW139222   4.490   0.599   7.341
13088SOL    HW239223   4.457   0.453   7.316
13089SOL     OW39224   5.192   1.185   7.205
13089SOL    HW139225   5.185   1.207   7.298
13089SOL    HW239226   5.282   1.209   7.182
13090SOL     OW39227   4.078   1.747   7.165
13090SOL    HW139228   3.996   1.793   7.148
13090SOL    HW239229   4.051   1.664   7.203
13091SOL     OW39230   5.378   0.877   6.840
13091SOL    HW139231   5.375   0.793   6.794
13091SOL    HW239232   5.367   0.942   6.771
13092SOL     OW39233   4.932   0.339   6.043
13092SOL    HW139234   5.000   0.273   6.028
13092SOL    HW239235   4.963   0.387   6.120
13093SOL     OW39236   4.308   0.718   6.263
13093SOL    HW139237   4.348   0.804   6.251
13093SOL    HW239238   4.241   0.713   6.195
13094SOL     OW39239   5.464   0.356   7.248
13094SOL    HW139240   5.465   0.368   7.153
13094SOL    HW239241   5.385   0.305   7.265
13095SOL     OW39242   5.482   0.926   7.089
13095SOL    HW139243   5.466   1.019   7.103
13095SOL    HW239244   5.454   0.910   6.999
13096SOL     OW39245   4.537   1.375   5.630
13096SOL    HW139246   4.532   1.375   5.726
13096SOL    HW239247   4.585   1.455   5.609
13097SOL     OW39248   4.392   1.767   6.507
13097SOL    HW139249   4.372   1.860   6.502
13097SOL    HW239250   4.488   1.762   6.509
13098SOL     OW39251   4.596   0.978   6.441
13098SOL    HW139252   4.647   0.905   6.477
13098SOL    HW239253   4.550   1.015   6.516
13099SOL     OW39254   4.820   1.026   5.677
13099SOL    HW139255   4.780   1.055   5.594
13099SOL    HW239256   4.881   0.957   5.651
13100SOL     OW39257   5.556   1.556   6.425
13100SOL    HW139258   5.478   1.549   6.369
13100SOL    HW239259   5.536   1.503   6.502
13101SOL     OW39260   3.937   1.286   7.422
13101SOL    HW139261   3.905   1.206   7.379
13101SOL    HW239262   3.878   1.298   7.496
13102SOL     OW39263   3.843   1.228   6.254
13102SOL    HW139264   3.869   1.187   6.336
13102SOL    HW239265   3.902   1.190   6.189
13103SOL     OW39266   4.414   1.419   7.217
13103SOL    HW139267   4.338   1.380   7.260
13103SOL    HW239268   4.419   1.507   7.255
13104SOL     OW39269   5.483   0.150   6.813
13104SOL    HW139270   5.434   0.068   6.805
13104SOL    HW239271   5.527   0.158   6.728
13105SOL     OW39272   4.152   0.428   6.106
13105SOL    HW139273   4.177   0.353   6.050
13105SOL    HW239274   4.097   0.389   6.174
13106SOL     OW39275   5.420   1.480   6.668
13106SOL    HW139276   5.342   1.461   6.616
13106SOL    HW239277   5.421   1.413   6.736
13107SOL     OW39278   4.069   0.582   6.873
13107SOL    HW139279   4.122   0.521   6.924
13107SOL    HW239280   4.084   0.557   6.782
13108SOL     OW39281   4.563   1.580   6.258
13108SOL    HW139282   4.528   1.650   6.203
13108SOL    HW239283   4.489   1.521   6.271
13109SOL     OW39284   5.158   0.239   6.696
13109SOL    HW139285   5.194   0.162   6.742
13109SOL    HW239286   5.109   0.285   6.763
13110SOL     OW39287   4.752   0.039   6.741
13110SOL    HW139288   4.727   9.947   6.741
13110SOL    HW239289   4.844   0.039   6.766
13111SOL     OW39290   4.512   1.330   5.905
13111SOL    HW139291   4.487   1.239   5.923
13111SOL    HW239292   4.588   1.346   5.960
13112SOL     OW39293   4.339   1.570   6.873
13112SOL    HW139294   4.334   1.654   6.920
13112SOL    HW239295   4.429   1.566   6.841
13113SOL     OW39296   5.109   0.033   5.762
13113SOL    HW139297   5.193   9.987   5.768
13113SOL    HW239298   5.043   9.965   5.773
13114SOL     OW39299   5.022   0.478   6.261
13114SOL    HW139300   4.970   0.558   6.261
13114SOL    HW239301   5.015   0.444   6.350
13115SOL     OW39302   5.324   0.223   6.467
13115SOL    HW139303   5.268   0.236   6.543
13115SOL    HW239304   5.322   0.307   6.421
13116SOL     OW39305   3.761   1.050   5.892
13116SOL    HW139306   3.854   1.036   5.873
13116SOL    HW239307   3.728   0.963   5.914
13117SOL     OW39308   4.621   1.678   5.916
13117SOL    HW139309   4.540   1.661   5.867
13117SOL    HW239310   4.597   1.745   5.980
13118SOL     OW39311   3.935   0.635   7.600
13118SOL    HW139312   3.848   0.619   7.637
13118SOL    HW239313   3.924   0.622   7.506
13119SOL     OW39314   3.916   0.321   8.482
13119SOL    HW139315   3.961   0.270   8.549
13119SOL    HW239316   3.848   0.263   8.449
13120SOL     OW39317   3.712   0.409   8.088
13120SOL    HW139318   3.629   0.434   8.129
13120SOL    HW239319   3.690   0.334   8.032
13121SOL     OW39320   4.300   1.309   8.657
13121SOL    HW139321   4.217   1.311   8.609
13121SOL    HW239322   4.316   1.400   8.681
13122SOL     OW39323   5.312   1.525   8.153
13122SOL    HW139324   5.266   1.493   8.231
13122SOL    HW239325   5.246   1.528   8.084
13123SOL     OW39326   4.861   0.707   8.135
13123SOL    HW139327   4.907   0.790   8.124
13123SOL    HW239328   4.811   0.717   8.216
13124SOL     OW39329   5.529   0.587   7.664
13124SOL    HW139330   5.491   0.586   7.576
13124SOL    HW239331   5.487   0.514   7.709
13125SOL     OW39332   4.452   1.132   8.505
13125SOL    HW139333   4.393   1.171   8.570
13125SOL    HW239334   4.494   1.206   8.462
13126SOL     OW39335   4.610   0.737   9.272
13126SOL    HW139336   4.601   0.804   9.340
13126SOL    HW239337   4.627   0.787   9.192
13127SOL     OW39338   4.409   0.982   8.093
13127SOL    HW139339   4.476   0.983   8.161
13127SOL    HW239340   4.343   1.044   8.124
13128SOL     OW39341   4.435   1.151   9.273
13128SOL    HW139342   4.487   1.224   9.307
13128SOL    HW239343   4.358   1.193   9.235
13129SOL     OW39344   4.067   1.397   8.518
13129SOL    HW139345   3.991   1.355   8.478
13129SOL    HW239346   4.103   1.452   8.448
13130SOL     OW39347   5.177   1.507   8.819
13130SOL    HW139348   5.232   1.584   8.831
13130SOL    HW239349   5.106   1.518   8.882
13131SOL     OW39350   4.181   0.401   8.903
13131SOL    HW139351   4.259   0.348   8.922
13131SOL    HW239352   4.107   0.345   8.926
13132SOL     OW39353   5.313   0.459   8.193
13132SOL    HW139354   5.243   0.463   8.128
13132SOL    HW239355   5.296   0.532   8.251
13133SOL     OW39356   3.942   1.728   7.913
13133SOL    HW139357   3.968   1.799   7.971
13133SOL    HW239358   4.015   1.717   7.853
13134SOL     OW39359   4.858   1.343   9.142
13134SOL    HW139360   4.902   1.334   9.227
13134SOL    HW239361   4.806   1.263   9.133
13135SOL     OW39362   3.958   1.457   7.981
13135SOL    HW139363   3.936   1.550   7.985
13135SOL    HW239364   3.908   1.418   8.052
13136SOL     OW39365   4.009   1.090   8.326
13136SOL    HW139366   4.010   1.000   8.360
13136SOL    HW239367   3.953   1.138   8.387
13137SOL     OW39368   4.298   1.805   8.868
13137SOL    HW139369   4.222   1.784   8.922
13137SOL    HW239370   4.331   1.888   8.902
13138SOL     OW39371   4.288   0.988   7.601
13138SOL    HW139372   4.339   1.030   7.532
13138SOL    HW239373   4.328   1.019   7.682
13139SOL     OW39374   5.268   0.122   8.902
13139SOL    HW139375   5.331   0.173   8.852
13139SOL    HW239376   5.259   0.168   8.985
13140SOL     OW39377   3.844   0.663   8.014
13140SOL    HW139378   3.810   0.576   8.037
13140SOL    HW239379   3.838   0.712   8.096
13141SOL     OW39380   5.570   1.743   7.766
13141SOL    HW139381   5.642   1.728   7.827
13141SOL    HW239382   5.577   1.836   7.742
13142SOL     OW39383   3.783   1.580   7.558
13142SOL    HW139384   3.762   1.488   7.577
13142SOL    HW239385   3.751   1.628   7.635
13143SOL     OW39386   5.423   0.928   8.103
13143SOL    HW139387   5.504   0.883   8.081
13143SOL    HW239388   5.402   0.979   8.025
13144SOL     OW39389   5.381   1.105   7.881
13144SOL    HW139390   5.466   1.097   7.837
13144SOL    HW239391   5.395   1.171   7.949
13145SOL     OW39392   3.829   0.751   9.018
13145SOL    HW139393   3.910   0.802   9.019
13145SOL    HW239394   3.760   0.816   9.002
13146SOL     OW39395   4.347   1.398   8.178
13146SOL    HW139396   4.306   1.312   8.183
13146SOL    HW239397   4.331   1.427   8.088
13147SOL     OW39398   4.995   1.227   8.866
13147SOL    HW139399   5.023   1.158   8.806
13147SOL    HW239400   5.055   1.222   8.939
13148SOL     OW39401   4.542   0.034   7.986
13148SOL    HW139402   4.572   0.123   7.964
13148SOL    HW239403   4.446   0.040   7.982
13149SOL     OW39404   3.910   0.957   8.750
13149SOL    HW139405   3.999   0.926   8.733
13149SOL    HW239406   3.858   0.922   8.678
13150SOL     OW39407   5.260   1.015   7.647
13150SOL    HW139408   5.191   0.956   7.677
13150SOL    HW239409   5.301   1.046   7.728
13151SOL     OW39410   4.903   1.823   9.084
13151SOL    HW139411   4.904   1.884   9.010
13151SOL    HW239412   4.920   1.737   9.044
13152SOL     OW39413   4.041   0.258   9.223
13152SOL    HW139414   4.098   0.318   9.270
13152SOL    HW239415   3.957   0.263   9.269
13153SOL     OW39416   5.196   1.418   8.378
13153SOL    HW139417   5.133   1.437   8.447
13153SOL    HW239418   5.178   1.327   8.354
13154SOL     OW39419   5.361   1.796   8.010
13154SOL    HW139420   5.344   1.750   7.928
13154SOL    HW239421   5.361   1.728   8.077
13155SOL     OW39422   4.309   0.710   7.722
13155SOL    HW139423   4.309   0.797   7.682
13155SOL    HW239424   4.244   0.716   7.792
13156SOL     OW39425   5.006   0.391   8.386
13156SOL    HW139426   4.917   0.356   8.394
13156SOL    HW239427   5.060   0.332   8.439
13157SOL     OW39428   5.303   1.673   7.767
13157SOL    HW139429   5.397   1.688   7.756
13157SOL    HW239430   5.270   1.661   7.678
13158SOL     OW39431   4.517   0.614   8.892
13158SOL    HW139432   4.490   0.579   8.977
13158SOL    HW239433   4.494   0.545   8.830
13159SOL     OW39434   5.121   0.493   9.122
13159SOL    HW139435   5.124   0.534   9.209
13159SOL    HW239436   5.172   0.412   9.132
13160SOL     OW39437   4.670   0.879   9.041
13160SOL    HW139438   4.726   0.816   8.996
13160SOL    HW239439   4.621   0.922   8.970
13161SOL     OW39440   4.738   0.416   8.657
13161SOL    HW139441   4.647   0.426   8.685
13161SOL    HW239442   4.732   0.374   8.571
13162SOL     OW39443   4.778   0.704   7.868
13162SOL    HW139444   4.801   0.700   7.961
13162SOL    HW239445   4.693   0.661   7.862
13163SOL     OW39446   3.818   0.825   8.233
13163SOL    HW139447   3.899   0.818   8.282
13163SOL    HW239448   3.771   0.898   8.275
13164SOL     OW39449   3.835   1.879   9.040
13164SOL    HW139450   3.844   1.857   9.133
13164SOL    HW239451   3.749   1.844   9.016
13165SOL     OW39452   4.610   0.361   7.653
13165SOL    HW139453   4.653   0.418   7.590
13165SOL    HW239454   4.609   0.275   7.612
13166SOL     OW39455   5.405   0.558   9.284
13166SOL    HW139456   5.386   0.639   9.237
13166SOL    HW239457   5.434   0.497   9.216
13167SOL     OW39458   5.117   1.151   7.992
13167SOL    HW139459   5.197   1.139   7.940
13167SOL    HW239460   5.064   1.212   7.941
13168SOL     OW39461   4.264   0.221   8.375
13168SOL    HW139462   4.284   0.235   8.467
13168SOL    HW239463   4.276   0.307   8.334
13169SOL     OW39464   4.721   1.456   7.913
13169SOL    HW139465   4.697   1.530   7.858
13169SOL    HW239466   4.691   1.480   8.001
13170SOL     OW39467   4.078   1.816   8.327
13170SOL    HW139468   4.123   1.731   8.332
13170SOL    HW239469   4.145   1.880   8.349
13171SOL     OW39470   5.529   1.046   8.339
13171SOL    HW139471   5.482   1.030   8.257
13171SOL    HW239472   5.460   1.055   8.405
13172SOL     OW39473   4.942   1.545   8.964
13172SOL    HW139474   4.931   1.474   9.027
13172SOL    HW239475   4.873   1.531   8.900
13173SOL     OW39476   4.022   0.956   7.712
13173SOL    HW139477   4.105   0.976   7.668
13173SOL    HW239478   4.001   0.867   7.683
13174SOL     OW39479   5.209   0.766   8.159
13174SOL    HW139480   5.206   0.729   8.247
13174SOL    HW239481   5.288   0.820   8.158
13175SOL     OW39482   4.195   1.286   9.195
13175SOL    HW139483   4.171   1.289   9.102
13175SOL    HW239484   4.112   1.276   9.241
13176SOL     OW39485   4.863   1.776   7.674
13176SOL    HW139486   4.781   1.746   7.713
13176SOL    HW239487   4.883   1.711   7.607
13177SOL     OW39488   3.942   0.267   8.956
13177SOL    HW139489   3.876   0.336   8.955
13177SOL    HW239490   3.963   0.255   9.049
13178SOL     OW39491   5.362   1.388   7.548
13178SOL    HW139492   5.321   1.474   7.535
13178SOL    HW239493   5.295   1.325   7.521
13179SOL     OW39494   4.182   1.742   7.764
13179SOL    HW139495   4.231   1.792   7.829
13179SOL    HW239496   4.250   1.701   7.709
13180SOL     OW39497   5.130   0.163   7.866
13180SOL    HW139498   5.123   0.107   7.789
13180SOL    HW239499   5.222   0.156   7.893
13181SOL     OW39500   3.976   1.789   8.662
13181SOL    HW139501   4.024   1.714   8.697
13181SOL    HW239502   3.961   1.767   8.570
13182SOL     OW39503   4.672   1.703   8.338
13182SOL    HW139504   4.757   1.661   8.353
13182SOL    HW239505   4.633   1.652   8.267
13183SOL     OW39506   4.118   0.689   7.923
13183SOL    HW139507   4.133   0.595   7.934
13183SOL    HW239508   4.025   0.700   7.941
13184SOL     OW39509   5.228   0.232   9.164
13184SOL    HW139510   5.244   0.248   9.257
13184SOL    HW239511   5.148   0.180   9.162
13185SOL     OW39512   4.366   0.105   7.554
13185SOL    HW139513   4.403   0.031   7.603
13185SOL    HW239514   4.304   0.066   7.493
13186SOL     OW39515   4.479   0.264   9.223
13186SOL    HW139516   4.553   0.205   9.213
13186SOL    HW239517   4.434   0.234   9.301
13187SOL     OW39518   4.593   1.528   8.647
13187SOL    HW139519   4.575   1.486   8.563
13187SOL    HW239520   4.660   1.472   8.688
13188SOL     OW39521   5.062   0.595   8.876
13188SOL    HW139522   5.093   0.569   8.963
13188SOL    HW239523   5.094   0.684   8.865
13189SOL     OW39524   4.540   1.377   8.404
13189SOL    HW139525   4.628   1.373   8.366
13189SOL    HW239526   4.482   1.392   8.330
13190SOL     OW39527   4.659   0.521   8.341
13190SOL    HW139528   4.631   0.511   8.250
13190SOL    HW239529   4.682   0.432   8.369
13191SOL     OW39530   4.275   0.061   7.942
13191SOL    HW139531   4.194   0.044   7.989
13191SOL    HW239532   4.253   0.130   7.879
13192SOL     OW39533   5.158   1.212   7.480
13192SOL    HW139534   5.188   1.139   7.533
13192SOL    HW239535   5.073   1.236   7.517
13193SOL     OW39536   4.020   0.070   7.672
13193SOL    HW139537   4.089   0.133   7.693
13193SOL    HW239538   4.053   9.987   7.707
13194SOL     OW39539   4.662   0.271   7.910
13194SOL    HW139540   4.636   0.304   7.824
13194SOL    HW239541   4.756   0.288   7.914
13195SOL     OW39542   4.802   0.692   8.892
13195SOL    HW139543   4.739   0.621   8.902
13195SOL    HW239544   4.887   0.648   8.888
13196SOL     OW39545   4.930   1.586   8.250
13196SOL    HW139546   4.945   1.647   8.177
13196SOL    HW239547   5.003   1.602   8.310
13197SOL     OW39548   4.207   1.161   8.155
13197SOL    HW139549   4.144   1.137   8.224
13197SOL    HW239550   4.156   1.154   8.074
13198SOL     OW39551   4.975   1.792   8.065
13198SOL    HW139552   5.024   1.855   8.012
13198SOL    HW239553   4.904   1.843   8.104
13199SOL     OW39554   4.762   0.517   7.478
13199SOL    HW139555   4.714   0.597   7.455
13199SOL    HW239556   4.820   0.543   7.550
13200SOL     OW39557   3.827   0.536   8.846
13200SOL    HW139558   3.915   0.550   8.813
13200SOL    HW239559   3.812   0.608   8.908
13201SOL     OW39560   4.291   0.236   8.650
13201SOL    HW139561   4.333   0.190   8.723
13201SOL    HW239562   4.198   0.225   8.666
13202SOL     OW39563   4.587   0.475   8.086
13202SOL    HW139564   4.544   0.530   8.021
13202SOL    HW239565   4.609   0.394   8.038
13203SOL     OW39566   4.687   0.062   8.237
13203SOL    HW139567   4.634   0.050   8.158
13203SOL    HW239568   4.699   9.974   8.272
13204SOL     OW39569   5.157   1.153   8.303
13204SOL    HW139570   5.088   1.087   8.314
13204SOL    HW239571   5.169   1.159   8.208
13205SOL     OW39572   5.181   0.624   8.399
13205SOL    HW139573   5.120   0.550   8.405
13205SOL    HW239574   5.236   0.617   8.477
13206SOL     OW39575   5.548   0.797   7.837
13206SOL    HW139576   5.610   0.755   7.896
13206SOL    HW239577   5.538   0.735   7.765
13207SOL     OW39578   4.222   1.424   7.599
13207SOL    HW139579   4.147   1.392   7.649
13207SOL    HW239580   4.218   1.375   7.517
13208SOL     OW39581   5.433   1.273   8.080
13208SOL    HW139582   5.526   1.266   8.102
13208SOL    HW239583   5.409   1.362   8.107
13209SOL     OW39584   5.118   0.578   7.522
13209SOL    HW139585   5.060   0.556   7.595
13209SOL    HW239586   5.205   0.551   7.552
13210SOL     OW39587   4.223   0.250   7.742
13210SOL    HW139588   4.288   0.213   7.682
13210SOL    HW239589   4.202   0.335   7.705
13211SOL     OW39590   5.458   1.244   8.980
13211SOL    HW139591   5.547   1.209   8.966
13211SOL    HW239592   5.472   1.330   9.018
13212SOL     OW39593   4.765   1.355   8.783
13212SOL    HW139594   4.688   1.321   8.828
13212SOL    HW239595   4.839   1.311   8.824
13213SOL     OW39596   5.331   1.635   9.113
13213SOL    HW139597   5.323   1.671   9.024
13213SOL    HW239598   5.409   1.579   9.108
13214SOL     OW39599   4.875   1.240   8.553
13214SOL    HW139600   4.813   1.273   8.618
13214SOL    HW239601   4.841   1.271   8.469
13215SOL     OW39602   5.333   1.093   8.525
13215SOL    HW139603   5.326   1.159   8.594
13215SOL    HW239604   5.263   1.114   8.463
13216SOL     OW39605   4.610   0.161   8.820
13216SOL    HW139606   4.636   0.117   8.738
13216SOL    HW239607   4.693   0.186   8.860
13217SOL     OW39608   4.704   1.115   9.171
13217SOL    HW139609   4.613   1.132   9.196
13217SOL    HW239610   4.700   1.034   9.120
13218SOL     OW39611   4.436   1.063   7.825
13218SOL    HW139612   4.421   1.035   7.916
13218SOL    HW239613   4.510   1.010   7.795
13219SOL     OW39614   4.154   0.839   8.707
13219SOL    HW139615   4.222   0.844   8.775
13219SOL    HW239616   4.120   0.750   8.714
13220SOL     OW39617   4.995   0.375   8.730
13220SOL    HW139618   5.025   0.452   8.777
13220SOL    HW239619   4.906   0.396   8.702
13221SOL     OW39620   3.802   1.570   8.809
13221SOL    HW139621   3.771   1.642   8.754
13221SOL    HW239622   3.897   1.570   8.799
13222SOL     OW39623   4.041   1.133   7.933
13222SOL    HW139624   4.042   1.205   7.870
13222SOL    HW239625   4.038   1.054   7.880
13223SOL     OW39626   4.284   0.492   8.299
13223SOL    HW139627   4.289   0.547   8.221
13223SOL    HW239628   4.343   0.533   8.361
13224SOL     OW39629   4.971   1.355   7.846
13224SOL    HW139630   5.027   1.424   7.881
13224SOL    HW239631   4.883   1.378   7.876
13225SOL     OW39632   5.033   1.469   8.590
13225SOL    HW139633   5.080   1.476   8.673
13225SOL    HW239634   4.982   1.389   8.597
13226SOL     OW39635   5.300   0.626   7.928
13226SOL    HW139636   5.249   0.667   7.998
13226SOL    HW239637   5.353   0.697   7.892
13227SOL     OW39638   4.068   1.534   8.749
13227SOL    HW139639   4.061   1.481   8.670
13227SOL    HW239640   4.162   1.550   8.759
13228SOL     OW39641   4.169   0.725   9.074
13228SOL    HW139642   4.218   0.776   9.009
13228SOL    HW239643   4.224   0.648   9.090
13229SOL     OW39644   5.349   0.787   9.150
13229SOL    HW139645   5.262   0.825   9.141
13229SOL    HW239646   5.400   0.825   9.078
13230SOL     OW39647   4.686   0.080   9.224
13230SOL    HW139648   4.753   0.136   9.264
13230SOL    HW239649   4.728   0.045   9.146
13231SOL     OW39650   4.191   0.023   9.232
13231SOL    HW139651   4.250   0.001   9.160
13231SOL    HW239652   4.147   0.103   9.205
13232SOL     OW39653   4.316   0.881   8.485
13232SOL    HW139654   4.355   0.968   8.489
13232SOL    HW239655   4.259   0.876   8.561
13233SOL     OW39656   5.029   0.860   8.448
13233SOL    HW139657   4.940   0.832   8.425
13233SOL    HW239658   5.083   0.781   8.433
13234SOL     OW39659   4.917   0.530   7.708
13234SOL    HW139660   4.926   0.457   7.769
13234SOL    HW239661   4.876   0.599   7.760
13235SOL     OW39662   4.024   0.180   8.704
13235SOL    HW139663   3.990   0.211   8.787
13235SOL    HW239664   4.035   0.085   8.716
13236SOL     OW39665   3.775   1.312   8.713
13236SOL    HW139666   3.803   1.256   8.786
13236SOL    HW239667   3.777   1.401   8.749
13237SOL     OW39668   4.434   0.629   8.482
13237SOL    HW139669   4.514   0.625   8.430
13237SOL    HW239670   4.403   0.718   8.472
13238SOL     OW39671   5.480   0.972   9.314
13238SOL    HW139672   5.435   0.899   9.272
13238SOL    HW239673   5.425   0.995   9.389
13239SOL     OW39674   4.022   0.064   8.075
13239SOL    HW139675   4.002   0.157   8.078
13239SOL    HW239676   4.036   0.040   8.167
13240SOL     OW39677   5.360   0.397   7.788
13240SOL    HW139678   5.399   0.334   7.848
13240SOL    HW239679   5.331   0.469   7.844
13241SOL     OW39680   4.760   0.763   8.407
13241SOL    HW139681   4.738   0.778   8.499
13241SOL    HW239682   4.732   0.674   8.390
13242SOL     OW39683   4.704   1.568   9.181
13242SOL    HW139684   4.684   1.610   9.097
13242SOL    HW239685   4.744   1.484   9.156
13243SOL     OW39686   5.562   1.494   9.049
13243SOL    HW139687   5.590   1.523   8.962
13243SOL    HW239688   5.640   1.505   9.103
13244SOL     OW39689   4.075   0.910   9.258
13244SOL    HW139690   4.152   0.933   9.311
13244SOL    HW239691   4.107   0.843   9.198
13245SOL     OW39692   5.241   0.279   7.567
13245SOL    HW139693   5.201   0.200   7.604
13245SOL    HW239694   5.286   0.320   7.640
13246SOL     OW39695   5.004   0.821   7.468
13246SOL    HW139696   5.047   0.736   7.477
13246SOL    HW239697   5.040   0.857   7.387
13247SOL     OW39698   4.793   1.353   8.314
13247SOL    HW139699   4.804   1.280   8.252
13247SOL    HW239700   4.845   1.424   8.276
13248SOL     OW39701   4.046   0.815   8.392
13248SOL    HW139702   4.139   0.835   8.390
13248SOL    HW239703   4.041   0.725   8.423
13249SOL     OW39704   4.073   0.543   8.463
13249SOL    HW139705   4.016   0.467   8.459
13249SOL    HW239706   4.143   0.524   8.400
13250SOL     OW39707   4.858   0.412   9.096
13250SOL    HW139708   4.812   0.449   9.171
13250SOL    HW239709   4.947   0.447   9.102
13251SOL     OW39710   4.867   0.209   8.914
13251SOL    HW139711   4.857   0.273   8.984
13251SOL    HW239712   4.921   0.252   8.849
13252SOL     OW39713   3.748   1.303   7.627
13252SOL    HW139714   3.658   1.325   7.602
13252SOL    HW239715   3.741   1.216   7.668
13253SOL     OW39716   3.817   1.770   8.399
13253SOL    HW139717   3.783   1.696   8.348
13253SOL    HW239718   3.904   1.787   8.362
13254SOL     OW39719   4.209   1.570   8.348
13254SOL    HW139720   4.279   1.630   8.371
13254SOL    HW239721   4.249   1.508   8.287
13255SOL     OW39722   4.675   0.784   8.665
13255SOL    HW139723   4.736   0.768   8.736
13255SOL    HW239724   4.595   0.738   8.691
13256SOL     OW39725   3.741   0.522   8.578
13256SOL    HW139726   3.799   0.463   8.530
13256SOL    HW239727   3.786   0.538   8.661
13257SOL     OW39728   3.908   0.553   9.192
13257SOL    HW139729   3.995   0.551   9.152
13257SOL    HW239730   3.860   0.620   9.142
13258SOL     OW39731   5.116   0.921   9.098
13258SOL    HW139732   5.133   1.015   9.094
13258SOL    HW239733   5.109   0.894   9.006
13259SOL     OW39734   4.537   0.580   7.822
13259SOL    HW139735   4.543   0.505   7.764
13259SOL    HW239736   4.460   0.628   7.792
13260SOL     OW39737   5.350   0.606   8.615
13260SOL    HW139738   5.330   0.552   8.692
13260SOL    HW239739   5.438   0.579   8.590
13261SOL     OW39740   3.949   1.543   9.169
13261SOL    HW139741   3.930   1.599   9.244
13261SOL    HW239742   3.959   1.455   9.206
13262SOL     OW39743   4.463   0.450   8.684
13262SOL    HW139744   4.400   0.378   8.673
13262SOL    HW239745   4.443   0.511   8.612
13263SOL     OW39746   4.632   1.679   8.933
13263SOL    HW139747   4.608   1.632   8.854
13263SOL    HW239748   4.632   1.771   8.908
13264SOL     OW39749   4.169   0.488   7.620
13264SOL    HW139750   4.232   0.556   7.645
13264SOL    HW239751   4.084   0.532   7.621
13265SOL     OW39752   3.853   1.151   8.928
13265SOL    HW139753   3.859   1.112   9.016
13265SOL    HW239754   3.874   1.079   8.869
13266SOL     OW39755   5.028   1.037   8.655
13266SOL    HW139756   5.036   0.974   8.584
13266SOL    HW239757   4.974   1.108   8.619
13267SOL     OW39758   5.049   0.863   7.740
13267SOL    HW139759   4.978   0.832   7.795
13267SOL    HW239760   5.019   0.848   7.650
13268SOL     OW39761   5.512   1.724   8.618
13268SOL    HW139762   5.573   1.750   8.549
13268SOL    HW239763   5.479   1.638   8.591
13269SOL     OW39764   4.964   1.734   8.538
13269SOL    HW139765   5.049   1.764   8.505
13269SOL    HW239766   4.979   1.643   8.563
13270SOL     OW39767   3.831   1.248   8.456
13270SOL    HW139768   3.803   1.270   8.545
13270SOL    HW239769   3.760   1.195   8.421
13271SOL     OW39770   4.412   1.682   9.201
13271SOL    HW139771   4.349   1.754   9.187
13271SOL    HW239772   4.487   1.705   9.146
13272SOL     OW39773   5.487   0.187   7.932
13272SOL    HW139774   5.539   0.188   7.852
13272SOL    HW239775   5.521   0.113   7.983
13273SOL     OW39776   5.121   1.570   7.951
13273SOL    HW139777   5.176   1.605   7.881
13273SOL    HW239778   5.066   1.644   7.978
13274SOL     OW39779   3.865   1.801   9.295
13274SOL    HW139780   3.819   1.730   9.340
13274SOL    HW239781   3.914   1.845   9.365
13275SOL     OW39782   5.002   0.937   8.110
13275SOL    HW139783   5.076   0.878   8.123
13275SOL    HW239784   5.038   1.010   8.059
13276SOL     OW39785   4.506   1.280   8.861
13276SOL    HW139786   4.480   1.328   8.940
13276SOL    HW239787   4.432   1.289   8.801
13277SOL     OW39788   4.392   1.636   7.608
13277SOL    HW139789   4.406   1.650   7.514
13277SOL    HW239790   4.340   1.555   7.612
13278SOL     OW39791   5.339   1.731   8.846
13278SOL    HW139792   5.397   1.731   8.770
13278SOL    HW239793   5.324   1.823   8.864
13279SOL     OW39794   5.576   0.154   8.409
13279SOL    HW139795   5.607   0.081   8.356
13279SOL    HW239796   5.490   0.175   8.373
13280SOL     OW39797   3.968   0.324   8.151
13280SOL    HW139798   3.881   0.359   8.133
13280SOL    HW239799   3.973   0.316   8.246
13281SOL     OW39800   4.933   1.588   7.486
13281SOL    HW139801   4.923   1.497   7.514
13281SOL    HW239802   4.864   1.602   7.422
13282SOL     OW39803   4.548   1.011   8.834
13282SOL    HW139804   4.586   1.001   8.747
13282SOL    HW239805   4.536   1.105   8.845
13283SOL     OW39806   4.641   0.913   7.739
13283SOL    HW139807   4.700   0.947   7.671
13283SOL    HW239808   4.693   0.847   7.784
13284SOL     OW39809   5.207   1.645   7.506
13284SOL    HW139810   5.115   1.625   7.489
13284SOL    HW239811   5.248   1.648   7.419
13285SOL     OW39812   4.086   1.312   8.948
13285SOL    HW139813   4.078   1.387   8.888
13285SOL    HW239814   4.008   1.260   8.933
13286SOL     OW39815   5.323   1.290   8.726
13286SOL    HW139816   5.376   1.265   8.802
13286SOL    HW239817   5.264   1.357   8.759
13287SOL     OW39818   4.800   1.120   8.176
13287SOL    HW139819   4.725   1.070   8.208
13287SOL    HW239820   4.862   1.053   8.147
13288SOL     OW39821   4.748   0.256   8.423
13288SOL    HW139822   4.729   0.208   8.342
13288SOL    HW239823   4.744   0.190   8.492
13289SOL     OW39824   4.328   1.486   7.923
13289SOL    HW139825   4.383   1.437   7.861
13289SOL    HW239826   4.246   1.501   7.876
13290SOL     OW39827   5.466   0.368   8.836
13290SOL    HW139828   5.539   0.429   8.824
13290SOL    HW239829   5.481   0.301   8.769
13291SOL     OW39830   4.003   1.340   7.747
13291SOL    HW139831   3.916   1.333   7.708
13291SOL    HW239832   3.989   1.389   7.828
13292SOL     OW39833   3.849   1.048   9.183
13292SOL    HW139834   3.771   1.021   9.232
13292SOL    HW239835   3.920   0.995   9.219
13293SOL     OW39836   4.386   0.230   8.958
13293SOL    HW139837   4.465   0.204   8.910
13293SOL    HW239838   4.417   0.246   9.047
13294SOL     OW39839   3.796   0.335   7.463
13294SOL    HW139840   3.714   0.326   7.415
13294SOL    HW239841   3.831   0.420   7.434
13295SOL     OW39842   5.139   0.857   8.834
13295SOL    HW139843   5.087   0.916   8.779
13295SOL    HW239844   5.227   0.863   8.797
13296SOL     OW39845   3.783   0.201   7.714
13296SOL    HW139846   3.782   0.256   7.635
13296SOL    HW239847   3.862   0.147   7.703
13297SOL     OW39848   4.907   1.322   7.571
13297SOL    HW139849   4.817   1.290   7.571
13297SOL    HW239850   4.931   1.326   7.664
13298SOL     OW39851   4.351   0.830   8.892
13298SOL    HW139852   4.409   0.905   8.880
13298SOL    HW239853   4.410   0.755   8.894
13299SOL     OW39854   5.211   1.803   8.441
13299SOL    HW139855   5.238   1.877   8.387
13299SOL    HW239856   5.292   1.758   8.462
13300SOL     OW39857   4.440   0.541   9.144
13300SOL    HW139858   4.489   0.600   9.202
13300SOL    HW239859   4.455   0.454   9.180
13301SOL     OW39860   5.192   1.184   9.069
13301SOL    HW139861   5.186   1.204   9.163
13301SOL    HW239862   5.282   1.208   9.046
13302SOL     OW39863   4.079   1.748   9.026
13302SOL    HW139864   3.997   1.795   9.011
13302SOL    HW239865   4.053   1.664   9.063
13303SOL     OW39866   5.380   0.878   8.701
13303SOL    HW139867   5.376   0.794   8.655
13303SOL    HW239868   5.368   0.943   8.632
13304SOL     OW39869   4.931   0.338   7.906
13304SOL    HW139870   4.999   0.273   7.891
13304SOL    HW239871   4.961   0.387   7.982
13305SOL     OW39872   4.307   0.717   8.127
13305SOL    HW139873   4.348   0.803   8.115
13305SOL    HW239874   4.241   0.712   8.058
13306SOL     OW39875   5.468   0.352   9.109
13306SOL    HW139876   5.470   0.365   9.014
13306SOL    HW239877   5.388   0.304   9.125
13307SOL     OW39878   5.480   0.924   8.953
13307SOL    HW139879   5.465   1.018   8.968
13307SOL    HW239880   5.454   0.910   8.862
13308SOL     OW39881   4.592   1.357   7.510
13308SOL    HW139882   4.556   1.374   7.597
13308SOL    HW239883   4.603   1.444   7.471
13309SOL     OW39884   4.393   1.766   8.373
13309SOL    HW139885   4.373   1.860   8.366
13309SOL    HW239886   4.488   1.761   8.372
13310SOL     OW39887   4.597   0.978   8.304
13310SOL    HW139888   4.647   0.905   8.340
13310SOL    HW239889   4.551   1.015   8.379
13311SOL     OW39890   4.800   0.989   7.536
13311SOL    HW139891   4.777   1.040   7.459
13311SOL    HW239892   4.872   0.933   7.506
13312SOL     OW39893   5.555   1.557   8.287
13312SOL    HW139894   5.478   1.549   8.231
13312SOL    HW239895   5.536   1.503   8.363
13313SOL     OW39896   3.935   1.290   9.284
13313SOL    HW139897   3.905   1.209   9.242
13313SOL    HW239898   3.874   1.305   9.356
13314SOL     OW39899   3.842   1.226   8.115
13314SOL    HW139900   3.872   1.184   8.196
13314SOL    HW239901   3.900   1.191   8.048
13315SOL     OW39902   4.411   1.421   9.078
13315SOL    HW139903   4.335   1.381   9.120
13315SOL    HW239904   4.417   1.508   9.116
13316SOL     OW39905   5.487   0.147   8.675
13316SOL    HW139906   5.436   0.066   8.667
13316SOL    HW239907   5.530   0.156   8.590
13317SOL     OW39908   4.152   0.427   7.968
13317SOL    HW139909   4.177   0.354   7.912
13317SOL    HW239910   4.097   0.388   8.036
13318SOL     OW39911   5.419   1.481   8.531
13318SOL    HW139912   5.341   1.461   8.478
13318SOL    HW239913   5.419   1.413   8.599
13319SOL     OW39914   4.069   0.582   8.735
13319SOL    HW139915   4.123   0.520   8.785
13319SOL    HW239916   4.085   0.557   8.644
13320SOL     OW39917   4.562   1.583   8.119
13320SOL    HW139918   4.530   1.651   8.060
13320SOL    HW239919   4.487   1.523   8.129
13321SOL     OW39920   5.158   0.238   8.559
13321SOL    HW139921   5.192   0.160   8.604
13321SOL    HW239922   5.108   0.285   8.625
13322SOL     OW39923   4.751   0.040   8.604
13322SOL    HW139924   4.725   9.948   8.605
13322SOL    HW239925   4.844   0.039   8.626
13323SOL     OW39926   4.505   1.332   7.776
13323SOL    HW139927   4.480   1.241   7.789
13323SOL    HW239928   4.584   1.343   7.828
13324SOL     OW39929   4.339   1.571   8.735
13324SOL    HW139930   4.334   1.655   8.781
13324SOL    HW239931   4.429   1.566   8.703
13325SOL     OW39932   5.112   0.032   7.627
13325SOL    HW139933   5.196   9.985   7.633
13325SOL    HW239934   5.046   9.964   7.637
13326SOL     OW39935   5.022   0.478   8.123
13326SOL    HW139936   4.970   0.558   8.123
13326SOL    HW239937   5.015   0.445   8.213
13327SOL     OW39938   5.324   0.223   8.329
13327SOL    HW139939   5.267   0.236   8.405
13327SOL    HW239940   5.321   0.307   8.283
13328SOL     OW39941   3.761   1.051   7.755
13328SOL    HW139942   3.853   1.038   7.736
13328SOL    HW239943   3.728   0.964   7.776
13329SOL     OW39944   4.619   1.676   7.778
13329SOL    HW139945   4.541   1.660   7.726
13329SOL    HW239946   4.594   1.744   7.840
13330SOL     OW39947   3.936   0.618   9.461
13330SOL    HW139948   3.848   0.606   9.497
13330SOL    HW239949   3.923   0.613   9.366
13331SOL     OW39950   5.528   0.570   9.522
13331SOL    HW139951   5.484   0.565   9.437
13331SOL    HW239952   5.486   0.503   9.575
13332SOL     OW39953   3.933   1.748   9.761
13332SOL    HW139954   3.956   1.818   9.822
13332SOL    HW239955   4.014   1.730   9.713
13333SOL     OW39956   3.952   1.463   9.846
13333SOL    HW139957   3.925   1.548   9.882
13333SOL    HW239958   3.884   1.402   9.875
13334SOL     OW39959   4.293   0.984   9.451
13334SOL    HW139960   4.343   1.028   9.382
13334SOL    HW239961   4.332   1.015   9.532
13335SOL     OW39962   3.846   0.701   9.849
13335SOL    HW139963   3.819   0.613   9.876
13335SOL    HW239964   3.815   0.758   9.919
13336SOL     OW39965   5.552   1.754   9.639
13336SOL    HW139966   5.629   1.736   9.693
13336SOL    HW239967   5.567   1.843   9.605
13337SOL     OW39968   3.772   1.590   9.432
13337SOL    HW139969   3.758   1.497   9.449
13337SOL    HW239970   3.735   1.634   9.509
13338SOL     OW39971   5.381   0.854   9.915
13338SOL    HW139972   5.461   0.860   9.967
13338SOL    HW239973   5.383   0.932   9.859
13339SOL     OW39974   5.416   1.094   9.759
13339SOL    HW139975   5.501   1.095   9.715
13339SOL    HW239976   5.417   1.172   9.815
13340SOL     OW39977   4.367   1.340   9.992
13340SOL    HW139978   4.308   1.265   9.990
13340SOL    HW239979   4.344   1.390   9.914
13341SOL     OW39980   4.527   0.010   9.804
13341SOL    HW139981   4.565   0.098   9.803
13341SOL    HW239982   4.434   0.024   9.821
13342SOL     OW39983   5.284   1.023   9.519
13342SOL    HW139984   5.220   0.957   9.544
13342SOL    HW239985   5.324   1.051   9.601
13343SOL     OW39986   4.307   0.707   9.585
13343SOL    HW139987   4.311   0.794   9.545
13343SOL    HW239988   4.248   0.717   9.659
13344SOL     OW39989   5.286   1.675   9.626
13344SOL    HW139990   5.379   1.697   9.633
13344SOL    HW239991   5.270   1.662   9.533
13345SOL     OW39992   4.770   0.688   9.735
13345SOL    HW139993   4.801   0.664   9.822
13345SOL    HW239994   4.682   0.649   9.730
13346SOL     OW39995   3.765   0.854   0.065
13346SOL    HW139996   3.820   0.791   0.113
13346SOL    HW239997   3.753   0.926   0.127
13347SOL     OW39998   4.608   0.363   9.516
13347SOL    HW139999   4.650   0.422   9.453
13347SOL    HW240000   4.614   0.276   9.475
13348SOL     OW40001   5.035   1.094   9.789
13348SOL    HW140002   5.088   1.120   9.865
13348SOL    HW240003   5.011   1.176   9.747
13349SOL     OW40004   4.716   1.435   9.783
13349SOL    HW140005   4.686   1.520   9.751
13349SOL    HW240006   4.689   1.433   9.875
13350SOL     OW40007   4.074   1.854   0.167
13350SOL    HW140008   4.078   1.772   0.216
13350SOL    HW240009   4.165   1.884   0.164
13351SOL     OW40010   4.038   0.956   9.575
13351SOL    HW140011   4.117   0.970   9.524
13351SOL    HW240012   4.001   0.874   9.541
13352SOL     OW40013   4.862   1.776   9.546
13352SOL    HW140014   4.782   1.742   9.587
13352SOL    HW240015   4.882   1.712   9.478
13353SOL     OW40016   5.362   1.392   9.403
13353SOL    HW140017   5.318   1.477   9.391
13353SOL    HW240018   5.295   1.327   9.380
13354SOL     OW40019   4.192   1.762   9.634
13354SOL    HW140020   4.242   1.787   9.712
13354SOL    HW240021   4.255   1.714   9.580
13355SOL     OW40022   5.140   0.162   9.755
13355SOL    HW140023   5.121   0.122   9.669
13355SOL    HW240024   5.202   0.232   9.735
13356SOL     OW40025   4.122   0.668   9.803
13356SOL    HW140026   4.116   0.573   9.817
13356SOL    HW240027   4.031   0.699   9.808
13357SOL     OW40028   4.364   0.109   9.432
13357SOL    HW140029   4.404   0.033   9.474
13357SOL    HW240030   4.306   0.071   9.365
13358SOL     OW40031   4.268   0.085   9.844
13358SOL    HW140032   4.177   0.060   9.860
13358SOL    HW240033   4.263   0.149   9.773
13359SOL     OW40034   5.164   1.207   9.345
13359SOL    HW140035   5.199   1.140   9.403
13359SOL    HW240036   5.077   1.227   9.381
13360SOL     OW40037   4.020   0.044   9.515
13360SOL    HW140038   4.087   0.051   9.447
13360SOL    HW240039   4.056   9.982   9.578
13361SOL     OW40040   4.646   0.257   9.770
13361SOL    HW140041   4.624   0.298   9.686
13361SOL    HW240042   4.741   0.267   9.778
13362SOL     OW40043   4.167   1.154   0.033
13362SOL    HW140044   4.096   1.185   0.089
13362SOL    HW240045   4.125   1.137   9.949
13363SOL     OW40046   5.023   1.835   9.899
13363SOL    HW140047   5.067   1.901   9.845
13363SOL    HW240048   4.931   1.860   9.896
13364SOL     OW40049   4.762   0.516   9.338
13364SOL    HW140050   4.714   0.596   9.314
13364SOL    HW240051   4.820   0.544   9.409
13365SOL     OW40052   4.557   0.455   9.948
13365SOL    HW140053   4.524   0.514   9.879
13365SOL    HW240054   4.577   0.374   9.901
13366SOL     OW40055   5.583   0.812   9.633
13366SOL    HW140056   5.630   0.779   9.710
13366SOL    HW240057   5.556   0.733   9.586
13367SOL     OW40058   4.219   1.427   9.464
13367SOL    HW140059   4.144   1.393   9.512
13367SOL    HW240060   4.219   1.378   9.381
13368SOL     OW40061   5.114   0.584   9.378
13368SOL    HW140062   5.059   0.564   9.453
13368SOL    HW240063   5.204   0.567   9.408
13369SOL     OW40064   4.259   0.271   9.641
13369SOL    HW140065   4.305   0.220   9.574
13369SOL    HW240066   4.222   0.346   9.594
13370SOL     OW40067   4.428   1.051   9.684
13370SOL    HW140068   4.393   1.004   9.759
13370SOL    HW240069   4.508   1.004   9.661
13371SOL     OW40070   4.036   1.125   9.796
13371SOL    HW140071   4.035   1.201   9.738
13371SOL    HW240072   4.042   1.050   9.738
13372SOL     OW40073   4.961   1.355   9.691
13372SOL    HW140074   5.017   1.426   9.722
13372SOL    HW240075   4.875   1.375   9.726
13373SOL     OW40076   5.330   0.620   9.766
13373SOL    HW140077   5.337   0.674   9.845
13373SOL    HW240078   5.322   0.682   9.694
13374SOL     OW40079   4.919   0.531   9.565
13374SOL    HW140080   4.923   0.457   9.625
13374SOL    HW240081   4.881   0.602   9.617
13375SOL     OW40082   3.996   0.097   9.918
13375SOL    HW140083   4.003   0.191   9.903
13375SOL    HW240084   4.005   0.086   0.013
13376SOL     OW40085   5.327   0.359   9.683
13376SOL    HW140086   5.394   0.317   9.735
13376SOL    HW240087   5.318   0.447   9.721
13377SOL     OW40088   5.244   0.272   9.429
13377SOL    HW140089   5.199   0.192   9.459
13377SOL    HW240090   5.282   0.309   9.509
13378SOL     OW40091   4.995   0.826   9.324
13378SOL    HW140092   5.039   0.742   9.337
13378SOL    HW240093   5.034   0.861   9.244
13379SOL     OW40094   3.748   1.316   9.484
13379SOL    HW140095   3.658   1.334   9.459
13379SOL    HW240096   3.745   1.230   9.525
13380SOL     OW40097   4.524   0.569   9.693
13380SOL    HW140098   4.535   0.499   9.628
13380SOL    HW240099   4.453   0.623   9.658
13381SOL     OW40100   4.171   0.484   9.493
13381SOL    HW140101   4.230   0.556   9.513
13381SOL    HW240102   4.084   0.524   9.487
13382SOL     OW40103   5.084   0.858   9.602
13382SOL    HW140104   5.042   0.914   9.667
13382SOL    HW240105   5.022   0.854   9.529
13383SOL     OW40106   5.514   0.209   9.818
13383SOL    HW140107   5.572   0.199   9.743
13383SOL    HW240108   5.480   0.121   9.834
13384SOL     OW40109   5.088   1.589   9.794
13384SOL    HW140110   5.159   1.606   9.732
13384SOL    HW240111   5.060   1.676   9.823
13385SOL     OW40112   4.391   1.639   9.474
13385SOL    HW140113   4.407   1.652   9.381
13385SOL    HW240114   4.338   1.560   9.479
13386SOL     OW40115   5.527   0.146   0.263
13386SOL    HW140116   5.522   0.053   0.241
13386SOL    HW240117   5.511   0.191   0.180
13387SOL     OW40118   4.932   1.594   9.349
13387SOL    HW140119   4.924   1.501   9.374
13387SOL    HW240120   4.863   1.608   9.285
13388SOL     OW40121   4.646   0.910   9.613
13388SOL    HW140122   4.702   0.942   9.542
13388SOL    HW240123   4.698   0.843   9.656
13389SOL     OW40124   5.209   1.646   9.360
13389SOL    HW140125   5.116   1.628   9.344
13389SOL    HW240126   5.248   1.649   9.272
13390SOL     OW40127   4.316   1.479   9.763
13390SOL    HW140128   4.374   1.435   9.701
13390SOL    HW240129   4.231   1.481   9.719
13391SOL     OW40130   4.003   1.343   9.614
13391SOL    HW140131   3.917   1.337   9.573
13391SOL    HW240132   3.989   1.394   9.694
13392SOL     OW40133   3.796   0.332   9.327
13392SOL    HW140134   3.716   0.320   9.276
13392SOL    HW240135   3.829   0.417   9.300
13393SOL     OW40136   3.804   0.201   9.590
13393SOL    HW140137   3.795   0.253   9.511
13393SOL    HW240138   3.878   0.144   9.573
13394SOL     OW40139   4.905   1.323   9.422
13394SOL    HW140140   4.814   1.292   9.423
13394SOL    HW240141   4.928   1.329   9.515
13395SOL     OW40142   4.918   0.337   9.761
13395SOL    HW140143   4.986   0.272   9.778
13395SOL    HW240144   4.917   0.392   9.839
13396SOL     OW40145   4.323   0.850   9.883
13396SOL    HW140146   4.332   0.851   9.978
13396SOL    HW240147   4.255   0.784   9.866
13397SOL     OW40148   4.594   1.357   9.364
13397SOL    HW140149   4.558   1.371   9.452
13397SOL    HW240150   4.604   1.445   9.327
13398SOL     OW40151   4.792   0.985   9.399
13398SOL    HW140152   4.771   1.040   9.324
13398SOL    HW240153   4.864   0.930   9.369
13399SOL     OW40154   3.788   1.247   9.901
13399SOL    HW140155   3.776   1.250   9.996
13399SOL    HW240156   3.855   1.180   9.887
13400SOL     OW40157   4.106   0.382   9.873
13400SOL    HW140158   4.168   0.349   9.808
13400SOL    HW240159   4.158   0.395   9.952
13401SOL     OW40160   4.505   1.326   9.628
13401SOL    HW140161   4.479   1.236   9.645
13401SOL    HW240162   4.582   1.340   9.684
13402SOL     OW40163   5.116   0.042   9.507
13402SOL    HW140164   5.198   9.992   9.507
13402SOL    HW240165   5.048   9.976   9.512
13403SOL     OW40166   3.781   1.070   9.598
13403SOL    HW140167   3.875   1.058   9.591
13403SOL    HW240168   3.745   0.982   9.601
13404SOL     OW40169   4.618   1.672   9.664
13404SOL    HW140170   4.543   1.655   9.608
13404SOL    HW240171   4.589   1.741   9.723
13405SOL     OW40172   3.921   2.473   0.126
13405SOL    HW140173   3.838   2.458   0.171
13405SOL    HW240174   3.897   2.485   0.034
13406SOL     OW40175   3.943   2.151   0.990
13406SOL    HW140176   3.973   2.115   1.073
13406SOL    HW240177   3.856   2.112   0.978
13407SOL     OW40178   3.708   2.260   0.647
13407SOL    HW140179   3.626   2.282   0.692
13407SOL    HW240180   3.685   2.185   0.593
13408SOL     OW40181   4.299   3.170   1.209
13408SOL    HW140182   4.217   3.173   1.160
13408SOL    HW240183   4.316   3.261   1.232
13409SOL     OW40184   5.313   3.385   0.707
13409SOL    HW140185   5.266   3.353   0.784
13409SOL    HW240186   5.246   3.389   0.638
13410SOL     OW40187   4.863   2.562   0.686
13410SOL    HW140188   4.909   2.645   0.676
13410SOL    HW240189   4.813   2.571   0.766
13411SOL     OW40190   5.496   2.445   0.199
13411SOL    HW140191   5.421   2.475   0.149
13411SOL    HW240192   5.462   2.373   0.252
13412SOL     OW40193   4.451   2.991   1.058
13412SOL    HW140194   4.392   3.031   1.122
13412SOL    HW240195   4.494   3.065   1.015
13413SOL     OW40196   4.611   2.604   1.828
13413SOL    HW140197   4.603   2.670   1.896
13413SOL    HW240198   4.628   2.653   1.748
13414SOL     OW40199   4.410   2.840   0.646
13414SOL    HW140200   4.477   2.841   0.714
13414SOL    HW240201   4.344   2.902   0.676
13415SOL     OW40202   4.436   3.012   1.832
13415SOL    HW140203   4.487   3.084   1.867
13415SOL    HW240204   4.360   3.053   1.792
13416SOL     OW40205   4.066   3.259   1.071
13416SOL    HW140206   3.990   3.216   1.031
13416SOL    HW240207   4.102   3.314   1.001
13417SOL     OW40208   5.177   3.369   1.372
13417SOL    HW140209   5.232   3.446   1.385
13417SOL    HW240210   5.105   3.380   1.434
13418SOL     OW40211   4.182   2.236   1.456
13418SOL    HW140212   4.257   2.178   1.471
13418SOL    HW240213   4.106   2.185   1.482
13419SOL     OW40214   5.303   2.294   0.752
13419SOL    HW140215   5.229   2.301   0.693
13419SOL    HW240216   5.290   2.364   0.817
13420SOL     OW40217   3.951   3.582   0.469
13420SOL    HW140218   3.968   3.657   0.527
13420SOL    HW240219   4.037   3.562   0.431
13421SOL     OW40220   4.858   3.204   1.697
13421SOL    HW140221   4.904   3.193   1.780
13421SOL    HW240222   4.805   3.125   1.688
13422SOL     OW40223   3.934   3.306   0.508
13422SOL    HW140224   3.926   3.401   0.517
13422SOL    HW240225   3.894   3.271   0.588
13423SOL     OW40226   4.005   2.948   0.881
13423SOL    HW140227   4.007   2.860   0.916
13423SOL    HW240228   3.951   2.998   0.942
13424SOL     OW40229   4.298   3.665   1.421
13424SOL    HW140230   4.222   3.645   1.475
13424SOL    HW240231   4.330   3.748   1.455
13425SOL     OW40232   4.292   2.810   0.174
13425SOL    HW140233   4.265   2.880   0.115
13425SOL    HW240234   4.350   2.853   0.237
13426SOL     OW40235   5.315   1.995   1.459
13426SOL    HW140236   5.353   2.071   1.416
13426SOL    HW240237   5.284   2.028   1.543
13427SOL     OW40238   3.839   2.515   0.573
13427SOL    HW140239   3.803   2.429   0.597
13427SOL    HW240240   3.831   2.568   0.653
13428SOL     OW40241   5.589   3.597   0.299
13428SOL    HW140242   5.656   3.575   0.363
13428SOL    HW240243   5.601   3.691   0.282
13429SOL     OW40244   3.788   3.437   0.085
13429SOL    HW140245   3.762   3.350   0.116
13429SOL    HW240246   3.763   3.496   0.157
13430SOL     OW40247   5.421   2.783   0.665
13430SOL    HW140248   5.505   2.739   0.648
13430SOL    HW240249   5.403   2.831   0.585
13431SOL     OW40250   5.386   2.953   0.443
13431SOL    HW140251   5.468   2.947   0.394
13431SOL    HW240252   5.401   3.023   0.506
13432SOL     OW40253   3.845   2.611   1.578
13432SOL    HW140254   3.930   2.655   1.583
13432SOL    HW240255   3.782   2.682   1.565
13433SOL     OW40256   4.341   3.244   0.756
13433SOL    HW140257   4.299   3.158   0.752
13433SOL    HW240258   4.335   3.277   0.666
13434SOL     OW40259   4.995   3.088   1.416
13434SOL    HW140260   5.022   3.019   1.357
13434SOL    HW240261   5.056   3.083   1.490
13435SOL     OW40262   4.556   1.878   0.529
13435SOL    HW140263   4.597   1.959   0.497
13435SOL    HW240264   4.462   1.897   0.529
13436SOL     OW40265   3.911   2.818   1.302
13436SOL    HW140266   3.998   2.783   1.285
13436SOL    HW240267   3.856   2.781   1.233
13437SOL     OW40268   5.216   2.891   0.235
13437SOL    HW140269   5.162   2.818   0.266
13437SOL    HW240270   5.277   2.907   0.307
13438SOL     OW40271   4.904   3.685   1.636
13438SOL    HW140272   4.905   3.747   1.563
13438SOL    HW240273   4.921   3.600   1.596
13439SOL     OW40274   4.084   2.115   1.875
13439SOL    HW140275   4.119   2.195   1.914
13439SOL    HW240276   3.989   2.130   1.873
13440SOL     OW40277   5.197   3.277   0.931
13440SOL    HW140278   5.133   3.297   1.000
13440SOL    HW240279   5.178   3.186   0.907
13441SOL     OW40280   5.369   3.656   0.564
13441SOL    HW140281   5.352   3.611   0.482
13441SOL    HW240282   5.366   3.587   0.631
13442SOL     OW40283   4.316   2.553   0.285
13442SOL    HW140284   4.322   2.639   0.244
13442SOL    HW240285   4.250   2.563   0.353
13443SOL     OW40286   5.005   2.253   0.941
13443SOL    HW140287   4.916   2.218   0.947
13443SOL    HW240288   5.057   2.195   0.996
13444SOL     OW40289   5.316   3.538   0.322
13444SOL    HW140290   5.410   3.548   0.306
13444SOL    HW240291   5.279   3.521   0.236
13445SOL     OW40292   4.514   2.476   1.430
13445SOL    HW140293   4.491   2.447   1.519
13445SOL    HW240294   4.489   2.402   1.374
13446SOL     OW40295   5.116   2.339   1.674
13446SOL    HW140296   5.121   2.382   1.759
13446SOL    HW240297   5.166   2.258   1.685
13447SOL     OW40298   4.668   2.742   1.593
13447SOL    HW140299   4.724   2.679   1.549
13447SOL    HW240300   4.619   2.785   1.523
13448SOL     OW40301   4.732   2.259   1.209
13448SOL    HW140302   4.640   2.273   1.232
13448SOL    HW240303   4.729   2.214   1.125
13449SOL     OW40304   4.790   2.559   0.416
13449SOL    HW140305   4.810   2.555   0.510
13449SOL    HW240306   4.705   2.516   0.408
13450SOL     OW40307   3.817   2.690   0.783
13450SOL    HW140308   3.899   2.682   0.831
13450SOL    HW240309   3.770   2.760   0.826
13451SOL     OW40310   3.834   3.741   1.588
13451SOL    HW140311   3.841   3.721   1.681
13451SOL    HW240312   3.748   3.707   1.563
13452SOL     OW40313   4.586   2.202   0.199
13452SOL    HW140314   4.572   2.251   0.118
13452SOL    HW240315   4.594   2.111   0.171
13453SOL     OW40316   5.411   2.424   1.840
13453SOL    HW140317   5.389   2.502   1.788
13453SOL    HW240318   5.439   2.360   1.775
13454SOL     OW40319   5.120   3.011   0.559
13454SOL    HW140320   5.198   3.001   0.504
13454SOL    HW240321   5.065   3.072   0.510
13455SOL     OW40322   4.275   2.025   0.915
13455SOL    HW140323   4.281   2.052   1.006
13455SOL    HW240324   4.271   2.107   0.865
13456SOL     OW40325   4.724   3.315   0.472
13456SOL    HW140326   4.700   3.391   0.419
13456SOL    HW240327   4.691   3.336   0.559
13457SOL     OW40328   4.077   3.679   0.880
13457SOL    HW140329   4.122   3.595   0.884
13457SOL    HW240330   4.144   3.743   0.901
13458SOL     OW40331   5.527   2.907   0.895
13458SOL    HW140332   5.478   2.888   0.814
13458SOL    HW240333   5.460   2.917   0.962
13459SOL     OW40334   4.942   3.406   1.517
13459SOL    HW140335   4.931   3.335   1.580
13459SOL    HW240336   4.872   3.394   1.454
13460SOL     OW40337   4.036   2.790   0.290
13460SOL    HW140338   4.118   2.798   0.240
13460SOL    HW240339   4.038   2.702   0.326
13461SOL     OW40340   5.209   2.619   0.713
13461SOL    HW140341   5.209   2.578   0.799
13461SOL    HW240342   5.287   2.674   0.712
13462SOL     OW40343   4.197   3.146   1.747
13462SOL    HW140344   4.173   3.150   1.655
13462SOL    HW240345   4.114   3.134   1.793
13463SOL     OW40346   4.828   3.647   0.182
13463SOL    HW140347   4.771   3.608   0.248
13463SOL    HW240348   4.867   3.573   0.136
13464SOL     OW40349   3.932   2.118   1.498
13464SOL    HW140350   3.860   2.178   1.517
13464SOL    HW240351   3.902   2.034   1.532
13465SOL     OW40352   5.353   3.233   0.106
13465SOL    HW140353   5.311   3.319   0.101
13465SOL    HW240354   5.286   3.172   0.075
13466SOL     OW40355   4.211   3.570   0.375
13466SOL    HW140356   4.247   3.646   0.421
13466SOL    HW240357   4.278   3.549   0.309
13467SOL     OW40358   5.119   1.965   0.448
13467SOL    HW140359   5.117   1.945   0.354
13467SOL    HW240360   5.211   1.951   0.473
13468SOL     OW40361   3.975   3.650   1.215
13468SOL    HW140362   4.024   3.576   1.250
13468SOL    HW240363   3.962   3.629   1.123
13469SOL     OW40364   4.670   3.564   0.892
13469SOL    HW140365   4.753   3.520   0.908
13469SOL    HW240366   4.629   3.513   0.822
13470SOL     OW40367   4.098   2.555   0.464
13470SOL    HW140368   4.121   2.462   0.476
13470SOL    HW240369   4.009   2.562   0.499
13471SOL     OW40370   5.232   2.085   1.717
13471SOL    HW140371   5.245   2.103   1.810
13471SOL    HW240372   5.166   2.015   1.715
13472SOL     OW40373   4.331   1.954   0.118
13472SOL    HW140374   4.426   1.944   0.127
13472SOL    HW240375   4.317   1.960   0.023
13473SOL     OW40376   4.483   2.136   1.752
13473SOL    HW140377   4.567   2.090   1.750
13473SOL    HW240378   4.436   2.097   1.826
13474SOL     OW40379   4.594   3.390   1.200
13474SOL    HW140380   4.575   3.348   1.116
13474SOL    HW240381   4.661   3.334   1.240
13475SOL     OW40382   5.054   2.453   1.433
13475SOL    HW140383   5.086   2.423   1.518
13475SOL    HW240384   5.092   2.540   1.422
13476SOL     OW40385   4.541   3.239   0.961
13476SOL    HW140386   4.627   3.235   0.918
13476SOL    HW240387   4.479   3.251   0.889
13477SOL     OW40388   4.655   2.377   0.890
13477SOL    HW140389   4.630   2.364   0.798
13477SOL    HW240390   4.682   2.290   0.920
13478SOL     OW40391   4.289   1.938   0.502
13478SOL    HW140392   4.209   1.936   0.556
13478SOL    HW240393   4.275   2.010   0.442
13479SOL     OW40394   5.148   3.060   0.034
13479SOL    HW140395   5.174   2.994   0.099
13479SOL    HW240396   5.068   3.098   0.069
13480SOL     OW40397   4.676   2.113   0.449
13480SOL    HW140398   4.645   2.149   0.366
13480SOL    HW240399   4.770   2.134   0.450
13481SOL     OW40400   4.800   2.556   1.445
13481SOL    HW140401   4.737   2.484   1.450
13481SOL    HW240402   4.885   2.513   1.442
13482SOL     OW40403   4.930   3.449   0.800
13482SOL    HW140404   4.946   3.509   0.727
13482SOL    HW240405   4.999   3.470   0.863
13483SOL     OW40406   4.204   3.011   0.710
13483SOL    HW140407   4.140   2.990   0.779
13483SOL    HW240408   4.154   3.007   0.629
13484SOL     OW40409   4.977   3.655   0.613
13484SOL    HW140410   5.025   3.719   0.560
13484SOL    HW240411   4.907   3.706   0.654
13485SOL     OW40412   4.819   2.425   9.980
13485SOL    HW140413   4.731   2.387   9.985
13485SOL    HW240414   4.854   2.417   0.069
13486SOL     OW40415   3.823   2.414   1.391
13486SOL    HW140416   3.915   2.415   1.365
13486SOL    HW240417   3.816   2.483   1.457
13487SOL     OW40418   4.283   2.083   1.185
13487SOL    HW140419   4.320   2.018   1.245
13487SOL    HW240420   4.190   2.084   1.205
13488SOL     OW40421   4.597   2.315   0.632
13488SOL    HW140422   4.562   2.371   0.564
13488SOL    HW240423   4.621   2.234   0.587
13489SOL     OW40424   4.749   1.919   0.742
13489SOL    HW140425   4.685   1.915   0.670
13489SOL    HW240426   4.724   1.847   0.800
13490SOL     OW40427   5.153   3.014   0.855
13490SOL    HW140428   5.086   2.947   0.869
13490SOL    HW240429   5.161   3.020   0.760
13491SOL     OW40430   5.185   2.477   0.952
13491SOL    HW140431   5.121   2.407   0.962
13491SOL    HW240432   5.241   2.471   1.029
13492SOL     OW40433   5.586   2.651   0.366
13492SOL    HW140434   5.627   2.602   0.438
13492SOL    HW240435   5.545   2.584   0.312
13493SOL     OW40436   4.229   3.304   0.213
13493SOL    HW140437   4.147   3.259   0.234
13493SOL    HW240438   4.271   3.248   0.148
13494SOL     OW40439   5.436   3.137   0.628
13494SOL    HW140440   5.528   3.129   0.654
13494SOL    HW240441   5.410   3.224   0.657
13495SOL     OW40442   5.142   2.428   0.095
13495SOL    HW140443   5.066   2.416   0.151
13495SOL    HW240444   5.180   2.340   0.087
13496SOL     OW40445   4.232   2.126   0.310
13496SOL    HW140446   4.270   2.067   0.244
13496SOL    HW240447   4.210   2.205   0.261
13497SOL     OW40448   5.459   3.106   1.532
13497SOL    HW140449   5.547   3.072   1.519
13497SOL    HW240450   5.472   3.193   1.570
13498SOL     OW40451   4.765   3.216   1.334
13498SOL    HW140452   4.688   3.182   1.379
13498SOL    HW240453   4.839   3.172   1.375
13499SOL     OW40454   5.331   3.497   1.671
13499SOL    HW140455   5.321   3.533   1.584
13499SOL    HW240456   5.409   3.441   1.665
13500SOL     OW40457   4.875   3.099   1.104
13500SOL    HW140458   4.813   3.133   1.169
13500SOL    HW240459   4.841   3.132   1.021
13501SOL     OW40460   5.332   2.954   1.079
13501SOL    HW140461   5.324   3.021   1.147
13501SOL    HW240462   5.261   2.975   1.017
13502SOL     OW40463   4.643   1.943   1.383
13502SOL    HW140464   4.664   1.928   1.291
13502SOL    HW240465   4.721   1.984   1.419
13503SOL     OW40466   4.703   2.978   1.724
13503SOL    HW140467   4.613   2.994   1.752
13503SOL    HW240468   4.698   2.897   1.673
13504SOL     OW40469   4.448   2.915   0.378
13504SOL    HW140470   4.434   2.888   0.468
13504SOL    HW240471   4.528   2.870   0.352
13505SOL     OW40472   4.150   2.689   1.259
13505SOL    HW140473   4.218   2.699   1.326
13505SOL    HW240474   4.120   2.599   1.269
13506SOL     OW40475   4.989   2.230   1.291
13506SOL    HW140476   5.016   2.310   1.336
13506SOL    HW240477   4.899   2.249   1.262
13507SOL     OW40478   3.802   3.432   1.363
13507SOL    HW140479   3.772   3.504   1.307
13507SOL    HW240480   3.897   3.432   1.353
13508SOL     OW40481   4.039   2.988   0.488
13508SOL    HW140482   4.039   3.058   0.423
13508SOL    HW240483   4.047   2.908   0.436
13509SOL     OW40484   4.257   2.376   0.857
13509SOL    HW140485   4.268   2.434   0.782
13509SOL    HW240486   4.325   2.403   0.919
13510SOL     OW40487   4.974   3.210   0.421
13510SOL    HW140488   5.029   3.284   0.448
13510SOL    HW240489   4.885   3.236   0.446
13511SOL     OW40490   5.033   3.330   1.142
13511SOL    HW140491   5.080   3.337   1.225
13511SOL    HW240492   4.982   3.250   1.151
13512SOL     OW40493   5.261   2.486   0.471
13512SOL    HW140494   5.242   2.523   0.556
13512SOL    HW240495   5.214   2.541   0.409
13513SOL     OW40496   4.069   3.395   1.302
13513SOL    HW140497   4.061   3.342   1.223
13513SOL    HW240498   4.162   3.411   1.312
13514SOL     OW40499   4.156   2.608   1.618
13514SOL    HW140500   4.215   2.652   1.556
13514SOL    HW240501   4.200   2.526   1.639
13515SOL     OW40502   5.351   2.647   1.698
13515SOL    HW140503   5.264   2.686   1.689
13515SOL    HW240504   5.402   2.686   1.626
13516SOL     OW40505   4.719   2.003   1.758
13516SOL    HW140506   4.778   2.076   1.739
13516SOL    HW240507   4.770   1.925   1.736
13517SOL     OW40508   4.219   1.897   1.763
13517SOL    HW140509   4.164   1.847   1.702
13517SOL    HW240510   4.166   1.974   1.784
13518SOL     OW40511   4.314   2.737   1.038
13518SOL    HW140512   4.353   2.824   1.041
13518SOL    HW240513   4.257   2.732   1.115
13519SOL     OW40514   5.033   2.716   1.002
13519SOL    HW140515   4.944   2.689   0.977
13519SOL    HW240516   5.087   2.639   0.985
13520SOL     OW40517   4.916   2.382   0.246
13520SOL    HW140518   4.928   2.306   0.303
13520SOL    HW240519   4.874   2.448   0.301
13521SOL     OW40520   4.016   2.056   1.239
13521SOL    HW140521   3.981   2.084   1.323
13521SOL    HW240522   3.999   1.962   1.236
13522SOL     OW40523   3.774   3.175   1.267
13522SOL    HW140524   3.803   3.119   1.339
13522SOL    HW240525   3.776   3.263   1.303
13523SOL     OW40526   4.433   2.483   1.037
13523SOL    HW140527   4.513   2.477   0.984
13523SOL    HW240528   4.406   2.574   1.029
13524SOL     OW40529   5.475   2.830   1.869
13524SOL    HW140530   5.435   2.757   1.821
13524SOL    HW240531   5.412   2.851   1.938
13525SOL     OW40532   4.044   1.926   0.630
13525SOL    HW140533   4.012   2.014   0.649
13525SOL    HW240534   4.050   1.884   0.716
13526SOL     OW40535   5.361   2.256   0.352
13526SOL    HW140536   5.394   2.192   0.415
13526SOL    HW240537   5.325   2.326   0.406
13527SOL     OW40538   4.759   2.620   0.958
13527SOL    HW140539   4.737   2.635   1.050
13527SOL    HW240540   4.729   2.531   0.940
13528SOL     OW40541   4.704   3.429   1.733
13528SOL    HW140542   4.684   3.471   1.650
13528SOL    HW240543   4.742   3.344   1.709
13529SOL     OW40544   5.562   3.357   1.602
13529SOL    HW140545   5.589   3.386   1.515
13529SOL    HW240546   5.640   3.367   1.656
13530SOL     OW40547   4.073   2.781   1.816
13530SOL    HW140548   4.150   2.799   1.871
13530SOL    HW240549   4.104   2.718   1.751
13531SOL     OW40550   5.224   2.167   0.128
13531SOL    HW140551   5.176   2.087   0.150
13531SOL    HW240552   5.272   2.188   0.209
13532SOL     OW40553   5.046   2.680   0.039
13532SOL    HW140554   5.080   2.591   0.041
13532SOL    HW240555   5.102   2.727   9.977
13533SOL     OW40556   4.794   3.215   0.865
13533SOL    HW140557   4.805   3.142   0.804
13533SOL    HW240558   4.847   3.286   0.827
13534SOL     OW40559   4.042   2.676   0.944
13534SOL    HW140560   4.137   2.691   0.944
13534SOL    HW240561   4.032   2.586   0.975
13535SOL     OW40562   4.037   2.400   1.011
13535SOL    HW140563   3.998   2.313   1.002
13535SOL    HW240564   4.114   2.397   0.954
13536SOL     OW40565   4.863   2.230   1.685
13536SOL    HW140566   4.817   2.281   1.752
13536SOL    HW240567   4.948   2.272   1.677
13537SOL     OW40568   4.880   2.052   1.473
13537SOL    HW140569   4.868   2.114   1.546
13537SOL    HW240570   4.926   2.101   1.406
13538SOL     OW40571   3.741   3.152   0.171
13538SOL    HW140572   3.651   3.181   0.155
13538SOL    HW240573   3.731   3.072   0.223
13539SOL     OW40574   3.816   3.632   0.951
13539SOL    HW140575   3.783   3.558   0.900
13539SOL    HW240576   3.903   3.649   0.914
13540SOL     OW40577   4.208   3.433   0.904
13540SOL    HW140578   4.278   3.495   0.925
13540SOL    HW240579   4.250   3.366   0.851
13541SOL     OW40580   4.672   2.642   1.216
13541SOL    HW140581   4.735   2.631   1.287
13541SOL    HW240582   4.593   2.597   1.246
13542SOL     OW40583   3.764   2.435   1.121
13542SOL    HW140584   3.846   2.431   1.071
13542SOL    HW240585   3.791   2.427   1.212
13543SOL     OW40586   3.910   2.400   1.743
13543SOL    HW140587   3.982   2.368   1.690
13543SOL    HW240588   3.874   2.474   1.694
13544SOL     OW40589   5.116   2.782   1.651
13544SOL    HW140590   5.133   2.876   1.647
13544SOL    HW240591   5.108   2.755   1.560
13545SOL     OW40592   4.551   2.426   0.374
13545SOL    HW140593   4.556   2.351   0.315
13545SOL    HW240594   4.473   2.473   0.346
13546SOL     OW40595   5.360   2.463   1.164
13546SOL    HW140596   5.351   2.404   1.239
13546SOL    HW240597   5.451   2.453   1.136
13547SOL     OW40598   3.950   3.402   1.723
13547SOL    HW140599   3.926   3.451   1.801
13547SOL    HW240600   3.962   3.312   1.753
13548SOL     OW40601   4.458   2.295   1.233
13548SOL    HW140602   4.394   2.225   1.219
13548SOL    HW240603   4.439   2.359   1.164
13549SOL     OW40604   4.635   3.539   1.484
13549SOL    HW140605   4.610   3.493   1.404
13549SOL    HW240606   4.635   3.632   1.459
13550SOL     OW40607   4.175   2.348   0.155
13550SOL    HW140608   4.234   2.415   0.191
13550SOL    HW240609   4.090   2.392   0.151
13551SOL     OW40610   3.854   3.013   1.481
13551SOL    HW140611   3.858   2.973   1.568
13551SOL    HW240612   3.875   2.941   1.421
13552SOL     OW40613   5.028   2.896   1.208
13552SOL    HW140614   5.037   2.833   1.137
13552SOL    HW240615   4.974   2.966   1.171
13553SOL     OW40616   5.053   2.680   0.319
13553SOL    HW140617   4.968   2.659   0.357
13553SOL    HW240618   5.038   2.676   0.224
13554SOL     OW40619   5.509   3.587   1.169
13554SOL    HW140620   5.571   3.612   1.101
13554SOL    HW240621   5.478   3.500   1.143
13555SOL     OW40622   4.964   3.594   1.086
13555SOL    HW140623   5.049   3.624   1.055
13555SOL    HW240624   4.979   3.503   1.113
13556SOL     OW40625   3.830   3.110   1.011
13556SOL    HW140626   3.802   3.132   1.100
13556SOL    HW240627   3.758   3.058   0.976
13557SOL     OW40628   4.411   3.545   1.750
13557SOL    HW140629   4.348   3.616   1.737
13557SOL    HW240630   4.486   3.569   1.696
13558SOL     OW40631   4.610   1.941   0.099
13558SOL    HW140632   4.603   1.914   0.007
13558SOL    HW240633   4.687   1.895   0.132
13559SOL     OW40634   5.478   2.045   0.496
13559SOL    HW140635   5.538   2.021   0.426
13559SOL    HW240636   5.448   1.960   0.530
13560SOL     OW40637   5.125   3.434   0.504
13560SOL    HW140638   5.181   3.468   0.435
13560SOL    HW240639   5.071   3.509   0.530
13561SOL     OW40640   3.859   3.668   1.844
13561SOL    HW140641   3.818   3.592   1.886
13561SOL    HW240642   3.909   3.710   1.914
13562SOL     OW40643   5.003   2.794   0.668
13562SOL    HW140644   5.076   2.734   0.681
13562SOL    HW240645   5.040   2.867   0.619
13563SOL     OW40646   4.507   3.142   1.414
13563SOL    HW140647   4.481   3.190   1.493
13563SOL    HW240648   4.433   3.152   1.355
13564SOL     OW40649   4.409   3.500   0.188
13564SOL    HW140650   4.413   3.515   0.094
13564SOL    HW240651   4.353   3.422   0.198
13565SOL     OW40652   5.340   3.593   1.401
13565SOL    HW140653   5.396   3.592   1.324
13565SOL    HW240654   5.324   3.685   1.420
13566SOL     OW40655   5.569   2.022   0.963
13566SOL    HW140656   5.597   1.933   0.944
13566SOL    HW240657   5.481   2.028   0.926
13567SOL     OW40658   3.966   2.175   0.709
13567SOL    HW140659   3.880   2.210   0.689
13567SOL    HW240660   3.971   2.174   0.805
13568SOL     OW40661   4.938   3.429   0.056
13568SOL    HW140662   4.926   3.340   0.087
13568SOL    HW240663   4.945   3.420   9.961
13569SOL     OW40664   4.547   2.873   1.386
13569SOL    HW140665   4.584   2.865   1.298
13569SOL    HW240666   4.536   2.968   1.398
13570SOL     OW40667   4.668   2.785   0.297
13570SOL    HW140668   4.717   2.806   0.217
13570SOL    HW240669   4.714   2.711   0.335
13571SOL     OW40670   5.211   3.472   0.074
13571SOL    HW140671   5.116   3.465   0.084
13571SOL    HW240672   5.224   3.480   9.979
13572SOL     OW40673   4.087   3.174   1.501
13572SOL    HW140674   4.079   3.248   1.441
13572SOL    HW240675   4.009   3.121   1.485
13573SOL     OW40676   5.323   3.152   1.278
13573SOL    HW140677   5.377   3.128   1.353
13573SOL    HW240678   5.264   3.220   1.311
13574SOL     OW40679   4.801   2.980   0.730
13574SOL    HW140680   4.725   2.931   0.762
13574SOL    HW240681   4.862   2.912   0.701
13575SOL     OW40682   4.757   2.110   0.961
13575SOL    HW140683   4.756   2.068   0.876
13575SOL    HW240684   4.750   2.038   1.024
13576SOL     OW40685   4.345   3.346   0.505
13576SOL    HW140686   4.386   3.292   0.438
13576SOL    HW240687   4.276   3.394   0.459
13577SOL     OW40688   5.469   2.245   1.387
13577SOL    HW140689   5.540   2.309   1.384
13577SOL    HW240690   5.495   2.176   1.327
13578SOL     OW40691   3.993   3.175   0.282
13578SOL    HW140692   3.911   3.177   0.234
13578SOL    HW240693   3.977   3.228   0.360
13579SOL     OW40694   3.845   2.909   1.736
13579SOL    HW140695   3.767   2.881   1.785
13579SOL    HW240696   3.917   2.858   1.773
13580SOL     OW40697   4.403   2.051   1.495
13580SOL    HW140698   4.487   2.025   1.457
13580SOL    HW240699   4.426   2.084   1.582
13581SOL     OW40700   3.811   2.137   0.020
13581SOL    HW140701   3.721   2.152   9.990
13581SOL    HW240702   3.857   2.218   9.999
13582SOL     OW40703   5.139   2.716   1.388
13582SOL    HW140704   5.086   2.775   1.333
13582SOL    HW240705   5.227   2.720   1.351
13583SOL     OW40706   3.799   2.003   0.278
13583SOL    HW140707   3.791   2.053   0.196
13583SOL    HW240708   3.893   1.989   0.289
13584SOL     OW40709   4.921   3.173   0.148
13584SOL    HW140710   4.835   3.132   0.140
13584SOL    HW240711   4.939   3.172   0.242
13585SOL     OW40712   4.349   2.694   1.441
13585SOL    HW140713   4.408   2.768   1.430
13585SOL    HW240714   4.407   2.617   1.440
13586SOL     OW40715   5.212   3.664   0.994
13586SOL    HW140716   5.239   3.738   0.940
13586SOL    HW240717   5.294   3.622   1.019
13587SOL     OW40718   4.449   2.410   1.686
13587SOL    HW140719   4.496   2.464   1.750
13587SOL    HW240720   4.459   2.321   1.718
13588SOL     OW40721   5.192   3.046   1.619
13588SOL    HW140722   5.184   3.068   1.712
13588SOL    HW240723   5.282   3.070   1.596
13589SOL     OW40724   4.078   3.609   1.579
13589SOL    HW140725   3.996   3.655   1.562
13589SOL    HW240726   4.051   3.525   1.617
13590SOL     OW40727   5.379   2.737   1.253
13590SOL    HW140728   5.377   2.654   1.206
13590SOL    HW240729   5.367   2.804   1.185
13591SOL     OW40730   4.945   2.186   0.451
13591SOL    HW140731   5.005   2.111   0.449
13591SOL    HW240732   4.974   2.238   0.526
13592SOL     OW40733   4.291   2.585   0.677
13592SOL    HW140734   4.338   2.668   0.665
13592SOL    HW240735   4.227   2.583   0.606
13593SOL     OW40736   5.471   2.217   1.663
13593SOL    HW140737   5.467   2.233   1.569
13593SOL    HW240738   5.394   2.164   1.682
13594SOL     OW40739   5.484   2.787   1.504
13594SOL    HW140740   5.466   2.880   1.517
13594SOL    HW240741   5.457   2.770   1.414
13595SOL     OW40742   4.621   3.281   0.042
13595SOL    HW140743   4.536   3.241   0.025
13595SOL    HW240744   4.616   3.311   0.133
13596SOL     OW40745   4.391   3.631   0.927
13596SOL    HW140746   4.373   3.724   0.919
13596SOL    HW240747   4.486   3.624   0.925
13597SOL     OW40748   4.596   2.838   0.857
13597SOL    HW140749   4.647   2.765   0.893
13597SOL    HW240750   4.551   2.875   0.932
13598SOL     OW40751   4.820   2.836   0.074
13598SOL    HW140752   4.809   2.878   9.989
13598SOL    HW240753   4.895   2.777   0.062
13599SOL     OW40754   5.554   3.419   0.841
13599SOL    HW140755   5.477   3.411   0.784
13599SOL    HW240756   5.531   3.369   0.919
13600SOL     OW40757   3.936   3.148   1.836
13600SOL    HW140758   3.905   3.068   1.793
13600SOL    HW240759   3.878   3.160   1.910
13601SOL     OW40760   3.842   3.081   0.670
13601SOL    HW140761   3.871   3.041   0.752
13601SOL    HW240762   3.902   3.047   0.604
13602SOL     OW40763   4.414   3.282   1.632
13602SOL    HW140764   4.338   3.242   1.674
13602SOL    HW240765   4.419   3.370   1.669
13603SOL     OW40766   5.534   2.034   1.234
13603SOL    HW140767   5.536   1.939   1.247
13603SOL    HW240768   5.548   2.045   1.140
13604SOL     OW40769   4.138   2.296   0.516
13604SOL    HW140770   4.171   2.226   0.460
13604SOL    HW240771   4.090   2.250   0.585
13605SOL     OW40772   5.421   3.341   1.081
13605SOL    HW140773   5.342   3.321   1.030
13605SOL    HW240774   5.422   3.274   1.150
13606SOL     OW40775   4.076   2.427   1.292
13606SOL    HW140776   4.125   2.363   1.343
13606SOL    HW240777   4.084   2.397   1.201
13607SOL     OW40778   4.560   3.457   0.665
13607SOL    HW140779   4.548   3.538   0.616
13607SOL    HW240780   4.484   3.403   0.643
13608SOL     OW40781   5.145   2.094   1.115
13608SOL    HW140782   5.153   2.005   1.147
13608SOL    HW240783   5.100   2.141   1.185
13609SOL     OW40784   4.734   1.879   1.120
13609SOL    HW140785   4.680   1.816   1.073
13609SOL    HW240786   4.821   1.839   1.123
13610SOL     OW40787   4.501   3.188   0.342
13610SOL    HW140788   4.480   3.095   0.346
13610SOL    HW240789   4.586   3.196   0.386
13611SOL     OW40790   4.340   3.431   1.288
13611SOL    HW140791   4.335   3.515   1.334
13611SOL    HW240792   4.429   3.427   1.255
13612SOL     OW40793   5.077   1.919   0.177
13612SOL    HW140794   5.101   1.880   0.093
13612SOL    HW240795   4.987   1.890   0.192
13613SOL     OW40796   5.024   2.329   0.675
13613SOL    HW140797   4.975   2.411   0.671
13613SOL    HW240798   5.015   2.300   0.765
13614SOL     OW40799   5.307   2.050   0.893
13614SOL    HW140800   5.254   2.079   0.968
13614SOL    HW240801   5.305   2.124   0.833
13615SOL     OW40802   3.766   2.906   0.303
13615SOL    HW140803   3.861   2.907   0.308
13615SOL    HW240804   3.742   2.818   0.332
13616SOL     OW40805   4.630   3.543   0.345
13616SOL    HW140806   4.552   3.527   0.292
13616SOL    HW240807   4.605   3.612   0.406
13617SOL     OW40808   3.932   2.483   2.009
13617SOL    HW140809   3.844   2.471   2.046
13617SOL    HW240810   3.920   2.469   1.915
13618SOL     OW40811   3.943   2.150   2.851
13618SOL    HW140812   3.974   2.115   2.935
13618SOL    HW240813   3.856   2.113   2.840
13619SOL     OW40814   3.710   2.258   2.508
13619SOL    HW140815   3.631   2.283   2.555
13619SOL    HW240816   3.683   2.184   2.453
13620SOL     OW40817   4.299   3.169   3.070
13620SOL    HW140818   4.216   3.173   3.022
13620SOL    HW240819   4.316   3.260   3.094
13621SOL     OW40820   5.310   3.386   2.567
13621SOL    HW140821   5.264   3.355   2.645
13621SOL    HW240822   5.244   3.389   2.499
13622SOL     OW40823   4.861   2.566   2.548
13622SOL    HW140824   4.908   2.649   2.536
13622SOL    HW240825   4.813   2.577   2.630
13623SOL     OW40826   5.525   2.442   2.081
13623SOL    HW140827   5.487   2.442   1.994
13623SOL    HW240828   5.481   2.371   2.128
13624SOL     OW40829   4.451   2.991   2.919
13624SOL    HW140830   4.393   3.032   2.983
13624SOL    HW240831   4.493   3.065   2.875
13625SOL     OW40832   4.611   2.604   3.688
13625SOL    HW140833   4.608   2.672   3.756
13625SOL    HW240834   4.627   2.653   3.607
13626SOL     OW40835   4.410   2.847   2.506
13626SOL    HW140836   4.477   2.847   2.574
13626SOL    HW240837   4.344   2.909   2.537
13627SOL     OW40838   4.437   3.013   3.696
13627SOL    HW140839   4.489   3.086   3.731
13627SOL    HW240840   4.361   3.055   3.655
13628SOL     OW40841   4.067   3.260   2.932
13628SOL    HW140842   3.991   3.217   2.892
13628SOL    HW240843   4.103   3.314   2.862
13629SOL     OW40844   5.178   3.369   3.234
13629SOL    HW140845   5.233   3.446   3.247
13629SOL    HW240846   5.106   3.380   3.296
13630SOL     OW40847   4.183   2.236   3.317
13630SOL    HW140848   4.257   2.178   3.333
13630SOL    HW240849   4.106   2.186   3.343
13631SOL     OW40850   5.308   2.294   2.617
13631SOL    HW140851   5.241   2.304   2.549
13631SOL    HW240852   5.290   2.364   2.679
13632SOL     OW40853   3.942   3.590   2.327
13632SOL    HW140854   3.968   3.661   2.386
13632SOL    HW240855   4.016   3.579   2.268
13633SOL     OW40856   4.858   3.204   3.557
13633SOL    HW140857   4.904   3.193   3.640
13633SOL    HW240858   4.805   3.125   3.549
13634SOL     OW40859   3.955   3.319   2.395
13634SOL    HW140860   3.935   3.413   2.399
13634SOL    HW240861   3.906   3.281   2.468
13635SOL     OW40862   4.009   2.951   2.740
13635SOL    HW140863   4.010   2.862   2.773
13635SOL    HW240864   3.953   2.999   2.801
13636SOL     OW40865   4.299   3.664   3.282
13636SOL    HW140866   4.222   3.645   3.335
13636SOL    HW240867   4.332   3.747   3.316
13637SOL     OW40868   4.289   2.850   2.014
13637SOL    HW140869   4.341   2.892   1.945
13637SOL    HW240870   4.330   2.879   2.095
13638SOL     OW40871   5.316   1.994   3.322
13638SOL    HW140872   5.355   2.070   3.278
13638SOL    HW240873   5.284   2.028   3.405
13639SOL     OW40874   3.843   2.521   2.429
13639SOL    HW140875   3.811   2.434   2.453
13639SOL    HW240876   3.837   2.572   2.510
13640SOL     OW40877   5.570   3.605   2.179
13640SOL    HW140878   5.642   3.589   2.241
13640SOL    HW240879   5.577   3.698   2.157
13641SOL     OW40880   3.783   3.442   1.972
13641SOL    HW140881   3.762   3.351   1.991
13641SOL    HW240882   3.751   3.490   2.049
13642SOL     OW40883   5.421   2.787   2.514
13642SOL    HW140884   5.503   2.744   2.492
13642SOL    HW240885   5.400   2.840   2.437
13643SOL     OW40886   5.381   2.967   2.294
13643SOL    HW140887   5.466   2.959   2.251
13643SOL    HW240888   5.395   3.033   2.363
13644SOL     OW40889   3.845   2.612   3.440
13644SOL    HW140890   3.930   2.656   3.444
13644SOL    HW240891   3.782   2.683   3.426
13645SOL     OW40892   4.347   3.260   2.592
13645SOL    HW140893   4.306   3.174   2.597
13645SOL    HW240894   4.332   3.289   2.502
13646SOL     OW40895   4.995   3.088   3.278
13646SOL    HW140896   5.023   3.019   3.218
13646SOL    HW240897   5.056   3.083   3.351
13647SOL     OW40898   4.555   1.873   2.381
13647SOL    HW140899   4.595   1.955   2.353
13647SOL    HW240900   4.461   1.891   2.381
13648SOL     OW40901   3.911   2.818   3.164
13648SOL    HW140902   3.998   2.783   3.148
13648SOL    HW240903   3.858   2.786   3.091
13649SOL     OW40904   5.259   2.877   2.061
13649SOL    HW140905   5.191   2.817   2.091
13649SOL    HW240906   5.301   2.908   2.142
13650SOL     OW40907   4.897   3.688   3.501
13650SOL    HW140908   4.901   3.751   3.429
13650SOL    HW240909   4.920   3.604   3.461
13651SOL     OW40910   4.083   2.114   3.739
13651SOL    HW140911   4.119   2.195   3.776
13651SOL    HW240912   3.989   2.130   3.734
13652SOL     OW40913   5.196   3.279   2.794
13652SOL    HW140914   5.133   3.298   2.863
13652SOL    HW240915   5.178   3.188   2.770
13653SOL     OW40916   5.362   3.657   2.425
13653SOL    HW140917   5.345   3.610   2.343
13653SOL    HW240918   5.361   3.589   2.492
13654SOL     OW40919   4.311   2.561   2.134
13654SOL    HW140920   4.315   2.649   2.096
13654SOL    HW240921   4.246   2.568   2.204
13655SOL     OW40922   5.006   2.255   2.803
13655SOL    HW140923   4.917   2.220   2.808
13655SOL    HW240924   5.058   2.197   2.858
13656SOL     OW40925   5.303   3.535   2.181
13656SOL    HW140926   5.397   3.550   2.170
13656SOL    HW240927   5.270   3.522   2.092
13657SOL     OW40928   4.515   2.475   3.293
13657SOL    HW140929   4.490   2.447   3.381
13657SOL    HW240930   4.489   2.403   3.236
13658SOL     OW40931   5.114   2.339   3.535
13658SOL    HW140932   5.120   2.382   3.620
13658SOL    HW240933   5.166   2.259   3.546
13659SOL     OW40934   4.668   2.743   3.454
13659SOL    HW140935   4.724   2.680   3.410
13659SOL    HW240936   4.620   2.786   3.383
13660SOL     OW40937   4.731   2.258   3.072
13660SOL    HW140938   4.639   2.272   3.094
13660SOL    HW240939   4.729   2.216   2.986
13661SOL     OW40940   4.782   2.559   2.280
13661SOL    HW140941   4.803   2.556   2.374
13661SOL    HW240942   4.697   2.515   2.273
13662SOL     OW40943   3.817   2.687   2.645
13662SOL    HW140944   3.899   2.682   2.694
13662SOL    HW240945   3.768   2.759   2.686
13663SOL     OW40946   3.833   3.741   3.452
13663SOL    HW140947   3.843   3.720   3.545
13663SOL    HW240948   3.745   3.709   3.430
13664SOL     OW40949   4.613   2.212   2.062
13664SOL    HW140950   4.664   2.266   2.001
13664SOL    HW240951   4.590   2.134   2.011
13665SOL     OW40952   5.408   2.424   3.702
13665SOL    HW140953   5.388   2.502   3.650
13665SOL    HW240954   5.438   2.360   3.638
13666SOL     OW40955   5.117   3.012   2.405
13666SOL    HW140956   5.196   3.001   2.354
13666SOL    HW240957   5.063   3.073   2.355
13667SOL     OW40958   4.275   2.023   2.777
13667SOL    HW140959   4.281   2.051   2.868
13667SOL    HW240960   4.271   2.104   2.726
13668SOL     OW40961   4.720   3.317   2.327
13668SOL    HW140962   4.696   3.392   2.272
13668SOL    HW240963   4.691   3.342   2.415
13669SOL     OW40964   4.077   3.678   2.743
13669SOL    HW140965   4.123   3.594   2.747
13669SOL    HW240966   4.144   3.743   2.765
13670SOL     OW40967   5.527   2.905   2.751
13670SOL    HW140968   5.479   2.891   2.670
13670SOL    HW240969   5.459   2.915   2.818
13671SOL     OW40970   4.944   3.408   3.380
13671SOL    HW140971   4.931   3.335   3.440
13671SOL    HW240972   4.868   3.405   3.322
13672SOL     OW40973   4.024   2.821   2.128
13672SOL    HW140974   4.107   2.842   2.084
13672SOL    HW240975   4.002   2.734   2.096
13673SOL     OW40976   5.208   2.625   2.572
13673SOL    HW140977   5.210   2.582   2.658
13673SOL    HW240978   5.287   2.679   2.570
13674SOL     OW40979   4.196   3.144   3.609
13674SOL    HW140980   4.173   3.148   3.516
13674SOL    HW240981   4.112   3.134   3.654
13675SOL     OW40982   4.863   3.639   2.087
13675SOL    HW140983   4.781   3.609   2.126
13675SOL    HW240984   4.883   3.574   2.020
13676SOL     OW40985   3.933   2.118   3.360
13676SOL    HW140986   3.862   2.179   3.376
13676SOL    HW240987   3.902   2.034   3.394
13677SOL     OW40988   5.362   3.250   1.961
13677SOL    HW140989   5.321   3.335   1.949
13677SOL    HW240990   5.295   3.187   1.935
13678SOL     OW40991   4.183   3.603   2.178
13678SOL    HW140992   4.231   3.654   2.243
13678SOL    HW240993   4.250   3.562   2.124
13679SOL     OW40994   5.121   1.967   2.321
13679SOL    HW140995   5.121   1.943   2.228
13679SOL    HW240996   5.212   1.956   2.348
13680SOL     OW40997   3.974   3.649   3.079
13680SOL    HW140998   4.024   3.576   3.115
13680SOL    HW240999   3.965   3.629   2.986
13681SOL     OW41000   4.672   3.565   2.753
13681SOL    HW141001   4.756   3.523   2.770
13681SOL    HW241002   4.634   3.513   2.682
13682SOL     OW41003   4.119   2.547   2.334
13682SOL    HW141004   4.131   2.453   2.347
13682SOL    HW241005   4.026   2.562   2.352
13683SOL     OW41006   5.232   2.085   3.578
13683SOL    HW141007   5.245   2.103   3.671
13683SOL    HW241008   5.165   2.017   3.576
13684SOL     OW41009   4.387   1.971   1.964
13684SOL    HW141010   4.434   1.892   1.991
13684SOL    HW241011   4.326   1.941   1.897
13685SOL     OW41012   4.483   2.136   3.614
13685SOL    HW141013   4.567   2.091   3.613
13685SOL    HW241014   4.436   2.099   3.688
13686SOL     OW41015   4.594   3.387   3.061
13686SOL    HW141016   4.575   3.347   2.976
13686SOL    HW241017   4.660   3.331   3.100
13687SOL     OW41018   5.053   2.453   3.294
13687SOL    HW141019   5.086   2.423   3.379
13687SOL    HW241020   5.092   2.540   3.283
13688SOL     OW41021   4.540   3.237   2.817
13688SOL    HW141022   4.628   3.233   2.779
13688SOL    HW241023   4.482   3.253   2.743
13689SOL     OW41024   4.654   2.377   2.750
13689SOL    HW141025   4.629   2.365   2.658
13689SOL    HW241026   4.682   2.289   2.778
13690SOL     OW41027   4.288   1.925   2.352
13690SOL    HW141028   4.210   1.926   2.408
13690SOL    HW241029   4.276   2.000   2.293
13691SOL     OW41030   5.158   3.074   1.894
13691SOL    HW141031   5.187   3.000   1.947
13691SOL    HW241032   5.072   3.098   1.931
13692SOL     OW41033   4.006   1.910   2.051
13692SOL    HW141034   4.059   1.977   2.007
13692SOL    HW241035   4.070   1.852   2.092
13693SOL     OW41036   4.676   2.112   2.313
13693SOL    HW141037   4.650   2.148   2.227
13693SOL    HW241038   4.770   2.129   2.318
13694SOL     OW41039   4.799   2.556   3.307
13694SOL    HW141040   4.736   2.485   3.311
13694SOL    HW241041   4.884   2.513   3.303
13695SOL     OW41042   4.931   3.448   2.663
13695SOL    HW141043   4.946   3.508   2.590
13695SOL    HW241044   4.999   3.469   2.727
13696SOL     OW41045   4.206   3.024   2.569
13696SOL    HW141046   4.144   2.999   2.638
13696SOL    HW241047   4.156   3.017   2.488
13697SOL     OW41048   4.976   3.654   2.478
13697SOL    HW141049   5.025   3.717   2.426
13697SOL    HW241050   4.905   3.705   2.517
13698SOL     OW41051   4.756   2.377   1.892
13698SOL    HW141052   4.713   2.460   1.873
13698SOL    HW241053   4.819   2.397   1.960
13699SOL     OW41054   3.824   2.413   3.254
13699SOL    HW141055   3.916   2.415   3.228
13699SOL    HW241056   3.816   2.483   3.320
13700SOL     OW41057   4.283   2.083   3.046
13700SOL    HW141058   4.321   2.020   3.107
13700SOL    HW241059   4.190   2.084   3.066
13701SOL     OW41060   4.594   2.316   2.492
13701SOL    HW141061   4.554   2.372   2.425
13701SOL    HW241062   4.619   2.237   2.445
13702SOL     OW41063   4.746   1.921   2.602
13702SOL    HW141064   4.685   1.915   2.528
13702SOL    HW241065   4.721   1.848   2.659
13703SOL     OW41066   5.158   3.015   2.717
13703SOL    HW141067   5.088   2.951   2.727
13703SOL    HW241068   5.171   3.022   2.622
13704SOL     OW41069   5.187   2.478   2.810
13704SOL    HW141070   5.123   2.408   2.821
13704SOL    HW241071   5.242   2.472   2.888
13705SOL     OW41072   5.553   2.658   2.248
13705SOL    HW141073   5.613   2.615   2.309
13705SOL    HW241074   5.539   2.594   2.179
13706SOL     OW41075   4.222   3.286   2.013
13706SOL    HW141076   4.146   3.255   2.063
13706SOL    HW241077   4.218   3.237   1.931
13707SOL     OW41078   5.432   3.134   2.495
13707SOL    HW141079   5.525   3.128   2.517
13707SOL    HW241080   5.407   3.223   2.522
13708SOL     OW41081   5.116   2.437   1.928
13708SOL    HW141082   5.060   2.411   2.000
13708SOL    HW241083   5.205   2.414   1.956
13709SOL     OW41084   4.251   2.119   2.164
13709SOL    HW141085   4.305   2.077   2.097
13709SOL    HW241086   4.219   2.199   2.123
13710SOL     OW41087   5.459   3.106   3.394
13710SOL    HW141088   5.547   3.071   3.380
13710SOL    HW241089   5.472   3.193   3.431
13711SOL     OW41090   4.764   3.212   3.192
13711SOL    HW141091   4.687   3.180   3.240
13711SOL    HW241092   4.838   3.171   3.235
13712SOL     OW41093   5.332   3.495   3.532
13712SOL    HW141094   5.321   3.533   3.444
13712SOL    HW241095   5.410   3.440   3.525
13713SOL     OW41096   4.875   3.097   2.965
13713SOL    HW141097   4.814   3.131   3.031
13713SOL    HW241098   4.842   3.131   2.882
13714SOL     OW41099   5.333   2.954   2.939
13714SOL    HW141100   5.326   3.020   3.007
13714SOL    HW241101   5.264   2.975   2.877
13715SOL     OW41102   4.643   1.943   3.245
13715SOL    HW141103   4.664   1.928   3.153
13715SOL    HW241104   4.722   1.984   3.282
13716SOL     OW41105   4.703   2.978   3.586
13716SOL    HW141106   4.613   2.994   3.614
13716SOL    HW241107   4.698   2.897   3.534
13717SOL     OW41108   4.438   2.924   2.238
13717SOL    HW141109   4.423   2.898   2.329
13717SOL    HW241110   4.512   2.871   2.210
13718SOL     OW41111   4.150   2.690   3.121
13718SOL    HW141112   4.218   2.700   3.188
13718SOL    HW241113   4.120   2.600   3.131
13719SOL     OW41114   4.988   2.229   3.155
13719SOL    HW141115   5.016   2.309   3.198
13719SOL    HW241116   4.899   2.247   3.125
13720SOL     OW41117   3.802   3.431   3.223
13720SOL    HW141118   3.774   3.505   3.169
13720SOL    HW241119   3.897   3.430   3.215
13721SOL     OW41120   4.041   2.997   2.348
13721SOL    HW141121   4.042   3.069   2.285
13721SOL    HW241122   4.038   2.918   2.294
13722SOL     OW41123   4.258   2.378   2.721
13722SOL    HW141124   4.271   2.437   2.646
13722SOL    HW241125   4.326   2.404   2.783
13723SOL     OW41126   4.971   3.216   2.260
13723SOL    HW141127   5.027   3.286   2.294
13723SOL    HW241128   4.883   3.239   2.290
13724SOL     OW41129   5.033   3.330   3.005
13724SOL    HW141130   5.080   3.338   3.088
13724SOL    HW241131   4.981   3.249   3.015
13725SOL     OW41132   5.299   2.480   2.347
13725SOL    HW141133   5.248   2.520   2.417
13725SOL    HW241134   5.348   2.552   2.308
13726SOL     OW41135   4.069   3.394   3.165
13726SOL    HW141136   4.062   3.342   3.085
13726SOL    HW241137   4.163   3.410   3.175
13727SOL     OW41138   4.158   2.608   3.481
13727SOL    HW141139   4.216   2.652   3.419
13727SOL    HW241140   4.203   2.526   3.502
13728SOL     OW41141   5.351   2.648   3.560
13728SOL    HW141142   5.264   2.687   3.551
13728SOL    HW241143   5.401   2.686   3.489
13729SOL     OW41144   4.719   2.003   3.624
13729SOL    HW141145   4.777   2.076   3.604
13729SOL    HW241146   4.769   1.925   3.600
13730SOL     OW41147   4.217   1.896   3.625
13730SOL    HW141148   4.163   1.847   3.564
13730SOL    HW241149   4.165   1.974   3.647
13731SOL     OW41150   4.315   2.737   2.901
13731SOL    HW141151   4.353   2.825   2.904
13731SOL    HW241152   4.258   2.733   2.977
13732SOL     OW41153   5.033   2.715   2.864
13732SOL    HW141154   4.945   2.688   2.839
13732SOL    HW241155   5.088   2.639   2.845
13733SOL     OW41156   4.922   2.385   2.119
13733SOL    HW141157   4.933   2.308   2.176
13733SOL    HW241158   4.881   2.451   2.175
13734SOL     OW41159   4.016   2.055   3.100
13734SOL    HW141160   3.981   2.084   3.185
13734SOL    HW241161   3.999   1.961   3.098
13735SOL     OW41162   3.772   3.173   3.128
13735SOL    HW141163   3.802   3.118   3.200
13735SOL    HW241164   3.776   3.262   3.163
13736SOL     OW41165   4.435   2.484   2.901
13736SOL    HW141166   4.513   2.477   2.846
13736SOL    HW241167   4.407   2.575   2.892
13737SOL     OW41168   5.476   2.828   3.732
13737SOL    HW141169   5.435   2.757   3.683
13737SOL    HW241170   5.413   2.851   3.800
13738SOL     OW41171   4.049   1.922   2.490
13738SOL    HW141172   4.015   2.010   2.508
13738SOL    HW241173   4.055   1.880   2.576
13739SOL     OW41174   5.356   2.252   2.206
13739SOL    HW141175   5.387   2.187   2.268
13739SOL    HW241176   5.326   2.325   2.260
13740SOL     OW41177   4.758   2.620   2.817
13740SOL    HW141178   4.737   2.635   2.909
13740SOL    HW241179   4.728   2.531   2.800
13741SOL     OW41180   4.702   3.427   3.594
13741SOL    HW141181   4.685   3.470   3.510
13741SOL    HW241182   4.742   3.343   3.570
13742SOL     OW41183   5.562   3.356   3.463
13742SOL    HW141184   5.589   3.385   3.376
13742SOL    HW241185   5.640   3.367   3.517
13743SOL     OW41186   4.073   2.779   3.680
13743SOL    HW141187   4.150   2.799   3.732
13743SOL    HW241188   4.104   2.716   3.614
13744SOL     OW41189   5.246   2.130   1.981
13744SOL    HW141190   5.193   2.059   2.018
13744SOL    HW241191   5.285   2.174   2.056
13745SOL     OW41192   5.004   2.683   1.881
13745SOL    HW141193   5.044   2.596   1.889
13745SOL    HW241194   5.041   2.719   1.800
13746SOL     OW41195   4.794   3.215   2.728
13746SOL    HW141196   4.806   3.142   2.666
13746SOL    HW241197   4.847   3.286   2.691
13747SOL     OW41198   4.042   2.678   2.806
13747SOL    HW141199   4.137   2.692   2.805
13747SOL    HW241200   4.032   2.588   2.837
13748SOL     OW41201   4.037   2.400   2.873
13748SOL    HW141202   3.998   2.313   2.863
13748SOL    HW241203   4.115   2.398   2.817
13749SOL     OW41204   4.862   2.229   3.549
13749SOL    HW141205   4.816   2.281   3.616
13749SOL    HW241206   4.947   2.272   3.540
13750SOL     OW41207   4.880   2.051   3.338
13750SOL    HW141208   4.868   2.114   3.409
13750SOL    HW241209   4.926   2.101   3.270
13751SOL     OW41210   3.748   3.165   2.041
13751SOL    HW141211   3.658   3.187   2.015
13751SOL    HW241212   3.741   3.079   2.082
13752SOL     OW41213   3.815   3.633   2.811
13752SOL    HW141214   3.782   3.559   2.761
13752SOL    HW241215   3.902   3.649   2.776
13753SOL     OW41216   4.209   3.431   2.762
13753SOL    HW141217   4.279   3.493   2.784
13753SOL    HW241218   4.249   3.370   2.701
13754SOL     OW41219   4.673   2.642   3.076
13754SOL    HW141220   4.735   2.632   3.147
13754SOL    HW241221   4.594   2.598   3.106
13755SOL     OW41222   3.763   2.432   2.984
13755SOL    HW141223   3.844   2.430   2.933
13755SOL    HW241224   3.791   2.426   3.075
13756SOL     OW41225   3.911   2.400   3.604
13756SOL    HW141226   3.985   2.370   3.551
13756SOL    HW241227   3.875   2.474   3.555
13757SOL     OW41228   5.116   2.783   3.513
13757SOL    HW141229   5.133   2.877   3.508
13757SOL    HW241230   5.108   2.755   3.422
13758SOL     OW41231   4.542   2.430   2.234
13758SOL    HW141232   4.551   2.356   2.174
13758SOL    HW241233   4.465   2.478   2.203
13759SOL     OW41234   5.359   2.463   3.024
13759SOL    HW141235   5.349   2.405   3.100
13759SOL    HW241236   5.450   2.452   2.997
13760SOL     OW41237   3.950   3.402   3.580
13760SOL    HW141238   3.931   3.458   3.656
13760SOL    HW241239   3.961   3.314   3.617
13761SOL     OW41240   4.457   2.295   3.096
13761SOL    HW141241   4.393   2.226   3.080
13761SOL    HW241242   4.440   2.360   3.027
13762SOL     OW41243   4.643   3.535   3.340
13762SOL    HW141244   4.614   3.491   3.260
13762SOL    HW241245   4.641   3.628   3.319
13763SOL     OW41246   4.167   2.343   2.026
13763SOL    HW141247   4.231   2.409   2.051
13763SOL    HW241248   4.083   2.389   2.029
13764SOL     OW41249   3.853   3.012   3.343
13764SOL    HW141250   3.858   2.973   3.430
13764SOL    HW241251   3.874   2.941   3.283
13765SOL     OW41252   5.028   2.895   3.070
13765SOL    HW141253   5.038   2.831   2.999
13765SOL    HW241254   4.974   2.965   3.033
13766SOL     OW41255   5.050   2.723   2.153
13766SOL    HW141256   4.980   2.688   2.208
13766SOL    HW241257   5.021   2.707   2.063
13767SOL     OW41258   5.508   3.587   3.030
13767SOL    HW141259   5.571   3.612   2.962
13767SOL    HW241260   5.478   3.500   3.004
13768SOL     OW41261   4.963   3.593   2.946
13768SOL    HW141262   5.049   3.624   2.916
13768SOL    HW241263   4.979   3.502   2.974
13769SOL     OW41264   3.831   3.108   2.872
13769SOL    HW141265   3.803   3.130   2.961
13769SOL    HW241266   3.759   3.056   2.836
13770SOL     OW41267   4.409   3.545   3.615
13770SOL    HW141268   4.346   3.615   3.602
13770SOL    HW241269   4.485   3.571   3.563
13771SOL     OW41270   5.468   2.046   2.358
13771SOL    HW141271   5.527   2.026   2.286
13771SOL    HW241272   5.441   1.960   2.392
13772SOL     OW41273   5.120   3.432   2.364
13772SOL    HW141274   5.176   3.467   2.295
13772SOL    HW241275   5.066   3.506   2.391
13773SOL     OW41276   3.866   3.662   3.706
13773SOL    HW141277   3.822   3.589   3.750
13773SOL    HW241278   3.915   3.706   3.776
13774SOL     OW41279   5.003   2.797   2.525
13774SOL    HW141280   5.076   2.738   2.538
13774SOL    HW241281   5.039   2.869   2.473
13775SOL     OW41282   4.506   3.142   3.278
13775SOL    HW141283   4.481   3.190   3.357
13775SOL    HW241284   4.432   3.153   3.219
13776SOL     OW41285   4.392   3.497   2.022
13776SOL    HW141286   4.406   3.512   1.928
13776SOL    HW241287   4.340   3.417   2.026
13777SOL     OW41288   5.340   3.593   3.263
13777SOL    HW141289   5.396   3.593   3.186
13777SOL    HW241290   5.325   3.685   3.282
13778SOL     OW41291   5.569   2.022   2.827
13778SOL    HW141292   5.597   1.933   2.806
13778SOL    HW241293   5.481   2.029   2.789
13779SOL     OW41294   3.967   2.168   2.570
13779SOL    HW141295   3.881   2.205   2.549
13779SOL    HW241296   3.971   2.170   2.665
13780SOL     OW41297   4.933   3.450   1.900
13780SOL    HW141298   4.923   3.359   1.928
13780SOL    HW241299   4.864   3.464   1.835
13781SOL     OW41300   4.547   2.874   3.246
13781SOL    HW141301   4.585   2.867   3.158
13781SOL    HW241302   4.536   2.968   3.260
13782SOL     OW41303   4.643   2.771   2.155
13782SOL    HW141304   4.700   2.805   2.086
13782SOL    HW241305   4.695   2.704   2.199
13783SOL     OW41306   5.208   3.506   1.920
13783SOL    HW141307   5.115   3.487   1.903
13783SOL    HW241308   5.248   3.510   1.833
13784SOL     OW41309   4.088   3.172   3.362
13784SOL    HW141310   4.080   3.247   3.302
13784SOL    HW241311   4.009   3.121   3.346
13785SOL     OW41312   5.323   3.152   3.139
13785SOL    HW141313   5.377   3.128   3.214
13785SOL    HW241314   5.264   3.220   3.172
13786SOL     OW41315   4.801   2.981   2.591
13786SOL    HW141316   4.726   2.932   2.622
13786SOL    HW241317   4.863   2.914   2.561
13787SOL     OW41318   4.757   2.111   2.822
13787SOL    HW141319   4.756   2.068   2.736
13787SOL    HW241320   4.750   2.039   2.885
13788SOL     OW41321   4.328   3.348   2.336
13788SOL    HW141322   4.383   3.299   2.275
13788SOL    HW241323   4.246   3.363   2.289
13789SOL     OW41324   5.471   2.243   3.252
13789SOL    HW141325   5.541   2.308   3.247
13789SOL    HW241326   5.497   2.175   3.190
13790SOL     OW41327   4.003   3.203   2.161
13790SOL    HW141328   3.916   3.196   2.122
13790SOL    HW241329   3.988   3.251   2.242
13791SOL     OW41330   3.845   2.909   3.599
13791SOL    HW141331   3.768   2.881   3.648
13791SOL    HW241332   3.917   2.858   3.636
13792SOL     OW41333   4.403   2.050   3.357
13792SOL    HW141334   4.487   2.025   3.318
13792SOL    HW241335   4.426   2.085   3.443
13793SOL     OW41336   3.810   2.179   1.876
13793SOL    HW141337   3.732   2.158   1.824
13793SOL    HW241338   3.837   2.265   1.845
13794SOL     OW41339   5.139   2.715   3.250
13794SOL    HW141340   5.086   2.774   3.195
13794SOL    HW241341   5.227   2.720   3.212
13795SOL     OW41342   3.768   2.011   2.135
13795SOL    HW141343   3.755   2.081   2.070
13795SOL    HW241344   3.856   1.979   2.118
13796SOL     OW41345   4.907   3.184   1.985
13796SOL    HW141346   4.816   3.154   1.985
13796SOL    HW241347   4.930   3.188   2.078
13797SOL     OW41348   4.350   2.694   3.303
13797SOL    HW141349   4.409   2.769   3.291
13797SOL    HW241350   4.408   2.618   3.302
13798SOL     OW41351   5.212   3.664   2.856
13798SOL    HW141352   5.237   3.738   2.801
13798SOL    HW241353   5.295   3.625   2.882
13799SOL     OW41354   4.447   2.411   3.548
13799SOL    HW141355   4.494   2.466   3.611
13799SOL    HW241356   4.458   2.322   3.580
13800SOL     OW41357   5.192   3.046   3.481
13800SOL    HW141358   5.184   3.069   3.573
13800SOL    HW241359   5.281   3.071   3.458
13801SOL     OW41360   4.077   3.609   3.436
13801SOL    HW141361   3.994   3.656   3.421
13801SOL    HW241362   4.050   3.525   3.474
13802SOL     OW41363   5.379   2.738   3.115
13802SOL    HW141364   5.377   2.655   3.068
13802SOL    HW241365   5.367   2.804   3.047
13803SOL     OW41366   4.944   2.185   2.318
13803SOL    HW141367   5.004   2.110   2.317
13803SOL    HW241368   4.973   2.237   2.393
13804SOL     OW41369   4.301   2.587   2.542
13804SOL    HW141370   4.344   2.671   2.528
13804SOL    HW241371   4.239   2.579   2.469
13805SOL     OW41372   5.472   2.216   3.528
13805SOL    HW141373   5.469   2.233   3.433
13805SOL    HW241374   5.393   2.164   3.545
13806SOL     OW41375   5.484   2.787   3.366
13806SOL    HW141376   5.467   2.880   3.379
13806SOL    HW241377   5.457   2.770   3.276
13807SOL     OW41378   4.594   3.219   1.924
13807SOL    HW141379   4.557   3.235   2.011
13807SOL    HW241380   4.603   3.306   1.885
13808SOL     OW41381   4.392   3.628   2.786
13808SOL    HW141382   4.372   3.722   2.780
13808SOL    HW241383   4.487   3.624   2.786
13809SOL     OW41384   4.597   2.839   2.717
13809SOL    HW141385   4.647   2.766   2.753
13809SOL    HW241386   4.551   2.876   2.793
13810SOL     OW41387   4.796   2.846   1.948
13810SOL    HW141388   4.776   2.900   1.872
13810SOL    HW241389   4.870   2.792   1.920
13811SOL     OW41390   5.552   3.420   2.702
13811SOL    HW141391   5.476   3.412   2.645
13811SOL    HW241392   5.528   3.371   2.781
13812SOL     OW41393   3.936   3.149   3.698
13812SOL    HW141394   3.904   3.070   3.656
13812SOL    HW241395   3.878   3.162   3.773
13813SOL     OW41396   3.841   3.086   2.530
13813SOL    HW141397   3.872   3.044   2.610
13813SOL    HW241398   3.900   3.053   2.462
13814SOL     OW41399   4.413   3.282   3.497
13814SOL    HW141400   4.336   3.243   3.538
13814SOL    HW241401   4.418   3.370   3.533
13815SOL     OW41402   5.534   2.032   3.097
13815SOL    HW141403   5.536   1.937   3.109
13815SOL    HW241404   5.548   2.045   3.003
13816SOL     OW41405   4.141   2.285   2.380
13816SOL    HW141406   4.176   2.213   2.325
13816SOL    HW241407   4.090   2.241   2.447
13817SOL     OW41408   5.422   3.341   2.942
13817SOL    HW141409   5.342   3.322   2.892
13817SOL    HW241410   5.423   3.274   3.011
13818SOL     OW41411   4.076   2.428   3.153
13818SOL    HW141412   4.126   2.363   3.204
13818SOL    HW241413   4.083   2.399   3.063
13819SOL     OW41414   4.563   3.446   2.533
13819SOL    HW141415   4.531   3.516   2.476
13819SOL    HW241416   4.487   3.387   2.542
13820SOL     OW41417   5.145   2.095   2.977
13820SOL    HW141418   5.155   2.006   3.010
13820SOL    HW241419   5.099   2.142   3.047
13821SOL     OW41420   4.734   1.879   2.981
13821SOL    HW141421   4.681   1.816   2.933
13821SOL    HW241422   4.821   1.839   2.985
13822SOL     OW41423   4.505   3.194   2.189
13822SOL    HW141424   4.481   3.102   2.202
13822SOL    HW241425   4.584   3.206   2.242
13823SOL     OW41426   4.340   3.430   3.149
13823SOL    HW141427   4.335   3.514   3.195
13823SOL    HW241428   4.430   3.426   3.117
13824SOL     OW41429   5.104   1.900   2.054
13824SOL    HW141430   5.145   1.828   2.006
13824SOL    HW241431   5.013   1.874   2.065
13825SOL     OW41432   5.022   2.333   2.537
13825SOL    HW141433   4.971   2.414   2.534
13825SOL    HW241434   5.015   2.304   2.627
13826SOL     OW41435   5.306   2.050   2.755
13826SOL    HW141436   5.254   2.080   2.830
13826SOL    HW241437   5.306   2.124   2.695
13827SOL     OW41438   3.761   2.913   2.170
13827SOL    HW141439   3.854   2.902   2.152
13827SOL    HW241440   3.729   2.825   2.190
13828SOL     OW41441   4.620   3.538   2.191
13828SOL    HW141442   4.541   3.522   2.139
13828SOL    HW241443   4.594   3.606   2.254
13829SOL     OW41444   3.932   2.479   3.872
13829SOL    HW141445   3.844   2.469   3.908
13829SOL    HW241446   3.921   2.468   3.777
13830SOL     OW41447   3.943   2.150   4.711
13830SOL    HW141448   3.973   2.117   4.796
13830SOL    HW241449   3.855   2.112   4.700
13831SOL     OW41450   3.710   2.256   4.370
13831SOL    HW141451   3.630   2.283   4.416
13831SOL    HW241452   3.682   2.183   4.315
13832SOL     OW41453   4.300   3.167   4.925
13832SOL    HW141454   4.214   3.171   4.884
13832SOL    HW241455   4.327   3.258   4.934
13833SOL     OW41456   5.314   3.383   4.426
13833SOL    HW141457   5.266   3.357   4.505
13833SOL    HW241458   5.247   3.385   4.357
13834SOL     OW41459   4.861   2.568   4.411
13834SOL    HW141460   4.908   2.650   4.397
13834SOL    HW241461   4.813   2.581   4.493
13835SOL     OW41462   5.524   2.442   3.943
13835SOL    HW141463   5.485   2.443   3.856
13835SOL    HW241464   5.480   2.371   3.989
13836SOL     OW41465   4.450   2.987   4.778
13836SOL    HW141466   4.392   3.029   4.841
13836SOL    HW241467   4.490   3.059   4.730
13837SOL     OW41468   4.608   2.603   5.552
13837SOL    HW141469   4.590   2.668   5.619
13837SOL    HW241470   4.626   2.654   5.473
13838SOL     OW41471   4.410   2.845   4.368
13838SOL    HW141472   4.478   2.847   4.435
13838SOL    HW241473   4.343   2.906   4.398
13839SOL     OW41474   4.423   3.002   5.551
13839SOL    HW141475   4.470   3.077   5.588
13839SOL    HW241476   4.344   3.039   5.512
13840SOL     OW41477   4.066   3.261   4.796
13840SOL    HW141478   3.991   3.215   4.757
13840SOL    HW241479   4.102   3.312   4.724
13841SOL     OW41480   5.182   3.360   5.095
13841SOL    HW141481   5.234   3.440   5.107
13841SOL    HW241482   5.111   3.369   5.159
13842SOL     OW41483   4.181   2.238   5.178
13842SOL    HW141484   4.254   2.178   5.197
13842SOL    HW241485   4.103   2.190   5.205
13843SOL     OW41486   5.311   2.294   4.478
13843SOL    HW141487   5.250   2.309   4.406
13843SOL    HW241488   5.292   2.365   4.540
13844SOL     OW41489   3.944   3.592   4.194
13844SOL    HW141490   3.968   3.664   4.251
13844SOL    HW241491   4.018   3.581   4.135
13845SOL     OW41492   4.848   3.204   5.431
13845SOL    HW141493   4.897   3.190   5.512
13845SOL    HW241494   4.795   3.124   5.421
13846SOL     OW41495   3.954   3.321   4.257
13846SOL    HW141496   3.936   3.415   4.259
13846SOL    HW241497   3.903   3.286   4.331
13847SOL     OW41498   4.005   2.949   4.600
13847SOL    HW141499   4.007   2.859   4.635
13847SOL    HW241500   3.951   2.997   4.662
13848SOL     OW41501   4.290   2.851   3.876
13848SOL    HW141502   4.341   2.893   3.807
13848SOL    HW241503   4.330   2.880   3.957
13849SOL     OW41504   5.311   1.994   5.182
13849SOL    HW141505   5.357   2.063   5.135
13849SOL    HW241506   5.286   2.034   5.266
13850SOL     OW41507   3.843   2.519   4.291
13850SOL    HW141508   3.810   2.433   4.315
13850SOL    HW241509   3.837   2.570   4.372
13851SOL     OW41510   5.573   3.604   4.039
13851SOL    HW141511   5.643   3.588   4.103
13851SOL    HW241512   5.579   3.698   4.020
13852SOL     OW41513   3.780   3.442   3.836
13852SOL    HW141514   3.760   3.351   3.856
13852SOL    HW241515   3.750   3.490   3.914
13853SOL     OW41516   5.420   2.786   4.373
13853SOL    HW141517   5.502   2.744   4.350
13853SOL    HW241518   5.398   2.840   4.297
13854SOL     OW41519   5.380   2.969   4.157
13854SOL    HW141520   5.466   2.963   4.114
13854SOL    HW241521   5.394   3.032   4.228
13855SOL     OW41522   3.839   2.615   5.302
13855SOL    HW141523   3.922   2.662   5.305
13855SOL    HW241524   3.774   2.682   5.285
13856SOL     OW41525   4.339   3.249   4.471
13856SOL    HW141526   4.294   3.165   4.463
13856SOL    HW241527   4.341   3.284   4.382
13857SOL     OW41528   4.997   3.076   5.148
13857SOL    HW141529   5.024   3.010   5.084
13857SOL    HW241530   5.063   3.072   5.216
13858SOL     OW41531   4.553   1.870   4.246
13858SOL    HW141532   4.596   1.950   4.216
13858SOL    HW241533   4.460   1.890   4.244
13859SOL     OW41534   3.910   2.819   5.029
13859SOL    HW141535   3.997   2.784   5.011
13859SOL    HW241536   3.858   2.793   4.952
13860SOL     OW41537   5.259   2.877   3.923
13860SOL    HW141538   5.192   2.817   3.954
13860SOL    HW241539   5.301   2.909   4.004
13861SOL     OW41540   4.860   3.641   5.273
13861SOL    HW141541   4.926   3.701   5.240
13861SOL    HW241542   4.899   3.554   5.265
13862SOL     OW41543   4.087   2.115   5.597
13862SOL    HW141544   4.122   2.195   5.635
13862SOL    HW241545   3.993   2.130   5.591
13863SOL     OW41546   5.203   3.278   4.655
13863SOL    HW141547   5.137   3.301   4.721
13863SOL    HW241548   5.184   3.188   4.631
13864SOL     OW41549   5.374   3.647   4.289
13864SOL    HW141550   5.348   3.606   4.207
13864SOL    HW241551   5.363   3.579   4.355
13865SOL     OW41552   4.312   2.561   3.996
13865SOL    HW141553   4.316   2.649   3.958
13865SOL    HW241554   4.247   2.569   4.066
13866SOL     OW41555   5.009   2.256   4.666
13866SOL    HW141556   4.920   2.220   4.669
13866SOL    HW241557   5.061   2.198   4.721
13867SOL     OW41558   5.307   3.531   4.041
13867SOL    HW141559   5.401   3.550   4.031
13867SOL    HW241560   5.275   3.521   3.952
13868SOL     OW41561   4.519   2.474   5.155
13868SOL    HW141562   4.492   2.446   5.243
13868SOL    HW241563   4.491   2.403   5.098
13869SOL     OW41564   5.113   2.338   5.399
13869SOL    HW141565   5.118   2.383   5.483
13869SOL    HW241566   5.168   2.261   5.410
13870SOL     OW41567   4.667   2.743   5.318
13870SOL    HW141568   4.726   2.680   5.276
13870SOL    HW241569   4.619   2.783   5.246
13871SOL     OW41570   4.730   2.254   4.936
13871SOL    HW141571   4.638   2.272   4.956
13871SOL    HW241572   4.730   2.222   4.846
13872SOL     OW41573   4.782   2.557   4.143
13872SOL    HW141574   4.803   2.556   4.236
13872SOL    HW241575   4.697   2.513   4.136
13873SOL     OW41576   3.816   2.683   4.508
13873SOL    HW141577   3.898   2.680   4.557
13873SOL    HW241578   3.767   2.755   4.548
13874SOL     OW41579   3.887   3.735   5.312
13874SOL    HW141580   3.880   3.712   5.405
13874SOL    HW241581   3.816   3.685   5.270
13875SOL     OW41582   4.616   2.210   3.924
13875SOL    HW141583   4.666   2.267   3.866
13875SOL    HW241584   4.598   2.132   3.872
13876SOL     OW41585   5.405   2.424   5.563
13876SOL    HW141586   5.386   2.502   5.512
13876SOL    HW241587   5.440   2.361   5.499
13877SOL     OW41588   5.113   3.008   4.259
13877SOL    HW141589   5.194   3.001   4.209
13877SOL    HW241590   5.060   3.071   4.210
13878SOL     OW41591   4.279   2.014   4.643
13878SOL    HW141592   4.282   2.048   4.732
13878SOL    HW241593   4.276   2.093   4.588
13879SOL     OW41594   4.720   3.320   4.190
13879SOL    HW141595   4.696   3.393   4.134
13879SOL    HW241596   4.697   3.348   4.278
13880SOL     OW41597   4.073   3.667   4.607
13880SOL    HW141598   4.116   3.581   4.606
13880SOL    HW241599   4.133   3.724   4.654
13881SOL     OW41600   5.527   2.901   4.614
13881SOL    HW141601   5.480   2.891   4.531
13881SOL    HW241602   5.458   2.910   4.679
13882SOL     OW41603   4.938   3.380   5.233
13882SOL    HW141604   4.925   3.317   5.304
13882SOL    HW241605   4.887   3.346   5.160
13883SOL     OW41606   4.025   2.822   3.988
13883SOL    HW141607   4.108   2.844   3.946
13883SOL    HW241608   4.001   2.737   3.952
13884SOL     OW41609   5.208   2.624   4.435
13884SOL    HW141610   5.212   2.583   4.521
13884SOL    HW241611   5.287   2.679   4.431
13885SOL     OW41612   4.192   3.138   5.469
13885SOL    HW141613   4.168   3.145   5.376
13885SOL    HW241614   4.108   3.134   5.515
13886SOL     OW41615   4.859   3.643   3.941
13886SOL    HW141616   4.780   3.611   3.983
13886SOL    HW241617   4.882   3.576   3.877
13887SOL     OW41618   3.933   2.122   5.223
13887SOL    HW141619   3.862   2.183   5.240
13887SOL    HW241620   3.901   2.038   5.258
13888SOL     OW41621   5.362   3.248   3.823
13888SOL    HW141622   5.322   3.334   3.812
13888SOL    HW241623   5.294   3.186   3.796
13889SOL     OW41624   4.185   3.598   4.046
13889SOL    HW141625   4.231   3.656   4.106
13889SOL    HW241626   4.253   3.562   3.989
13890SOL     OW41627   5.122   1.967   4.183
13890SOL    HW141628   5.121   1.943   4.091
13890SOL    HW241629   5.214   1.959   4.209
13891SOL     OW41630   3.980   3.654   4.938
13891SOL    HW141631   4.018   3.572   4.969
13891SOL    HW241632   3.946   3.634   4.851
13892SOL     OW41633   4.649   3.557   4.631
13892SOL    HW141634   4.741   3.532   4.637
13892SOL    HW241635   4.618   3.518   4.550
13893SOL     OW41636   4.120   2.547   4.197
13893SOL    HW141637   4.132   2.452   4.210
13893SOL    HW241638   4.027   2.561   4.214
13894SOL     OW41639   5.239   2.089   5.443
13894SOL    HW141640   5.251   2.109   5.535
13894SOL    HW241641   5.176   2.016   5.441
13895SOL     OW41642   4.387   1.970   3.826
13895SOL    HW141643   4.439   1.893   3.846
13895SOL    HW241644   4.325   1.941   3.759
13896SOL     OW41645   4.474   2.134   5.471
13896SOL    HW141646   4.559   2.089   5.470
13896SOL    HW241647   4.431   2.101   5.550
13897SOL     OW41648   4.557   3.336   4.917
13897SOL    HW141649   4.558   3.300   4.828
13897SOL    HW241650   4.646   3.321   4.950
13898SOL     OW41651   5.053   2.453   5.157
13898SOL    HW141652   5.086   2.423   5.242
13898SOL    HW241653   5.092   2.539   5.145
13899SOL     OW41654   4.540   3.222   4.666
13899SOL    HW141655   4.628   3.226   4.628
13899SOL    HW241656   4.481   3.240   4.592
13900SOL     OW41657   4.654   2.375   4.611
13900SOL    HW141658   4.628   2.364   4.520
13900SOL    HW241659   4.684   2.288   4.638
13901SOL     OW41660   4.289   1.925   4.214
13901SOL    HW141661   4.209   1.925   4.268
13901SOL    HW241662   4.278   2.000   4.155
13902SOL     OW41663   5.156   3.074   3.755
13902SOL    HW141664   5.186   3.001   3.809
13902SOL    HW241665   5.071   3.098   3.792
13903SOL     OW41666   4.006   1.910   3.913
13903SOL    HW141667   4.057   1.977   3.868
13903SOL    HW241668   4.071   1.852   3.953
13904SOL     OW41669   4.675   2.107   4.175
13904SOL    HW141670   4.649   2.143   4.091
13904SOL    HW241671   4.769   2.126   4.181
13905SOL     OW41672   4.801   2.558   5.171
13905SOL    HW141673   4.736   2.487   5.173
13905SOL    HW241674   4.885   2.513   5.166
13906SOL     OW41675   4.937   3.452   4.529
13906SOL    HW141676   4.952   3.505   4.451
13906SOL    HW241677   4.998   3.486   4.594
13907SOL     OW41678   4.202   3.016   4.429
13907SOL    HW141679   4.140   2.993   4.497
13907SOL    HW241680   4.152   3.011   4.347
13908SOL     OW41681   4.999   3.635   4.322
13908SOL    HW141682   5.044   3.708   4.281
13908SOL    HW241683   4.916   3.672   4.353
13909SOL     OW41684   4.755   2.378   3.755
13909SOL    HW141685   4.713   2.462   3.735
13909SOL    HW241686   4.820   2.400   3.822
13910SOL     OW41687   3.823   2.413   5.118
13910SOL    HW141688   3.915   2.417   5.091
13910SOL    HW241689   3.814   2.483   5.183
13911SOL     OW41690   4.281   2.090   4.909
13911SOL    HW141691   4.318   2.040   4.981
13911SOL    HW241692   4.187   2.090   4.926
13912SOL     OW41693   4.592   2.313   4.354
13912SOL    HW141694   4.553   2.370   4.288
13912SOL    HW241695   4.618   2.234   4.305
13913SOL     OW41696   4.748   1.926   4.467
13913SOL    HW141697   4.687   1.926   4.393
13913SOL    HW241698   4.722   1.850   4.519
13914SOL     OW41699   5.165   3.016   4.575
13914SOL    HW141700   5.089   2.958   4.572
13914SOL    HW241701   5.191   3.025   4.483
13915SOL     OW41702   5.189   2.477   4.672
13915SOL    HW141703   5.125   2.407   4.682
13915SOL    HW241704   5.245   2.471   4.750
13916SOL     OW41705   5.553   2.657   4.111
13916SOL    HW141706   5.614   2.614   4.171
13916SOL    HW241707   5.540   2.594   4.041
13917SOL     OW41708   4.221   3.282   3.872
13917SOL    HW141709   4.146   3.253   3.924
13917SOL    HW241710   4.214   3.232   3.790
13918SOL     OW41711   5.426   3.126   4.368
13918SOL    HW141712   5.520   3.120   4.385
13918SOL    HW241713   5.404   3.217   4.389
13919SOL     OW41714   5.116   2.438   3.788
13919SOL    HW141715   5.062   2.411   3.862
13919SOL    HW241716   5.206   2.417   3.816
13920SOL     OW41717   4.253   2.118   4.026
13920SOL    HW141718   4.306   2.076   3.958
13920SOL    HW241719   4.221   2.199   3.985
13921SOL     OW41720   5.461   3.104   5.261
13921SOL    HW141721   5.550   3.071   5.247
13921SOL    HW241722   5.474   3.193   5.295
13922SOL     OW41723   4.778   3.213   5.062
13922SOL    HW141724   4.698   3.180   5.102
13922SOL    HW241725   4.848   3.160   5.100
13923SOL     OW41726   5.327   3.490   5.394
13923SOL    HW141727   5.318   3.531   5.308
13923SOL    HW241728   5.407   3.438   5.387
13924SOL     OW41729   4.877   3.097   4.828
13924SOL    HW141730   4.817   3.135   4.893
13924SOL    HW241731   4.846   3.131   4.744
13925SOL     OW41732   5.331   2.949   4.798
13925SOL    HW141733   5.323   3.017   4.865
13925SOL    HW241734   5.264   2.971   4.734
13926SOL     OW41735   4.651   1.947   5.099
13926SOL    HW141736   4.670   1.936   5.006
13926SOL    HW241737   4.727   1.992   5.135
13927SOL     OW41738   4.695   2.975   5.453
13927SOL    HW141739   4.604   2.990   5.478
13927SOL    HW241740   4.693   2.897   5.399
13928SOL     OW41741   4.438   2.923   4.100
13928SOL    HW141742   4.423   2.897   4.191
13928SOL    HW241743   4.512   2.870   4.072
13929SOL     OW41744   4.149   2.692   4.984
13929SOL    HW141745   4.218   2.700   5.050
13929SOL    HW241746   4.118   2.602   4.993
13930SOL     OW41747   4.988   2.229   5.017
13930SOL    HW141748   5.016   2.310   5.059
13930SOL    HW241749   4.899   2.246   4.987
13931SOL     OW41750   3.797   3.431   5.092
13931SOL    HW141751   3.757   3.493   5.030
13931SOL    HW241752   3.891   3.438   5.076
13932SOL     OW41753   4.038   2.996   4.208
13932SOL    HW141754   4.040   3.069   4.146
13932SOL    HW241755   4.037   2.918   4.153
13933SOL     OW41756   4.259   2.383   4.586
13933SOL    HW141757   4.270   2.440   4.511
13933SOL    HW241758   4.328   2.408   4.647
13934SOL     OW41759   4.967   3.214   4.118
13934SOL    HW141760   5.027   3.281   4.151
13934SOL    HW241761   4.881   3.240   4.151
13935SOL     OW41762   5.037   3.327   4.866
13935SOL    HW141763   5.086   3.333   4.947
13935SOL    HW241764   4.988   3.245   4.873
13936SOL     OW41765   5.300   2.477   4.213
13936SOL    HW141766   5.248   2.521   4.280
13936SOL    HW241767   5.351   2.548   4.172
13937SOL     OW41768   4.065   3.400   5.026
13937SOL    HW141769   4.060   3.345   4.948
13937SOL    HW241770   4.159   3.420   5.035
13938SOL     OW41771   4.160   2.605   5.345
13938SOL    HW141772   4.216   2.650   5.281
13938SOL    HW241773   4.207   2.524   5.366
13939SOL     OW41774   5.350   2.648   5.422
13939SOL    HW141775   5.263   2.687   5.413
13939SOL    HW241776   5.400   2.687   5.350
13940SOL     OW41777   4.710   2.000   5.473
13940SOL    HW141778   4.769   2.073   5.461
13940SOL    HW241779   4.760   1.923   5.444
13941SOL     OW41780   4.223   1.897   5.485
13941SOL    HW141781   4.169   1.850   5.421
13941SOL    HW241782   4.171   1.974   5.508
13942SOL     OW41783   4.315   2.736   4.763
13942SOL    HW141784   4.354   2.824   4.764
13942SOL    HW241785   4.256   2.735   4.839
13943SOL     OW41786   5.034   2.710   4.732
13943SOL    HW141787   4.947   2.685   4.701
13943SOL    HW241788   5.089   2.636   4.709
13944SOL     OW41789   4.924   2.384   3.982
13944SOL    HW141790   4.933   2.307   4.038
13944SOL    HW241791   4.883   2.450   4.038
13945SOL     OW41792   4.015   2.061   4.962
13945SOL    HW141793   3.978   2.089   5.046
13945SOL    HW241794   3.997   1.967   4.959
13946SOL     OW41795   3.776   3.173   4.994
13946SOL    HW141796   3.805   3.118   5.067
13946SOL    HW241797   3.774   3.262   5.031
13947SOL     OW41798   4.438   2.488   4.765
13947SOL    HW141799   4.514   2.482   4.707
13947SOL    HW241800   4.407   2.578   4.755
13948SOL     OW41801   5.477   2.827   5.595
13948SOL    HW141802   5.436   2.756   5.545
13948SOL    HW241803   5.413   2.848   5.663
13949SOL     OW41804   4.048   1.921   4.349
13949SOL    HW141805   4.014   2.008   4.367
13949SOL    HW241806   4.054   1.879   4.435
13950SOL     OW41807   5.354   2.251   4.067
13950SOL    HW141808   5.387   2.186   4.129
13950SOL    HW241809   5.325   2.324   4.122
13951SOL     OW41810   4.757   2.619   4.677
13951SOL    HW141811   4.737   2.634   4.769
13951SOL    HW241812   4.728   2.529   4.660
13952SOL     OW41813   4.687   3.422   5.473
13952SOL    HW141814   4.655   3.462   5.393
13952SOL    HW241815   4.730   3.341   5.445
13953SOL     OW41816   5.561   3.357   5.325
13953SOL    HW141817   5.587   3.386   5.237
13953SOL    HW241818   5.640   3.368   5.378
13954SOL     OW41819   4.072   2.778   5.541
13954SOL    HW141820   4.149   2.795   5.596
13954SOL    HW241821   4.104   2.715   5.476
13955SOL     OW41822   5.245   2.128   3.842
13955SOL    HW141823   5.193   2.058   3.881
13955SOL    HW241824   5.284   2.173   3.918
13956SOL     OW41825   5.004   2.684   3.742
13956SOL    HW141826   5.045   2.597   3.749
13956SOL    HW241827   5.041   2.720   3.662
13957SOL     OW41828   4.801   3.218   4.591
13957SOL    HW141829   4.814   3.148   4.528
13957SOL    HW241830   4.854   3.291   4.557
13958SOL     OW41831   4.042   2.677   4.669
13958SOL    HW141832   4.136   2.691   4.665
13958SOL    HW241833   4.033   2.587   4.700
13959SOL     OW41834   4.037   2.399   4.737
13959SOL    HW141835   3.998   2.313   4.725
13959SOL    HW241836   4.115   2.398   4.681
13960SOL     OW41837   4.862   2.225   5.416
13960SOL    HW141838   4.816   2.278   5.481
13960SOL    HW241839   4.947   2.268   5.405
13961SOL     OW41840   4.887   2.052   5.202
13961SOL    HW141841   4.874   2.115   5.273
13961SOL    HW241842   4.932   2.101   5.134
13962SOL     OW41843   3.747   3.165   3.904
13962SOL    HW141844   3.657   3.187   3.878
13962SOL    HW241845   3.740   3.079   3.944
13963SOL     OW41846   3.812   3.633   4.680
13963SOL    HW141847   3.775   3.562   4.628
13963SOL    HW241848   3.898   3.649   4.642
13964SOL     OW41849   4.217   3.435   4.632
13964SOL    HW141850   4.287   3.494   4.661
13964SOL    HW241851   4.261   3.372   4.575
13965SOL     OW41852   4.677   2.640   4.937
13965SOL    HW141853   4.739   2.632   5.009
13965SOL    HW241854   4.598   2.597   4.968
13966SOL     OW41855   3.762   2.427   4.847
13966SOL    HW141856   3.843   2.428   4.796
13966SOL    HW241857   3.791   2.423   4.938
13967SOL     OW41858   3.910   2.403   5.464
13967SOL    HW141859   3.986   2.378   5.412
13967SOL    HW241860   3.871   2.477   5.417
13968SOL     OW41861   5.114   2.782   5.376
13968SOL    HW141862   5.134   2.876   5.371
13968SOL    HW241863   5.107   2.754   5.285
13969SOL     OW41864   4.542   2.429   4.097
13969SOL    HW141865   4.550   2.355   4.036
13969SOL    HW241866   4.466   2.477   4.066
13970SOL     OW41867   5.360   2.461   4.887
13970SOL    HW141868   5.351   2.404   4.964
13970SOL    HW241869   5.451   2.450   4.860
13971SOL     OW41870   3.976   3.410   5.441
13971SOL    HW141871   3.945   3.476   5.503
13971SOL    HW241872   3.972   3.328   5.490
13972SOL     OW41873   4.457   2.298   4.956
13972SOL    HW141874   4.391   2.231   4.938
13972SOL    HW241875   4.443   2.365   4.889
13973SOL     OW41876   4.605   3.608   5.186
13973SOL    HW141877   4.620   3.603   5.091
13973SOL    HW241878   4.692   3.623   5.223
13974SOL     OW41879   4.168   2.342   3.890
13974SOL    HW141880   4.232   2.409   3.914
13974SOL    HW241881   4.084   2.387   3.893
13975SOL     OW41882   3.856   3.013   5.208
13975SOL    HW141883   3.859   2.973   5.296
13975SOL    HW241884   3.876   2.941   5.149
13976SOL     OW41885   5.026   2.893   4.934
13976SOL    HW141886   5.037   2.830   4.863
13976SOL    HW241887   4.974   2.964   4.895
13977SOL     OW41888   5.052   2.721   4.014
13977SOL    HW141889   4.980   2.689   4.068
13977SOL    HW241890   5.022   2.706   3.924
13978SOL     OW41891   5.512   3.587   4.897
13978SOL    HW141892   5.571   3.615   4.827
13978SOL    HW241893   5.478   3.503   4.867
13979SOL     OW41894   4.951   3.587   4.823
13979SOL    HW141895   5.028   3.627   4.784
13979SOL    HW241896   4.977   3.497   4.841
13980SOL     OW41897   3.834   3.106   4.739
13980SOL    HW141898   3.805   3.129   4.827
13980SOL    HW241899   3.759   3.058   4.701
13981SOL     OW41900   5.467   2.046   4.219
13981SOL    HW141901   5.527   2.026   4.147
13981SOL    HW241902   5.442   1.960   4.254
13982SOL     OW41903   5.129   3.418   4.219
13982SOL    HW141904   5.185   3.454   4.151
13982SOL    HW241905   5.078   3.492   4.250
13983SOL     OW41906   3.872   3.642   5.565
13983SOL    HW141907   3.821   3.576   5.612
13983SOL    HW241908   3.913   3.695   5.633
13984SOL     OW41909   5.004   2.798   4.387
13984SOL    HW141910   5.078   2.739   4.400
13984SOL    HW241911   5.039   2.869   4.333
13985SOL     OW41912   4.524   3.131   5.136
13985SOL    HW141913   4.490   3.178   5.213
13985SOL    HW241914   4.464   3.154   5.065
13986SOL     OW41915   4.391   3.492   3.885
13986SOL    HW141916   4.404   3.510   3.792
13986SOL    HW241917   4.337   3.413   3.888
13987SOL     OW41918   5.336   3.589   5.125
13987SOL    HW141919   5.394   3.591   5.049
13987SOL    HW241920   5.322   3.681   5.147
13988SOL     OW41921   5.566   2.023   4.690
13988SOL    HW141922   5.596   1.935   4.668
13988SOL    HW241923   5.480   2.031   4.650
13989SOL     OW41924   3.966   2.166   4.430
13989SOL    HW141925   3.880   2.204   4.409
13989SOL    HW241926   3.970   2.169   4.526
13990SOL     OW41927   4.935   3.451   3.760
13990SOL    HW141928   4.924   3.360   3.788
13990SOL    HW241929   4.865   3.464   3.696
13991SOL     OW41930   4.550   2.864   5.103
13991SOL    HW141931   4.588   2.854   5.016
13991SOL    HW241932   4.543   2.959   5.116
13992SOL     OW41933   4.643   2.770   4.021
13992SOL    HW141934   4.698   2.802   3.949
13992SOL    HW241935   4.696   2.703   4.064
13993SOL     OW41936   5.210   3.501   3.781
13993SOL    HW141937   5.117   3.484   3.765
13993SOL    HW241938   5.249   3.506   3.694
13994SOL     OW41939   4.086   3.178   5.221
13994SOL    HW141940   4.071   3.253   5.164
13994SOL    HW241941   4.010   3.123   5.210
13995SOL     OW41942   5.324   3.147   4.994
13995SOL    HW141943   5.386   3.127   5.064
13995SOL    HW241944   5.267   3.215   5.031
13996SOL     OW41945   4.804   2.984   4.454
13996SOL    HW141946   4.728   2.935   4.484
13996SOL    HW241947   4.865   2.916   4.423
13997SOL     OW41948   4.760   2.114   4.683
13997SOL    HW141949   4.760   2.071   4.597
13997SOL    HW241950   4.754   2.042   4.745
13998SOL     OW41951   4.351   3.357   4.218
13998SOL    HW141952   4.396   3.304   4.152
13998SOL    HW241953   4.269   3.383   4.175
13999SOL     OW41954   5.471   2.243   5.113
13999SOL    HW141955   5.542   2.307   5.108
13999SOL    HW241956   5.496   2.175   5.051
14000SOL     OW41957   4.002   3.203   4.023
14000SOL    HW141958   3.915   3.197   3.984
14000SOL    HW241959   3.988   3.253   4.104
14001SOL     OW41960   3.846   2.912   5.464
14001SOL    HW141961   3.768   2.882   5.512
14001SOL    HW241962   3.917   2.859   5.500
14002SOL     OW41963   4.403   2.041   5.211
14002SOL    HW141964   4.490   2.026   5.173
14002SOL    HW241965   4.420   2.078   5.298
14003SOL     OW41966   3.810   2.180   3.736
14003SOL    HW141967   3.733   2.160   3.683
14003SOL    HW241968   3.839   2.265   3.705
14004SOL     OW41969   5.138   2.714   5.113
14004SOL    HW141970   5.085   2.772   5.058
14004SOL    HW241971   5.226   2.719   5.075
14005SOL     OW41972   3.767   2.012   3.996
14005SOL    HW141973   3.754   2.081   3.932
14005SOL    HW241974   3.855   1.980   3.979
14006SOL     OW41975   4.904   3.185   3.844
14006SOL    HW141976   4.811   3.162   3.843
14006SOL    HW241977   4.926   3.188   3.937
14007SOL     OW41978   4.350   2.690   5.164
14007SOL    HW141979   4.408   2.765   5.150
14007SOL    HW241980   4.408   2.614   5.164
14008SOL     OW41981   5.189   3.659   4.698
14008SOL    HW141982   5.201   3.742   4.651
14008SOL    HW241983   5.275   3.641   4.736
14009SOL     OW41984   4.444   2.411   5.409
14009SOL    HW141985   4.492   2.465   5.472
14009SOL    HW241986   4.454   2.322   5.441
14010SOL     OW41987   5.197   3.043   5.344
14010SOL    HW141988   5.191   3.066   5.437
14010SOL    HW241989   5.286   3.068   5.320
14011SOL     OW41990   4.144   3.612   5.328
14011SOL    HW141991   4.069   3.669   5.312
14011SOL    HW241992   4.106   3.530   5.361
14012SOL     OW41993   5.377   2.737   4.977
14012SOL    HW141994   5.377   2.654   4.930
14012SOL    HW241995   5.365   2.803   4.909
14013SOL     OW41996   4.942   2.182   4.181
14013SOL    HW141997   5.004   2.109   4.180
14013SOL    HW241998   4.970   2.235   4.255
14014SOL     OW41999   4.301   2.588   4.405
14014SOL    HW142000   4.345   2.671   4.390
14014SOL    HW242001   4.240   2.579   4.332
14015SOL     OW42002   5.477   2.218   5.388
14015SOL    HW142003   5.474   2.234   5.294
14015SOL    HW242004   5.399   2.166   5.407
14016SOL     OW42005   5.483   2.788   5.228
14016SOL    HW142006   5.467   2.881   5.241
14016SOL    HW242007   5.456   2.771   5.138
14017SOL     OW42008   4.599   3.220   3.790
14017SOL    HW142009   4.558   3.239   3.874
14017SOL    HW242010   4.605   3.305   3.747
14018SOL     OW42011   4.391   3.637   4.712
14018SOL    HW142012   4.395   3.732   4.725
14018SOL    HW242013   4.480   3.613   4.686
14019SOL     OW42014   4.598   2.839   4.577
14019SOL    HW142015   4.649   2.766   4.613
14019SOL    HW242016   4.553   2.876   4.653
14020SOL     OW42017   4.790   2.838   3.808
14020SOL    HW142018   4.773   2.897   3.735
14020SOL    HW242019   4.867   2.788   3.780
14021SOL     OW42020   5.554   3.421   4.564
14021SOL    HW142021   5.479   3.413   4.505
14021SOL    HW242022   5.526   3.377   4.645
14022SOL     OW42023   3.933   3.156   5.560
14022SOL    HW142024   3.901   3.076   5.518
14022SOL    HW242025   3.874   3.168   5.635
14023SOL     OW42026   3.839   3.083   4.392
14023SOL    HW142027   3.871   3.039   4.470
14023SOL    HW242028   3.897   3.054   4.322
14024SOL     OW42029   4.395   3.280   5.327
14024SOL    HW142030   4.340   3.236   5.392
14024SOL    HW242031   4.337   3.343   5.285
14025SOL     OW42032   5.526   2.028   4.959
14025SOL    HW142033   5.536   1.933   4.969
14025SOL    HW242034   5.542   2.044   4.866
14026SOL     OW42035   4.143   2.283   4.242
14026SOL    HW142036   4.176   2.213   4.187
14026SOL    HW242037   4.089   2.239   4.308
14027SOL     OW42038   5.426   3.342   4.803
14027SOL    HW142039   5.346   3.325   4.752
14027SOL    HW242040   5.428   3.273   4.869
14028SOL     OW42041   4.074   2.430   5.015
14028SOL    HW142042   4.124   2.365   5.064
14028SOL    HW242043   4.080   2.402   4.924
14029SOL     OW42044   4.552   3.480   4.379
14029SOL    HW142045   4.557   3.564   4.334
14029SOL    HW242046   4.480   3.434   4.336
14030SOL     OW42047   5.149   2.098   4.841
14030SOL    HW142048   5.168   2.012   4.879
14030SOL    HW242049   5.101   2.145   4.910
14031SOL     OW42050   4.738   1.877   4.836
14031SOL    HW142051   4.692   1.817   4.777
14031SOL    HW242052   4.825   1.838   4.847
14032SOL     OW42053   4.503   3.195   4.056
14032SOL    HW142054   4.480   3.102   4.067
14032SOL    HW242055   4.584   3.204   4.105
14033SOL     OW42056   4.333   3.458   4.996
14033SOL    HW142057   4.333   3.535   4.938
14033SOL    HW242058   4.420   3.421   4.986
14034SOL     OW42059   5.103   1.899   3.917
14034SOL    HW142060   5.144   1.828   3.868
14034SOL    HW242061   5.012   1.872   3.929
14035SOL     OW42062   5.017   2.333   4.398
14035SOL    HW142063   4.968   2.415   4.396
14035SOL    HW242064   5.015   2.306   4.489
14036SOL     OW42065   5.304   2.050   4.616
14036SOL    HW142066   5.253   2.081   4.690
14036SOL    HW242067   5.306   2.124   4.555
14037SOL     OW42068   3.760   2.914   4.033
14037SOL    HW142069   3.853   2.903   4.014
14037SOL    HW242070   3.729   2.825   4.053
14038SOL     OW42071   4.618   3.535   4.048
14038SOL    HW142072   4.540   3.518   3.995
14038SOL    HW242073   4.591   3.605   4.109
14039SOL     OW42074   3.932   2.480   5.733
14039SOL    HW142075   3.845   2.469   5.770
14039SOL    HW242076   3.920   2.470   5.638
14040SOL     OW42077   3.944   2.150   6.575
14040SOL    HW142078   3.974   2.115   6.659
14040SOL    HW242079   3.856   2.113   6.564
14041SOL     OW42080   3.709   2.257   6.232
14041SOL    HW142081   3.629   2.283   6.279
14041SOL    HW242082   3.681   2.183   6.178
14042SOL     OW42083   4.299   3.169   6.795
14042SOL    HW142084   4.217   3.172   6.746
14042SOL    HW242085   4.316   3.260   6.819
14043SOL     OW42086   5.312   3.385   6.291
14043SOL    HW142087   5.265   3.355   6.369
14043SOL    HW242088   5.246   3.389   6.223
14044SOL     OW42089   4.860   2.567   6.271
14044SOL    HW142090   4.907   2.650   6.260
14044SOL    HW242091   4.812   2.578   6.353
14045SOL     OW42092   5.524   2.442   5.803
14045SOL    HW142093   5.484   2.442   5.716
14045SOL    HW242094   5.480   2.371   5.850
14046SOL     OW42095   4.451   2.992   6.643
14046SOL    HW142096   4.393   3.032   6.707
14046SOL    HW242097   4.493   3.066   6.599
14047SOL     OW42098   4.611   2.604   7.413
14047SOL    HW142099   4.603   2.671   7.481
14047SOL    HW242100   4.628   2.653   7.333
14048SOL     OW42101   4.411   2.846   6.230
14048SOL    HW142102   4.478   2.847   6.298
14048SOL    HW242103   4.344   2.907   6.260
14049SOL     OW42104   4.437   3.013   7.419
14049SOL    HW142105   4.488   3.085   7.454
14049SOL    HW242106   4.361   3.055   7.379
14050SOL     OW42107   4.067   3.259   6.656
14050SOL    HW142108   3.992   3.216   6.616
14050SOL    HW242109   4.103   3.314   6.586
14051SOL     OW42110   5.178   3.368   6.958
14051SOL    HW142111   5.233   3.445   6.971
14051SOL    HW242112   5.106   3.380   7.020
14052SOL     OW42113   4.182   2.236   7.040
14052SOL    HW142114   4.257   2.178   7.057
14052SOL    HW242115   4.106   2.186   7.068
14053SOL     OW42116   5.308   2.294   6.341
14053SOL    HW142117   5.243   2.306   6.272
14053SOL    HW242118   5.291   2.364   6.403
14054SOL     OW42119   3.942   3.588   6.052
14054SOL    HW142120   3.965   3.657   6.113
14054SOL    HW242121   4.016   3.583   5.992
14055SOL     OW42122   4.859   3.204   7.282
14055SOL    HW142123   4.904   3.193   7.365
14055SOL    HW242124   4.805   3.124   7.273
14056SOL     OW42125   3.952   3.319   6.120
14056SOL    HW142126   3.936   3.413   6.119
14056SOL    HW242127   3.902   3.286   6.194
14057SOL     OW42128   4.009   2.951   6.465
14057SOL    HW142129   4.009   2.861   6.499
14057SOL    HW242130   3.953   2.999   6.526
14058SOL     OW42131   4.300   3.663   7.010
14058SOL    HW142132   4.222   3.645   7.063
14058SOL    HW242133   4.331   3.747   7.042
14059SOL     OW42134   4.289   2.844   5.742
14059SOL    HW142135   4.338   2.887   5.671
14059SOL    HW242136   4.331   2.876   5.822
14060SOL     OW42137   5.315   1.995   7.045
14060SOL    HW142138   5.354   2.071   7.003
14060SOL    HW242139   5.283   2.028   7.129
14061SOL     OW42140   3.843   2.520   6.154
14061SOL    HW142141   3.810   2.433   6.178
14061SOL    HW242142   3.837   2.571   6.234
14062SOL     OW42143   5.569   3.607   5.907
14062SOL    HW142144   5.643   3.592   5.967
14062SOL    HW242145   5.577   3.699   5.882
14063SOL     OW42146   3.770   3.437   5.703
14063SOL    HW142147   3.751   3.346   5.724
14063SOL    HW242148   3.741   3.486   5.780
14064SOL     OW42149   5.421   2.787   6.239
14064SOL    HW142150   5.505   2.744   6.219
14064SOL    HW242151   5.401   2.839   6.161
14065SOL     OW42152   5.381   2.967   6.019
14065SOL    HW142153   5.466   2.959   5.976
14065SOL    HW242154   5.395   3.031   6.088
14066SOL     OW42155   3.844   2.612   7.164
14066SOL    HW142156   3.929   2.656   7.167
14066SOL    HW242157   3.781   2.682   7.149
14067SOL     OW42158   4.346   3.258   6.319
14067SOL    HW142159   4.304   3.172   6.323
14067SOL    HW242160   4.333   3.287   6.229
14068SOL     OW42161   4.994   3.088   7.003
14068SOL    HW142162   5.022   3.018   6.943
14068SOL    HW242163   5.057   3.082   7.075
14069SOL     OW42164   4.555   1.873   6.104
14069SOL    HW142165   4.595   1.956   6.078
14069SOL    HW242166   4.461   1.892   6.105
14070SOL     OW42167   3.911   2.818   6.889
14070SOL    HW142168   3.998   2.783   6.872
14070SOL    HW242169   3.858   2.786   6.816
14071SOL     OW42170   5.260   2.874   5.787
14071SOL    HW142171   5.191   2.815   5.817
14071SOL    HW242172   5.302   2.905   5.867
14072SOL     OW42173   4.904   3.685   7.223
14072SOL    HW142174   4.905   3.747   7.150
14072SOL    HW242175   4.921   3.600   7.182
14073SOL     OW42176   4.084   2.115   7.461
14073SOL    HW142177   4.119   2.195   7.499
14073SOL    HW242178   3.989   2.130   7.458
14074SOL     OW42179   5.196   3.280   6.517
14074SOL    HW142180   5.133   3.299   6.586
14074SOL    HW242181   5.179   3.189   6.493
14075SOL     OW42182   5.365   3.655   6.151
14075SOL    HW142183   5.348   3.610   6.068
14075SOL    HW242184   5.363   3.585   6.217
14076SOL     OW42185   4.310   2.562   5.857
14076SOL    HW142186   4.313   2.649   5.819
14076SOL    HW242187   4.246   2.568   5.928
14077SOL     OW42188   5.007   2.255   6.527
14077SOL    HW142189   4.918   2.220   6.532
14077SOL    HW242190   5.059   2.197   6.582
14078SOL     OW42191   5.303   3.535   5.905
14078SOL    HW142192   5.397   3.552   5.894
14078SOL    HW242193   5.271   3.520   5.816
14079SOL     OW42194   4.515   2.475   7.016
14079SOL    HW142195   4.491   2.446   7.105
14079SOL    HW242196   4.489   2.402   6.960
14080SOL     OW42197   5.116   2.339   7.260
14080SOL    HW142198   5.120   2.382   7.345
14080SOL    HW242199   5.166   2.258   7.271
14081SOL     OW42200   4.668   2.743   7.179
14081SOL    HW142201   4.724   2.679   7.134
14081SOL    HW242202   4.619   2.785   7.108
14082SOL     OW42203   4.731   2.259   6.796
14082SOL    HW142204   4.639   2.273   6.818
14082SOL    HW242205   4.729   2.217   6.710
14083SOL     OW42206   4.782   2.561   6.003
14083SOL    HW142207   4.803   2.559   6.097
14083SOL    HW242208   4.697   2.517   5.997
14084SOL     OW42209   3.817   2.686   6.369
14084SOL    HW142210   3.899   2.681   6.418
14084SOL    HW242211   3.768   2.757   6.410
14085SOL     OW42212   3.833   3.742   7.174
14085SOL    HW142213   3.840   3.721   7.267
14085SOL    HW242214   3.747   3.709   7.148
14086SOL     OW42215   4.614   2.212   5.787
14086SOL    HW142216   4.663   2.268   5.727
14086SOL    HW242217   4.598   2.132   5.737
14087SOL     OW42218   5.410   2.425   7.426
14087SOL    HW142219   5.389   2.502   7.374
14087SOL    HW242220   5.439   2.360   7.362
14088SOL     OW42221   5.117   3.011   6.128
14088SOL    HW142222   5.197   3.000   6.077
14088SOL    HW242223   5.065   3.074   6.079
14089SOL     OW42224   4.275   2.023   6.502
14089SOL    HW142225   4.281   2.050   6.594
14089SOL    HW242226   4.271   2.105   6.453
14090SOL     OW42227   4.723   3.317   6.055
14090SOL    HW142228   4.699   3.392   6.001
14090SOL    HW242229   4.692   3.341   6.143
14091SOL     OW42230   4.076   3.677   6.478
14091SOL    HW142231   4.123   3.593   6.478
14091SOL    HW242232   4.143   3.743   6.495
14092SOL     OW42233   5.527   2.904   6.477
14092SOL    HW142234   5.479   2.892   6.395
14092SOL    HW242235   5.459   2.914   6.544
14093SOL     OW42236   4.943   3.406   7.104
14093SOL    HW142237   4.931   3.334   7.165
14093SOL    HW242238   4.872   3.396   7.040
14094SOL     OW42239   4.024   2.820   5.853
14094SOL    HW142240   4.108   2.840   5.811
14094SOL    HW242241   4.000   2.734   5.819
14095SOL     OW42242   5.208   2.625   6.297
14095SOL    HW142243   5.210   2.582   6.382
14095SOL    HW242244   5.287   2.679   6.294
14096SOL     OW42245   4.196   3.146   7.334
14096SOL    HW142246   4.173   3.150   7.241
14096SOL    HW242247   4.113   3.134   7.380
14097SOL     OW42248   4.854   3.646   5.798
14097SOL    HW142249   4.777   3.614   5.845
14097SOL    HW242250   4.877   3.576   5.737
14098SOL     OW42251   3.933   2.119   7.084
14098SOL    HW142252   3.861   2.179   7.102
14098SOL    HW242253   3.902   2.034   7.118
14099SOL     OW42254   5.363   3.248   5.690
14099SOL    HW142255   5.323   3.334   5.674
14099SOL    HW242256   5.297   3.185   5.660
14100SOL     OW42257   4.183   3.612   5.908
14100SOL    HW142258   4.229   3.665   5.973
14100SOL    HW242259   4.253   3.572   5.856
14101SOL     OW42260   5.122   1.970   6.047
14101SOL    HW142261   5.124   1.945   5.954
14101SOL    HW242262   5.214   1.962   6.075
14102SOL     OW42263   3.975   3.649   6.801
14102SOL    HW142264   4.024   3.574   6.835
14102SOL    HW242265   3.967   3.632   6.708
14103SOL     OW42266   4.673   3.565   6.479
14103SOL    HW142267   4.757   3.523   6.495
14103SOL    HW242268   4.633   3.514   6.408
14104SOL     OW42269   4.119   2.547   6.058
14104SOL    HW142270   4.131   2.453   6.072
14104SOL    HW242271   4.026   2.563   6.076
14105SOL     OW42272   5.232   2.085   7.303
14105SOL    HW142273   5.244   2.103   7.396
14105SOL    HW242274   5.166   2.015   7.301
14106SOL     OW42275   4.386   1.972   5.692
14106SOL    HW142276   4.421   1.891   5.730
14106SOL    HW242277   4.325   1.942   5.624
14107SOL     OW42278   4.483   2.135   7.338
14107SOL    HW142279   4.567   2.090   7.336
14107SOL    HW242280   4.436   2.096   7.412
14108SOL     OW42281   4.593   3.388   6.785
14108SOL    HW142282   4.575   3.347   6.700
14108SOL    HW242283   4.660   3.332   6.824
14109SOL     OW42284   5.054   2.453   7.019
14109SOL    HW142285   5.086   2.423   7.103
14109SOL    HW242286   5.092   2.540   7.007
14110SOL     OW42287   4.540   3.237   6.542
14110SOL    HW142288   4.628   3.234   6.503
14110SOL    HW242289   4.482   3.253   6.468
14111SOL     OW42290   4.655   2.377   6.475
14111SOL    HW142291   4.629   2.365   6.383
14111SOL    HW242292   4.682   2.290   6.503
14112SOL     OW42293   4.287   1.927   6.078
14112SOL    HW142294   4.210   1.927   6.135
14112SOL    HW242295   4.275   2.002   6.020
14113SOL     OW42296   5.162   3.071   5.618
14113SOL    HW142297   5.191   2.998   5.672
14113SOL    HW242298   5.077   3.096   5.656
14114SOL     OW42299   4.004   1.908   5.766
14114SOL    HW142300   4.056   1.978   5.729
14114SOL    HW242301   4.066   1.854   5.814
14115SOL     OW42302   4.675   2.113   6.037
14115SOL    HW142303   4.650   2.149   5.953
14115SOL    HW242304   4.769   2.130   6.044
14116SOL     OW42305   4.799   2.556   7.031
14116SOL    HW142306   4.736   2.484   7.036
14116SOL    HW242307   4.885   2.513   7.028
14117SOL     OW42308   4.931   3.448   6.388
14117SOL    HW142309   4.945   3.508   6.315
14117SOL    HW242310   5.002   3.467   6.449
14118SOL     OW42311   4.207   3.021   6.294
14118SOL    HW142312   4.145   2.997   6.363
14118SOL    HW242313   4.156   3.015   6.213
14119SOL     OW42314   4.976   3.653   6.204
14119SOL    HW142315   5.027   3.717   6.153
14119SOL    HW242316   4.906   3.705   6.243
14120SOL     OW42317   4.754   2.377   5.617
14120SOL    HW142318   4.712   2.461   5.597
14120SOL    HW242319   4.819   2.398   5.684
14121SOL     OW42320   3.823   2.413   6.977
14121SOL    HW142321   3.915   2.415   6.951
14121SOL    HW242322   3.816   2.483   7.043
14122SOL     OW42323   4.283   2.083   6.772
14122SOL    HW142324   4.320   2.021   6.835
14122SOL    HW242325   4.190   2.084   6.792
14123SOL     OW42326   4.593   2.316   6.217
14123SOL    HW142327   4.553   2.373   6.151
14123SOL    HW242328   4.618   2.237   6.169
14124SOL     OW42329   4.748   1.919   6.326
14124SOL    HW142330   4.686   1.914   6.253
14124SOL    HW242331   4.723   1.848   6.384
14125SOL     OW42332   5.160   3.016   6.441
14125SOL    HW142333   5.089   2.952   6.448
14125SOL    HW242334   5.177   3.022   6.347
14126SOL     OW42335   5.187   2.478   6.534
14126SOL    HW142336   5.123   2.407   6.545
14126SOL    HW242337   5.243   2.472   6.612
14127SOL     OW42338   5.550   2.656   5.973
14127SOL    HW142339   5.611   2.614   6.033
14127SOL    HW242340   5.538   2.593   5.902
14128SOL     OW42341   4.218   3.279   5.735
14128SOL    HW142342   4.143   3.249   5.787
14128SOL    HW242343   4.215   3.226   5.655
14129SOL     OW42344   5.430   3.131   6.223
14129SOL    HW142345   5.524   3.124   6.243
14129SOL    HW242346   5.408   3.221   6.247
14130SOL     OW42347   5.114   2.441   5.650
14130SOL    HW142348   5.061   2.413   5.725
14130SOL    HW242349   5.204   2.421   5.676
14131SOL     OW42350   4.248   2.120   5.889
14131SOL    HW142351   4.303   2.080   5.823
14131SOL    HW242352   4.216   2.201   5.849
14132SOL     OW42353   5.459   3.106   7.119
14132SOL    HW142354   5.547   3.072   7.105
14132SOL    HW242355   5.473   3.194   7.155
14133SOL     OW42356   4.765   3.215   6.919
14133SOL    HW142357   4.688   3.181   6.965
14133SOL    HW242358   4.839   3.171   6.961
14134SOL     OW42359   5.332   3.496   7.258
14134SOL    HW142360   5.321   3.533   7.171
14134SOL    HW242361   5.410   3.441   7.251
14135SOL     OW42362   4.875   3.099   6.690
14135SOL    HW142363   4.814   3.133   6.755
14135SOL    HW242364   4.842   3.131   6.607
14136SOL     OW42365   5.332   2.953   6.664
14136SOL    HW142366   5.325   3.020   6.732
14136SOL    HW242367   5.263   2.974   6.601
14137SOL     OW42368   4.644   1.943   6.969
14137SOL    HW142369   4.665   1.929   6.877
14137SOL    HW242370   4.722   1.984   7.006
14138SOL     OW42371   4.703   2.977   7.310
14138SOL    HW142372   4.613   2.994   7.338
14138SOL    HW242373   4.698   2.897   7.259
14139SOL     OW42374   4.441   2.923   5.962
14139SOL    HW142375   4.427   2.896   6.053
14139SOL    HW242376   4.515   2.869   5.932
14140SOL     OW42377   4.150   2.690   6.845
14140SOL    HW142378   4.218   2.700   6.912
14140SOL    HW242379   4.120   2.600   6.855
14141SOL     OW42380   4.988   2.230   6.878
14141SOL    HW142381   5.016   2.311   6.922
14141SOL    HW242382   4.899   2.248   6.848
14142SOL     OW42383   3.802   3.431   6.948
14142SOL    HW142384   3.771   3.503   6.892
14142SOL    HW242385   3.897   3.432   6.938
14143SOL     OW42386   4.041   2.996   6.074
14143SOL    HW142387   4.041   3.068   6.011
14143SOL    HW242388   4.038   2.917   6.019
14144SOL     OW42389   4.259   2.377   6.444
14144SOL    HW142390   4.271   2.435   6.369
14144SOL    HW242391   4.326   2.404   6.506
14145SOL     OW42392   4.974   3.219   5.987
14145SOL    HW142393   5.029   3.288   6.022
14145SOL    HW242394   4.886   3.241   6.018
14146SOL     OW42395   5.033   3.330   6.729
14146SOL    HW142396   5.081   3.337   6.812
14146SOL    HW242397   4.982   3.250   6.738
14147SOL     OW42398   5.302   2.481   6.072
14147SOL    HW142399   5.250   2.523   6.141
14147SOL    HW242400   5.355   2.552   6.036
14148SOL     OW42401   4.069   3.395   6.888
14148SOL    HW142402   4.061   3.342   6.808
14148SOL    HW242403   4.163   3.411   6.898
14149SOL     OW42404   4.157   2.608   7.205
14149SOL    HW142405   4.215   2.652   7.143
14149SOL    HW242406   4.201   2.526   7.225
14150SOL     OW42407   5.351   2.648   7.284
14150SOL    HW142408   5.264   2.686   7.275
14150SOL    HW242409   5.402   2.686   7.212
14151SOL     OW42410   4.719   2.002   7.343
14151SOL    HW142411   4.777   2.076   7.325
14151SOL    HW242412   4.771   1.925   7.322
14152SOL     OW42413   4.219   1.897   7.348
14152SOL    HW142414   4.164   1.847   7.288
14152SOL    HW242415   4.167   1.974   7.370
14153SOL     OW42416   4.315   2.737   6.625
14153SOL    HW142417   4.353   2.824   6.627
14153SOL    HW242418   4.257   2.733   6.701
14154SOL     OW42419   5.033   2.714   6.589
14154SOL    HW142420   4.944   2.687   6.564
14154SOL    HW242421   5.088   2.638   6.570
14155SOL     OW42422   4.922   2.384   5.844
14155SOL    HW142423   4.933   2.308   5.901
14155SOL    HW242424   4.881   2.450   5.899
14156SOL     OW42425   4.015   2.056   6.825
14156SOL    HW142426   3.981   2.085   6.909
14156SOL    HW242427   3.998   1.962   6.823
14157SOL     OW42428   3.773   3.174   6.853
14157SOL    HW142429   3.803   3.118   6.925
14157SOL    HW242430   3.776   3.263   6.888
14158SOL     OW42431   4.434   2.484   6.625
14158SOL    HW142432   4.513   2.478   6.570
14158SOL    HW242433   4.406   2.575   6.616
14159SOL     OW42434   5.475   2.829   7.456
14159SOL    HW142435   5.436   2.757   7.407
14159SOL    HW242436   5.411   2.850   7.524
14160SOL     OW42437   4.048   1.922   6.215
14160SOL    HW142438   4.014   2.009   6.233
14160SOL    HW242439   4.054   1.880   6.301
14161SOL     OW42440   5.355   2.253   5.930
14161SOL    HW142441   5.387   2.188   5.993
14161SOL    HW242442   5.327   2.327   5.985
14162SOL     OW42443   4.758   2.620   6.542
14162SOL    HW142444   4.737   2.635   6.634
14162SOL    HW242445   4.729   2.531   6.525
14163SOL     OW42446   4.704   3.427   7.320
14163SOL    HW142447   4.684   3.471   7.237
14163SOL    HW242448   4.743   3.344   7.295
14164SOL     OW42449   5.562   3.357   7.187
14164SOL    HW142450   5.589   3.386   7.100
14164SOL    HW242451   5.641   3.368   7.241
14165SOL     OW42452   4.073   2.780   7.403
14165SOL    HW142453   4.150   2.798   7.457
14165SOL    HW242454   4.104   2.718   7.337
14166SOL     OW42455   5.246   2.131   5.706
14166SOL    HW142456   5.194   2.060   5.745
14166SOL    HW242457   5.285   2.176   5.781
14167SOL     OW42458   4.998   2.686   5.605
14167SOL    HW142459   5.039   2.599   5.613
14167SOL    HW242460   5.035   2.722   5.524
14168SOL     OW42461   4.794   3.215   6.452
14168SOL    HW142462   4.805   3.142   6.390
14168SOL    HW242463   4.846   3.286   6.415
14169SOL     OW42464   4.042   2.677   6.531
14169SOL    HW142465   4.137   2.692   6.530
14169SOL    HW242466   4.033   2.587   6.562
14170SOL     OW42467   4.038   2.399   6.597
14170SOL    HW142468   3.999   2.313   6.587
14170SOL    HW242469   4.115   2.397   6.540
14171SOL     OW42470   4.863   2.229   7.272
14171SOL    HW142471   4.817   2.280   7.338
14171SOL    HW242472   4.948   2.272   7.263
14172SOL     OW42473   4.880   2.052   7.060
14172SOL    HW142474   4.869   2.113   7.132
14172SOL    HW242475   4.927   2.101   6.992
14173SOL     OW42476   3.746   3.161   5.768
14173SOL    HW142477   3.656   3.182   5.742
14173SOL    HW242478   3.740   3.075   5.808
14174SOL     OW42479   3.812   3.633   6.537
14174SOL    HW142480   3.780   3.558   6.485
14174SOL    HW242481   3.901   3.648   6.504
14175SOL     OW42482   4.210   3.431   6.488
14175SOL    HW142483   4.280   3.493   6.509
14175SOL    HW242484   4.250   3.369   6.427
14176SOL     OW42485   4.673   2.642   6.800
14176SOL    HW142486   4.735   2.631   6.872
14176SOL    HW242487   4.594   2.597   6.831
14177SOL     OW42488   3.763   2.432   6.707
14177SOL    HW142489   3.845   2.430   6.657
14177SOL    HW242490   3.791   2.426   6.798
14178SOL     OW42491   3.909   2.401   7.329
14178SOL    HW142492   3.982   2.369   7.276
14178SOL    HW242493   3.874   2.475   7.280
14179SOL     OW42494   5.116   2.783   7.237
14179SOL    HW142495   5.133   2.877   7.232
14179SOL    HW242496   5.108   2.755   7.146
14180SOL     OW42497   4.542   2.431   5.958
14180SOL    HW142498   4.549   2.357   5.898
14180SOL    HW242499   4.465   2.479   5.927
14181SOL     OW42500   5.359   2.463   6.749
14181SOL    HW142501   5.349   2.405   6.824
14181SOL    HW242502   5.451   2.452   6.721
14182SOL     OW42503   3.950   3.402   7.308
14182SOL    HW142504   3.927   3.452   7.386
14182SOL    HW242505   3.961   3.312   7.340
14183SOL     OW42506   4.458   2.295   6.819
14183SOL    HW142507   4.393   2.226   6.805
14183SOL    HW242508   4.440   2.359   6.751
14184SOL     OW42509   4.634   3.539   7.071
14184SOL    HW142510   4.609   3.493   6.991
14184SOL    HW242511   4.635   3.631   7.046
14185SOL     OW42512   4.168   2.343   5.749
14185SOL    HW142513   4.232   2.410   5.774
14185SOL    HW242514   4.084   2.388   5.752
14186SOL     OW42515   3.854   3.013   7.067
14186SOL    HW142516   3.858   2.973   7.154
14186SOL    HW242517   3.875   2.941   7.008
14187SOL     OW42518   5.027   2.895   6.794
14187SOL    HW142519   5.037   2.832   6.724
14187SOL    HW242520   4.974   2.965   6.757
14188SOL     OW42521   5.049   2.721   5.877
14188SOL    HW142522   4.979   2.686   5.932
14188SOL    HW242523   5.019   2.707   5.787
14189SOL     OW42524   5.511   3.586   6.757
14189SOL    HW142525   5.572   3.612   6.688
14189SOL    HW242526   5.479   3.500   6.729
14190SOL     OW42527   4.964   3.594   6.674
14190SOL    HW142528   5.049   3.625   6.641
14190SOL    HW242529   4.980   3.503   6.700
14191SOL     OW42530   3.831   3.107   6.597
14191SOL    HW142531   3.803   3.130   6.685
14191SOL    HW242532   3.759   3.056   6.561
14192SOL     OW42533   4.410   3.545   7.336
14192SOL    HW142534   4.346   3.616   7.323
14192SOL    HW242535   4.483   3.569   7.279
14193SOL     OW42536   5.466   2.045   6.082
14193SOL    HW142537   5.526   2.026   6.010
14193SOL    HW242538   5.441   1.960   6.117
14194SOL     OW42539   5.122   3.433   6.090
14194SOL    HW142540   5.177   3.468   6.020
14194SOL    HW242541   5.069   3.508   6.117
14195SOL     OW42542   3.858   3.667   7.430
14195SOL    HW142543   3.817   3.591   7.472
14195SOL    HW242544   3.908   3.709   7.500
14196SOL     OW42545   5.003   2.798   6.249
14196SOL    HW142546   5.077   2.738   6.263
14196SOL    HW242547   5.039   2.870   6.197
14197SOL     OW42548   4.507   3.142   7.002
14197SOL    HW142549   4.481   3.190   7.081
14197SOL    HW242550   4.433   3.153   6.942
14198SOL     OW42551   4.391   3.482   5.772
14198SOL    HW142552   4.414   3.504   5.681
14198SOL    HW242553   4.336   3.404   5.765
14199SOL     OW42554   5.340   3.592   6.988
14199SOL    HW142555   5.397   3.592   6.911
14199SOL    HW242556   5.324   3.684   7.007
14200SOL     OW42557   5.568   2.023   6.550
14200SOL    HW142558   5.597   1.934   6.529
14200SOL    HW242559   5.481   2.029   6.512
14201SOL     OW42560   3.965   2.168   6.294
14201SOL    HW142561   3.879   2.204   6.273
14201SOL    HW242562   3.970   2.170   6.390
14202SOL     OW42563   4.928   3.445   5.625
14202SOL    HW142564   4.922   3.355   5.656
14202SOL    HW242565   4.855   3.454   5.564
14203SOL     OW42566   4.547   2.874   6.971
14203SOL    HW142567   4.584   2.866   6.883
14203SOL    HW242568   4.536   2.968   6.984
14204SOL     OW42569   4.645   2.771   5.870
14204SOL    HW142570   4.706   2.812   5.809
14204SOL    HW242571   4.697   2.705   5.916
14205SOL     OW42572   5.207   3.501   5.644
14205SOL    HW142573   5.115   3.482   5.626
14205SOL    HW242574   5.247   3.505   5.557
14206SOL     OW42575   4.087   3.175   7.087
14206SOL    HW142576   4.079   3.248   7.027
14206SOL    HW242577   4.009   3.122   7.071
14207SOL     OW42578   5.323   3.152   6.862
14207SOL    HW142579   5.378   3.128   6.937
14207SOL    HW242580   5.264   3.219   6.897
14208SOL     OW42581   4.801   2.981   6.314
14208SOL    HW142582   4.726   2.932   6.346
14208SOL    HW242583   4.863   2.914   6.285
14209SOL     OW42584   4.758   2.111   6.546
14209SOL    HW142585   4.757   2.068   6.461
14209SOL    HW242586   4.751   2.040   6.609
14210SOL     OW42587   4.334   3.350   6.066
14210SOL    HW142588   4.386   3.302   6.002
14210SOL    HW242589   4.257   3.379   6.017
14211SOL     OW42590   5.470   2.243   6.975
14211SOL    HW142591   5.540   2.308   6.971
14211SOL    HW242592   5.496   2.175   6.914
14212SOL     OW42593   4.001   3.201   5.886
14212SOL    HW142594   3.914   3.193   5.848
14212SOL    HW242595   3.987   3.250   5.967
14213SOL     OW42596   3.845   2.909   7.322
14213SOL    HW142597   3.768   2.880   7.371
14213SOL    HW242598   3.917   2.858   7.359
14214SOL     OW42599   4.403   2.050   7.080
14214SOL    HW142600   4.487   2.024   7.042
14214SOL    HW242601   4.426   2.084   7.167
14215SOL     OW42602   3.814   2.178   5.591
14215SOL    HW142603   3.734   2.161   5.542
14215SOL    HW242604   3.842   2.265   5.563
14216SOL     OW42605   5.139   2.715   6.974
14216SOL    HW142606   5.086   2.774   6.919
14216SOL    HW242607   5.227   2.720   6.936
14217SOL     OW42608   3.767   2.009   5.858
14217SOL    HW142609   3.753   2.082   5.798
14217SOL    HW242610   3.854   1.976   5.837
14218SOL     OW42611   4.915   3.176   5.717
14218SOL    HW142612   4.843   3.112   5.722
14218SOL    HW242613   4.940   3.191   5.808
14219SOL     OW42614   4.350   2.694   7.027
14219SOL    HW142615   4.408   2.768   7.016
14219SOL    HW242616   4.408   2.617   7.026
14220SOL     OW42617   5.211   3.665   6.578
14220SOL    HW142618   5.235   3.740   6.523
14220SOL    HW242619   5.294   3.622   6.599
14221SOL     OW42620   4.449   2.410   7.272
14221SOL    HW142621   4.495   2.464   7.335
14221SOL    HW242622   4.459   2.320   7.304
14222SOL     OW42623   5.193   3.046   7.205
14222SOL    HW142624   5.185   3.069   7.298
14222SOL    HW242625   5.282   3.070   7.181
14223SOL     OW42626   4.077   3.610   7.165
14223SOL    HW142627   3.996   3.656   7.147
14223SOL    HW242628   4.050   3.526   7.202
14224SOL     OW42629   5.379   2.737   6.839
14224SOL    HW142630   5.377   2.654   6.792
14224SOL    HW242631   5.367   2.804   6.771
14225SOL     OW42632   4.943   2.184   6.043
14225SOL    HW142633   5.004   2.110   6.042
14225SOL    HW242634   4.971   2.237   6.118
14226SOL     OW42635   4.303   2.586   6.265
14226SOL    HW142636   4.346   2.670   6.252
14226SOL    HW242637   4.240   2.579   6.193
14227SOL     OW42638   5.471   2.216   7.251
14227SOL    HW142639   5.468   2.233   7.157
14227SOL    HW242640   5.393   2.163   7.269
14228SOL     OW42641   5.484   2.787   7.090
14228SOL    HW142642   5.467   2.880   7.103
14228SOL    HW242643   5.457   2.769   7.000
14229SOL     OW42644   4.558   3.217   5.641
14229SOL    HW142645   4.542   3.230   5.734
14229SOL    HW242646   4.594   3.300   5.611
14230SOL     OW42647   4.392   3.629   6.511
14230SOL    HW142648   4.372   3.723   6.503
14230SOL    HW242649   4.488   3.625   6.510
14231SOL     OW42650   4.597   2.840   6.442
14231SOL    HW142651   4.647   2.766   6.478
14231SOL    HW242652   4.552   2.877   6.517
14232SOL     OW42653   4.810   2.872   5.679
14232SOL    HW142654   4.776   2.910   5.598
14232SOL    HW242655   4.876   2.809   5.649
14233SOL     OW42656   5.554   3.419   6.426
14233SOL    HW142657   5.478   3.411   6.369
14233SOL    HW242658   5.531   3.369   6.505
14234SOL     OW42659   3.936   3.148   7.422
14234SOL    HW142660   3.904   3.069   7.379
14234SOL    HW242661   3.877   3.160   7.496
14235SOL     OW42662   3.837   3.082   6.255
14235SOL    HW142663   3.870   3.041   6.335
14235SOL    HW242664   3.898   3.053   6.187
14236SOL     OW42665   4.415   3.281   7.221
14236SOL    HW142666   4.337   3.243   7.261
14236SOL    HW242667   4.419   3.370   7.256
14237SOL     OW42668   5.534   2.032   6.820
14237SOL    HW142669   5.536   1.937   6.833
14237SOL    HW242670   5.548   2.045   6.727
14238SOL     OW42671   4.140   2.285   6.105
14238SOL    HW142672   4.173   2.213   6.051
14238SOL    HW242673   4.088   2.242   6.173
14239SOL     OW42674   5.420   3.342   6.667
14239SOL    HW142675   5.342   3.323   6.616
14239SOL    HW242676   5.422   3.274   6.735
14240SOL     OW42677   4.076   2.428   6.877
14240SOL    HW142678   4.125   2.363   6.927
14240SOL    HW242679   4.083   2.398   6.786
14241SOL     OW42680   4.563   3.449   6.258
14241SOL    HW142681   4.537   3.522   6.202
14241SOL    HW242682   4.486   3.392   6.261
14242SOL     OW42683   5.146   2.096   6.702
14242SOL    HW142684   5.158   2.007   6.737
14242SOL    HW242685   5.100   2.143   6.771
14243SOL     OW42686   4.735   1.880   6.706
14243SOL    HW142687   4.679   1.817   6.659
14243SOL    HW242688   4.821   1.839   6.708
14244SOL     OW42689   4.509   3.193   5.915
14244SOL    HW142690   4.484   3.102   5.929
14244SOL    HW242691   4.587   3.206   5.969
14245SOL     OW42692   4.340   3.430   6.875
14245SOL    HW142693   4.335   3.514   6.922
14245SOL    HW242694   4.429   3.426   6.841
14246SOL     OW42695   5.106   1.901   5.780
14246SOL    HW142696   5.148   1.826   5.737
14246SOL    HW242697   5.014   1.875   5.790
14247SOL     OW42698   5.019   2.333   6.260
14247SOL    HW142699   4.969   2.415   6.258
14247SOL    HW242700   5.015   2.304   6.351
14248SOL     OW42701   5.305   2.050   6.479
14248SOL    HW142702   5.253   2.080   6.554
14248SOL    HW242703   5.306   2.124   6.419
14249SOL     OW42704   3.760   2.912   5.896
14249SOL    HW142705   3.854   2.900   5.878
14249SOL    HW242706   3.729   2.823   5.916
14250SOL     OW42707   4.623   3.540   5.923
14250SOL    HW142708   4.542   3.519   5.877
14250SOL    HW242709   4.598   3.608   5.986
14251SOL     OW42710   3.932   2.483   7.596
14251SOL    HW142711   3.844   2.471   7.632
14251SOL    HW242712   3.920   2.470   7.502
14252SOL     OW42713   3.943   2.150   8.438
14252SOL    HW142714   3.974   2.115   8.521
14252SOL    HW242715   3.856   2.113   8.426
14253SOL     OW42716   3.710   2.258   8.094
14253SOL    HW142717   3.631   2.283   8.141
14253SOL    HW242718   3.683   2.184   8.039
14254SOL     OW42719   4.299   3.170   8.657
14254SOL    HW142720   4.217   3.172   8.609
14254SOL    HW242721   4.316   3.261   8.681
14255SOL     OW42722   5.314   3.388   8.153
14255SOL    HW142723   5.267   3.355   8.230
14255SOL    HW242724   5.248   3.391   8.084
14256SOL     OW42725   4.862   2.566   8.134
14256SOL    HW142726   4.908   2.649   8.123
14256SOL    HW242727   4.813   2.576   8.216
14257SOL     OW42728   5.524   2.444   7.668
14257SOL    HW142729   5.486   2.444   7.581
14257SOL    HW242730   5.480   2.372   7.714
14258SOL     OW42731   4.451   2.992   8.506
14258SOL    HW142732   4.393   3.032   8.570
14258SOL    HW242733   4.493   3.066   8.462
14259SOL     OW42734   4.612   2.605   9.276
14259SOL    HW142735   4.607   2.673   9.343
14259SOL    HW242736   4.628   2.653   9.194
14260SOL     OW42737   4.410   2.847   8.092
14260SOL    HW142738   4.477   2.847   8.160
14260SOL    HW242739   4.344   2.909   8.123
14261SOL     OW42740   4.437   3.015   9.274
14261SOL    HW142741   4.489   3.087   9.308
14261SOL    HW242742   4.360   3.056   9.235
14262SOL     OW42743   4.068   3.258   8.517
14262SOL    HW142744   3.992   3.216   8.478
14262SOL    HW242745   4.103   3.313   8.448
14263SOL     OW42746   5.176   3.366   8.820
14263SOL    HW142747   5.228   3.445   8.831
14263SOL    HW242748   5.103   3.378   8.881
14264SOL     OW42749   4.181   2.236   8.904
14264SOL    HW142750   4.256   2.178   8.920
14264SOL    HW242751   4.105   2.185   8.931
14265SOL     OW42752   5.308   2.294   8.203
14265SOL    HW142753   5.242   2.304   8.135
14265SOL    HW242754   5.290   2.364   8.265
14266SOL     OW42755   3.942   3.590   7.912
14266SOL    HW142756   3.969   3.661   7.970
14266SOL    HW242757   4.015   3.579   7.852
14267SOL     OW42758   4.858   3.205   9.142
14267SOL    HW142759   4.899   3.196   9.227
14267SOL    HW242760   4.806   3.125   9.132
14268SOL     OW42761   3.958   3.320   7.981
14268SOL    HW142762   3.936   3.413   7.984
14268SOL    HW242763   3.907   3.281   8.053
14269SOL     OW42764   4.010   2.951   8.328
14269SOL    HW142765   4.010   2.861   8.361
14269SOL    HW242766   3.954   2.999   8.388
14270SOL     OW42767   4.303   3.662   8.874
14270SOL    HW142768   4.224   3.644   8.926
14270SOL    HW242769   4.333   3.748   8.905
14271SOL     OW42770   4.290   2.850   7.600
14271SOL    HW142771   4.341   2.892   7.531
14271SOL    HW242772   4.330   2.879   7.681
14272SOL     OW42773   5.314   1.995   8.904
14272SOL    HW142774   5.351   2.073   8.862
14272SOL    HW242775   5.282   2.027   8.989
14273SOL     OW42776   3.843   2.520   8.015
14273SOL    HW142777   3.810   2.433   8.039
14273SOL    HW242778   3.837   2.571   8.096
14274SOL     OW42779   5.570   3.606   7.766
14274SOL    HW142780   5.643   3.591   7.826
14274SOL    HW242781   5.577   3.698   7.742
14275SOL     OW42782   3.783   3.442   7.559
14275SOL    HW142783   3.762   3.350   7.578
14275SOL    HW242784   3.751   3.490   7.635
14276SOL     OW42785   5.423   2.789   8.100
14276SOL    HW142786   5.501   2.742   8.072
14276SOL    HW242787   5.398   2.842   8.024
14277SOL     OW42788   5.379   2.967   7.880
14277SOL    HW142789   5.464   2.959   7.837
14277SOL    HW242790   5.394   3.033   7.948
14278SOL     OW42791   3.844   2.610   9.026
14278SOL    HW142792   3.928   2.655   9.030
14278SOL    HW242793   3.780   2.681   9.013
14279SOL     OW42794   4.346   3.260   8.179
14279SOL    HW142795   4.305   3.174   8.184
14279SOL    HW242796   4.331   3.289   8.089
14280SOL     OW42797   4.995   3.088   8.866
14280SOL    HW142798   5.022   3.019   8.806
14280SOL    HW242799   5.056   3.082   8.939
14281SOL     OW42800   4.555   1.874   7.966
14281SOL    HW142801   4.595   1.956   7.939
14281SOL    HW242802   4.461   1.892   7.967
14282SOL     OW42803   3.911   2.818   8.750
14282SOL    HW142804   3.999   2.783   8.733
14282SOL    HW242805   3.857   2.783   8.679
14283SOL     OW42806   5.258   2.877   7.647
14283SOL    HW142807   5.190   2.816   7.677
14283SOL    HW242808   5.300   2.907   7.728
14284SOL     OW42809   4.910   3.688   9.086
14284SOL    HW142810   4.906   3.749   9.013
14284SOL    HW242811   4.924   3.602   9.046
14285SOL     OW42812   4.084   2.116   9.322
14285SOL    HW142813   4.120   2.195   9.362
14285SOL    HW242814   3.990   2.132   9.319
14286SOL     OW42815   5.194   3.280   8.376
14286SOL    HW142816   5.131   3.299   8.445
14286SOL    HW242817   5.178   3.189   8.352
14287SOL     OW42818   5.364   3.656   8.011
14287SOL    HW142819   5.346   3.612   7.928
14287SOL    HW242820   5.362   3.587   8.077
14288SOL     OW42821   4.311   2.561   7.720
14288SOL    HW142822   4.314   2.649   7.681
14288SOL    HW242823   4.246   2.568   7.790
14289SOL     OW42824   5.006   2.256   8.389
14289SOL    HW142825   4.917   2.221   8.394
14289SOL    HW242826   5.058   2.197   8.444
14290SOL     OW42827   5.303   3.536   7.767
14290SOL    HW142828   5.397   3.551   7.756
14290SOL    HW242829   5.270   3.523   7.678
14291SOL     OW42830   4.515   2.474   8.879
14291SOL    HW142831   4.492   2.445   8.967
14291SOL    HW242832   4.490   2.402   8.822
14292SOL     OW42833   5.117   2.337   9.118
14292SOL    HW142834   5.120   2.380   9.204
14292SOL    HW242835   5.165   2.256   9.130
14293SOL     OW42836   4.668   2.742   9.040
14293SOL    HW142837   4.724   2.678   8.995
14293SOL    HW242838   4.619   2.785   8.970
14294SOL     OW42839   4.732   2.259   8.656
14294SOL    HW142840   4.640   2.272   8.679
14294SOL    HW242841   4.729   2.216   8.571
14295SOL     OW42842   4.783   2.559   7.866
14295SOL    HW142843   4.803   2.556   7.960
14295SOL    HW242844   4.698   2.515   7.859
14296SOL     OW42845   3.817   2.686   8.231
14296SOL    HW142846   3.899   2.681   8.280
14296SOL    HW242847   3.769   2.758   8.272
14297SOL     OW42848   3.834   3.741   9.040
14297SOL    HW142849   3.844   3.719   9.133
14297SOL    HW242850   3.749   3.707   9.015
14298SOL     OW42851   4.612   2.213   7.648
14298SOL    HW142852   4.663   2.266   7.587
14298SOL    HW242853   4.589   2.135   7.597
14299SOL     OW42854   5.410   2.423   9.283
14299SOL    HW142855   5.390   2.503   9.234
14299SOL    HW242856   5.436   2.360   9.217
14300SOL     OW42857   5.116   3.012   7.991
14300SOL    HW142858   5.195   3.000   7.938
14300SOL    HW242859   5.062   3.073   7.941
14301SOL     OW42860   4.275   2.023   8.364
14301SOL    HW142861   4.281   2.051   8.455
14301SOL    HW242862   4.270   2.104   8.313
14302SOL     OW42863   4.721   3.318   7.913
14302SOL    HW142864   4.696   3.392   7.857
14302SOL    HW242865   4.690   3.343   8.000
14303SOL     OW42866   4.078   3.678   8.327
14303SOL    HW142867   4.123   3.594   8.332
14303SOL    HW242868   4.145   3.743   8.349
14304SOL     OW42869   5.529   2.908   8.335
14304SOL    HW142870   5.482   2.890   8.253
14304SOL    HW242871   5.461   2.915   8.401
14305SOL     OW42872   4.943   3.408   8.966
14305SOL    HW142873   4.930   3.335   9.026
14305SOL    HW242874   4.869   3.402   8.905
14306SOL     OW42875   4.024   2.821   7.714
14306SOL    HW142876   4.107   2.842   7.670
14306SOL    HW242877   4.001   2.734   7.681
14307SOL     OW42878   5.209   2.626   8.159
14307SOL    HW142879   5.211   2.582   8.244
14307SOL    HW242880   5.289   2.679   8.158
14308SOL     OW42881   4.196   3.148   9.195
14308SOL    HW142882   4.171   3.152   9.103
14308SOL    HW242883   4.113   3.138   9.242
14309SOL     OW42884   4.864   3.636   7.676
14309SOL    HW142885   4.781   3.607   7.714
14309SOL    HW242886   4.883   3.572   7.608
14310SOL     OW42887   3.931   2.118   8.947
14310SOL    HW142888   3.857   2.177   8.961
14310SOL    HW242889   3.902   2.034   8.983
14311SOL     OW42890   5.362   3.250   7.550
14311SOL    HW142891   5.322   3.336   7.536
14311SOL    HW242892   5.295   3.187   7.522
14312SOL     OW42893   4.183   3.604   7.763
14312SOL    HW142894   4.232   3.655   7.828
14312SOL    HW242895   4.250   3.563   7.709
14313SOL     OW42896   5.121   1.967   7.907
14313SOL    HW142897   5.121   1.943   7.814
14313SOL    HW242898   5.212   1.954   7.935
14314SOL     OW42899   3.975   3.651   8.662
14314SOL    HW142900   4.023   3.575   8.695
14314SOL    HW242901   3.958   3.630   8.570
14315SOL     OW42902   4.672   3.564   8.337
14315SOL    HW142903   4.757   3.522   8.351
14315SOL    HW242904   4.632   3.514   8.266
14316SOL     OW42905   4.119   2.547   7.921
14316SOL    HW142906   4.132   2.453   7.934
14316SOL    HW242907   4.026   2.561   7.938
14317SOL     OW42908   5.232   2.082   9.163
14317SOL    HW142909   5.244   2.104   9.255
14317SOL    HW242910   5.168   2.011   9.162
14318SOL     OW42911   4.387   1.971   7.550
14318SOL    HW142912   4.434   1.892   7.578
14318SOL    HW242913   4.326   1.941   7.483
14319SOL     OW42914   4.482   2.134   9.202
14319SOL    HW142915   4.567   2.088   9.200
14319SOL    HW242916   4.435   2.094   9.275
14320SOL     OW42917   4.594   3.389   8.648
14320SOL    HW142918   4.575   3.349   8.563
14320SOL    HW242919   4.660   3.332   8.687
14321SOL     OW42920   5.053   2.453   8.879
14321SOL    HW142921   5.086   2.423   8.963
14321SOL    HW242922   5.092   2.540   8.868
14322SOL     OW42923   4.540   3.239   8.404
14322SOL    HW142924   4.627   3.234   8.365
14322SOL    HW242925   4.481   3.254   8.330
14323SOL     OW42926   4.655   2.378   8.335
14323SOL    HW142927   4.630   2.366   8.244
14323SOL    HW242928   4.682   2.290   8.364
14324SOL     OW42929   4.288   1.926   7.938
14324SOL    HW142930   4.210   1.926   7.994
14324SOL    HW242931   4.276   2.000   7.880
14325SOL     OW42932   5.158   3.075   7.480
14325SOL    HW142933   5.187   3.001   7.533
14325SOL    HW242934   5.072   3.098   7.516
14326SOL     OW42935   4.006   1.910   7.636
14326SOL    HW142936   4.059   1.978   7.593
14326SOL    HW242937   4.070   1.852   7.678
14327SOL     OW42938   4.676   2.113   7.898
14327SOL    HW142939   4.650   2.148   7.813
14327SOL    HW242940   4.770   2.130   7.904
14328SOL     OW42941   4.799   2.556   8.892
14328SOL    HW142942   4.735   2.484   8.897
14328SOL    HW242943   4.884   2.511   8.888
14329SOL     OW42944   4.929   3.450   8.251
14329SOL    HW142945   4.944   3.510   8.178
14329SOL    HW242946   5.005   3.464   8.308
14330SOL     OW42947   4.206   3.023   8.156
14330SOL    HW142948   4.144   2.999   8.225
14330SOL    HW242949   4.156   3.017   8.075
14331SOL     OW42950   4.975   3.654   8.065
14331SOL    HW142951   5.025   3.717   8.012
14331SOL    HW242952   4.904   3.706   8.103
14332SOL     OW42953   4.756   2.377   7.478
14332SOL    HW142954   4.713   2.460   7.459
14332SOL    HW242955   4.819   2.397   7.546
14333SOL     OW42956   3.824   2.413   8.839
14333SOL    HW142957   3.916   2.415   8.813
14333SOL    HW242958   3.816   2.482   8.905
14334SOL     OW42959   4.283   2.083   8.633
14334SOL    HW142960   4.320   2.019   8.694
14334SOL    HW242961   4.190   2.084   8.653
14335SOL     OW42962   4.594   2.317   8.077
14335SOL    HW142963   4.554   2.373   8.011
14335SOL    HW242964   4.619   2.237   8.030
14336SOL     OW42965   4.746   1.920   8.187
14336SOL    HW142966   4.685   1.915   8.114
14336SOL    HW242967   4.721   1.848   8.245
14337SOL     OW42968   5.159   3.016   8.301
14337SOL    HW142969   5.088   2.952   8.310
14337SOL    HW242970   5.173   3.022   8.206
14338SOL     OW42971   5.187   2.478   8.396
14338SOL    HW142972   5.123   2.408   8.406
14338SOL    HW242973   5.242   2.472   8.474
14339SOL     OW42974   5.552   2.658   7.838
14339SOL    HW142975   5.613   2.614   7.897
14339SOL    HW242976   5.538   2.595   7.767
14340SOL     OW42977   4.222   3.286   7.598
14340SOL    HW142978   4.147   3.254   7.648
14340SOL    HW242979   4.218   3.237   7.515
14341SOL     OW42980   5.430   3.135   8.081
14341SOL    HW142981   5.524   3.129   8.100
14341SOL    HW242982   5.407   3.224   8.105
14342SOL     OW42983   5.116   2.437   7.513
14342SOL    HW142984   5.060   2.411   7.586
14342SOL    HW242985   5.205   2.413   7.541
14343SOL     OW42986   4.251   2.119   7.750
14343SOL    HW142987   4.304   2.077   7.682
14343SOL    HW242988   4.219   2.199   7.709
14344SOL     OW42989   5.463   3.118   8.986
14344SOL    HW142990   5.551   3.082   8.972
14344SOL    HW242991   5.479   3.203   9.026
14345SOL     OW42992   4.764   3.214   8.781
14345SOL    HW142993   4.687   3.181   8.827
14345SOL    HW242994   4.838   3.171   8.824
14346SOL     OW42995   5.324   3.499   9.113
14346SOL    HW142996   5.312   3.536   9.026
14346SOL    HW242997   5.400   3.441   9.103
14347SOL     OW42998   4.876   3.101   8.553
14347SOL    HW142999   4.815   3.133   8.618
14347SOL    HW243000   4.842   3.132   8.469
14348SOL     OW43001   5.334   2.952   8.524
14348SOL    HW143002   5.326   3.018   8.593
14348SOL    HW243003   5.264   2.973   8.462
14349SOL     OW43004   4.642   1.944   8.831
14349SOL    HW143005   4.663   1.929   8.738
14349SOL    HW243006   4.721   1.984   8.867
14350SOL     OW43007   4.706   2.976   9.172
14350SOL    HW143008   4.616   2.993   9.198
14350SOL    HW243009   4.701   2.895   9.121
14351SOL     OW43010   4.438   2.924   7.824
14351SOL    HW143011   4.423   2.898   7.915
14351SOL    HW243012   4.512   2.871   7.796
14352SOL     OW43013   4.151   2.689   8.707
14352SOL    HW143014   4.218   2.699   8.774
14352SOL    HW243015   4.120   2.599   8.717
14353SOL     OW43016   4.988   2.229   8.739
14353SOL    HW143017   5.016   2.310   8.782
14353SOL    HW243018   4.899   2.247   8.709
14354SOL     OW43019   3.801   3.431   8.809
14354SOL    HW143020   3.770   3.503   8.754
14354SOL    HW243021   3.897   3.432   8.799
14355SOL     OW43022   4.041   2.996   7.935
14355SOL    HW143023   4.042   3.068   7.871
14355SOL    HW243024   4.038   2.917   7.881
14356SOL     OW43025   4.258   2.379   8.307
14356SOL    HW143026   4.271   2.437   8.232
14356SOL    HW243027   4.326   2.404   8.369
14357SOL     OW43028   4.971   3.216   7.847
14357SOL    HW143029   5.027   3.286   7.880
14357SOL    HW243030   4.883   3.240   7.876
14358SOL     OW43031   5.034   3.330   8.589
14358SOL    HW143032   5.079   3.336   8.673
14358SOL    HW243033   4.981   3.250   8.595
14359SOL     OW43034   5.297   2.479   7.934
14359SOL    HW143035   5.247   2.520   8.004
14359SOL    HW243036   5.345   2.551   7.893
14360SOL     OW43037   4.068   3.396   8.748
14360SOL    HW143038   4.061   3.343   8.669
14360SOL    HW243039   4.162   3.412   8.758
14361SOL     OW43040   4.153   2.610   9.064
14361SOL    HW143041   4.213   2.652   9.004
14361SOL    HW243042   4.193   2.526   9.083
14362SOL     OW43043   5.356   2.653   9.149
14362SOL    HW143044   5.268   2.689   9.139
14362SOL    HW243045   5.405   2.689   9.076
14363SOL     OW43046   4.720   2.004   9.207
14363SOL    HW143047   4.778   2.077   9.187
14363SOL    HW243048   4.771   1.926   9.185
14364SOL     OW43049   4.220   1.897   9.211
14364SOL    HW143050   4.166   1.847   9.150
14364SOL    HW243051   4.168   1.975   9.232
14365SOL     OW43052   4.316   2.736   8.487
14365SOL    HW143053   4.353   2.825   8.490
14365SOL    HW243054   4.258   2.732   8.563
14366SOL     OW43055   5.032   2.715   8.452
14366SOL    HW143056   4.944   2.688   8.427
14366SOL    HW243057   5.087   2.639   8.432
14367SOL     OW43058   4.923   2.385   7.705
14367SOL    HW143059   4.933   2.308   7.762
14367SOL    HW243060   4.881   2.450   7.761
14368SOL     OW43061   4.016   2.056   8.687
14368SOL    HW143062   3.981   2.084   8.772
14368SOL    HW243063   3.999   1.962   8.684
14369SOL     OW43064   3.776   3.173   8.714
14369SOL    HW143065   3.804   3.118   8.786
14369SOL    HW243066   3.777   3.262   8.749
14370SOL     OW43067   4.436   2.484   8.487
14370SOL    HW143068   4.514   2.477   8.431
14370SOL    HW243069   4.407   2.575   8.478
14371SOL     OW43070   5.480   2.840   9.316
14371SOL    HW143071   5.439   2.767   9.271
14371SOL    HW243072   5.422   2.859   9.390
14372SOL     OW43073   4.049   1.922   8.076
14372SOL    HW143074   4.015   2.010   8.094
14372SOL    HW243075   4.055   1.880   8.162
14373SOL     OW43076   5.356   2.252   7.792
14373SOL    HW143077   5.388   2.187   7.854
14373SOL    HW243078   5.326   2.324   7.847
14374SOL     OW43079   4.759   2.620   8.404
14374SOL    HW143080   4.737   2.635   8.496
14374SOL    HW243081   4.729   2.531   8.386
14375SOL     OW43082   4.706   3.432   9.179
14375SOL    HW143083   4.686   3.473   9.095
14375SOL    HW243084   4.743   3.347   9.156
14376SOL     OW43085   5.568   3.384   9.038
14376SOL    HW143086   5.591   3.375   8.945
14376SOL    HW243087   5.603   3.469   9.063
14377SOL     OW43088   4.074   2.779   9.267
14377SOL    HW143089   4.154   2.798   9.316
14377SOL    HW243090   4.102   2.717   9.199
14378SOL     OW43091   5.245   2.131   7.567
14378SOL    HW143092   5.193   2.060   7.605
14378SOL    HW243093   5.285   2.174   7.643
14379SOL     OW43094   5.006   2.684   7.467
14379SOL    HW143095   5.045   2.597   7.475
14379SOL    HW243096   5.042   2.720   7.386
14380SOL     OW43097   4.794   3.215   8.314
14380SOL    HW143098   4.805   3.143   8.253
14380SOL    HW243099   4.845   3.287   8.276
14381SOL     OW43100   4.042   2.677   8.392
14381SOL    HW143101   4.137   2.691   8.390
14381SOL    HW243102   4.032   2.587   8.424
14382SOL     OW43103   4.037   2.400   8.459
14382SOL    HW143104   3.998   2.313   8.449
14382SOL    HW243105   4.114   2.398   8.403
14383SOL     OW43106   4.862   2.230   9.132
14383SOL    HW143107   4.817   2.282   9.199
14383SOL    HW243108   4.948   2.272   9.123
14384SOL     OW43109   4.879   2.051   8.921
14384SOL    HW143110   4.868   2.114   8.993
14384SOL    HW243111   4.926   2.101   8.854
14385SOL     OW43112   3.748   3.165   7.628
14385SOL    HW143113   3.658   3.187   7.602
14385SOL    HW243114   3.741   3.078   7.669
14386SOL     OW43115   3.818   3.631   8.400
14386SOL    HW143116   3.784   3.558   8.349
14386SOL    HW243117   3.904   3.649   8.362
14387SOL     OW43118   4.209   3.432   8.349
14387SOL    HW143119   4.280   3.493   8.372
14387SOL    HW243120   4.249   3.370   8.288
14388SOL     OW43121   4.672   2.643   8.662
14388SOL    HW143122   4.734   2.631   8.734
14388SOL    HW243123   4.593   2.597   8.690
14389SOL     OW43124   3.763   2.433   8.569
14389SOL    HW143125   3.844   2.430   8.519
14389SOL    HW243126   3.791   2.426   8.660
14390SOL     OW43127   3.910   2.397   9.187
14390SOL    HW143128   3.976   2.360   9.129
14390SOL    HW243129   3.875   2.472   9.139
14391SOL     OW43130   5.119   2.782   9.098
14391SOL    HW143131   5.134   2.876   9.093
14391SOL    HW243132   5.110   2.754   9.007
14392SOL     OW43133   4.542   2.431   7.819
14392SOL    HW143134   4.551   2.357   7.760
14392SOL    HW243135   4.465   2.478   7.788
14393SOL     OW43136   5.359   2.464   8.611
14393SOL    HW143137   5.348   2.403   8.685
14393SOL    HW243138   5.450   2.452   8.584
14394SOL     OW43139   3.949   3.405   9.168
14394SOL    HW143140   3.930   3.461   9.243
14394SOL    HW243141   3.959   3.317   9.206
14395SOL     OW43142   4.458   2.295   8.682
14395SOL    HW143143   4.394   2.225   8.667
14395SOL    HW243144   4.440   2.359   8.613
14396SOL     OW43145   4.641   3.538   8.927
14396SOL    HW143146   4.613   3.492   8.848
14396SOL    HW243147   4.637   3.631   8.904
14397SOL     OW43148   4.167   2.343   7.612
14397SOL    HW143149   4.231   2.409   7.637
14397SOL    HW243150   4.083   2.389   7.615
14398SOL     OW43151   3.854   3.012   8.929
14398SOL    HW143152   3.859   2.973   9.016
14398SOL    HW243153   3.875   2.940   8.869
14399SOL     OW43154   5.029   2.897   8.656
14399SOL    HW143155   5.037   2.833   8.585
14399SOL    HW243156   4.976   2.967   8.619
14400SOL     OW43157   5.050   2.722   7.740
14400SOL    HW143158   4.979   2.687   7.794
14400SOL    HW243159   5.021   2.707   7.649
14401SOL     OW43160   5.507   3.583   8.618
14401SOL    HW143161   5.569   3.608   8.549
14401SOL    HW243162   5.471   3.499   8.589
14402SOL     OW43163   4.965   3.597   8.544
14402SOL    HW143164   5.048   3.626   8.506
14402SOL    HW243165   4.979   3.505   8.565
14403SOL     OW43166   3.831   3.109   8.457
14403SOL    HW143167   3.804   3.130   8.546
14403SOL    HW243168   3.759   3.056   8.421
14404SOL     OW43169   4.410   3.545   9.201
14404SOL    HW143170   4.346   3.615   9.189
14404SOL    HW243171   4.484   3.570   9.146
14405SOL     OW43172   5.469   2.046   7.944
14405SOL    HW143173   5.528   2.026   7.872
14405SOL    HW243174   5.442   1.961   7.978
14406SOL     OW43175   5.122   3.432   7.952
14406SOL    HW143176   5.176   3.467   7.881
14406SOL    HW243177   5.066   3.506   7.977
14407SOL     OW43178   3.866   3.662   9.295
14407SOL    HW143179   3.819   3.592   9.340
14407SOL    HW243180   3.914   3.707   9.364
14408SOL     OW43181   5.003   2.798   8.112
14408SOL    HW143182   5.077   2.739   8.126
14408SOL    HW243183   5.039   2.870   8.060
14409SOL     OW43184   4.506   3.142   8.863
14409SOL    HW143185   4.479   3.190   8.941
14409SOL    HW243186   4.432   3.151   8.803
14410SOL     OW43187   4.392   3.497   7.607
14410SOL    HW143188   4.406   3.512   7.514
14410SOL    HW243189   4.340   3.417   7.611
14411SOL     OW43190   5.334   3.592   8.845
14411SOL    HW143191   5.391   3.592   8.768
14411SOL    HW243192   5.322   3.685   8.866
14412SOL     OW43193   5.569   2.022   8.413
14412SOL    HW143194   5.598   1.933   8.391
14412SOL    HW243195   5.482   2.029   8.374
14413SOL     OW43196   3.967   2.168   8.156
14413SOL    HW143197   3.881   2.205   8.135
14413SOL    HW243198   3.970   2.170   8.252
14414SOL     OW43199   4.934   3.451   7.486
14414SOL    HW143200   4.923   3.360   7.513
14414SOL    HW243201   4.865   3.465   7.421
14415SOL     OW43202   4.547   2.873   8.833
14415SOL    HW143203   4.583   2.865   8.745
14415SOL    HW243204   4.535   2.967   8.845
14416SOL     OW43205   4.644   2.773   7.743
14416SOL    HW143206   4.700   2.805   7.673
14416SOL    HW243207   4.696   2.705   7.786
14417SOL     OW43208   5.208   3.506   7.506
14417SOL    HW143209   5.116   3.487   7.489
14417SOL    HW243210   5.248   3.510   7.419
14418SOL     OW43211   4.087   3.175   8.948
14418SOL    HW143212   4.078   3.249   8.888
14418SOL    HW243213   4.009   3.122   8.933
14419SOL     OW43214   5.323   3.151   8.727
14419SOL    HW143215   5.377   3.128   8.802
14419SOL    HW243216   5.262   3.217   8.761
14420SOL     OW43217   4.802   2.982   8.178
14420SOL    HW143218   4.726   2.932   8.209
14420SOL    HW243219   4.863   2.914   8.148
14421SOL     OW43220   4.757   2.111   8.408
14421SOL    HW143221   4.756   2.069   8.322
14421SOL    HW243222   4.750   2.039   8.470
14422SOL     OW43223   4.329   3.349   7.924
14422SOL    HW143224   4.383   3.300   7.862
14422SOL    HW243225   4.247   3.365   7.877
14423SOL     OW43226   5.468   2.244   8.833
14423SOL    HW143227   5.539   2.308   8.829
14423SOL    HW243228   5.494   2.174   8.773
14424SOL     OW43229   4.004   3.203   7.747
14424SOL    HW143230   3.917   3.195   7.708
14424SOL    HW243231   3.989   3.251   7.828
14425SOL     OW43232   3.848   2.911   9.184
14425SOL    HW143233   3.770   2.883   9.233
14425SOL    HW243234   3.919   2.858   9.222
14426SOL     OW43235   4.403   2.051   8.944
14426SOL    HW143236   4.487   2.026   8.905
14426SOL    HW243237   4.425   2.084   9.031
14427SOL     OW43238   3.810   2.179   7.461
14427SOL    HW143239   3.733   2.159   7.409
14427SOL    HW243240   3.838   2.266   7.430
14428SOL     OW43241   5.140   2.716   8.834
14428SOL    HW143242   5.088   2.774   8.780
14428SOL    HW243243   5.228   2.720   8.796
14429SOL     OW43244   3.767   2.011   7.721
14429SOL    HW143245   3.755   2.081   7.657
14429SOL    HW243246   3.856   1.979   7.704
14430SOL     OW43247   4.906   3.185   7.570
14430SOL    HW143248   4.814   3.158   7.568
14430SOL    HW243249   4.928   3.187   7.663
14431SOL     OW43250   4.350   2.692   8.890
14431SOL    HW143251   4.408   2.767   8.879
14431SOL    HW243252   4.408   2.616   8.889
14432SOL     OW43253   5.208   3.665   8.436
14432SOL    HW143254   5.234   3.740   8.383
14432SOL    HW243255   5.289   3.617   8.452
14433SOL     OW43256   4.450   2.408   9.134
14433SOL    HW143257   4.496   2.462   9.199
14433SOL    HW243258   4.459   2.319   9.167
14434SOL     OW43259   5.195   3.046   9.069
14434SOL    HW143260   5.186   3.064   9.162
14434SOL    HW243261   5.284   3.074   9.048
14435SOL     OW43262   4.079   3.610   9.026
14435SOL    HW143263   3.997   3.657   9.010
14435SOL    HW243264   4.051   3.526   9.063
14436SOL     OW43265   5.381   2.736   8.701
14436SOL    HW143266   5.378   2.653   8.655
14436SOL    HW243267   5.369   2.802   8.632
14437SOL     OW43268   4.945   2.185   7.904
14437SOL    HW143269   5.004   2.110   7.903
14437SOL    HW243270   4.973   2.237   7.979
14438SOL     OW43271   4.301   2.588   8.129
14438SOL    HW143272   4.344   2.672   8.114
14438SOL    HW243273   4.239   2.579   8.056
14439SOL     OW43274   5.470   2.216   9.109
14439SOL    HW143275   5.466   2.232   9.014
14439SOL    HW243276   5.394   2.162   9.127
14440SOL     OW43277   5.490   2.786   8.950
14440SOL    HW143278   5.470   2.878   8.963
14440SOL    HW243279   5.461   2.767   8.861
14441SOL     OW43280   4.598   3.219   7.512
14441SOL    HW143281   4.558   3.238   7.597
14441SOL    HW243282   4.606   3.305   7.470
14442SOL     OW43283   4.393   3.629   8.374
14442SOL    HW143284   4.373   3.722   8.366
14442SOL    HW243285   4.488   3.624   8.372
14443SOL     OW43286   4.597   2.840   8.304
14443SOL    HW143287   4.646   2.766   8.339
14443SOL    HW243288   4.551   2.876   8.380
14444SOL     OW43289   4.796   2.845   7.534
14444SOL    HW143290   4.776   2.900   7.459
14444SOL    HW243291   4.870   2.791   7.506
14445SOL     OW43292   5.558   3.422   8.288
14445SOL    HW143293   5.481   3.414   8.232
14445SOL    HW243294   5.545   3.356   8.356
14446SOL     OW43295   3.935   3.152   9.284
14446SOL    HW143296   3.904   3.072   9.242
14446SOL    HW243297   3.873   3.167   9.356
14447SOL     OW43298   3.840   3.088   8.116
14447SOL    HW143299   3.869   3.046   8.197
14447SOL    HW243300   3.900   3.054   8.049
14448SOL     OW43301   4.412   3.283   9.081
14448SOL    HW143302   4.335   3.244   9.121
14448SOL    HW243303   4.416   3.371   9.118
14449SOL     OW43304   5.537   2.033   8.683
14449SOL    HW143305   5.537   1.938   8.696
14449SOL    HW243306   5.550   2.044   8.588
14450SOL     OW43307   4.142   2.284   7.966
14450SOL    HW143308   4.176   2.213   7.912
14450SOL    HW243309   4.090   2.240   8.034
14451SOL     OW43310   5.412   3.342   8.535
14451SOL    HW143311   5.337   3.324   8.477
14451SOL    HW243312   5.408   3.274   8.601
14452SOL     OW43313   4.076   2.427   8.740
14452SOL    HW143314   4.125   2.362   8.790
14452SOL    HW243315   4.083   2.398   8.649
14453SOL     OW43316   4.562   3.448   8.117
14453SOL    HW143317   4.532   3.518   8.059
14453SOL    HW243318   4.486   3.390   8.124
14454SOL     OW43319   5.145   2.094   8.562
14454SOL    HW143320   5.151   2.004   8.593
14454SOL    HW243321   5.099   2.140   8.632
14455SOL     OW43322   4.734   1.880   8.567
14455SOL    HW143323   4.680   1.817   8.520
14455SOL    HW243324   4.820   1.839   8.571
14456SOL     OW43325   4.504   3.194   7.776
14456SOL    HW143326   4.479   3.102   7.788
14456SOL    HW243327   4.584   3.205   7.828
14457SOL     OW43328   4.340   3.431   8.737
14457SOL    HW143329   4.336   3.514   8.784
14457SOL    HW243330   4.429   3.427   8.703
14458SOL     OW43331   5.104   1.901   7.640
14458SOL    HW143332   5.145   1.828   7.592
14458SOL    HW243333   5.013   1.874   7.651
14459SOL     OW43334   5.022   2.334   8.122
14459SOL    HW143335   4.971   2.414   8.120
14459SOL    HW243336   5.016   2.304   8.213
14460SOL     OW43337   5.307   2.050   8.341
14460SOL    HW143338   5.254   2.079   8.415
14460SOL    HW243339   5.307   2.124   8.281
14461SOL     OW43340   3.761   2.913   7.757
14461SOL    HW143341   3.854   2.902   7.738
14461SOL    HW243342   3.729   2.825   7.777
14462SOL     OW43343   4.618   3.537   7.777
14462SOL    HW143344   4.540   3.521   7.725
14462SOL    HW243345   4.593   3.606   7.839
14463SOL     OW43346   3.936   2.467   9.454
14463SOL    HW143347   3.847   2.458   9.488
14463SOL    HW243348   3.926   2.460   9.359
14464SOL     OW43349   5.533   2.427   9.520
14464SOL    HW143350   5.491   2.430   9.434
14464SOL    HW243351   5.483   2.362   9.569
14465SOL     OW43352   3.935   3.606   9.763
14465SOL    HW143353   3.956   3.678   9.823
14465SOL    HW243354   4.015   3.592   9.713
14466SOL     OW43355   3.950   3.325   9.845
14466SOL    HW143356   3.927   3.413   9.873
14466SOL    HW243357   3.878   3.270   9.876
14467SOL     OW43358   4.295   2.847   9.451
14467SOL    HW143359   4.346   2.891   9.382
14467SOL    HW243360   4.335   2.876   9.533
14468SOL     OW43361   3.789   2.538   9.883
14468SOL    HW143362   3.702   2.504   9.860
14468SOL    HW243363   3.770   2.616   9.936
14469SOL     OW43364   5.557   3.614   9.623
14469SOL    HW143365   5.631   3.600   9.682
14469SOL    HW243366   5.563   3.707   9.599
14470SOL     OW43367   3.773   3.452   9.433
14470SOL    HW143368   3.758   3.359   9.449
14470SOL    HW243369   3.736   3.496   9.509
14471SOL     OW43370   5.401   2.727   9.920
14471SOL    HW143371   5.471   2.750   9.981
14471SOL    HW243372   5.391   2.805   9.865
14472SOL     OW43373   5.414   2.960   9.763
14472SOL    HW143374   5.502   2.959   9.724
14472SOL    HW243375   5.411   3.040   9.815
14473SOL     OW43376   4.366   3.201   9.992
14473SOL    HW143377   4.308   3.124   9.989
14473SOL    HW243378   4.343   3.250   9.913
14474SOL     OW43379   4.542   1.891   9.828
14474SOL    HW143380   4.587   1.970   9.798
14474SOL    HW243381   4.450   1.916   9.830
14475SOL     OW43382   5.284   2.887   9.522
14475SOL    HW143383   5.222   2.817   9.546
14475SOL    HW243384   5.321   2.916   9.605
14476SOL     OW43385   4.309   2.561   9.582
14476SOL    HW143386   4.315   2.647   9.541
14476SOL    HW243387   4.250   2.574   9.657
14477SOL     OW43388   5.289   3.532   9.625
14477SOL    HW143389   5.381   3.557   9.627
14477SOL    HW243390   5.269   3.524   9.531
14478SOL     OW43391   4.770   2.553   9.734
14478SOL    HW143392   4.798   2.529   9.823
14478SOL    HW243393   4.685   2.511   9.724
14479SOL     OW43394   3.777   2.745   0.069
14479SOL    HW143395   3.850   2.699   0.109
14479SOL    HW243396   3.754   2.813   0.132
14480SOL     OW43397   4.613   2.211   9.504
14480SOL    HW143398   4.663   2.266   9.443
14480SOL    HW243399   4.593   2.132   9.453
14481SOL     OW43400   5.038   2.958   9.795
14481SOL    HW143401   5.087   2.987   9.872
14481SOL    HW243402   5.012   3.039   9.750
14482SOL     OW43403   4.718   3.298   9.783
14482SOL    HW143404   4.686   3.383   9.750
14482SOL    HW243405   4.689   3.296   9.874
14483SOL     OW43406   4.075   3.716   0.167
14483SOL    HW143407   4.079   3.634   0.217
14483SOL    HW243408   4.166   3.746   0.163
14484SOL     OW43409   4.040   2.821   9.576
14484SOL    HW143410   4.120   2.835   9.526
14484SOL    HW243411   3.999   2.745   9.535
14485SOL     OW43412   4.860   3.636   9.548
14485SOL    HW143413   4.780   3.603   9.589
14485SOL    HW243414   4.880   3.572   9.480
14486SOL     OW43415   5.353   3.255   9.400
14486SOL    HW143416   5.308   3.339   9.392
14486SOL    HW243417   5.287   3.190   9.377
14487SOL     OW43418   4.192   3.625   9.634
14487SOL    HW143419   4.242   3.653   9.711
14487SOL    HW243420   4.256   3.577   9.581
14488SOL     OW43421   5.148   2.013   9.737
14488SOL    HW143422   5.137   1.971   9.652
14488SOL    HW243423   5.243   2.015   9.751
14489SOL     OW43424   4.123   2.551   9.799
14489SOL    HW143425   4.126   2.458   9.820
14489SOL    HW243426   4.029   2.571   9.792
14490SOL     OW43427   4.386   1.969   9.416
14490SOL    HW143428   4.429   1.888   9.445
14490SOL    HW243429   4.324   1.941   9.348
14491SOL     OW43430   4.270   1.962   9.841
14491SOL    HW143431   4.178   1.956   9.866
14491SOL    HW243432   4.270   2.018   9.764
14492SOL     OW43433   5.160   3.067   9.345
14492SOL    HW143434   5.194   3.000   9.404
14492SOL    HW243435   5.073   3.087   9.379
14493SOL     OW43436   4.009   1.916   9.499
14493SOL    HW143437   4.059   1.982   9.452
14493SOL    HW243438   4.074   1.864   9.546
14494SOL     OW43439   4.673   2.123   9.757
14494SOL    HW143440   4.647   2.153   9.670
14494SOL    HW243441   4.766   2.142   9.763
14495SOL     OW43442   4.166   3.013   0.035
14495SOL    HW143443   4.097   3.048   0.090
14495SOL    HW243444   4.124   2.998   9.950
14496SOL     OW43445   5.023   3.696   9.899
14496SOL    HW143446   5.066   3.762   9.845
14496SOL    HW243447   4.930   3.720   9.896
14497SOL     OW43448   4.756   2.378   9.338
14497SOL    HW143449   4.712   2.462   9.318
14497SOL    HW243450   4.818   2.399   9.407
14498SOL     OW43451   4.570   2.304   9.941
14498SOL    HW143452   4.531   2.367   9.881
14498SOL    HW243453   4.601   2.233   9.886
14499SOL     OW43454   5.604   2.661   9.640
14499SOL    HW143455   5.634   2.621   9.722
14499SOL    HW243456   5.569   2.588   9.589
14500SOL     OW43457   4.219   3.288   9.464
14500SOL    HW143458   4.144   3.255   9.512
14500SOL    HW243459   4.218   3.240   9.381
14501SOL     OW43460   5.113   2.436   9.372
14501SOL    HW143461   5.055   2.414   9.445
14501SOL    HW243462   5.200   2.408   9.401
14502SOL     OW43463   4.266   2.122   9.624
14502SOL    HW143464   4.313   2.076   9.554
14502SOL    HW243465   4.229   2.199   9.582
14503SOL     OW43466   4.430   2.915   9.684
14503SOL    HW143467   4.397   2.867   9.760
14503SOL    HW243468   4.511   2.868   9.661
14504SOL     OW43469   4.033   2.989   9.798
14504SOL    HW143470   4.033   3.065   9.740
14504SOL    HW243471   4.041   2.914   9.739
14505SOL     OW43472   4.962   3.217   9.691
14505SOL    HW143473   5.018   3.288   9.722
14505SOL    HW243474   4.876   3.238   9.726
14506SOL     OW43475   5.353   2.498   9.787
14506SOL    HW143476   5.361   2.572   9.847
14506SOL    HW243477   5.298   2.532   9.716
14507SOL     OW43478   4.919   2.394   9.565
14507SOL    HW143479   4.926   2.318   9.623
14507SOL    HW243480   4.880   2.462   9.619
14508SOL     OW43481   4.007   1.953   9.928
14508SOL    HW143482   3.938   2.018   9.945
14508SOL    HW243483   4.022   1.911   0.012
14509SOL     OW43484   5.356   2.256   9.654
14509SOL    HW143485   5.378   2.181   9.709
14509SOL    HW243486   5.346   2.328   9.716
14510SOL     OW43487   5.243   2.137   9.425
14510SOL    HW143488   5.190   2.064   9.459
14510SOL    HW243489   5.281   2.177   9.503
14511SOL     OW43490   5.006   2.685   9.329
14511SOL    HW143491   5.043   2.597   9.336
14511SOL    HW243492   5.042   2.720   9.248
14512SOL     OW43493   3.748   3.178   9.484
14512SOL    HW143494   3.658   3.196   9.458
14512SOL    HW243495   3.744   3.091   9.525
14513SOL     OW43496   4.532   2.422   9.682
14513SOL    HW143497   4.543   2.353   9.617
14513SOL    HW243498   4.459   2.474   9.649
14514SOL     OW43499   4.171   2.338   9.483
14514SOL    HW143500   4.232   2.408   9.506
14514SOL    HW243501   4.086   2.381   9.481
14515SOL     OW43502   5.094   2.708   9.604
14515SOL    HW143503   5.039   2.758   9.664
14515SOL    HW243504   5.040   2.699   9.525
14516SOL     OW43505   5.432   2.019   9.772
14516SOL    HW143506   5.503   2.021   9.708
14516SOL    HW243507   5.447   1.938   9.821
14517SOL     OW43508   5.092   3.450   9.795
14517SOL    HW143509   5.162   3.468   9.732
14517SOL    HW243510   5.062   3.537   9.823
14518SOL     OW43511   4.391   3.501   9.475
14518SOL    HW143512   4.406   3.514   9.381
14518SOL    HW243513   4.337   3.422   9.479
14519SOL     OW43514   4.931   3.456   9.350
14519SOL    HW143515   4.922   3.363   9.374
14519SOL    HW243516   4.862   3.470   9.285
14520SOL     OW43517   4.649   2.776   9.612
14520SOL    HW143518   4.706   2.805   9.541
14520SOL    HW243519   4.699   2.707   9.656
14521SOL     OW43520   5.205   3.509   9.360
14521SOL    HW143521   5.112   3.491   9.347
14521SOL    HW243522   5.241   3.512   9.272
14522SOL     OW43523   4.316   3.340   9.763
14522SOL    HW143524   4.374   3.296   9.701
14522SOL    HW243525   4.232   3.344   9.717
14523SOL     OW43526   4.003   3.204   9.614
14523SOL    HW143527   3.917   3.200   9.572
14523SOL    HW243528   3.988   3.255   9.694
14524SOL     OW43529   3.808   2.178   9.323
14524SOL    HW143530   3.731   2.157   9.269
14524SOL    HW243531   3.836   2.264   9.293
14525SOL     OW43532   3.766   2.017   9.576
14525SOL    HW143533   3.759   2.083   9.507
14525SOL    HW243534   3.854   1.982   9.567
14526SOL     OW43535   4.903   3.185   9.422
14526SOL    HW143536   4.811   3.158   9.421
14526SOL    HW243537   4.926   3.190   9.515
14527SOL     OW43538   4.940   2.197   9.767
14527SOL    HW143539   5.015   2.138   9.759
14527SOL    HW243540   4.960   2.250   9.844
14528SOL     OW43541   4.332   2.716   9.887
14528SOL    HW143542   4.336   2.713   9.982
14528SOL    HW243543   4.260   2.655   9.865
14529SOL     OW43544   4.599   3.220   9.366
14529SOL    HW143545   4.561   3.233   9.453
14529SOL    HW243546   4.604   3.308   9.329
14530SOL     OW43547   4.798   2.845   9.399
14530SOL    HW143548   4.777   2.899   9.322
14530SOL    HW243549   4.871   2.790   9.371
14531SOL     OW43550   3.783   3.106   9.899
14531SOL    HW143551   3.776   3.111   9.995
14531SOL    HW243552   3.855   3.045   9.884
14532SOL     OW43553   4.135   2.289   9.865
14532SOL    HW143554   4.180   2.223   9.812
14532SOL    HW243555   4.170   2.276   9.953
14533SOL     OW43556   4.506   3.189   9.627
14533SOL    HW143557   4.480   3.098   9.645
14533SOL    HW243558   4.582   3.203   9.683
14534SOL     OW43559   5.101   1.904   9.491
14534SOL    HW143560   5.144   1.827   9.453
14534SOL    HW243561   5.011   1.876   9.507
14535SOL     OW43562   3.781   2.931   9.599
14535SOL    HW143563   3.876   2.924   9.592
14535SOL    HW243564   3.750   2.840   9.602
14536SOL     OW43565   4.617   3.534   9.664
14536SOL    HW143566   4.541   3.517   9.608
14536SOL    HW243567   4.588   3.603   9.723
14537SOL     OW43568   3.921   4.332   0.125
14537SOL    HW143569   3.838   4.319   0.170
14537SOL    HW243570   3.896   4.346   0.033
14538SOL     OW43571   3.943   4.012   0.990
14538SOL    HW143572   3.973   3.977   1.073
14538SOL    HW243573   3.856   3.974   0.978
14539SOL     OW43574   3.707   4.122   0.647
14539SOL    HW143575   3.626   4.144   0.692
14539SOL    HW243576   3.685   4.046   0.593
14540SOL     OW43577   4.299   5.032   1.209
14540SOL    HW143578   4.217   5.035   1.160
14540SOL    HW243579   4.316   5.123   1.232
14541SOL     OW43580   5.313   5.247   0.706
14541SOL    HW143581   5.266   5.215   0.783
14541SOL    HW243582   5.247   5.251   0.637
14542SOL     OW43583   4.864   4.424   0.685
14542SOL    HW143584   4.909   4.507   0.676
14542SOL    HW243585   4.813   4.433   0.766
14543SOL     OW43586   5.500   4.306   0.201
14543SOL    HW143587   5.426   4.339   0.150
14543SOL    HW243588   5.464   4.235   0.253
14544SOL     OW43589   4.451   4.853   1.058
14544SOL    HW143590   4.392   4.893   1.122
14544SOL    HW243591   4.494   4.927   1.015
14545SOL     OW43592   4.611   4.465   1.828
14545SOL    HW143593   4.603   4.532   1.897
14545SOL    HW243594   4.628   4.515   1.748
14546SOL     OW43595   4.409   4.701   0.646
14546SOL    HW143596   4.477   4.703   0.714
14546SOL    HW243597   4.343   4.763   0.676
14547SOL     OW43598   4.435   4.873   1.832
14547SOL    HW143599   4.486   4.946   1.867
14547SOL    HW243600   4.359   4.915   1.792
14548SOL     OW43601   4.066   5.121   1.071
14548SOL    HW143602   3.990   5.079   1.031
14548SOL    HW243603   4.102   5.176   1.001
14549SOL     OW43604   5.177   5.231   1.372
14549SOL    HW143605   5.232   5.308   1.385
14549SOL    HW243606   5.106   5.242   1.434
14550SOL     OW43607   4.182   4.098   1.455
14550SOL    HW143608   4.257   4.040   1.471
14550SOL    HW243609   4.106   4.047   1.482
14551SOL     OW43610   5.303   4.156   0.753
14551SOL    HW143611   5.228   4.163   0.694
14551SOL    HW243612   5.290   4.226   0.817
14552SOL     OW43613   3.952   5.444   0.470
14552SOL    HW143614   3.968   5.519   0.527
14552SOL    HW243615   4.037   5.424   0.431
14553SOL     OW43616   4.859   5.066   1.697
14553SOL    HW143617   4.905   5.055   1.781
14553SOL    HW243618   4.805   4.987   1.689
14554SOL     OW43619   3.933   5.168   0.507
14554SOL    HW143620   3.926   5.263   0.516
14554SOL    HW243621   3.894   5.133   0.587
14555SOL     OW43622   4.004   4.810   0.880
14555SOL    HW143623   4.006   4.722   0.916
14555SOL    HW243624   3.950   4.860   0.942
14556SOL     OW43625   4.297   5.528   1.420
14556SOL    HW143626   4.221   5.508   1.475
14556SOL    HW243627   4.330   5.611   1.455
14557SOL     OW43628   4.291   4.671   0.174
14557SOL    HW143629   4.265   4.741   0.114
14557SOL    HW243630   4.350   4.714   0.236
14558SOL     OW43631   5.315   3.858   1.459
14558SOL    HW143632   5.354   3.934   1.416
14558SOL    HW243633   5.284   3.890   1.543
14559SOL     OW43634   3.838   4.377   0.573
14559SOL    HW143635   3.803   4.291   0.597
14559SOL    HW243636   3.831   4.430   0.653
14560SOL     OW43637   5.587   5.461   0.303
14560SOL    HW143638   5.656   5.439   0.366
14560SOL    HW243639   5.601   5.554   0.284
14561SOL     OW43640   3.784   5.299   0.085
14561SOL    HW143641   3.760   5.211   0.117
14561SOL    HW243642   3.761   5.358   0.157
14562SOL     OW43643   5.421   4.645   0.663
14562SOL    HW143644   5.505   4.602   0.646
14562SOL    HW243645   5.402   4.694   0.584
14563SOL     OW43646   5.385   4.816   0.443
14563SOL    HW143647   5.466   4.812   0.392
14563SOL    HW243648   5.400   4.885   0.507
14564SOL     OW43649   3.845   4.474   1.578
14564SOL    HW143650   3.930   4.517   1.583
14564SOL    HW243651   3.783   4.545   1.565
14565SOL     OW43652   4.340   5.105   0.758
14565SOL    HW143653   4.297   5.019   0.752
14565SOL    HW243654   4.337   5.139   0.668
14566SOL     OW43655   4.995   4.950   1.417
14566SOL    HW143656   5.022   4.881   1.357
14566SOL    HW243657   5.056   4.945   1.490
14567SOL     OW43658   4.556   3.740   0.529
14567SOL    HW143659   4.597   3.821   0.497
14567SOL    HW243660   4.462   3.759   0.529
14568SOL     OW43661   3.911   4.680   1.302
14568SOL    HW143662   3.998   4.645   1.285
14568SOL    HW243663   3.856   4.643   1.233
14569SOL     OW43664   5.215   4.752   0.235
14569SOL    HW143665   5.161   4.680   0.267
14569SOL    HW243666   5.277   4.769   0.306
14570SOL     OW43667   4.904   5.547   1.636
14570SOL    HW143668   4.905   5.608   1.562
14570SOL    HW243669   4.921   5.461   1.596
14571SOL     OW43670   4.084   3.977   1.875
14571SOL    HW143671   4.120   4.057   1.913
14571SOL    HW243672   3.989   3.992   1.872
14572SOL     OW43673   5.196   5.140   0.931
14572SOL    HW143674   5.133   5.160   1.000
14572SOL    HW243675   5.178   5.049   0.907
14573SOL     OW43676   5.369   5.520   0.565
14573SOL    HW143677   5.352   5.474   0.482
14573SOL    HW243678   5.366   5.451   0.631
14574SOL     OW43679   4.316   4.414   0.285
14574SOL    HW143680   4.323   4.501   0.244
14574SOL    HW243681   4.250   4.425   0.353
14575SOL     OW43682   5.006   4.114   0.941
14575SOL    HW143683   4.917   4.080   0.947
14575SOL    HW243684   5.058   4.057   0.997
14576SOL     OW43685   5.316   5.400   0.323
14576SOL    HW143686   5.409   5.411   0.308
14576SOL    HW243687   5.279   5.382   0.237
14577SOL     OW43688   4.514   4.338   1.430
14577SOL    HW143689   4.491   4.309   1.519
14577SOL    HW243690   4.489   4.265   1.374
14578SOL     OW43691   5.116   4.200   1.675
14578SOL    HW143692   5.121   4.244   1.760
14578SOL    HW243693   5.166   4.120   1.686
14579SOL     OW43694   4.668   4.605   1.594
14579SOL    HW143695   4.724   4.541   1.549
14579SOL    HW243696   4.619   4.647   1.523
14580SOL     OW43697   4.731   4.121   1.209
14580SOL    HW143698   4.639   4.135   1.232
14580SOL    HW243699   4.729   4.077   1.125
14581SOL     OW43700   4.791   4.420   0.416
14581SOL    HW143701   4.811   4.416   0.510
14581SOL    HW243702   4.706   4.377   0.407
14582SOL     OW43703   3.817   4.551   0.783
14582SOL    HW143704   3.899   4.544   0.831
14582SOL    HW243705   3.769   4.622   0.827
14583SOL     OW43706   3.834   5.603   1.587
14583SOL    HW143707   3.841   5.583   1.681
14583SOL    HW243708   3.748   5.567   1.562
14584SOL     OW43709   4.585   4.064   0.200
14584SOL    HW143710   4.572   4.113   0.119
14584SOL    HW243711   4.594   3.973   0.171
14585SOL     OW43712   5.411   4.286   1.839
14585SOL    HW143713   5.389   4.363   1.788
14585SOL    HW243714   5.440   4.221   1.775
14586SOL     OW43715   5.119   4.873   0.556
14586SOL    HW143716   5.198   4.863   0.503
14586SOL    HW243717   5.064   4.934   0.508
14587SOL     OW43718   4.275   3.887   0.915
14587SOL    HW143719   4.281   3.914   1.007
14587SOL    HW243720   4.271   3.969   0.866
14588SOL     OW43721   4.723   5.177   0.471
14588SOL    HW143722   4.699   5.253   0.418
14588SOL    HW243723   4.691   5.197   0.559
14589SOL     OW43724   4.077   5.541   0.880
14589SOL    HW143725   4.122   5.457   0.884
14589SOL    HW243726   4.145   5.605   0.901
14590SOL     OW43727   5.527   4.768   0.895
14590SOL    HW143728   5.478   4.751   0.814
14590SOL    HW243729   5.459   4.778   0.962
14591SOL     OW43730   4.942   5.268   1.517
14591SOL    HW143731   4.931   5.197   1.580
14591SOL    HW243732   4.872   5.254   1.453
14592SOL     OW43733   4.036   4.651   0.290
14592SOL    HW143734   4.118   4.659   0.240
14592SOL    HW243735   4.040   4.563   0.328
14593SOL     OW43736   5.209   4.480   0.712
14593SOL    HW143737   5.209   4.440   0.799
14593SOL    HW243738   5.287   4.536   0.711
14594SOL     OW43739   4.198   5.008   1.747
14594SOL    HW143740   4.173   5.012   1.655
14594SOL    HW243741   4.114   4.996   1.793
14595SOL     OW43742   4.828   5.508   0.181
14595SOL    HW143743   4.772   5.467   0.247
14595SOL    HW243744   4.867   5.434   0.134
14596SOL     OW43745   3.932   3.980   1.499
14596SOL    HW143746   3.861   4.041   1.519
14596SOL    HW243747   3.902   3.896   1.532
14597SOL     OW43748   5.354   5.094   0.110
14597SOL    HW143749   5.313   5.180   0.103
14597SOL    HW243750   5.289   5.033   0.075
14598SOL     OW43751   4.212   5.432   0.376
14598SOL    HW143752   4.247   5.508   0.421
14598SOL    HW243753   4.278   5.410   0.310
14599SOL     OW43754   5.120   3.828   0.447
14599SOL    HW143755   5.117   3.808   0.353
14599SOL    HW243756   5.212   3.817   0.471
14600SOL     OW43757   3.976   5.512   1.215
14600SOL    HW143758   4.025   5.438   1.250
14600SOL    HW243759   3.963   5.491   1.122
14601SOL     OW43760   4.669   5.426   0.891
14601SOL    HW143761   4.753   5.382   0.906
14601SOL    HW243762   4.628   5.375   0.821
14602SOL     OW43763   4.097   4.417   0.463
14602SOL    HW143764   4.120   4.325   0.475
14602SOL    HW243765   4.008   4.424   0.499
14603SOL     OW43766   5.233   3.946   1.717
14603SOL    HW143767   5.246   3.965   1.810
14603SOL    HW243768   5.166   3.877   1.715
14604SOL     OW43769   4.331   3.816   0.117
14604SOL    HW143770   4.426   3.806   0.127
14604SOL    HW243771   4.317   3.822   0.023
14605SOL     OW43772   4.482   3.998   1.751
14605SOL    HW143773   4.567   3.953   1.750
14605SOL    HW243774   4.436   3.959   1.826
14606SOL     OW43775   4.594   5.252   1.201
14606SOL    HW143776   4.575   5.210   1.116
14606SOL    HW243777   4.661   5.196   1.240
14607SOL     OW43778   5.054   4.316   1.434
14607SOL    HW143779   5.087   4.285   1.518
14607SOL    HW243780   5.093   4.402   1.423
14608SOL     OW43781   4.541   5.101   0.961
14608SOL    HW143782   4.627   5.097   0.918
14608SOL    HW243783   4.479   5.113   0.889
14609SOL     OW43784   4.655   4.239   0.890
14609SOL    HW143785   4.630   4.226   0.799
14609SOL    HW243786   4.682   4.152   0.920
14610SOL     OW43787   4.288   3.799   0.502
14610SOL    HW143788   4.209   3.797   0.556
14610SOL    HW243789   4.274   3.872   0.442
14611SOL     OW43790   5.148   4.921   0.033
14611SOL    HW143791   5.174   4.856   0.099
14611SOL    HW243792   5.068   4.959   0.068
14612SOL     OW43793   4.676   3.975   0.449
14612SOL    HW143794   4.644   4.011   0.367
14612SOL    HW243795   4.769   3.996   0.451
14613SOL     OW43796   4.800   4.418   1.446
14613SOL    HW143797   4.737   4.346   1.451
14613SOL    HW243798   4.885   4.375   1.443
14614SOL     OW43799   4.929   5.312   0.800
14614SOL    HW143800   4.946   5.371   0.727
14614SOL    HW243801   5.000   5.331   0.862
14615SOL     OW43802   4.203   4.872   0.710
14615SOL    HW143803   4.140   4.851   0.778
14615SOL    HW243804   4.153   4.868   0.629
14616SOL     OW43805   4.977   5.517   0.613
14616SOL    HW143806   5.025   5.581   0.560
14616SOL    HW243807   4.908   5.568   0.655
14617SOL     OW43808   4.821   4.281   9.978
14617SOL    HW143809   4.732   4.246   9.985
14617SOL    HW243810   4.856   4.276   0.067
14618SOL     OW43811   3.823   4.276   1.390
14618SOL    HW143812   3.915   4.277   1.365
14618SOL    HW243813   3.816   4.345   1.457
14619SOL     OW43814   4.283   3.945   1.185
14619SOL    HW143815   4.320   3.882   1.247
14619SOL    HW243816   4.189   3.946   1.206
14620SOL     OW43817   4.597   4.176   0.633
14620SOL    HW143818   4.562   4.233   0.564
14620SOL    HW243819   4.621   4.096   0.587
14621SOL     OW43820   4.749   3.780   0.742
14621SOL    HW143821   4.686   3.777   0.670
14621SOL    HW243822   4.725   3.708   0.800
14622SOL     OW43823   5.154   4.877   0.855
14622SOL    HW143824   5.086   4.810   0.868
14622SOL    HW243825   5.164   4.883   0.760
14623SOL     OW43826   5.185   4.339   0.952
14623SOL    HW143827   5.122   4.268   0.962
14623SOL    HW243828   5.241   4.333   1.029
14624SOL     OW43829   5.585   4.515   0.369
14624SOL    HW143830   5.625   4.465   0.440
14624SOL    HW243831   5.547   4.448   0.312
14625SOL     OW43832   4.229   5.167   0.213
14625SOL    HW143833   4.147   5.122   0.234
14625SOL    HW243834   4.271   5.111   0.148
14626SOL     OW43835   5.435   4.996   0.631
14626SOL    HW143836   5.527   4.989   0.655
14626SOL    HW243837   5.410   5.084   0.659
14627SOL     OW43838   5.144   4.290   0.093
14627SOL    HW143839   5.068   4.278   0.150
14627SOL    HW243840   5.181   4.202   0.084
14628SOL     OW43841   4.232   3.988   0.310
14628SOL    HW143842   4.270   3.929   0.244
14628SOL    HW243843   4.210   4.067   0.261
14629SOL     OW43844   5.458   4.968   1.532
14629SOL    HW143845   5.547   4.934   1.519
14629SOL    HW243846   5.472   5.055   1.570
14630SOL     OW43847   4.766   5.078   1.334
14630SOL    HW143848   4.689   5.044   1.380
14630SOL    HW243849   4.840   5.034   1.375
14631SOL     OW43850   5.331   5.359   1.671
14631SOL    HW143851   5.321   5.395   1.584
14631SOL    HW243852   5.409   5.303   1.665
14632SOL     OW43853   4.875   4.961   1.105
14632SOL    HW143854   4.813   4.995   1.169
14632SOL    HW243855   4.841   4.994   1.021
14633SOL     OW43856   5.331   4.816   1.079
14633SOL    HW143857   5.324   4.883   1.147
14633SOL    HW243858   5.262   4.837   1.017
14634SOL     OW43859   4.643   3.805   1.383
14634SOL    HW143860   4.665   3.790   1.291
14634SOL    HW243861   4.722   3.846   1.420
14635SOL     OW43862   4.703   4.840   1.724
14635SOL    HW143863   4.613   4.856   1.751
14635SOL    HW243864   4.698   4.759   1.673
14636SOL     OW43865   4.447   4.776   0.378
14636SOL    HW143866   4.433   4.749   0.468
14636SOL    HW243867   4.527   4.731   0.351
14637SOL     OW43868   4.150   4.551   1.259
14637SOL    HW143869   4.218   4.561   1.326
14637SOL    HW243870   4.120   4.461   1.269
14638SOL     OW43871   4.989   4.093   1.291
14638SOL    HW143872   5.016   4.173   1.336
14638SOL    HW243873   4.899   4.111   1.262
14639SOL     OW43874   3.802   5.294   1.363
14639SOL    HW143875   3.772   5.366   1.307
14639SOL    HW243876   3.897   5.294   1.353
14640SOL     OW43877   4.039   4.849   0.488
14640SOL    HW143878   4.039   4.920   0.423
14640SOL    HW243879   4.047   4.769   0.436
14641SOL     OW43880   4.257   4.237   0.857
14641SOL    HW143881   4.268   4.295   0.782
14641SOL    HW243882   4.325   4.264   0.919
14642SOL     OW43883   4.973   5.072   0.419
14642SOL    HW143884   5.028   5.145   0.446
14642SOL    HW243885   4.884   5.098   0.444
14643SOL     OW43886   5.033   5.192   1.143
14643SOL    HW143887   5.080   5.199   1.225
14643SOL    HW243888   4.982   5.112   1.151
14644SOL     OW43889   5.264   4.348   0.470
14644SOL    HW143890   5.244   4.385   0.556
14644SOL    HW243891   5.218   4.405   0.408
14645SOL     OW43892   4.069   5.257   1.303
14645SOL    HW143893   4.061   5.204   1.223
14645SOL    HW243894   4.162   5.273   1.312
14646SOL     OW43895   4.157   4.470   1.619
14646SOL    HW143896   4.215   4.513   1.557
14646SOL    HW243897   4.202   4.388   1.641
14647SOL     OW43898   5.351   4.509   1.698
14647SOL    HW143899   5.264   4.548   1.689
14647SOL    HW243900   5.401   4.548   1.626
14648SOL     OW43901   4.719   3.865   1.757
14648SOL    HW143902   4.777   3.939   1.739
14648SOL    HW243903   4.771   3.787   1.736
14649SOL     OW43904   4.219   3.759   1.762
14649SOL    HW143905   4.164   3.709   1.702
14649SOL    HW243906   4.167   3.836   1.784
14650SOL     OW43907   4.313   4.599   1.038
14650SOL    HW143908   4.352   4.686   1.041
14650SOL    HW243909   4.257   4.595   1.115
14651SOL     OW43910   5.033   4.578   1.003
14651SOL    HW143911   4.944   4.551   0.977
14651SOL    HW243912   5.087   4.501   0.985
14652SOL     OW43913   4.918   4.243   0.245
14652SOL    HW143914   4.929   4.168   0.303
14652SOL    HW243915   4.877   4.310   0.300
14653SOL     OW43916   4.015   3.918   1.239
14653SOL    HW143917   3.980   3.946   1.323
14653SOL    HW243918   3.998   3.824   1.237
14654SOL     OW43919   3.773   5.037   1.267
14654SOL    HW143920   3.803   4.981   1.339
14654SOL    HW243921   3.776   5.126   1.303
14655SOL     OW43922   4.433   4.345   1.037
14655SOL    HW143923   4.512   4.339   0.984
14655SOL    HW243924   4.405   4.436   1.028
14656SOL     OW43925   5.475   4.692   1.868
14656SOL    HW143926   5.435   4.619   1.821
14656SOL    HW243927   5.412   4.713   1.938
14657SOL     OW43928   4.043   3.788   0.630
14657SOL    HW143929   4.011   3.876   0.649
14657SOL    HW243930   4.050   3.746   0.716
14658SOL     OW43931   5.361   4.118   0.352
14658SOL    HW143932   5.392   4.054   0.416
14658SOL    HW243933   5.325   4.189   0.405
14659SOL     OW43934   4.759   4.482   0.958
14659SOL    HW143935   4.737   4.497   1.050
14659SOL    HW243936   4.729   4.393   0.940
14660SOL     OW43937   4.704   5.291   1.734
14660SOL    HW143938   4.684   5.333   1.650
14660SOL    HW243939   4.742   5.206   1.709
14661SOL     OW43940   5.562   5.219   1.602
14661SOL    HW143941   5.589   5.248   1.515
14661SOL    HW243942   5.640   5.229   1.656
14662SOL     OW43943   4.073   4.644   1.815
14662SOL    HW143944   4.149   4.661   1.871
14662SOL    HW243945   4.105   4.580   1.751
14663SOL     OW43946   5.227   4.028   0.127
14663SOL    HW143947   5.177   3.950   0.149
14663SOL    HW243948   5.273   4.051   0.207
14664SOL     OW43949   5.044   4.542   0.039
14664SOL    HW143950   5.080   4.453   0.039
14664SOL    HW243951   5.100   4.591   9.978
14665SOL     OW43952   4.794   5.077   0.865
14665SOL    HW143953   4.805   5.004   0.805
14665SOL    HW243954   4.846   5.148   0.827
14666SOL     OW43955   4.042   4.538   0.944
14666SOL    HW143956   4.136   4.554   0.945
14666SOL    HW243957   4.032   4.448   0.975
14667SOL     OW43958   4.037   4.261   1.010
14667SOL    HW143959   3.998   4.175   1.002
14667SOL    HW243960   4.114   4.259   0.954
14668SOL     OW43961   4.863   4.092   1.685
14668SOL    HW143962   4.817   4.143   1.752
14668SOL    HW243963   4.948   4.134   1.677
14669SOL     OW43964   4.880   3.914   1.473
14669SOL    HW143965   4.869   3.976   1.545
14669SOL    HW243966   4.927   3.964   1.406
14670SOL     OW43967   3.742   5.014   0.171
14670SOL    HW143968   3.652   5.043   0.154
14670SOL    HW243969   3.732   4.934   0.223
14671SOL     OW43970   3.816   5.494   0.951
14671SOL    HW143971   3.783   5.420   0.900
14671SOL    HW243972   3.903   5.511   0.914
14672SOL     OW43973   4.208   5.296   0.905
14672SOL    HW143974   4.278   5.357   0.925
14672SOL    HW243975   4.250   5.228   0.852
14673SOL     OW43976   4.672   4.504   1.216
14673SOL    HW143977   4.735   4.493   1.287
14673SOL    HW243978   4.593   4.459   1.247
14674SOL     OW43979   3.764   4.297   1.120
14674SOL    HW143980   3.846   4.293   1.071
14674SOL    HW243981   3.791   4.290   1.212
14675SOL     OW43982   3.910   4.262   1.743
14675SOL    HW143983   3.984   4.231   1.692
14675SOL    HW243984   3.874   4.336   1.693
14676SOL     OW43985   5.116   4.644   1.651
14676SOL    HW143986   5.133   4.738   1.647
14676SOL    HW243987   5.108   4.617   1.560
14677SOL     OW43988   4.552   4.288   0.374
14677SOL    HW143989   4.557   4.213   0.315
14677SOL    HW243990   4.473   4.335   0.347
14678SOL     OW43991   5.360   4.325   1.164
14678SOL    HW143992   5.352   4.266   1.239
14678SOL    HW243993   5.451   4.314   1.136
14679SOL     OW43994   3.950   5.264   1.723
14679SOL    HW143995   3.926   5.312   1.802
14679SOL    HW243996   3.963   5.173   1.753
14680SOL     OW43997   4.458   4.157   1.233
14680SOL    HW143998   4.394   4.087   1.219
14680SOL    HW243999   4.439   4.221   1.164
14681SOL     OW44000   4.633   5.402   1.485
14681SOL    HW144001   4.609   5.355   1.405
14681SOL    HW244002   4.634   5.494   1.460
14682SOL     OW44003   4.175   4.210   0.154
14682SOL    HW144004   4.234   4.276   0.190
14682SOL    HW244005   4.090   4.253   0.150
14683SOL     OW44006   3.853   4.875   1.481
14683SOL    HW144007   3.858   4.835   1.568
14683SOL    HW244008   3.875   4.803   1.421
14684SOL     OW44009   5.028   4.758   1.208
14684SOL    HW144010   5.037   4.695   1.137
14684SOL    HW244011   4.974   4.828   1.171
14685SOL     OW44012   5.051   4.542   0.318
14685SOL    HW144013   4.966   4.520   0.356
14685SOL    HW244014   5.037   4.539   0.224
14686SOL     OW44015   5.510   5.448   1.169
14686SOL    HW144016   5.572   5.474   1.101
14686SOL    HW244017   5.479   5.362   1.143
14687SOL     OW44018   4.964   5.457   1.088
14687SOL    HW144019   5.049   5.487   1.056
14687SOL    HW244020   4.979   5.366   1.114
14688SOL     OW44021   3.830   4.973   1.011
14688SOL    HW144022   3.802   4.994   1.100
14688SOL    HW244023   3.758   4.920   0.976
14689SOL     OW44024   4.411   5.407   1.750
14689SOL    HW144025   4.349   5.478   1.737
14689SOL    HW244026   4.486   5.430   1.696
14690SOL     OW44027   4.610   3.803   0.099
14690SOL    HW144028   4.604   3.776   0.007
14690SOL    HW244029   4.687   3.757   0.132
14691SOL     OW44030   5.474   3.905   0.497
14691SOL    HW144031   5.534   3.883   0.425
14691SOL    HW244032   5.445   3.821   0.532
14692SOL     OW44033   5.124   5.295   0.503
14692SOL    HW144034   5.182   5.330   0.435
14692SOL    HW244035   5.071   5.370   0.530
14693SOL     OW44036   3.857   5.531   1.844
14693SOL    HW144037   3.817   5.455   1.886
14693SOL    HW244038   3.908   5.572   1.914
14694SOL     OW44039   5.003   4.656   0.668
14694SOL    HW144040   5.077   4.596   0.680
14694SOL    HW244041   5.040   4.729   0.618
14695SOL     OW44042   4.507   5.004   1.414
14695SOL    HW144043   4.481   5.052   1.493
14695SOL    HW244044   4.433   5.014   1.354
14696SOL     OW44045   4.409   5.362   0.188
14696SOL    HW144046   4.412   5.379   0.094
14696SOL    HW244047   4.353   5.285   0.197
14697SOL     OW44048   5.340   5.455   1.401
14697SOL    HW144049   5.397   5.454   1.324
14697SOL    HW244050   5.324   5.547   1.420
14698SOL     OW44051   5.569   3.884   0.963
14698SOL    HW144052   5.597   3.795   0.943
14698SOL    HW244053   5.481   3.891   0.926
14699SOL     OW44054   3.966   4.036   0.709
14699SOL    HW144055   3.880   4.072   0.689
14699SOL    HW244056   3.971   4.036   0.804
14700SOL     OW44057   4.941   5.291   0.052
14700SOL    HW144058   4.928   5.202   0.083
14700SOL    HW244059   4.954   5.282   9.958
14701SOL     OW44060   4.547   4.735   1.385
14701SOL    HW144061   4.585   4.727   1.298
14701SOL    HW244062   4.536   4.830   1.397
14702SOL     OW44063   4.666   4.645   0.297
14702SOL    HW144064   4.714   4.666   0.217
14702SOL    HW244065   4.713   4.572   0.335
14703SOL     OW44066   5.214   5.334   0.074
14703SOL    HW144067   5.118   5.327   0.082
14703SOL    HW244068   5.230   5.343   9.980
14704SOL     OW44069   4.087   5.037   1.502
14704SOL    HW144070   4.079   5.110   1.441
14704SOL    HW244071   4.009   4.984   1.485
14705SOL     OW44072   5.323   5.015   1.278
14705SOL    HW144073   5.377   4.990   1.353
14705SOL    HW244074   5.264   5.082   1.311
14706SOL     OW44075   4.802   4.842   0.731
14706SOL    HW144076   4.725   4.793   0.762
14706SOL    HW244077   4.863   4.774   0.701
14707SOL     OW44078   4.757   3.972   0.961
14707SOL    HW144079   4.757   3.930   0.875
14707SOL    HW244080   4.750   3.900   1.024
14708SOL     OW44081   4.346   5.209   0.508
14708SOL    HW144082   4.386   5.154   0.441
14708SOL    HW244083   4.277   5.257   0.461
14709SOL     OW44084   5.468   4.107   1.387
14709SOL    HW144085   5.540   4.171   1.384
14709SOL    HW244086   5.495   4.038   1.326
14710SOL     OW44087   3.994   5.037   0.282
14710SOL    HW144088   3.911   5.039   0.234
14710SOL    HW244089   3.978   5.090   0.360
14711SOL     OW44090   3.844   4.771   1.736
14711SOL    HW144091   3.767   4.743   1.785
14711SOL    HW244092   3.916   4.720   1.772
14712SOL     OW44093   4.403   3.912   1.495
14712SOL    HW144094   4.487   3.886   1.456
14712SOL    HW244095   4.426   3.946   1.581
14713SOL     OW44096   3.811   3.999   0.021
14713SOL    HW144097   3.722   4.016   9.990
14713SOL    HW244098   3.859   4.080   0.002
14714SOL     OW44099   5.139   4.578   1.388
14714SOL    HW144100   5.086   4.637   1.333
14714SOL    HW244101   5.227   4.582   1.351
14715SOL     OW44102   3.798   3.865   0.278
14715SOL    HW144103   3.791   3.914   0.196
14715SOL    HW244104   3.892   3.854   0.291
14716SOL     OW44105   4.920   5.036   0.145
14716SOL    HW144106   4.831   5.003   0.137
14716SOL    HW244107   4.938   5.033   0.239
14717SOL     OW44108   4.349   4.556   1.441
14717SOL    HW144109   4.408   4.630   1.430
14717SOL    HW244110   4.407   4.479   1.440
14718SOL     OW44111   5.212   5.527   0.994
14718SOL    HW144112   5.238   5.600   0.939
14718SOL    HW244113   5.294   5.484   1.018
14719SOL     OW44114   4.448   4.273   1.686
14719SOL    HW144115   4.495   4.326   1.750
14719SOL    HW244116   4.458   4.183   1.718
14720SOL     OW44117   5.192   4.908   1.619
14720SOL    HW144118   5.184   4.930   1.712
14720SOL    HW244119   5.282   4.932   1.596
14721SOL     OW44120   4.078   5.471   1.580
14721SOL    HW144121   3.996   5.517   1.562
14721SOL    HW244122   4.051   5.387   1.618
14722SOL     OW44123   5.379   4.600   1.253
14722SOL    HW144124   5.377   4.516   1.206
14722SOL    HW244125   5.366   4.666   1.185
14723SOL     OW44126   4.945   4.048   0.451
14723SOL    HW144127   5.005   3.973   0.449
14723SOL    HW244128   4.973   4.100   0.526
14724SOL     OW44129   4.290   4.447   0.677
14724SOL    HW144130   4.338   4.529   0.665
14724SOL    HW244131   4.227   4.445   0.606
14725SOL     OW44132   5.472   4.079   1.663
14725SOL    HW144133   5.467   4.095   1.569
14725SOL    HW244134   5.394   4.026   1.681
14726SOL     OW44135   5.484   4.649   1.504
14726SOL    HW144136   5.466   4.742   1.518
14726SOL    HW244137   5.456   4.632   1.414
14727SOL     OW44138   4.623   5.140   0.044
14727SOL    HW144139   4.538   5.100   0.027
14727SOL    HW244140   4.615   5.175   0.133
14728SOL     OW44141   4.391   5.493   0.928
14728SOL    HW144142   4.373   5.586   0.919
14728SOL    HW244143   4.486   5.486   0.925
14729SOL     OW44144   4.596   4.700   0.857
14729SOL    HW144145   4.648   4.627   0.893
14729SOL    HW244146   4.552   4.737   0.932
14730SOL     OW44147   4.818   4.696   0.075
14730SOL    HW144148   4.811   4.745   9.994
14730SOL    HW244149   4.893   4.637   0.062
14731SOL     OW44150   5.553   5.281   0.841
14731SOL    HW144151   5.477   5.273   0.784
14731SOL    HW244152   5.530   5.231   0.919
14732SOL     OW44153   3.937   5.009   1.836
14732SOL    HW144154   3.905   4.930   1.793
14732SOL    HW244155   3.878   5.022   1.910
14733SOL     OW44156   3.842   4.942   0.670
14733SOL    HW144157   3.872   4.902   0.752
14733SOL    HW244158   3.902   4.909   0.603
14734SOL     OW44159   4.414   5.144   1.631
14734SOL    HW144160   4.338   5.104   1.674
14734SOL    HW244161   4.419   5.232   1.669
14735SOL     OW44162   5.534   3.896   1.233
14735SOL    HW144163   5.536   3.802   1.247
14735SOL    HW244164   5.548   3.907   1.139
14736SOL     OW44165   4.138   4.158   0.516
14736SOL    HW144166   4.171   4.088   0.460
14736SOL    HW244167   4.089   4.113   0.585
14737SOL     OW44168   5.420   5.203   1.081
14737SOL    HW144169   5.342   5.183   1.030
14737SOL    HW244170   5.422   5.136   1.150
14738SOL     OW44171   4.076   4.289   1.291
14738SOL    HW144172   4.125   4.224   1.342
14738SOL    HW244173   4.084   4.259   1.201
14739SOL     OW44174   4.559   5.322   0.662
14739SOL    HW144175   4.550   5.405   0.615
14739SOL    HW244176   4.483   5.271   0.634
14740SOL     OW44177   5.146   3.957   1.116
14740SOL    HW144178   5.156   3.868   1.151
14740SOL    HW244179   5.100   4.005   1.185
14741SOL     OW44180   4.735   3.741   1.119
14741SOL    HW144181   4.679   3.678   1.073
14741SOL    HW244182   4.821   3.700   1.122
14742SOL     OW44183   4.499   5.049   0.344
14742SOL    HW144184   4.479   4.956   0.347
14742SOL    HW244185   4.585   5.057   0.386
14743SOL     OW44186   4.339   5.294   1.288
14743SOL    HW144187   4.334   5.378   1.333
14743SOL    HW244188   4.429   5.289   1.255
14744SOL     OW44189   5.076   3.782   0.176
14744SOL    HW144190   5.098   3.744   0.091
14744SOL    HW244191   4.986   3.753   0.192
14745SOL     OW44192   5.024   4.191   0.675
14745SOL    HW144193   4.975   4.273   0.671
14745SOL    HW244194   5.015   4.162   0.766
14746SOL     OW44195   5.306   3.912   0.894
14746SOL    HW144196   5.254   3.941   0.969
14746SOL    HW244197   5.304   3.986   0.833
14747SOL     OW44198   3.766   4.768   0.303
14747SOL    HW144199   3.861   4.770   0.309
14747SOL    HW244200   3.741   4.680   0.332
14748SOL     OW44201   4.630   5.404   0.344
14748SOL    HW144202   4.552   5.389   0.292
14748SOL    HW244203   4.605   5.474   0.405
14749SOL     OW44204   3.932   4.346   2.009
14749SOL    HW144205   3.844   4.333   2.046
14749SOL    HW244206   3.920   4.332   1.915
14750SOL     OW44207   3.943   4.012   2.851
14750SOL    HW144208   3.973   3.977   2.935
14750SOL    HW244209   3.856   3.975   2.840
14751SOL     OW44210   3.710   4.120   2.508
14751SOL    HW144211   3.631   4.145   2.555
14751SOL    HW244212   3.683   4.046   2.453
14752SOL     OW44213   4.299   5.033   3.069
14752SOL    HW144214   4.216   5.036   3.021
14752SOL    HW244215   4.316   5.125   3.093
14753SOL     OW44216   5.311   5.248   2.568
14753SOL    HW144217   5.264   5.217   2.646
14753SOL    HW244218   5.244   5.250   2.500
14754SOL     OW44219   4.861   4.427   2.548
14754SOL    HW144220   4.907   4.510   2.537
14754SOL    HW244221   4.813   4.438   2.630
14755SOL     OW44222   5.526   4.304   2.081
14755SOL    HW144223   5.487   4.303   1.994
14755SOL    HW244224   5.481   4.233   2.128
14756SOL     OW44225   4.449   4.853   2.918
14756SOL    HW144226   4.392   4.893   2.983
14756SOL    HW244227   4.492   4.927   2.875
14757SOL     OW44228   4.604   4.464   3.694
14757SOL    HW144229   4.595   4.526   3.766
14757SOL    HW244230   4.624   4.518   3.617
14758SOL     OW44231   4.409   4.709   2.506
14758SOL    HW144232   4.476   4.708   2.574
14758SOL    HW244233   4.343   4.771   2.538
14759SOL     OW44234   4.434   4.867   3.693
14759SOL    HW144235   4.482   4.942   3.729
14759SOL    HW244236   4.358   4.906   3.650
14760SOL     OW44237   4.066   5.123   2.931
14760SOL    HW144238   3.989   5.081   2.890
14760SOL    HW244239   4.103   5.177   2.861
14761SOL     OW44240   5.178   5.233   3.231
14761SOL    HW144241   5.232   5.311   3.242
14761SOL    HW244242   5.108   5.242   3.295
14762SOL     OW44243   4.183   4.096   3.313
14762SOL    HW144244   4.257   4.039   3.333
14762SOL    HW244245   4.107   4.047   3.344
14763SOL     OW44246   5.307   4.156   2.617
14763SOL    HW144247   5.238   4.166   2.551
14763SOL    HW244248   5.290   4.226   2.680
14764SOL     OW44249   3.941   5.453   2.327
14764SOL    HW144250   3.969   5.523   2.386
14764SOL    HW244251   4.016   5.441   2.267
14765SOL     OW44252   4.854   5.068   3.555
14765SOL    HW144253   4.898   5.059   3.640
14765SOL    HW244254   4.802   4.988   3.547
14766SOL     OW44255   3.956   5.181   2.395
14766SOL    HW144256   3.935   5.275   2.400
14766SOL    HW244257   3.907   5.142   2.467
14767SOL     OW44258   4.006   4.815   2.741
14767SOL    HW144259   4.009   4.726   2.775
14767SOL    HW244260   3.951   4.863   2.803
14768SOL     OW44261   4.290   5.533   3.276
14768SOL    HW144262   4.219   5.509   3.335
14768SOL    HW244263   4.327   5.613   3.314
14769SOL     OW44264   4.289   4.712   2.014
14769SOL    HW144265   4.340   4.754   1.945
14769SOL    HW244266   4.330   4.741   2.096
14770SOL     OW44267   5.316   3.857   3.321
14770SOL    HW144268   5.354   3.935   3.278
14770SOL    HW244269   5.286   3.889   3.406
14771SOL     OW44270   3.842   4.384   2.429
14771SOL    HW144271   3.811   4.297   2.453
14771SOL    HW244272   3.837   4.435   2.510
14772SOL     OW44273   5.570   5.467   2.179
14772SOL    HW144274   5.642   5.451   2.241
14772SOL    HW244275   5.577   5.560   2.157
14773SOL     OW44276   3.783   5.304   1.972
14773SOL    HW144277   3.763   5.213   1.991
14773SOL    HW244278   3.752   5.352   2.049
14774SOL     OW44279   5.421   4.649   2.515
14774SOL    HW144280   5.504   4.607   2.495
14774SOL    HW244281   5.401   4.701   2.437
14775SOL     OW44282   5.381   4.828   2.294
14775SOL    HW144283   5.466   4.820   2.251
14775SOL    HW244284   5.396   4.895   2.362
14776SOL     OW44285   3.850   4.474   3.442
14776SOL    HW144286   3.936   4.516   3.450
14776SOL    HW244287   3.789   4.548   3.432
14777SOL     OW44288   4.347   5.122   2.591
14777SOL    HW144289   4.306   5.036   2.597
14777SOL    HW244290   4.331   5.151   2.501
14778SOL     OW44291   4.996   4.951   3.276
14778SOL    HW144292   5.024   4.881   3.218
14778SOL    HW244293   5.056   4.946   3.351
14779SOL     OW44294   4.555   3.735   2.380
14779SOL    HW144295   4.595   3.817   2.353
14779SOL    HW244296   4.461   3.753   2.381
14780SOL     OW44297   3.910   4.681   3.161
14780SOL    HW144298   3.998   4.646   3.146
14780SOL    HW244299   3.856   4.639   3.095
14781SOL     OW44300   5.259   4.739   2.061
14781SOL    HW144301   5.191   4.679   2.091
14781SOL    HW244302   5.301   4.769   2.142
14782SOL     OW44303   4.896   5.547   3.495
14782SOL    HW144304   4.903   5.608   3.421
14782SOL    HW244305   4.919   5.461   3.457
14783SOL     OW44306   4.084   3.975   3.734
14783SOL    HW144307   4.121   4.054   3.773
14783SOL    HW244308   3.990   3.990   3.732
14784SOL     OW44309   5.196   5.140   2.794
14784SOL    HW144310   5.132   5.160   2.863
14784SOL    HW244311   5.178   5.049   2.770
14785SOL     OW44312   5.360   5.520   2.424
14785SOL    HW144313   5.344   5.473   2.343
14785SOL    HW244314   5.361   5.453   2.492
14786SOL     OW44315   4.311   4.422   2.133
14786SOL    HW144316   4.315   4.510   2.096
14786SOL    HW244317   4.246   4.429   2.203
14787SOL     OW44318   5.006   4.116   2.803
14787SOL    HW144319   4.918   4.081   2.808
14787SOL    HW244320   5.058   4.059   2.859
14788SOL     OW44321   5.303   5.397   2.181
14788SOL    HW144322   5.397   5.412   2.170
14788SOL    HW244323   5.270   5.384   2.092
14789SOL     OW44324   4.515   4.338   3.293
14789SOL    HW144325   4.489   4.310   3.381
14789SOL    HW244326   4.490   4.264   3.237
14790SOL     OW44327   5.117   4.201   3.540
14790SOL    HW144328   5.120   4.244   3.626
14790SOL    HW244329   5.169   4.122   3.552
14791SOL     OW44330   4.667   4.604   3.459
14791SOL    HW144331   4.725   4.542   3.415
14791SOL    HW244332   4.619   4.646   3.388
14792SOL     OW44333   4.732   4.121   3.071
14792SOL    HW144334   4.640   4.135   3.094
14792SOL    HW244335   4.729   4.078   2.986
14793SOL     OW44336   4.782   4.421   2.280
14793SOL    HW144337   4.802   4.418   2.374
14793SOL    HW244338   4.697   4.377   2.274
14794SOL     OW44339   3.817   4.552   2.644
14794SOL    HW144340   3.899   4.545   2.692
14794SOL    HW244341   3.770   4.623   2.687
14795SOL     OW44342   3.833   5.601   3.450
14795SOL    HW144343   3.838   5.588   3.545
14795SOL    HW244344   3.756   5.551   3.423
14796SOL     OW44345   4.613   4.074   2.062
14796SOL    HW144346   4.664   4.128   2.001
14796SOL    HW244347   4.592   3.995   2.012
14797SOL     OW44348   5.418   4.286   3.701
14797SOL    HW144349   5.392   4.363   3.650
14797SOL    HW244350   5.444   4.222   3.635
14798SOL     OW44351   5.117   4.874   2.407
14798SOL    HW144352   5.197   4.863   2.356
14798SOL    HW244353   5.064   4.935   2.356
14799SOL     OW44354   4.274   3.884   2.780
14799SOL    HW144355   4.280   3.912   2.871
14799SOL    HW244356   4.270   3.966   2.730
14800SOL     OW44357   4.721   5.179   2.327
14800SOL    HW144358   4.697   5.254   2.273
14800SOL    HW244359   4.692   5.202   2.415
14801SOL     OW44360   4.077   5.540   2.744
14801SOL    HW144361   4.122   5.455   2.747
14801SOL    HW244362   4.144   5.604   2.765
14802SOL     OW44363   5.527   4.769   2.751
14802SOL    HW144364   5.478   4.753   2.670
14802SOL    HW244365   5.460   4.778   2.818
14803SOL     OW44366   4.943   5.269   3.379
14803SOL    HW144367   4.931   5.199   3.443
14803SOL    HW244368   4.872   5.256   3.315
14804SOL     OW44369   4.024   4.683   2.128
14804SOL    HW144370   4.107   4.703   2.084
14804SOL    HW244371   4.002   4.595   2.097
14805SOL     OW44372   5.208   4.486   2.572
14805SOL    HW144373   5.210   4.443   2.658
14805SOL    HW244374   5.287   4.540   2.570
14806SOL     OW44375   4.207   5.002   3.600
14806SOL    HW144376   4.180   5.008   3.508
14806SOL    HW244377   4.125   4.992   3.648
14807SOL     OW44378   4.863   5.502   2.086
14807SOL    HW144379   4.782   5.471   2.126
14807SOL    HW244380   4.883   5.436   2.020
14808SOL     OW44381   3.933   3.980   3.362
14808SOL    HW144382   3.868   4.043   3.392
14808SOL    HW244383   3.901   3.896   3.395
14809SOL     OW44384   5.362   5.112   1.961
14809SOL    HW144385   5.321   5.197   1.949
14809SOL    HW244386   5.295   5.049   1.934
14810SOL     OW44387   4.183   5.466   2.178
14810SOL    HW144388   4.232   5.516   2.243
14810SOL    HW244389   4.250   5.424   2.124
14811SOL     OW44390   5.121   3.830   2.321
14811SOL    HW144391   5.121   3.805   2.228
14811SOL    HW244392   5.212   3.820   2.348
14812SOL     OW44393   3.977   5.512   3.076
14812SOL    HW144394   4.026   5.438   3.114
14812SOL    HW244395   3.968   5.490   2.983
14813SOL     OW44396   4.671   5.426   2.753
14813SOL    HW144397   4.755   5.385   2.771
14813SOL    HW244398   4.634   5.374   2.681
14814SOL     OW44399   4.118   4.410   2.333
14814SOL    HW144400   4.130   4.316   2.346
14814SOL    HW244401   4.025   4.425   2.352
14815SOL     OW44402   5.235   3.946   3.578
14815SOL    HW144403   5.251   3.963   3.671
14815SOL    HW244404   5.166   3.880   3.577
14816SOL     OW44405   4.387   3.834   1.964
14816SOL    HW144406   4.433   3.755   1.992
14816SOL    HW244407   4.326   3.803   1.897
14817SOL     OW44408   4.478   3.999   3.613
14817SOL    HW144409   4.564   3.957   3.617
14817SOL    HW244410   4.435   3.975   3.695
14818SOL     OW44411   4.593   5.252   3.062
14818SOL    HW144412   4.574   5.209   2.978
14818SOL    HW244413   4.660   5.196   3.102
14819SOL     OW44414   5.054   4.316   3.299
14819SOL    HW144415   5.087   4.286   3.384
14819SOL    HW244416   5.093   4.402   3.287
14820SOL     OW44417   4.540   5.100   2.819
14820SOL    HW144418   4.628   5.095   2.780
14820SOL    HW244419   4.482   5.115   2.744
14821SOL     OW44420   4.654   4.239   2.750
14821SOL    HW144421   4.629   4.227   2.659
14821SOL    HW244422   4.682   4.152   2.779
14822SOL     OW44423   4.288   3.787   2.352
14822SOL    HW144424   4.210   3.788   2.408
14822SOL    HW244425   4.276   3.862   2.294
14823SOL     OW44426   5.158   4.936   1.894
14823SOL    HW144427   5.188   4.862   1.947
14823SOL    HW244428   5.073   4.959   1.931
14824SOL     OW44429   4.007   3.772   2.051
14824SOL    HW144430   4.060   3.839   2.008
14824SOL    HW244431   4.070   3.714   2.093
14825SOL     OW44432   4.675   3.974   2.313
14825SOL    HW144433   4.650   4.010   2.227
14825SOL    HW244434   4.769   3.991   2.319
14826SOL     OW44435   4.800   4.420   3.307
14826SOL    HW144436   4.737   4.348   3.315
14826SOL    HW244437   4.886   4.377   3.306
14827SOL     OW44438   4.930   5.308   2.662
14827SOL    HW144439   4.946   5.369   2.590
14827SOL    HW244440   5.000   5.327   2.726
14828SOL     OW44441   4.205   4.886   2.570
14828SOL    HW144442   4.143   4.862   2.639
14828SOL    HW244443   4.155   4.879   2.489
14829SOL     OW44444   4.976   5.515   2.479
14829SOL    HW144445   5.025   5.579   2.427
14829SOL    HW244446   4.905   5.566   2.518
14830SOL     OW44447   4.756   4.239   1.892
14830SOL    HW144448   4.713   4.322   1.873
14830SOL    HW244449   4.819   4.258   1.961
14831SOL     OW44450   3.822   4.280   3.252
14831SOL    HW144451   3.915   4.278   3.227
14831SOL    HW244452   3.817   4.348   3.319
14832SOL     OW44453   4.282   3.945   3.048
14832SOL    HW144454   4.320   3.886   3.113
14832SOL    HW244455   4.189   3.947   3.069
14833SOL     OW44456   4.594   4.178   2.492
14833SOL    HW144457   4.554   4.234   2.425
14833SOL    HW244458   4.619   4.098   2.445
14834SOL     OW44459   4.746   3.781   2.601
14834SOL    HW144460   4.685   3.776   2.528
14834SOL    HW244461   4.722   3.709   2.659
14835SOL     OW44462   5.156   4.876   2.718
14835SOL    HW144463   5.089   4.809   2.731
14835SOL    HW244464   5.166   4.882   2.623
14836SOL     OW44465   5.186   4.340   2.811
14836SOL    HW144466   5.122   4.270   2.822
14836SOL    HW244467   5.242   4.334   2.888
14837SOL     OW44468   5.553   4.520   2.247
14837SOL    HW144469   5.612   4.477   2.309
14837SOL    HW244470   5.539   4.455   2.178
14838SOL     OW44471   4.222   5.148   2.013
14838SOL    HW144472   4.146   5.117   2.063
14838SOL    HW244473   4.219   5.099   1.931
14839SOL     OW44474   5.433   4.998   2.492
14839SOL    HW144475   5.526   4.991   2.515
14839SOL    HW244476   5.408   5.086   2.521
14840SOL     OW44477   5.116   4.300   1.928
14840SOL    HW144478   5.060   4.273   2.001
14840SOL    HW244479   5.205   4.277   1.957
14841SOL     OW44480   4.251   3.981   2.164
14841SOL    HW144481   4.305   3.940   2.097
14841SOL    HW244482   4.219   4.061   2.123
14842SOL     OW44483   5.458   4.966   3.393
14842SOL    HW144484   5.547   4.932   3.379
14842SOL    HW244485   5.471   5.053   3.431
14843SOL     OW44486   4.766   5.078   3.194
14843SOL    HW144487   4.689   5.044   3.240
14843SOL    HW244488   4.840   5.035   3.236
14844SOL     OW44489   5.329   5.355   3.514
14844SOL    HW144490   5.325   5.394   3.426
14844SOL    HW244491   5.408   5.300   3.511
14845SOL     OW44492   4.874   4.959   2.966
14845SOL    HW144493   4.814   4.994   3.032
14845SOL    HW244494   4.841   4.992   2.883
14846SOL     OW44495   5.335   4.817   2.940
14846SOL    HW144496   5.328   4.883   3.009
14846SOL    HW244497   5.264   4.839   2.879
14847SOL     OW44498   4.645   3.804   3.246
14847SOL    HW144499   4.666   3.790   3.154
14847SOL    HW244500   4.723   3.846   3.283
14848SOL     OW44501   4.701   4.841   3.587
14848SOL    HW144502   4.611   4.855   3.616
14848SOL    HW244503   4.697   4.759   3.537
14849SOL     OW44504   4.438   4.786   2.238
14849SOL    HW144505   4.423   4.760   2.329
14849SOL    HW244506   4.512   4.732   2.210
14850SOL     OW44507   4.149   4.551   3.121
14850SOL    HW144508   4.217   4.561   3.188
14850SOL    HW244509   4.119   4.461   3.131
14851SOL     OW44510   4.989   4.094   3.155
14851SOL    HW144511   5.016   4.174   3.200
14851SOL    HW244512   4.900   4.112   3.125
14852SOL     OW44513   3.802   5.295   3.227
14852SOL    HW144514   3.772   5.364   3.169
14852SOL    HW244515   3.897   5.293   3.216
14853SOL     OW44516   4.040   4.859   2.348
14853SOL    HW144517   4.042   4.930   2.284
14853SOL    HW244518   4.038   4.779   2.295
14854SOL     OW44519   4.257   4.240   2.719
14854SOL    HW144520   4.271   4.298   2.644
14854SOL    HW244521   4.325   4.265   2.782
14855SOL     OW44522   4.971   5.078   2.260
14855SOL    HW144523   5.027   5.148   2.294
14855SOL    HW244524   4.884   5.101   2.291
14856SOL     OW44525   5.031   5.192   3.005
14856SOL    HW144526   5.080   5.201   3.087
14856SOL    HW244527   4.981   5.111   3.015
14857SOL     OW44528   5.300   4.343   2.346
14857SOL    HW144529   5.249   4.383   2.416
14857SOL    HW244530   5.350   4.416   2.309
14858SOL     OW44531   4.067   5.256   3.164
14858SOL    HW144532   4.061   5.204   3.084
14858SOL    HW244533   4.161   5.273   3.174
14859SOL     OW44534   4.165   4.462   3.486
14859SOL    HW144535   4.219   4.507   3.420
14859SOL    HW244536   4.219   4.387   3.513
14860SOL     OW44537   5.350   4.507   3.559
14860SOL    HW144538   5.263   4.546   3.552
14860SOL    HW244539   5.400   4.547   3.488
14861SOL     OW44540   4.720   3.872   3.635
14861SOL    HW144541   4.777   3.945   3.608
14861SOL    HW244542   4.769   3.794   3.610
14862SOL     OW44543   4.219   3.756   3.621
14862SOL    HW144544   4.163   3.709   3.559
14862SOL    HW244545   4.169   3.834   3.644
14863SOL     OW44546   4.313   4.599   2.900
14863SOL    HW144547   4.353   4.686   2.904
14863SOL    HW244548   4.257   4.595   2.978
14864SOL     OW44549   5.033   4.579   2.860
14864SOL    HW144550   4.944   4.551   2.838
14864SOL    HW244551   5.087   4.502   2.844
14865SOL     OW44552   4.922   4.247   2.119
14865SOL    HW144553   4.933   4.171   2.176
14865SOL    HW244554   4.881   4.313   2.175
14866SOL     OW44555   4.013   3.918   3.101
14866SOL    HW144556   3.980   3.947   3.186
14866SOL    HW244557   3.996   3.824   3.100
14867SOL     OW44558   3.773   5.038   3.126
14867SOL    HW144559   3.802   4.980   3.197
14867SOL    HW244560   3.776   5.126   3.164
14868SOL     OW44561   4.434   4.345   2.900
14868SOL    HW144562   4.512   4.339   2.846
14868SOL    HW244563   4.406   4.436   2.891
14869SOL     OW44564   5.475   4.691   3.729
14869SOL    HW144565   5.434   4.617   3.683
14869SOL    HW244566   5.413   4.712   3.799
14870SOL     OW44567   4.049   3.784   2.491
14870SOL    HW144568   4.015   3.872   2.509
14870SOL    HW244569   4.055   3.742   2.577
14871SOL     OW44570   5.355   4.115   2.206
14871SOL    HW144571   5.387   4.050   2.268
14871SOL    HW244572   5.326   4.188   2.260
14872SOL     OW44573   4.758   4.482   2.819
14872SOL    HW144574   4.737   4.497   2.911
14872SOL    HW244575   4.728   4.393   2.801
14873SOL     OW44576   4.700   5.294   3.591
14873SOL    HW144577   4.685   5.335   3.506
14873SOL    HW244578   4.737   5.208   3.570
14874SOL     OW44579   5.563   5.216   3.460
14874SOL    HW144580   5.592   5.246   3.374
14874SOL    HW244581   5.640   5.227   3.516
14875SOL     OW44582   4.072   4.647   3.668
14875SOL    HW144583   4.143   4.665   3.731
14875SOL    HW244584   4.108   4.581   3.610
14876SOL     OW44585   5.247   3.992   1.981
14876SOL    HW144586   5.194   3.921   2.018
14876SOL    HW244587   5.286   4.036   2.056
14877SOL     OW44588   5.003   4.545   1.880
14877SOL    HW144589   5.043   4.458   1.889
14877SOL    HW244590   5.040   4.581   1.800
14878SOL     OW44591   4.793   5.076   2.727
14878SOL    HW144592   4.805   5.003   2.666
14878SOL    HW244593   4.846   5.147   2.691
14879SOL     OW44594   4.043   4.541   2.805
14879SOL    HW144595   4.137   4.556   2.807
14879SOL    HW244596   4.032   4.451   2.836
14880SOL     OW44597   4.036   4.263   2.871
14880SOL    HW144598   3.997   4.175   2.862
14880SOL    HW244599   4.113   4.260   2.814
14881SOL     OW44600   4.863   4.094   3.549
14881SOL    HW144601   4.818   4.147   3.615
14881SOL    HW244602   4.949   4.135   3.541
14882SOL     OW44603   4.880   3.916   3.338
14882SOL    HW144604   4.869   3.978   3.410
14882SOL    HW244605   4.926   3.965   3.270
14883SOL     OW44606   3.748   5.027   2.041
14883SOL    HW144607   3.658   5.049   2.015
14883SOL    HW244608   3.740   4.940   2.081
14884SOL     OW44609   3.814   5.496   2.811
14884SOL    HW144610   3.782   5.421   2.761
14884SOL    HW244611   3.902   5.512   2.776
14885SOL     OW44612   4.208   5.293   2.761
14885SOL    HW144613   4.279   5.354   2.784
14885SOL    HW244614   4.249   5.232   2.700
14886SOL     OW44615   4.673   4.505   3.078
14886SOL    HW144616   4.736   4.493   3.149
14886SOL    HW244617   4.594   4.460   3.108
14887SOL     OW44618   3.765   4.299   2.982
14887SOL    HW144619   3.847   4.295   2.933
14887SOL    HW244620   3.791   4.292   3.073
14888SOL     OW44621   3.912   4.260   3.603
14888SOL    HW144622   3.996   4.241   3.561
14888SOL    HW244623   3.876   4.333   3.553
14889SOL     OW44624   5.116   4.643   3.513
14889SOL    HW144625   5.132   4.737   3.510
14889SOL    HW244626   5.108   4.616   3.422
14890SOL     OW44627   4.542   4.292   2.234
14890SOL    HW144628   4.551   4.218   2.174
14890SOL    HW244629   4.465   4.339   2.202
14891SOL     OW44630   5.360   4.326   3.024
14891SOL    HW144631   5.350   4.268   3.099
14891SOL    HW244632   5.451   4.314   2.996
14892SOL     OW44633   3.945   5.263   3.594
14892SOL    HW144634   3.912   5.297   3.677
14892SOL    HW244635   3.970   5.173   3.613
14893SOL     OW44636   4.458   4.157   3.095
14893SOL    HW144637   4.393   4.088   3.081
14893SOL    HW244638   4.440   4.222   3.027
14894SOL     OW44639   4.635   5.402   3.341
14894SOL    HW144640   4.610   5.357   3.261
14894SOL    HW244641   4.635   5.495   3.318
14895SOL     OW44642   4.166   4.205   2.025
14895SOL    HW144643   4.231   4.271   2.050
14895SOL    HW244644   4.083   4.251   2.029
14896SOL     OW44645   3.852   4.875   3.340
14896SOL    HW144646   3.857   4.837   3.428
14896SOL    HW244647   3.874   4.803   3.281
14897SOL     OW44648   5.029   4.757   3.069
14897SOL    HW144649   5.038   4.694   2.997
14897SOL    HW244650   4.974   4.827   3.032
14898SOL     OW44651   5.050   4.585   2.152
14898SOL    HW144652   4.981   4.550   2.208
14898SOL    HW244653   5.020   4.569   2.063
14899SOL     OW44654   5.507   5.451   3.026
14899SOL    HW144655   5.570   5.475   2.958
14899SOL    HW244656   5.478   5.363   3.002
14900SOL     OW44657   4.963   5.455   2.945
14900SOL    HW144658   5.048   5.486   2.916
14900SOL    HW244659   4.978   5.365   2.974
14901SOL     OW44660   3.826   4.978   2.867
14901SOL    HW144661   3.800   4.997   2.957
14901SOL    HW244662   3.758   4.921   2.834
14902SOL     OW44663   4.415   5.405   3.616
14902SOL    HW144664   4.359   5.481   3.595
14902SOL    HW244665   4.498   5.425   3.573
14903SOL     OW44666   5.466   3.908   2.358
14903SOL    HW144667   5.526   3.887   2.286
14903SOL    HW244668   5.440   3.822   2.393
14904SOL     OW44669   5.120   5.293   2.365
14904SOL    HW144670   5.176   5.328   2.295
14904SOL    HW244671   5.066   5.367   2.392
14905SOL     OW44672   3.847   5.549   3.712
14905SOL    HW144673   3.816   5.465   3.747
14905SOL    HW244674   3.907   5.582   3.779
14906SOL     OW44675   5.002   4.658   2.524
14906SOL    HW144676   5.076   4.599   2.538
14906SOL    HW244677   5.039   4.731   2.473
14907SOL     OW44678   4.507   5.003   3.271
14907SOL    HW144679   4.482   5.053   3.349
14907SOL    HW244680   4.433   5.012   3.212
14908SOL     OW44681   4.392   5.360   2.022
14908SOL    HW144682   4.407   5.374   1.929
14908SOL    HW244683   4.340   5.279   2.026
14909SOL     OW44684   5.338   5.460   3.254
14909SOL    HW144685   5.395   5.461   3.178
14909SOL    HW244686   5.323   5.552   3.275
14910SOL     OW44687   5.569   3.884   2.825
14910SOL    HW144688   5.597   3.795   2.804
14910SOL    HW244689   5.481   3.891   2.788
14911SOL     OW44690   3.967   4.030   2.570
14911SOL    HW144691   3.881   4.067   2.549
14911SOL    HW244692   3.971   4.032   2.666
14912SOL     OW44693   4.933   5.312   1.900
14912SOL    HW144694   4.923   5.221   1.928
14912SOL    HW244695   4.863   5.325   1.836
14913SOL     OW44696   4.549   4.734   3.249
14913SOL    HW144697   4.590   4.724   3.163
14913SOL    HW244698   4.538   4.829   3.260
14914SOL     OW44699   4.642   4.633   2.154
14914SOL    HW144700   4.700   4.667   2.086
14914SOL    HW244701   4.694   4.566   2.199
14915SOL     OW44702   5.207   5.369   1.920
14915SOL    HW144703   5.115   5.349   1.903
14915SOL    HW244704   5.247   5.372   1.833
14916SOL     OW44705   4.084   5.037   3.360
14916SOL    HW144706   4.076   5.110   3.298
14916SOL    HW244707   4.006   4.984   3.344
14917SOL     OW44708   5.324   5.015   3.140
14917SOL    HW144709   5.376   4.990   3.216
14917SOL    HW244710   5.265   5.082   3.173
14918SOL     OW44711   4.800   4.843   2.590
14918SOL    HW144712   4.725   4.793   2.622
14918SOL    HW244713   4.863   4.776   2.561
14919SOL     OW44714   4.757   3.973   2.822
14919SOL    HW144715   4.756   3.930   2.736
14919SOL    HW244716   4.751   3.901   2.885
14920SOL     OW44717   4.328   5.209   2.335
14920SOL    HW144718   4.383   5.160   2.274
14920SOL    HW244719   4.246   5.223   2.287
14921SOL     OW44720   5.467   4.109   3.246
14921SOL    HW144721   5.538   4.172   3.244
14921SOL    HW244722   5.494   4.039   3.186
14922SOL     OW44723   4.003   5.065   2.160
14922SOL    HW144724   3.915   5.057   2.121
14922SOL    HW244725   3.988   5.113   2.242
14923SOL     OW44726   3.842   4.776   3.597
14923SOL    HW144727   3.766   4.746   3.647
14923SOL    HW244728   3.914   4.724   3.632
14924SOL     OW44729   4.403   3.910   3.356
14924SOL    HW144730   4.488   3.886   3.320
14924SOL    HW244731   4.424   3.944   3.444
14925SOL     OW44732   3.810   4.041   1.876
14925SOL    HW144733   3.733   4.020   1.824
14925SOL    HW244734   3.838   4.127   1.844
14926SOL     OW44735   5.139   4.577   3.249
14926SOL    HW144736   5.087   4.636   3.195
14926SOL    HW244737   5.228   4.582   3.213
14927SOL     OW44738   3.768   3.873   2.135
14927SOL    HW144739   3.755   3.943   2.071
14927SOL    HW244740   3.856   3.841   2.118
14928SOL     OW44741   4.907   5.046   1.986
14928SOL    HW144742   4.818   5.013   1.986
14928SOL    HW244743   4.932   5.050   2.078
14929SOL     OW44744   4.349   4.555   3.302
14929SOL    HW144745   4.408   4.630   3.292
14929SOL    HW244746   4.407   4.479   3.302
14930SOL     OW44747   5.213   5.527   2.859
14930SOL    HW144748   5.239   5.600   2.803
14930SOL    HW244749   5.296   5.487   2.887
14931SOL     OW44750   4.440   4.277   3.549
14931SOL    HW144751   4.489   4.331   3.611
14931SOL    HW244752   4.452   4.188   3.580
14932SOL     OW44753   5.191   4.908   3.480
14932SOL    HW144754   5.182   4.927   3.573
14932SOL    HW244755   5.281   4.932   3.458
14933SOL     OW44756   4.079   5.469   3.447
14933SOL    HW144757   3.996   5.514   3.429
14933SOL    HW244758   4.053   5.387   3.488
14934SOL     OW44759   5.380   4.600   3.115
14934SOL    HW144760   5.378   4.517   3.068
14934SOL    HW244761   5.369   4.667   3.047
14935SOL     OW44762   4.944   4.047   2.318
14935SOL    HW144763   5.004   3.972   2.317
14935SOL    HW244764   4.972   4.099   2.393
14936SOL     OW44765   4.302   4.448   2.540
14936SOL    HW144766   4.344   4.533   2.527
14936SOL    HW244767   4.240   4.441   2.468
14937SOL     OW44768   5.472   4.080   3.522
14937SOL    HW144769   5.467   4.097   3.428
14937SOL    HW244770   5.395   4.027   3.541
14938SOL     OW44771   5.482   4.650   3.367
14938SOL    HW144772   5.464   4.742   3.381
14938SOL    HW244773   5.456   4.634   3.276
14939SOL     OW44774   4.591   5.081   1.923
14939SOL    HW144775   4.556   5.097   2.011
14939SOL    HW244776   4.603   5.168   1.885
14940SOL     OW44777   4.392   5.490   2.786
14940SOL    HW144778   4.374   5.583   2.779
14940SOL    HW244779   4.488   5.484   2.785
14941SOL     OW44780   4.596   4.701   2.718
14941SOL    HW144781   4.647   4.628   2.753
14941SOL    HW244782   4.551   4.738   2.793
14942SOL     OW44783   4.796   4.709   1.948
14942SOL    HW144784   4.775   4.763   1.872
14942SOL    HW244785   4.870   4.655   1.920
14943SOL     OW44786   5.553   5.281   2.702
14943SOL    HW144787   5.476   5.273   2.646
14943SOL    HW244788   5.531   5.231   2.780
14944SOL     OW44789   3.954   5.005   3.701
14944SOL    HW144790   3.910   4.930   3.661
14944SOL    HW244791   3.913   5.014   3.787
14945SOL     OW44792   3.842   4.950   2.530
14945SOL    HW144793   3.873   4.909   2.611
14945SOL    HW244794   3.901   4.916   2.462
14946SOL     OW44795   4.415   5.147   3.484
14946SOL    HW144796   4.345   5.102   3.531
14946SOL    HW244797   4.421   5.232   3.527
14947SOL     OW44798   5.534   3.896   3.095
14947SOL    HW144799   5.536   3.801   3.108
14947SOL    HW244800   5.548   3.907   3.001
14948SOL     OW44801   4.140   4.147   2.379
14948SOL    HW144802   4.175   4.076   2.326
14948SOL    HW244803   4.089   4.103   2.447
14949SOL     OW44804   5.422   5.202   2.942
14949SOL    HW144805   5.342   5.183   2.892
14949SOL    HW244806   5.424   5.136   3.011
14950SOL     OW44807   4.075   4.289   3.152
14950SOL    HW144808   4.124   4.224   3.203
14950SOL    HW244809   4.083   4.259   3.062
14951SOL     OW44810   4.562   5.305   2.534
14951SOL    HW144811   4.529   5.373   2.475
14951SOL    HW244812   4.488   5.245   2.545
14952SOL     OW44813   5.146   3.959   2.979
14952SOL    HW144814   5.159   3.871   3.016
14952SOL    HW244815   5.100   4.007   3.047
14953SOL     OW44816   4.735   3.742   2.981
14953SOL    HW144817   4.680   3.679   2.934
14953SOL    HW244818   4.822   3.701   2.983
14954SOL     OW44819   4.505   5.056   2.189
14954SOL    HW144820   4.481   4.964   2.203
14954SOL    HW244821   4.584   5.067   2.242
14955SOL     OW44822   4.337   5.297   3.146
14955SOL    HW144823   4.332   5.381   3.191
14955SOL    HW244824   4.428   5.291   3.116
14956SOL     OW44825   5.105   3.763   2.054
14956SOL    HW144826   5.145   3.690   2.007
14956SOL    HW244827   5.013   3.737   2.065
14957SOL     OW44828   5.022   4.195   2.537
14957SOL    HW144829   4.971   4.276   2.534
14957SOL    HW244830   5.015   4.165   2.628
14958SOL     OW44831   5.305   3.912   2.756
14958SOL    HW144832   5.253   3.941   2.831
14958SOL    HW244833   5.306   3.986   2.696
14959SOL     OW44834   3.761   4.775   2.169
14959SOL    HW144835   3.854   4.763   2.151
14959SOL    HW244836   3.729   4.687   2.189
14960SOL     OW44837   4.620   5.400   2.192
14960SOL    HW144838   4.541   5.384   2.140
14960SOL    HW244839   4.595   5.468   2.254
14961SOL     OW44840   3.928   4.343   3.871
14961SOL    HW144841   3.840   4.330   3.908
14961SOL    HW244842   3.916   4.330   3.777
14962SOL     OW44843   3.916   4.055   4.720
14962SOL    HW144844   3.954   4.020   4.801
14962SOL    HW244845   3.838   4.002   4.705
14963SOL     OW44846   3.709   4.118   4.369
14963SOL    HW144847   3.630   4.143   4.416
14963SOL    HW244848   3.683   4.045   4.313
14964SOL     OW44849   4.223   4.961   4.849
14964SOL    HW144850   4.162   5.034   4.842
14964SOL    HW244851   4.278   4.983   4.925
14965SOL     OW44852   5.243   5.210   4.367
14965SOL    HW144853   5.163   5.200   4.420
14965SOL    HW244854   5.211   5.241   4.282
14966SOL     OW44855   4.831   4.439   4.416
14966SOL    HW144856   4.883   4.519   4.412
14966SOL    HW244857   4.750   4.466   4.461
14967SOL     OW44858   5.529   4.307   3.944
14967SOL    HW144859   5.491   4.306   3.856
14967SOL    HW244860   5.483   4.239   3.992
14968SOL     OW44861   4.394   4.877   4.661
14968SOL    HW144862   4.331   4.913   4.723
14968SOL    HW244863   4.479   4.910   4.691
14969SOL     OW44864   4.432   4.699   4.389
14969SOL    HW144865   4.500   4.655   4.440
14969SOL    HW244866   4.393   4.762   4.450
14970SOL     OW44867   4.351   4.937   5.622
14970SOL    HW144868   4.438   4.970   5.599
14970SOL    HW244869   4.297   4.959   5.546
14971SOL     OW44870   4.039   5.161   4.771
14971SOL    HW144871   3.965   5.123   4.722
14971SOL    HW244872   4.092   5.204   4.705
14972SOL     OW44873   4.205   4.021   5.272
14972SOL    HW144874   4.233   4.103   5.233
14972SOL    HW244875   4.112   4.014   5.250
14973SOL     OW44876   5.289   4.174   4.464
14973SOL    HW144877   5.203   4.163   4.424
14973SOL    HW244878   5.296   4.268   4.480
14974SOL     OW44879   3.938   5.453   4.189
14974SOL    HW144880   3.965   5.523   4.248
14974SOL    HW244881   4.016   5.437   4.134
14975SOL     OW44882   3.961   5.178   4.247
14975SOL    HW144883   3.936   5.269   4.262
14975SOL    HW244884   3.919   5.130   4.319
14976SOL     OW44885   3.979   4.830   4.598
14976SOL    HW144886   3.984   4.742   4.635
14976SOL    HW244887   3.940   4.883   4.668
14977SOL     OW44888   4.325   5.519   5.165
14977SOL    HW144889   4.242   5.494   5.205
14977SOL    HW244890   4.337   5.611   5.189
14978SOL     OW44891   4.288   4.715   3.886
14978SOL    HW144892   4.342   4.755   3.817
14978SOL    HW244893   4.330   4.742   3.968
14979SOL     OW44894   5.317   3.849   5.196
14979SOL    HW144895   5.350   3.926   5.152
14979SOL    HW244896   5.291   3.880   5.283
14980SOL     OW44897   3.833   4.395   4.294
14980SOL    HW144898   3.807   4.306   4.319
14980SOL    HW244899   3.825   4.445   4.376
14981SOL     OW44900   5.572   5.469   4.052
14981SOL    HW144901   5.639   5.454   4.118
14981SOL    HW244902   5.577   5.563   4.034
14982SOL     OW44903   3.788   5.306   3.828
14982SOL    HW144904   3.766   5.214   3.845
14982SOL    HW244905   3.757   5.353   3.906
14983SOL     OW44906   5.421   4.662   4.366
14983SOL    HW144907   5.498   4.621   4.329
14983SOL    HW244908   5.393   4.725   4.299
14984SOL     OW44909   5.383   4.836   4.144
14984SOL    HW144910   5.467   4.824   4.102
14984SOL    HW244911   5.397   4.908   4.206
14985SOL     OW44912   4.351   5.133   4.461
14985SOL    HW144913   4.303   5.050   4.463
14985SOL    HW244914   4.348   5.159   4.369
14986SOL     OW44915   4.544   3.728   4.238
14986SOL    HW144916   4.587   3.809   4.209
14986SOL    HW244917   4.451   3.750   4.239
14987SOL     OW44918   3.890   4.670   5.014
14987SOL    HW144919   3.926   4.653   4.928
14987SOL    HW244920   3.912   4.593   5.066
14988SOL     OW44921   5.258   4.733   3.921
14988SOL    HW144922   5.192   4.672   3.953
14988SOL    HW244923   5.298   4.769   4.000
14989SOL     OW44924   4.110   3.953   5.552
14989SOL    HW144925   4.144   3.992   5.472
14989SOL    HW244926   4.021   3.987   5.560
14990SOL     OW44927   5.279   5.521   4.255
14990SOL    HW144928   5.307   5.477   4.175
14990SOL    HW244929   5.342   5.491   4.322
14991SOL     OW44930   4.306   4.418   3.985
14991SOL    HW144931   4.324   4.508   3.958
14991SOL    HW244932   4.249   4.426   4.061
14992SOL     OW44933   4.975   4.067   4.609
14992SOL    HW144934   4.893   4.104   4.642
14992SOL    HW244935   5.017   4.029   4.687
14993SOL     OW44936   5.307   5.399   4.011
14993SOL    HW144937   5.401   5.415   4.013
14993SOL    HW244938   5.288   5.377   3.920
14994SOL     OW44939   5.157   4.317   5.373
14994SOL    HW144940   5.131   4.309   5.465
14994SOL    HW244941   5.092   4.265   5.326
14995SOL     OW44942   4.779   4.428   4.142
14995SOL    HW144943   4.790   4.427   4.237
14995SOL    HW244944   4.699   4.377   4.127
14996SOL     OW44945   3.797   4.567   4.510
14996SOL    HW144946   3.873   4.556   4.568
14996SOL    HW244947   3.751   4.642   4.547
14997SOL     OW44948   3.840   5.594   5.308
14997SOL    HW144949   3.845   5.578   5.402
14997SOL    HW244950   3.761   5.547   5.280
14998SOL     OW44951   4.631   4.043   3.897
14998SOL    HW144952   4.671   4.115   3.848
14998SOL    HW244953   4.658   3.964   3.850
14999SOL     OW44954   5.455   4.280   5.571
14999SOL    HW144955   5.428   4.358   5.523
14999SOL    HW244956   5.465   4.212   5.504
15000SOL     OW44957   5.096   4.856   4.221
15000SOL    HW144958   5.187   4.868   4.194
15000SOL    HW244959   5.049   4.928   4.180
15001SOL     OW44960   4.717   5.167   4.193
15001SOL    HW144961   4.692   5.249   4.150
15001SOL    HW244962   4.725   5.190   4.285
15002SOL     OW44963   4.075   5.540   4.604
15002SOL    HW144964   4.125   5.459   4.608
15002SOL    HW244965   4.140   5.608   4.624
15003SOL     OW44966   5.475   4.749   4.631
15003SOL    HW144967   5.458   4.739   4.537
15003SOL    HW244968   5.388   4.759   4.670
15004SOL     OW44969   4.025   4.678   3.989
15004SOL    HW144970   4.111   4.697   3.951
15004SOL    HW244971   4.010   4.585   3.970
15005SOL     OW44972   5.243   4.469   4.441
15005SOL    HW144973   5.190   4.502   4.514
15005SOL    HW244974   5.307   4.538   4.425
15006SOL     OW44975   4.179   5.030   5.435
15006SOL    HW144976   4.152   5.024   5.344
15006SOL    HW244977   4.097   5.024   5.485
15007SOL     OW44978   4.855   5.506   3.938
15007SOL    HW144979   4.781   5.470   3.987
15007SOL    HW244980   4.879   5.437   3.876
15008SOL     OW44981   3.935   3.990   5.230
15008SOL    HW144982   3.882   4.049   5.284
15008SOL    HW244983   3.917   3.903   5.265
15009SOL     OW44984   5.364   5.105   3.808
15009SOL    HW144985   5.321   5.189   3.796
15009SOL    HW244986   5.296   5.040   3.788
15010SOL     OW44987   4.182   5.462   4.046
15010SOL    HW144988   4.231   5.513   4.110
15010SOL    HW244989   4.250   5.420   3.992
15011SOL     OW44990   5.124   3.840   4.182
15011SOL    HW144991   5.123   3.813   4.090
15011SOL    HW244992   5.217   3.849   4.203
15012SOL     OW44993   3.981   5.514   4.937
15012SOL    HW144994   4.021   5.435   4.974
15012SOL    HW244995   3.964   5.492   4.845
15013SOL     OW44996   4.118   4.415   4.194
15013SOL    HW144997   4.125   4.321   4.208
15013SOL    HW244998   4.028   4.436   4.217
15014SOL     OW44999   5.236   3.946   5.445
15014SOL    HW145000   5.245   3.967   5.538
15014SOL    HW245001   5.142   3.938   5.431
15015SOL     OW45002   4.373   3.835   3.833
15015SOL    HW145003   4.436   3.765   3.850
15015SOL    HW245004   4.320   3.802   3.760
15016SOL     OW45005   4.544   5.141   4.663
15016SOL    HW145006   4.624   5.111   4.620
15016SOL    HW245007   4.474   5.117   4.602
15017SOL     OW45008   4.279   3.789   4.216
15017SOL    HW145009   4.201   3.793   4.272
15017SOL    HW245010   4.271   3.865   4.159
15018SOL     OW45011   5.156   4.929   3.753
15018SOL    HW145012   5.185   4.856   3.808
15018SOL    HW245013   5.071   4.954   3.789
15019SOL     OW45014   4.011   3.770   3.914
15019SOL    HW145015   4.064   3.838   3.872
15019SOL    HW245016   4.074   3.712   3.956
15020SOL     OW45017   4.668   3.954   4.158
15020SOL    HW145018   4.647   3.993   4.073
15020SOL    HW245019   4.757   3.985   4.177
15021SOL     OW45020   4.980   5.231   4.473
15021SOL    HW145021   4.979   5.321   4.441
15021SOL    HW245022   4.980   5.239   4.568
15022SOL     OW45023   4.179   4.923   4.429
15022SOL    HW145024   4.123   4.886   4.497
15022SOL    HW245025   4.141   4.894   4.347
15023SOL     OW45026   4.975   5.491   4.368
15023SOL    HW145027   5.013   5.564   4.319
15023SOL    HW245028   4.888   5.523   4.395
15024SOL     OW45029   4.756   4.241   3.753
15024SOL    HW145030   4.709   4.323   3.738
15024SOL    HW245031   4.814   4.259   3.827
15025SOL     OW45032   3.874   4.253   5.086
15025SOL    HW145033   3.948   4.194   5.097
15025SOL    HW245034   3.904   4.336   5.125
15026SOL     OW45035   4.591   4.234   4.366
15026SOL    HW145036   4.528   4.306   4.360
15026SOL    HW245037   4.598   4.200   4.277
15027SOL     OW45038   4.764   3.723   4.418
15027SOL    HW145039   4.691   3.743   4.359
15027SOL    HW245040   4.722   3.712   4.504
15028SOL     OW45041   5.564   4.524   4.111
15028SOL    HW145042   5.620   4.479   4.174
15028SOL    HW245043   5.545   4.459   4.043
15029SOL     OW45044   4.220   5.151   3.876
15029SOL    HW145045   4.141   5.121   3.921
15029SOL    HW245046   4.227   5.095   3.799
15030SOL     OW45047   5.439   5.018   4.326
15030SOL    HW145048   5.522   5.032   4.372
15030SOL    HW245049   5.385   5.092   4.353
15031SOL     OW45050   5.112   4.300   3.794
15031SOL    HW145051   5.052   4.277   3.865
15031SOL    HW245052   5.199   4.283   3.830
15032SOL     OW45053   4.247   3.985   4.031
15032SOL    HW145054   4.301   3.942   3.965
15032SOL    HW245055   4.216   4.065   3.988
15033SOL     OW45056   5.492   4.927   5.235
15033SOL    HW145057   5.587   4.924   5.225
15033SOL    HW245058   5.472   5.020   5.248
15034SOL     OW45059   4.866   4.885   4.757
15034SOL    HW145060   4.790   4.835   4.785
15034SOL    HW245061   4.835   4.939   4.685
15035SOL     OW45062   4.437   4.780   4.115
15035SOL    HW145063   4.429   4.757   4.208
15035SOL    HW245064   4.508   4.725   4.083
15036SOL     OW45065   3.794   5.292   5.089
15036SOL    HW145066   3.762   5.360   5.029
15036SOL    HW245067   3.888   5.290   5.075
15037SOL     OW45068   4.031   4.859   4.200
15037SOL    HW145069   4.038   4.929   4.135
15037SOL    HW245070   4.035   4.778   4.149
15038SOL     OW45071   4.960   5.072   4.099
15038SOL    HW145072   5.012   5.150   4.119
15038SOL    HW245073   4.874   5.090   4.139
15039SOL     OW45074   5.303   4.348   4.192
15039SOL    HW145075   5.266   4.374   4.277
15039SOL    HW245076   5.327   4.431   4.151
15040SOL     OW45077   4.056   5.255   5.019
15040SOL    HW145078   4.043   5.216   4.932
15040SOL    HW245079   4.151   5.269   5.025
15041SOL     OW45080   5.368   4.489   5.425
15041SOL    HW145081   5.295   4.438   5.391
15041SOL    HW245082   5.403   4.536   5.350
15042SOL     OW45083   4.250   4.641   4.731
15042SOL    HW145084   4.324   4.589   4.699
15042SOL    HW245085   4.275   4.732   4.712
15043SOL     OW45086   4.916   4.249   3.981
15043SOL    HW145087   4.924   4.173   4.039
15043SOL    HW245088   4.878   4.317   4.037
15044SOL     OW45089   3.958   3.927   4.960
15044SOL    HW145090   3.961   3.952   5.053
15044SOL    HW245091   3.979   3.834   4.960
15045SOL     OW45092   3.773   5.035   4.979
15045SOL    HW145093   3.793   4.971   5.048
15045SOL    HW245094   3.772   5.119   5.024
15046SOL     OW45095   5.482   4.674   5.599
15046SOL    HW145096   5.441   4.608   5.541
15046SOL    HW245097   5.417   4.689   5.667
15047SOL     OW45098   4.043   3.788   4.361
15047SOL    HW145099   4.012   3.876   4.382
15047SOL    HW245100   4.049   3.744   4.445
15048SOL     OW45101   5.359   4.115   4.065
15048SOL    HW145102   5.386   4.051   4.130
15048SOL    HW245103   5.329   4.191   4.116
15049SOL     OW45104   4.709   5.281   5.426
15049SOL    HW145105   4.676   5.340   5.358
15049SOL    HW245106   4.640   5.215   5.435
15050SOL     OW45107   4.065   4.607   5.536
15050SOL    HW145108   4.151   4.633   5.572
15050SOL    HW245109   4.086   4.546   5.465
15051SOL     OW45110   5.255   3.987   3.841
15051SOL    HW145111   5.199   3.921   3.880
15051SOL    HW245112   5.292   4.035   3.916
15052SOL     OW45113   4.998   4.545   3.741
15052SOL    HW145114   5.038   4.459   3.751
15052SOL    HW245115   5.037   4.581   3.662
15053SOL     OW45116   4.767   5.047   4.535
15053SOL    HW145117   4.770   4.959   4.496
15053SOL    HW245118   4.846   5.090   4.502
15054SOL     OW45119   3.994   4.569   4.711
15054SOL    HW145120   4.086   4.592   4.716
15054SOL    HW245121   3.990   4.478   4.742
15055SOL     OW45122   3.738   5.031   3.905
15055SOL    HW145123   3.650   5.054   3.878
15055SOL    HW245124   3.730   4.943   3.940
15056SOL     OW45125   3.814   5.491   4.674
15056SOL    HW145126   3.785   5.412   4.629
15056SOL    HW245127   3.901   5.508   4.639
15057SOL     OW45128   4.228   5.315   4.626
15057SOL    HW145129   4.304   5.360   4.662
15057SOL    HW245130   4.265   5.249   4.568
15058SOL     OW45131   3.769   4.264   4.834
15058SOL    HW145132   3.822   4.202   4.784
15058SOL    HW245133   3.811   4.267   4.920
15059SOL     OW45134   3.938   4.306   5.443
15059SOL    HW145135   4.025   4.337   5.420
15059SOL    HW245136   3.879   4.351   5.383
15060SOL     OW45137   4.560   4.283   4.065
15060SOL    HW145138   4.547   4.207   4.009
15060SOL    HW245139   4.478   4.332   4.060
15061SOL     OW45140   5.364   4.288   4.936
15061SOL    HW145141   5.376   4.225   5.008
15061SOL    HW245142   5.441   4.278   4.882
15062SOL     OW45143   3.949   5.272   5.444
15062SOL    HW145144   3.929   5.322   5.523
15062SOL    HW245145   3.955   5.181   5.474
15063SOL     OW45146   4.581   5.465   5.262
15063SOL    HW145147   4.496   5.458   5.217
15063SOL    HW245148   4.622   5.543   5.225
15064SOL     OW45149   4.163   4.203   3.882
15064SOL    HW145150   4.228   4.269   3.907
15064SOL    HW245151   4.079   4.248   3.888
15065SOL     OW45152   3.840   4.862   5.197
15065SOL    HW145153   3.853   4.822   5.283
15065SOL    HW245154   3.857   4.792   5.134
15066SOL     OW45155   5.056   4.571   4.016
15066SOL    HW145156   4.983   4.555   4.075
15066SOL    HW245157   5.019   4.561   3.928
15067SOL     OW45158   3.790   5.023   4.706
15067SOL    HW145159   3.778   5.025   4.801
15067SOL    HW245160   3.741   4.946   4.678
15068SOL     OW45161   4.418   5.443   5.494
15068SOL    HW145162   4.352   5.509   5.475
15068SOL    HW245163   4.484   5.455   5.426
15069SOL     OW45164   5.458   3.902   4.219
15069SOL    HW145165   5.521   3.884   4.149
15069SOL    HW245166   5.437   3.816   4.256
15070SOL     OW45167   5.090   5.304   4.153
15070SOL    HW145168   5.160   5.342   4.100
15070SOL    HW245169   5.060   5.376   4.208
15071SOL     OW45170   3.856   5.533   5.569
15071SOL    HW145171   3.815   5.457   5.610
15071SOL    HW245172   3.907   5.574   5.639
15072SOL     OW45173   5.003   4.647   4.366
15072SOL    HW145174   5.074   4.586   4.348
15072SOL    HW245175   5.029   4.727   4.319
15073SOL     OW45176   4.392   5.361   3.887
15073SOL    HW145177   4.407   5.375   3.793
15073SOL    HW245178   4.340   5.280   3.891
15074SOL     OW45179   5.563   3.890   4.691
15074SOL    HW145180   5.585   3.801   4.663
15074SOL    HW245181   5.474   3.904   4.658
15075SOL     OW45182   3.964   4.037   4.444
15075SOL    HW145183   3.879   4.070   4.416
15075SOL    HW245184   3.967   4.053   4.538
15076SOL     OW45185   4.931   5.311   3.758
15076SOL    HW145186   4.920   5.220   3.787
15076SOL    HW245187   4.859   5.324   3.696
15077SOL     OW45188   4.631   4.627   4.004
15077SOL    HW145189   4.694   4.667   3.944
15077SOL    HW245190   4.683   4.566   4.056
15078SOL     OW45191   5.212   5.346   3.760
15078SOL    HW145192   5.117   5.338   3.749
15078SOL    HW245193   5.246   5.356   3.671
15079SOL     OW45194   4.070   5.028   5.190
15079SOL    HW145195   4.054   5.102   5.132
15079SOL    HW245196   3.992   4.973   5.180
15080SOL     OW45197   4.776   4.785   4.466
15080SOL    HW145198   4.715   4.715   4.487
15080SOL    HW245199   4.854   4.741   4.434
15081SOL     OW45200   4.348   5.221   4.201
15081SOL    HW145201   4.400   5.165   4.142
15081SOL    HW245202   4.262   5.225   4.160
15082SOL     OW45203   5.477   4.095   5.117
15082SOL    HW145204   5.549   4.158   5.113
15082SOL    HW245205   5.504   4.024   5.058
15083SOL     OW45206   3.991   5.068   4.008
15083SOL    HW145207   3.900   5.060   3.981
15083SOL    HW245208   3.987   5.114   4.092
15084SOL     OW45209   3.850   4.768   5.462
15084SOL    HW145210   3.771   4.737   5.507
15084SOL    HW245211   3.918   4.706   5.486
15085SOL     OW45212   3.811   4.040   3.736
15085SOL    HW145213   3.732   4.021   3.684
15085SOL    HW245214   3.841   4.125   3.703
15086SOL     OW45215   3.770   3.872   3.996
15086SOL    HW145216   3.758   3.943   3.933
15086SOL    HW245217   3.859   3.840   3.981
15087SOL     OW45218   4.902   5.040   3.835
15087SOL    HW145219   4.818   4.994   3.837
15087SOL    HW245220   4.928   5.048   3.927
15088SOL     OW45221   5.129   5.473   4.727
15088SOL    HW145222   5.130   5.513   4.640
15088SOL    HW245223   5.173   5.537   4.783
15089SOL     OW45224   4.458   4.259   5.471
15089SOL    HW145225   4.391   4.328   5.464
15089SOL    HW245226   4.524   4.297   5.529
15090SOL     OW45227   4.087   5.468   5.297
15090SOL    HW145228   4.006   5.514   5.277
15090SOL    HW245229   4.059   5.385   5.336
15091SOL     OW45230   5.495   4.562   4.972
15091SOL    HW145231   5.462   4.476   4.948
15091SOL    HW245232   5.422   4.622   4.955
15092SOL     OW45233   4.934   4.048   4.176
15092SOL    HW145234   4.995   3.975   4.182
15092SOL    HW245235   4.958   4.105   4.249
15093SOL     OW45236   4.389   4.427   4.305
15093SOL    HW145237   4.409   4.511   4.345
15093SOL    HW245238   4.296   4.431   4.285
15094SOL     OW45239   5.474   4.070   5.392
15094SOL    HW145240   5.472   4.087   5.298
15094SOL    HW245241   5.391   4.028   5.412
15095SOL     OW45242   5.497   4.642   5.237
15095SOL    HW145243   5.486   4.737   5.243
15095SOL    HW245244   5.499   4.624   5.143
15096SOL     OW45245   4.574   5.080   3.785
15096SOL    HW145246   4.550   5.089   3.877
15096SOL    HW245247   4.594   5.170   3.757
15097SOL     OW45248   4.439   5.506   4.673
15097SOL    HW145249   4.393   5.587   4.651
15097SOL    HW245250   4.479   5.477   4.591
15098SOL     OW45251   4.801   4.719   3.814
15098SOL    HW145252   4.777   4.767   3.734
15098SOL    HW245253   4.871   4.660   3.786
15099SOL     OW45254   3.922   5.017   5.546
15099SOL    HW145255   3.900   4.932   5.509
15099SOL    HW245256   3.867   5.025   5.623
15100SOL     OW45257   3.845   4.952   4.384
15100SOL    HW145258   3.878   4.912   4.464
15100SOL    HW245259   3.900   4.916   4.315
15101SOL     OW45260   4.417   5.176   5.411
15101SOL    HW145261   4.334   5.128   5.411
15101SOL    HW245262   4.394   5.264   5.440
15102SOL     OW45263   5.542   3.884   4.964
15102SOL    HW145264   5.537   3.788   4.968
15102SOL    HW245265   5.551   3.903   4.870
15103SOL     OW45266   4.126   4.151   4.240
15103SOL    HW145267   4.170   4.082   4.190
15103SOL    HW245268   4.081   4.104   4.311
15104SOL     OW45269   4.524   5.367   4.432
15104SOL    HW145270   4.487   5.365   4.344
15104SOL    HW245271   4.502   5.281   4.468
15105SOL     OW45272   5.114   3.970   4.831
15105SOL    HW145273   5.068   3.919   4.898
15105SOL    HW245274   5.102   4.061   4.858
15106SOL     OW45275   4.688   3.624   4.921
15106SOL    HW145276   4.655   3.595   4.836
15106SOL    HW245277   4.782   3.635   4.907
15107SOL     OW45278   4.507   5.048   4.054
15107SOL    HW145279   4.483   4.957   4.074
15107SOL    HW245280   4.585   5.064   4.107
15108SOL     OW45281   4.319   5.307   4.986
15108SOL    HW145282   4.338   5.382   5.042
15108SOL    HW245283   4.385   5.311   4.917
15109SOL     OW45284   5.103   3.765   3.917
15109SOL    HW145285   5.143   3.691   3.871
15109SOL    HW245286   5.011   3.741   3.927
15110SOL     OW45287   5.006   4.209   4.386
15110SOL    HW145288   4.947   4.284   4.398
15110SOL    HW245289   4.994   4.156   4.465
15111SOL     OW45290   5.298   3.929   4.627
15111SOL    HW145291   5.237   3.949   4.698
15111SOL    HW245292   5.292   4.004   4.568
15112SOL     OW45293   3.758   4.773   4.024
15112SOL    HW145294   3.852   4.761   4.008
15112SOL    HW245295   3.726   4.685   4.044
15113SOL     OW45296   4.621   5.394   4.063
15113SOL    HW145297   4.543   5.378   4.009
15113SOL    HW245298   4.598   5.471   4.115
15114SOL     OW45299   3.943   4.339   5.727
15114SOL    HW145300   3.852   4.330   5.754
15114SOL    HW245301   3.939   4.346   5.632
15115SOL     OW45302   3.939   4.014   6.581
15115SOL    HW145303   3.971   3.978   6.664
15115SOL    HW245304   3.852   3.976   6.570
15116SOL     OW45305   3.709   4.115   6.234
15116SOL    HW145306   3.630   4.143   6.281
15116SOL    HW245307   3.681   4.042   6.180
15117SOL     OW45308   4.299   5.032   6.795
15117SOL    HW145309   4.217   5.035   6.746
15117SOL    HW245310   4.316   5.123   6.819
15118SOL     OW45311   5.314   5.246   6.295
15118SOL    HW145312   5.267   5.215   6.371
15118SOL    HW245313   5.248   5.254   6.226
15119SOL     OW45314   4.855   4.425   6.274
15119SOL    HW145315   4.903   4.507   6.261
15119SOL    HW245316   4.808   4.437   6.357
15120SOL     OW45317   5.526   4.302   5.824
15120SOL    HW145318   5.500   4.300   5.732
15120SOL    HW245319   5.477   4.230   5.864
15121SOL     OW45320   4.452   4.855   6.645
15121SOL    HW145321   4.394   4.896   6.709
15121SOL    HW245322   4.493   4.928   6.599
15122SOL     OW45323   4.611   4.466   7.413
15122SOL    HW145324   4.604   4.534   7.480
15122SOL    HW245325   4.628   4.514   7.332
15123SOL     OW45326   4.420   4.705   6.231
15123SOL    HW145327   4.482   4.707   6.304
15123SOL    HW245328   4.350   4.766   6.258
15124SOL     OW45329   4.437   4.875   7.420
15124SOL    HW145330   4.489   4.947   7.455
15124SOL    HW245331   4.361   4.917   7.379
15125SOL     OW45332   4.066   5.121   6.655
15125SOL    HW145333   3.991   5.078   6.615
15125SOL    HW245334   4.103   5.176   6.586
15126SOL     OW45335   5.178   5.229   6.959
15126SOL    HW145336   5.233   5.307   6.971
15126SOL    HW245337   5.106   5.241   7.021
15127SOL     OW45338   4.183   4.099   7.042
15127SOL    HW145339   4.257   4.040   7.057
15127SOL    HW245340   4.106   4.048   7.068
15128SOL     OW45341   5.310   4.156   6.341
15128SOL    HW145342   5.249   4.171   6.268
15128SOL    HW245343   5.290   4.226   6.403
15129SOL     OW45344   3.940   5.453   6.052
15129SOL    HW145345   3.967   5.523   6.111
15129SOL    HW245346   4.014   5.442   5.993
15130SOL     OW45347   4.859   5.065   7.282
15130SOL    HW145348   4.905   5.054   7.366
15130SOL    HW245349   4.806   4.986   7.273
15131SOL     OW45350   3.950   5.182   6.117
15131SOL    HW145351   3.932   5.276   6.120
15131SOL    HW245352   3.901   5.146   6.192
15132SOL     OW45353   4.007   4.814   6.461
15132SOL    HW145354   4.009   4.725   6.496
15132SOL    HW245355   3.952   4.862   6.522
15133SOL     OW45356   4.298   5.527   7.007
15133SOL    HW145357   4.221   5.508   7.062
15133SOL    HW245358   4.330   5.611   7.041
15134SOL     OW45359   4.283   4.719   5.774
15134SOL    HW145360   4.302   4.786   5.708
15134SOL    HW245361   4.341   4.740   5.847
15135SOL     OW45362   5.316   3.856   7.047
15135SOL    HW145363   5.356   3.932   7.004
15135SOL    HW245364   5.284   3.890   7.130
15136SOL     OW45365   3.839   4.382   6.154
15136SOL    HW145366   3.811   4.294   6.177
15136SOL    HW245367   3.835   4.431   6.236
15137SOL     OW45368   5.569   5.483   5.923
15137SOL    HW145369   5.646   5.468   5.977
15137SOL    HW245370   5.579   5.573   5.891
15138SOL     OW45371   3.781   5.308   5.697
15138SOL    HW145372   3.764   5.215   5.716
15138SOL    HW245373   3.749   5.354   5.775
15139SOL     OW45374   5.422   4.648   6.242
15139SOL    HW145375   5.503   4.603   6.215
15139SOL    HW245376   5.399   4.702   6.166
15140SOL     OW45377   5.379   4.821   6.024
15140SOL    HW145378   5.462   4.815   5.976
15140SOL    HW245379   5.394   4.889   6.090
15141SOL     OW45380   3.844   4.474   7.164
15141SOL    HW145381   3.928   4.518   7.166
15141SOL    HW245382   3.780   4.544   7.149
15142SOL     OW45383   4.341   5.117   6.321
15142SOL    HW145384   4.302   5.029   6.323
15142SOL    HW245385   4.328   5.147   6.231
15143SOL     OW45386   4.994   4.949   7.003
15143SOL    HW145387   5.021   4.880   6.943
15143SOL    HW245388   5.057   4.944   7.075
15144SOL     OW45389   4.553   3.732   6.115
15144SOL    HW145390   4.590   3.815   6.084
15144SOL    HW245391   4.458   3.748   6.117
15145SOL     OW45392   3.910   4.680   6.888
15145SOL    HW145393   3.998   4.645   6.872
15145SOL    HW245394   3.858   4.649   6.814
15146SOL     OW45395   5.267   4.709   5.790
15146SOL    HW145396   5.189   4.655   5.806
15146SOL    HW245397   5.296   4.735   5.878
15147SOL     OW45398   4.902   5.545   7.222
15147SOL    HW145399   4.904   5.607   7.149
15147SOL    HW245400   4.920   5.460   7.181
15148SOL     OW45401   4.083   3.977   7.462
15148SOL    HW145402   4.119   4.057   7.500
15148SOL    HW245403   3.989   3.992   7.458
15149SOL     OW45404   5.194   5.143   6.518
15149SOL    HW145405   5.131   5.161   6.587
15149SOL    HW245406   5.178   5.052   6.493
15150SOL     OW45407   5.360   5.518   6.159
15150SOL    HW145408   5.353   5.467   6.079
15150SOL    HW245409   5.359   5.454   6.229
15151SOL     OW45410   4.316   4.450   5.875
15151SOL    HW145411   4.306   4.533   5.828
15151SOL    HW245412   4.247   4.453   5.941
15152SOL     OW45413   5.007   4.118   6.529
15152SOL    HW145414   4.918   4.082   6.533
15152SOL    HW245415   5.059   4.059   6.584
15153SOL     OW45416   5.324   5.367   5.926
15153SOL    HW145417   5.408   5.411   5.913
15153SOL    HW245418   5.326   5.293   5.866
15154SOL     OW45419   4.515   4.337   7.017
15154SOL    HW145420   4.491   4.308   7.105
15154SOL    HW245421   4.489   4.264   6.960
15155SOL     OW45422   5.115   4.201   7.259
15155SOL    HW145423   5.120   4.245   7.344
15155SOL    HW245424   5.165   4.121   7.270
15156SOL     OW45425   4.668   4.605   7.178
15156SOL    HW145426   4.724   4.542   7.134
15156SOL    HW245427   4.619   4.648   7.108
15157SOL     OW45428   4.731   4.120   6.796
15157SOL    HW145429   4.639   4.135   6.818
15157SOL    HW245430   4.729   4.079   6.710
15158SOL     OW45431   4.769   4.410   6.009
15158SOL    HW145432   4.791   4.410   6.102
15158SOL    HW245433   4.683   4.368   6.004
15159SOL     OW45434   3.816   4.543   6.373
15159SOL    HW145435   3.899   4.541   6.421
15159SOL    HW245436   3.768   4.616   6.412
15160SOL     OW45437   3.833   5.603   7.173
15160SOL    HW145438   3.840   5.583   7.267
15160SOL    HW245439   3.748   5.568   7.147
15161SOL     OW45440   4.617   4.065   5.781
15161SOL    HW145441   4.636   4.144   5.732
15161SOL    HW245442   4.674   3.998   5.742
15162SOL     OW45443   5.409   4.287   7.427
15162SOL    HW145444   5.388   4.365   7.375
15162SOL    HW245445   5.438   4.222   7.363
15163SOL     OW45446   5.124   4.863   6.145
15163SOL    HW145447   5.200   4.858   6.087
15163SOL    HW245448   5.070   4.932   6.107
15164SOL     OW45449   4.274   3.885   6.501
15164SOL    HW145450   4.280   3.915   6.592
15164SOL    HW245451   4.269   3.966   6.450
15165SOL     OW45452   4.720   5.179   6.054
15165SOL    HW145453   4.697   5.251   5.996
15165SOL    HW245454   4.690   5.207   6.141
15166SOL     OW45455   4.077   5.539   6.469
15166SOL    HW145456   4.123   5.455   6.472
15166SOL    HW245457   4.145   5.604   6.488
15167SOL     OW45458   5.528   4.764   6.479
15167SOL    HW145459   5.482   4.751   6.396
15167SOL    HW245460   5.459   4.774   6.544
15168SOL     OW45461   4.941   5.267   7.103
15168SOL    HW145462   4.930   5.195   7.165
15168SOL    HW245463   4.875   5.250   7.035
15169SOL     OW45464   4.016   4.683   5.840
15169SOL    HW145465   4.106   4.704   5.815
15169SOL    HW245466   3.991   4.610   5.783
15170SOL     OW45467   5.211   4.485   6.299
15170SOL    HW145468   5.213   4.444   6.385
15170SOL    HW245469   5.288   4.541   6.298
15171SOL     OW45470   4.196   5.009   7.335
15171SOL    HW145471   4.172   5.013   7.242
15171SOL    HW245472   4.113   4.996   7.380
15172SOL     OW45473   4.843   5.513   5.814
15172SOL    HW145474   4.767   5.477   5.860
15172SOL    HW245475   4.860   5.451   5.743
15173SOL     OW45476   3.933   3.981   7.085
15173SOL    HW145477   3.861   4.042   7.100
15173SOL    HW245478   3.902   3.897   7.119
15174SOL     OW45479   5.367   5.170   5.738
15174SOL    HW145480   5.377   5.217   5.655
15174SOL    HW245481   5.314   5.094   5.716
15175SOL     OW45482   4.181   5.469   5.907
15175SOL    HW145483   4.230   5.520   5.971
15175SOL    HW245484   4.248   5.426   5.853
15176SOL     OW45485   5.121   3.830   6.048
15176SOL    HW145486   5.121   3.806   5.955
15176SOL    HW245487   5.213   3.824   6.074
15177SOL     OW45488   3.976   5.512   6.800
15177SOL    HW145489   4.025   5.437   6.834
15177SOL    HW245490   3.964   5.492   6.708
15178SOL     OW45491   4.672   5.425   6.475
15178SOL    HW145492   4.758   5.385   6.484
15178SOL    HW245493   4.630   5.377   6.404
15179SOL     OW45494   4.121   4.418   6.069
15179SOL    HW145495   4.132   4.325   6.089
15179SOL    HW245496   4.027   4.433   6.074
15180SOL     OW45497   5.230   3.947   7.303
15180SOL    HW145498   5.243   3.965   7.396
15180SOL    HW245499   5.163   3.879   7.301
15181SOL     OW45500   4.321   3.884   5.708
15181SOL    HW145501   4.385   3.955   5.704
15181SOL    HW245502   4.250   3.912   5.651
15182SOL     OW45503   4.483   3.997   7.338
15182SOL    HW145504   4.567   3.952   7.337
15182SOL    HW245505   4.436   3.958   7.412
15183SOL     OW45506   4.592   5.250   6.785
15183SOL    HW145507   4.575   5.210   6.700
15183SOL    HW245508   4.661   5.195   6.824
15184SOL     OW45509   5.053   4.315   7.018
15184SOL    HW145510   5.086   4.286   7.103
15184SOL    HW245511   5.091   4.402   7.006
15185SOL     OW45512   4.540   5.100   6.540
15185SOL    HW145513   4.627   5.095   6.501
15185SOL    HW245514   4.481   5.116   6.467
15186SOL     OW45515   4.655   4.238   6.476
15186SOL    HW145516   4.628   4.227   6.385
15186SOL    HW245517   4.683   4.151   6.504
15187SOL     OW45518   4.284   3.784   6.099
15187SOL    HW145519   4.205   3.776   6.153
15187SOL    HW245520   4.272   3.866   6.051
15188SOL     OW45521   5.240   4.949   5.660
15188SOL    HW145522   5.254   4.865   5.703
15188SOL    HW245523   5.167   4.934   5.600
15189SOL     OW45524   4.007   3.776   5.762
15189SOL    HW145525   4.059   3.834   5.706
15189SOL    HW245526   4.073   3.724   5.808
15190SOL     OW45527   4.666   3.973   6.041
15190SOL    HW145528   4.640   4.007   5.955
15190SOL    HW245529   4.760   3.990   6.045
15191SOL     OW45530   4.799   4.418   7.032
15191SOL    HW145531   4.735   4.346   7.035
15191SOL    HW245532   4.884   4.374   7.027
15192SOL     OW45533   4.926   5.315   6.393
15192SOL    HW145534   4.941   5.375   6.320
15192SOL    HW245535   5.004   5.324   6.448
15193SOL     OW45536   4.208   4.876   6.289
15193SOL    HW145537   4.144   4.855   6.358
15193SOL    HW245538   4.158   4.871   6.208
15194SOL     OW45539   4.971   5.521   6.210
15194SOL    HW145540   5.023   5.584   6.159
15194SOL    HW245541   4.900   5.574   6.247
15195SOL     OW45542   4.706   4.288   5.652
15195SOL    HW145543   4.694   4.379   5.624
15195SOL    HW245544   4.792   4.286   5.692
15196SOL     OW45545   3.824   4.274   6.979
15196SOL    HW145546   3.916   4.276   6.952
15196SOL    HW245547   3.816   4.344   7.044
15197SOL     OW45548   4.283   3.946   6.771
15197SOL    HW145549   4.321   3.883   6.832
15197SOL    HW245550   4.190   3.946   6.791
15198SOL     OW45551   4.589   4.178   6.220
15198SOL    HW145552   4.542   4.233   6.156
15198SOL    HW245553   4.612   4.099   6.171
15199SOL     OW45554   4.748   3.781   6.328
15199SOL    HW145555   4.685   3.777   6.256
15199SOL    HW245556   4.723   3.709   6.386
15200SOL     OW45557   5.161   4.879   6.440
15200SOL    HW145558   5.087   4.818   6.448
15200SOL    HW245559   5.178   4.884   6.346
15201SOL     OW45560   5.187   4.339   6.535
15201SOL    HW145561   5.123   4.269   6.546
15201SOL    HW245562   5.243   4.333   6.613
15202SOL     OW45563   5.550   4.520   5.985
15202SOL    HW145564   5.615   4.478   6.042
15202SOL    HW245565   5.537   4.457   5.914
15203SOL     OW45566   4.237   5.146   5.769
15203SOL    HW145567   4.152   5.115   5.801
15203SOL    HW245568   4.275   5.069   5.726
15204SOL     OW45569   5.430   4.992   6.222
15204SOL    HW145570   5.524   4.984   6.242
15204SOL    HW245571   5.408   5.082   6.246
15205SOL     OW45572   5.105   4.302   5.662
15205SOL    HW145573   5.042   4.266   5.724
15205SOL    HW245574   5.186   4.252   5.678
15206SOL     OW45575   4.226   3.995   5.937
15206SOL    HW145576   4.257   3.939   5.866
15206SOL    HW245577   4.205   4.078   5.894
15207SOL     OW45578   5.459   4.968   7.120
15207SOL    HW145579   5.547   4.934   7.105
15207SOL    HW245580   5.473   5.056   7.156
15208SOL     OW45581   4.766   5.080   6.921
15208SOL    HW145582   4.689   5.045   6.966
15208SOL    HW245583   4.840   5.033   6.961
15209SOL     OW45584   5.332   5.358   7.258
15209SOL    HW145585   5.321   5.395   7.171
15209SOL    HW245586   5.410   5.303   7.251
15210SOL     OW45587   4.875   4.962   6.691
15210SOL    HW145588   4.812   4.996   6.755
15210SOL    HW245589   4.842   4.993   6.606
15211SOL     OW45590   5.331   4.814   6.663
15211SOL    HW145591   5.323   4.881   6.731
15211SOL    HW245592   5.264   4.836   6.599
15212SOL     OW45593   4.644   3.804   6.969
15212SOL    HW145594   4.665   3.790   6.877
15212SOL    HW245595   4.722   3.846   7.006
15213SOL     OW45596   4.704   4.839   7.311
15213SOL    HW145597   4.613   4.856   7.338
15213SOL    HW245598   4.699   4.759   7.259
15214SOL     OW45599   4.470   4.775   5.968
15214SOL    HW145600   4.453   4.746   6.058
15214SOL    HW245601   4.541   4.719   5.937
15215SOL     OW45602   4.150   4.553   6.846
15215SOL    HW145603   4.219   4.562   6.913
15215SOL    HW245604   4.120   4.463   6.855
15216SOL     OW45605   4.988   4.091   6.879
15216SOL    HW145606   5.016   4.172   6.922
15216SOL    HW245607   4.899   4.109   6.849
15217SOL     OW45608   3.802   5.292   6.948
15217SOL    HW145609   3.771   5.363   6.891
15217SOL    HW245610   3.897   5.293   6.937
15218SOL     OW45611   4.040   4.854   6.068
15218SOL    HW145612   4.041   4.926   6.005
15218SOL    HW245613   4.034   4.775   6.015
15219SOL     OW45614   4.260   4.235   6.450
15219SOL    HW145615   4.271   4.289   6.371
15219SOL    HW245616   4.328   4.266   6.510
15220SOL     OW45617   4.978   5.069   6.043
15220SOL    HW145618   5.027   5.149   6.060
15220SOL    HW245619   4.887   5.096   6.041
15221SOL     OW45620   5.032   5.193   6.730
15221SOL    HW145621   5.080   5.199   6.813
15221SOL    HW245622   4.981   5.112   6.738
15222SOL     OW45623   5.302   4.339   6.078
15222SOL    HW145624   5.254   4.386   6.147
15222SOL    HW245625   5.362   4.405   6.042
15223SOL     OW45626   4.068   5.256   6.888
15223SOL    HW145627   4.061   5.204   6.808
15223SOL    HW245628   4.162   5.273   6.897
15224SOL     OW45629   4.157   4.470   7.204
15224SOL    HW145630   4.215   4.514   7.142
15224SOL    HW245631   4.200   4.387   7.224
15225SOL     OW45632   5.351   4.510   7.284
15225SOL    HW145633   5.264   4.549   7.275
15225SOL    HW245634   5.402   4.548   7.212
15226SOL     OW45635   4.719   3.864   7.345
15226SOL    HW145636   4.778   3.938   7.326
15226SOL    HW245637   4.771   3.787   7.323
15227SOL     OW45638   4.218   3.758   7.349
15227SOL    HW145639   4.163   3.709   7.288
15227SOL    HW245640   4.166   3.836   7.371
15228SOL     OW45641   4.317   4.600   6.626
15228SOL    HW145642   4.354   4.688   6.629
15228SOL    HW245643   4.258   4.597   6.702
15229SOL     OW45644   5.032   4.575   6.592
15229SOL    HW145645   4.944   4.547   6.566
15229SOL    HW245646   5.087   4.499   6.572
15230SOL     OW45647   4.914   4.240   5.851
15230SOL    HW145648   4.928   4.163   5.907
15230SOL    HW245649   4.864   4.300   5.906
15231SOL     OW45650   4.016   3.916   6.827
15231SOL    HW145651   3.982   3.945   6.911
15231SOL    HW245652   3.999   3.822   6.824
15232SOL     OW45653   3.772   5.035   6.852
15232SOL    HW145654   3.803   4.979   6.924
15232SOL    HW245655   3.776   5.124   6.887
15233SOL     OW45656   4.437   4.348   6.626
15233SOL    HW145657   4.513   4.341   6.570
15233SOL    HW245658   4.407   4.438   6.616
15234SOL     OW45659   5.476   4.690   7.457
15234SOL    HW145660   5.436   4.619   7.407
15234SOL    HW245661   5.411   4.712   7.524
15235SOL     OW45662   4.039   3.776   6.225
15235SOL    HW145663   4.009   3.866   6.239
15235SOL    HW245664   4.045   3.739   6.313
15236SOL     OW45665   5.348   4.110   5.936
15236SOL    HW145666   5.384   4.046   5.998
15236SOL    HW245667   5.321   4.184   5.991
15237SOL     OW45668   4.759   4.480   6.545
15237SOL    HW145669   4.737   4.496   6.636
15237SOL    HW245670   4.729   4.391   6.527
15238SOL     OW45671   4.704   5.288   7.321
15238SOL    HW145672   4.682   5.333   7.239
15238SOL    HW245673   4.744   5.206   7.294
15239SOL     OW45674   5.563   5.219   7.188
15239SOL    HW145675   5.589   5.247   7.100
15239SOL    HW245676   5.642   5.230   7.241
15240SOL     OW45677   4.073   4.641   7.403
15240SOL    HW145678   4.150   4.660   7.456
15240SOL    HW245679   4.104   4.579   7.337
15241SOL     OW45680   5.232   4.001   5.710
15241SOL    HW145681   5.186   3.925   5.745
15241SOL    HW245682   5.277   4.039   5.786
15242SOL     OW45683   4.794   5.075   6.451
15242SOL    HW145684   4.806   5.003   6.389
15242SOL    HW245685   4.845   5.147   6.413
15243SOL     OW45686   4.043   4.541   6.531
15243SOL    HW145687   4.138   4.555   6.528
15243SOL    HW245688   4.034   4.451   6.562
15244SOL     OW45689   4.037   4.262   6.599
15244SOL    HW145690   3.997   4.176   6.589
15244SOL    HW245691   4.115   4.259   6.543
15245SOL     OW45692   4.862   4.091   7.273
15245SOL    HW145693   4.817   4.143   7.339
15245SOL    HW245694   4.947   4.134   7.263
15246SOL     OW45695   4.880   3.913   7.061
15246SOL    HW145696   4.869   3.975   7.133
15246SOL    HW245697   4.926   3.963   6.993
15247SOL     OW45698   3.747   5.030   5.766
15247SOL    HW145699   3.657   5.052   5.742
15247SOL    HW245700   3.740   4.943   5.805
15248SOL     OW45701   3.816   5.494   6.537
15248SOL    HW145702   3.783   5.421   6.486
15248SOL    HW245703   3.903   5.511   6.501
15249SOL     OW45704   4.209   5.294   6.489
15249SOL    HW145705   4.280   5.354   6.511
15249SOL    HW245706   4.249   5.231   6.428
15250SOL     OW45707   4.673   4.505   6.801
15250SOL    HW145708   4.734   4.494   6.874
15250SOL    HW245709   4.594   4.460   6.830
15251SOL     OW45710   3.762   4.293   6.708
15251SOL    HW145711   3.843   4.292   6.657
15251SOL    HW245712   3.792   4.287   6.799
15252SOL     OW45713   3.911   4.263   7.329
15252SOL    HW145714   3.983   4.231   7.275
15252SOL    HW245715   3.875   4.337   7.280
15253SOL     OW45716   5.116   4.645   7.237
15253SOL    HW145717   5.133   4.739   7.232
15253SOL    HW245718   5.108   4.617   7.146
15254SOL     OW45719   4.527   4.293   5.964
15254SOL    HW145720   4.525   4.221   5.901
15254SOL    HW245721   4.455   4.350   5.936
15255SOL     OW45722   5.359   4.325   6.750
15255SOL    HW145723   5.349   4.266   6.825
15255SOL    HW245724   5.450   4.313   6.722
15256SOL     OW45725   3.950   5.264   7.309
15256SOL    HW145726   3.926   5.313   7.388
15256SOL    HW245727   3.962   5.174   7.339
15257SOL     OW45728   4.457   4.158   6.820
15257SOL    HW145729   4.393   4.089   6.804
15257SOL    HW245730   4.440   4.222   6.751
15258SOL     OW45731   4.626   5.404   7.077
15258SOL    HW145732   4.606   5.355   6.997
15258SOL    HW245733   4.630   5.496   7.049
15259SOL     OW45734   4.183   4.219   5.795
15259SOL    HW145735   4.237   4.296   5.808
15259SOL    HW245736   4.097   4.254   5.770
15260SOL     OW45737   3.854   4.874   7.067
15260SOL    HW145738   3.858   4.835   7.154
15260SOL    HW245739   3.875   4.803   7.007
15261SOL     OW45740   5.026   4.758   6.795
15261SOL    HW145741   5.036   4.694   6.725
15261SOL    HW245742   4.974   4.828   6.757
15262SOL     OW45743   5.043   4.546   5.837
15262SOL    HW145744   4.994   4.503   5.907
15262SOL    HW245745   5.061   4.475   5.774
15263SOL     OW45746   5.513   5.447   6.759
15263SOL    HW145747   5.573   5.474   6.689
15263SOL    HW245748   5.479   5.362   6.730
15264SOL     OW45749   4.967   5.461   6.685
15264SOL    HW145750   5.050   5.489   6.647
15264SOL    HW245751   4.980   5.369   6.706
15265SOL     OW45752   3.830   4.971   6.595
15265SOL    HW145753   3.801   4.992   6.683
15265SOL    HW245754   3.759   4.917   6.559
15266SOL     OW45755   4.411   5.408   7.334
15266SOL    HW145756   4.347   5.478   7.322
15266SOL    HW245757   4.483   5.430   7.274
15267SOL     OW45758   5.468   3.906   6.084
15267SOL    HW145759   5.526   3.887   6.010
15267SOL    HW245760   5.443   3.820   6.118
15268SOL     OW45761   5.120   5.301   6.104
15268SOL    HW145762   5.176   5.330   6.032
15268SOL    HW245763   5.066   5.377   6.124
15269SOL     OW45764   3.856   5.531   7.430
15269SOL    HW145765   3.817   5.454   7.471
15269SOL    HW245766   3.907   5.572   7.500
15270SOL     OW45767   5.000   4.651   6.251
15270SOL    HW145768   5.074   4.593   6.267
15270SOL    HW245769   5.039   4.726   6.205
15271SOL     OW45770   4.508   5.004   7.002
15271SOL    HW145771   4.482   5.052   7.081
15271SOL    HW245772   4.434   5.016   6.942
15272SOL     OW45773   4.392   5.365   5.754
15272SOL    HW145774   4.401   5.387   5.661
15272SOL    HW245775   4.342   5.284   5.756
15273SOL     OW45776   5.340   5.453   6.989
15273SOL    HW145777   5.397   5.453   6.912
15273SOL    HW245778   5.324   5.545   7.007
15274SOL     OW45779   5.568   3.884   6.551
15274SOL    HW145780   5.597   3.796   6.529
15274SOL    HW245781   5.481   3.892   6.512
15275SOL     OW45782   3.962   4.026   6.303
15275SOL    HW145783   3.876   4.062   6.279
15275SOL    HW245784   3.964   4.029   6.399
15276SOL     OW45785   4.892   5.333   5.621
15276SOL    HW145786   4.922   5.245   5.643
15276SOL    HW245787   4.831   5.320   5.548
15277SOL     OW45788   4.547   4.736   6.970
15277SOL    HW145789   4.583   4.727   6.882
15277SOL    HW245790   4.536   4.830   6.983
15278SOL     OW45791   4.686   4.630   5.862
15278SOL    HW145792   4.764   4.685   5.863
15278SOL    HW245793   4.710   4.552   5.912
15279SOL     OW45794   4.086   5.037   7.088
15279SOL    HW145795   4.080   5.110   7.026
15279SOL    HW245796   4.009   4.984   7.071
15280SOL     OW45797   5.322   5.014   6.861
15280SOL    HW145798   5.378   4.990   6.935
15280SOL    HW245799   5.263   5.081   6.897
15281SOL     OW45800   4.802   4.839   6.317
15281SOL    HW145801   4.727   4.790   6.351
15281SOL    HW245802   4.863   4.771   6.287
15282SOL     OW45803   4.759   3.974   6.547
15282SOL    HW145804   4.758   3.931   6.461
15282SOL    HW245805   4.751   3.902   6.610
15283SOL     OW45806   4.330   5.208   6.067
15283SOL    HW145807   4.385   5.156   6.009
15283SOL    HW245808   4.251   5.225   6.016
15284SOL     OW45809   5.471   4.104   6.977
15284SOL    HW145810   5.541   4.169   6.972
15284SOL    HW245811   5.497   4.036   6.915
15285SOL     OW45812   4.002   5.061   5.886
15285SOL    HW145813   3.917   5.056   5.843
15285SOL    HW245814   3.985   5.110   5.966
15286SOL     OW45815   3.845   4.771   7.322
15286SOL    HW145816   3.768   4.742   7.371
15286SOL    HW245817   3.917   4.719   7.359
15287SOL     OW45818   4.403   3.911   7.081
15287SOL    HW145819   4.487   3.886   7.042
15287SOL    HW245820   4.426   3.946   7.167
15288SOL     OW45821   3.858   4.062   5.540
15288SOL    HW145822   3.769   4.060   5.504
15288SOL    HW245823   3.890   4.151   5.521
15289SOL     OW45824   5.138   4.577   6.974
15289SOL    HW145825   5.086   4.636   6.919
15289SOL    HW245826   5.226   4.582   6.936
15290SOL     OW45827   3.772   3.870   5.869
15290SOL    HW145828   3.757   3.950   5.819
15290SOL    HW245829   3.859   3.841   5.842
15291SOL     OW45830   4.350   4.555   7.028
15291SOL    HW145831   4.409   4.630   7.016
15291SOL    HW245832   4.408   4.479   7.027
15292SOL     OW45833   5.210   5.528   6.577
15292SOL    HW145834   5.236   5.602   6.523
15292SOL    HW245835   5.292   5.481   6.594
15293SOL     OW45836   4.448   4.272   7.272
15293SOL    HW145837   4.495   4.326   7.336
15293SOL    HW245838   4.459   4.182   7.304
15294SOL     OW45839   5.193   4.908   7.205
15294SOL    HW145840   5.186   4.931   7.298
15294SOL    HW245841   5.282   4.932   7.181
15295SOL     OW45842   4.078   5.471   7.166
15295SOL    HW145843   3.996   5.517   7.148
15295SOL    HW245844   4.051   5.388   7.203
15296SOL     OW45845   5.378   4.599   6.839
15296SOL    HW145846   5.377   4.516   6.792
15296SOL    HW245847   5.366   4.665   6.771
15297SOL     OW45848   4.937   4.040   6.047
15297SOL    HW145849   4.999   3.967   6.045
15297SOL    HW245850   4.964   4.093   6.121
15298SOL     OW45851   4.309   4.448   6.272
15298SOL    HW145852   4.353   4.532   6.256
15298SOL    HW245853   4.244   4.442   6.202
15299SOL     OW45854   5.471   4.078   7.253
15299SOL    HW145855   5.469   4.094   7.158
15299SOL    HW245856   5.393   4.026   7.270
15300SOL     OW45857   5.484   4.648   7.090
15300SOL    HW145858   5.468   4.742   7.102
15300SOL    HW245859   5.457   4.631   6.999
15301SOL     OW45860   4.588   5.121   5.678
15301SOL    HW145861   4.553   5.097   5.764
15301SOL    HW245862   4.569   5.214   5.670
15302SOL     OW45863   4.393   5.490   6.515
15302SOL    HW145864   4.374   5.583   6.505
15302SOL    HW245865   4.488   5.484   6.512
15303SOL     OW45866   4.599   4.700   6.447
15303SOL    HW145867   4.648   4.627   6.483
15303SOL    HW245868   4.553   4.738   6.522
15304SOL     OW45869   5.556   5.282   6.427
15304SOL    HW145870   5.480   5.272   6.369
15304SOL    HW245871   5.533   5.230   6.504
15305SOL     OW45872   3.935   5.010   7.422
15305SOL    HW145873   3.904   4.930   7.379
15305SOL    HW245874   3.876   5.022   7.496
15306SOL     OW45875   3.838   4.944   6.252
15306SOL    HW145876   3.873   4.903   6.330
15306SOL    HW245877   3.896   4.914   6.181
15307SOL     OW45878   4.415   5.142   7.221
15307SOL    HW145879   4.337   5.104   7.262
15307SOL    HW245880   4.420   5.231   7.256
15308SOL     OW45881   5.534   3.893   6.821
15308SOL    HW145882   5.537   3.798   6.833
15308SOL    HW245883   5.548   3.907   6.727
15309SOL     OW45884   4.144   4.161   6.143
15309SOL    HW145885   4.173   4.095   6.080
15309SOL    HW245886   4.086   4.113   6.202
15310SOL     OW45887   5.418   5.205   6.668
15310SOL    HW145888   5.340   5.187   6.616
15310SOL    HW245889   5.419   5.137   6.735
15311SOL     OW45890   4.076   4.291   6.878
15311SOL    HW145891   4.126   4.225   6.927
15311SOL    HW245892   4.083   4.262   6.787
15312SOL     OW45893   4.560   5.316   6.252
15312SOL    HW145894   4.540   5.391   6.196
15312SOL    HW245895   4.482   5.260   6.246
15313SOL     OW45896   5.147   3.958   6.702
15313SOL    HW145897   5.157   3.869   6.736
15313SOL    HW245898   5.100   4.004   6.772
15314SOL     OW45899   4.735   3.742   6.706
15314SOL    HW145900   4.681   3.679   6.657
15314SOL    HW245901   4.821   3.701   6.709
15315SOL     OW45902   4.506   5.047   5.929
15315SOL    HW145903   4.490   4.953   5.939
15315SOL    HW245904   4.588   5.063   5.976
15316SOL     OW45905   4.339   5.293   6.875
15316SOL    HW145906   4.335   5.377   6.921
15316SOL    HW245907   4.429   5.289   6.841
15317SOL     OW45908   5.102   3.763   5.782
15317SOL    HW145909   5.144   3.693   5.732
15317SOL    HW245910   5.010   3.736   5.788
15318SOL     OW45911   5.013   4.193   6.261
15318SOL    HW145912   4.962   4.274   6.260
15318SOL    HW245913   5.013   4.165   6.353
15319SOL     OW45914   5.305   3.912   6.479
15319SOL    HW145915   5.254   3.943   6.554
15319SOL    HW245916   5.306   3.987   6.419
15320SOL     OW45917   3.758   4.776   5.897
15320SOL    HW145918   3.850   4.764   5.873
15320SOL    HW245919   3.726   4.688   5.917
15321SOL     OW45920   4.611   5.401   5.926
15321SOL    HW145921   4.533   5.387   5.873
15321SOL    HW245922   4.587   5.471   5.986
15322SOL     OW45923   3.932   4.344   7.596
15322SOL    HW145924   3.844   4.333   7.632
15322SOL    HW245925   3.921   4.332   7.502
15323SOL     OW45926   3.943   4.012   8.438
15323SOL    HW145927   3.973   3.977   8.521
15323SOL    HW245928   3.856   3.975   8.426
15324SOL     OW45929   3.710   4.119   8.094
15324SOL    HW145930   3.631   4.145   8.141
15324SOL    HW245931   3.683   4.046   8.039
15325SOL     OW45932   4.299   5.032   8.657
15325SOL    HW145933   4.217   5.034   8.608
15325SOL    HW245934   4.316   5.123   8.681
15326SOL     OW45935   5.312   5.248   8.152
15326SOL    HW145936   5.264   5.217   8.229
15326SOL    HW245937   5.245   5.251   8.083
15327SOL     OW45938   4.862   4.428   8.134
15327SOL    HW145939   4.908   4.511   8.122
15327SOL    HW245940   4.814   4.439   8.216
15328SOL     OW45941   5.524   4.306   7.668
15328SOL    HW145942   5.486   4.306   7.581
15328SOL    HW245943   5.480   4.234   7.714
15329SOL     OW45944   4.451   4.854   8.506
15329SOL    HW145945   4.393   4.895   8.570
15329SOL    HW245946   4.493   4.928   8.461
15330SOL     OW45947   4.611   4.468   9.275
15330SOL    HW145948   4.610   4.535   9.342
15330SOL    HW245949   4.627   4.515   9.193
15331SOL     OW45950   4.409   4.708   8.093
15331SOL    HW145951   4.477   4.709   8.161
15331SOL    HW245952   4.343   4.770   8.123
15332SOL     OW45953   4.436   4.876   9.274
15332SOL    HW145954   4.489   4.949   9.308
15332SOL    HW245955   4.359   4.918   9.235
15333SOL     OW45956   4.067   5.121   8.517
15333SOL    HW145957   3.991   5.078   8.477
15333SOL    HW245958   4.103   5.176   8.448
15334SOL     OW45959   5.178   5.230   8.819
15334SOL    HW145960   5.232   5.308   8.831
15334SOL    HW245961   5.106   5.242   8.881
15335SOL     OW45962   4.182   4.098   8.904
15335SOL    HW145963   4.256   4.040   8.919
15335SOL    HW245964   4.105   4.047   8.930
15336SOL     OW45965   5.308   4.156   8.203
15336SOL    HW145966   5.243   4.166   8.134
15336SOL    HW245967   5.290   4.227   8.264
15337SOL     OW45968   3.942   5.452   7.912
15337SOL    HW145969   3.969   5.523   7.971
15337SOL    HW245970   4.016   5.441   7.852
15338SOL     OW45971   4.859   5.067   9.141
15338SOL    HW145972   4.902   5.058   9.226
15338SOL    HW245973   4.807   4.987   9.132
15339SOL     OW45974   3.956   5.182   7.981
15339SOL    HW145975   3.935   5.275   7.984
15339SOL    HW245976   3.906   5.144   8.053
15340SOL     OW45977   4.009   4.813   8.327
15340SOL    HW145978   4.009   4.723   8.361
15340SOL    HW245979   3.953   4.861   8.387
15341SOL     OW45980   4.299   5.527   8.869
15341SOL    HW145981   4.223   5.508   8.923
15341SOL    HW245982   4.332   5.611   8.903
15342SOL     OW45983   4.290   4.712   7.600
15342SOL    HW145984   4.341   4.755   7.531
15342SOL    HW245985   4.330   4.741   7.682
15343SOL     OW45986   5.318   3.855   8.910
15343SOL    HW145987   5.352   3.933   8.867
15343SOL    HW245988   5.280   3.886   8.992
15344SOL     OW45989   3.843   4.382   8.015
15344SOL    HW145990   3.810   4.295   8.039
15344SOL    HW245991   3.837   4.432   8.096
15345SOL     OW45992   5.570   5.468   7.766
15345SOL    HW145993   5.643   5.452   7.827
15345SOL    HW245994   5.578   5.560   7.743
15346SOL     OW45995   3.783   5.304   7.559
15346SOL    HW145996   3.763   5.213   7.578
15346SOL    HW245997   3.752   5.352   7.635
15347SOL     OW45998   5.421   4.650   8.097
15347SOL    HW145999   5.500   4.604   8.069
15347SOL    HW246000   5.397   4.705   8.023
15348SOL     OW46001   5.380   4.831   7.880
15348SOL    HW146002   5.465   4.822   7.837
15348SOL    HW246003   5.394   4.896   7.949
15349SOL     OW46004   3.843   4.473   9.026
15349SOL    HW146005   3.928   4.518   9.029
15349SOL    HW246006   3.780   4.543   9.012
15350SOL     OW46007   4.346   5.122   8.179
15350SOL    HW146008   4.305   5.036   8.184
15350SOL    HW246009   4.331   5.151   8.090
15351SOL     OW46010   4.994   4.950   8.865
15351SOL    HW146011   5.023   4.881   8.805
15351SOL    HW246012   5.056   4.945   8.939
15352SOL     OW46013   4.555   3.735   7.967
15352SOL    HW146014   4.595   3.817   7.939
15352SOL    HW246015   4.461   3.753   7.967
15353SOL     OW46016   3.911   4.680   8.750
15353SOL    HW146017   3.999   4.645   8.733
15353SOL    HW246018   3.858   4.647   8.678
15354SOL     OW46019   5.259   4.739   7.647
15354SOL    HW146020   5.191   4.678   7.677
15354SOL    HW246021   5.300   4.770   7.728
15355SOL     OW46022   4.901   5.547   9.085
15355SOL    HW146023   4.903   5.609   9.012
15355SOL    HW246024   4.919   5.462   9.044
15356SOL     OW46025   4.084   3.978   9.323
15356SOL    HW146026   4.120   4.057   9.363
15356SOL    HW246027   3.990   3.994   9.319
15357SOL     OW46028   5.196   5.142   8.379
15357SOL    HW146029   5.132   5.161   8.447
15357SOL    HW246030   5.179   5.051   8.354
15358SOL     OW46031   5.362   5.519   8.011
15358SOL    HW146032   5.345   5.473   7.928
15358SOL    HW246033   5.361   5.450   8.077
15359SOL     OW46034   4.311   4.424   7.720
15359SOL    HW146035   4.314   4.511   7.681
15359SOL    HW246036   4.246   4.431   7.790
15360SOL     OW46037   5.006   4.118   8.389
15360SOL    HW146038   4.917   4.084   8.393
15360SOL    HW246039   5.058   4.059   8.443
15361SOL     OW46040   5.303   5.397   7.767
15361SOL    HW146041   5.397   5.412   7.756
15361SOL    HW246042   5.270   5.385   7.678
15362SOL     OW46043   4.517   4.336   8.880
15362SOL    HW146044   4.492   4.307   8.967
15362SOL    HW246045   4.491   4.264   8.822
15363SOL     OW46046   5.116   4.202   9.120
15363SOL    HW146047   5.119   4.245   9.206
15363SOL    HW246048   5.163   4.120   9.132
15364SOL     OW46049   4.668   4.605   9.040
15364SOL    HW146050   4.724   4.542   8.995
15364SOL    HW246051   4.619   4.648   8.969
15365SOL     OW46052   4.732   4.119   8.657
15365SOL    HW146053   4.640   4.134   8.680
15365SOL    HW246054   4.729   4.078   8.571
15366SOL     OW46055   4.783   4.420   7.866
15366SOL    HW146056   4.803   4.417   7.960
15366SOL    HW246057   4.698   4.377   7.859
15367SOL     OW46058   3.817   4.547   8.232
15367SOL    HW146059   3.899   4.543   8.281
15367SOL    HW246060   3.768   4.619   8.272
15368SOL     OW46061   3.834   5.603   9.040
15368SOL    HW146062   3.843   5.581   9.133
15368SOL    HW246063   3.749   5.568   9.016
15369SOL     OW46064   4.613   4.075   7.648
15369SOL    HW146065   4.664   4.129   7.588
15369SOL    HW246066   4.590   3.997   7.597
15370SOL     OW46067   5.415   4.286   9.283
15370SOL    HW146068   5.390   4.365   9.234
15370SOL    HW246069   5.435   4.221   9.215
15371SOL     OW46070   5.116   4.873   7.990
15371SOL    HW146071   5.195   4.863   7.937
15371SOL    HW246072   5.062   4.935   7.940
15372SOL     OW46073   4.276   3.885   8.363
15372SOL    HW146074   4.281   3.914   8.454
15372SOL    HW246075   4.271   3.966   8.312
15373SOL     OW46076   4.721   5.180   7.913
15373SOL    HW146077   4.696   5.254   7.857
15373SOL    HW246078   4.691   5.205   8.000
15374SOL     OW46079   4.078   5.540   8.328
15374SOL    HW146080   4.123   5.456   8.332
15374SOL    HW246081   4.145   5.605   8.349
15375SOL     OW46082   5.528   4.764   8.337
15375SOL    HW146083   5.481   4.750   8.255
15375SOL    HW246084   5.459   4.775   8.402
15376SOL     OW46085   4.943   5.269   8.964
15376SOL    HW146086   4.931   5.197   9.026
15376SOL    HW246087   4.872   5.258   8.900
15377SOL     OW46088   4.024   4.683   7.713
15377SOL    HW146089   4.107   4.705   7.670
15377SOL    HW246090   4.001   4.597   7.679
15378SOL     OW46091   5.209   4.488   8.158
15378SOL    HW146092   5.211   4.445   8.243
15378SOL    HW246093   5.288   4.541   8.156
15379SOL     OW46094   4.195   5.010   9.196
15379SOL    HW146095   4.171   5.014   9.103
15379SOL    HW246096   4.112   5.000   9.242
15380SOL     OW46097   4.863   5.499   7.675
15380SOL    HW146098   4.781   5.469   7.713
15380SOL    HW246099   4.884   5.435   7.607
15381SOL     OW46100   3.932   3.980   8.947
15381SOL    HW146101   3.858   4.040   8.960
15381SOL    HW246102   3.902   3.896   8.982
15382SOL     OW46103   5.362   5.112   7.550
15382SOL    HW146104   5.322   5.198   7.535
15382SOL    HW246105   5.295   5.049   7.522
15383SOL     OW46106   4.183   5.465   7.763
15383SOL    HW146107   4.232   5.516   7.828
15383SOL    HW246108   4.250   5.425   7.708
15384SOL     OW46109   5.121   3.829   7.907
15384SOL    HW146110   5.120   3.805   7.814
15384SOL    HW246111   5.212   3.820   7.933
15385SOL     OW46112   3.975   5.512   8.662
15385SOL    HW146113   4.024   5.437   8.696
15385SOL    HW246114   3.961   5.492   8.570
15386SOL     OW46115   4.672   5.427   8.338
15386SOL    HW146116   4.757   5.385   8.352
15386SOL    HW246117   4.632   5.376   8.266
15387SOL     OW46118   4.120   4.409   7.921
15387SOL    HW146119   4.132   4.315   7.934
15387SOL    HW246120   4.026   4.423   7.938
15388SOL     OW46121   5.224   3.945   9.161
15388SOL    HW146122   5.241   3.960   9.254
15388SOL    HW246123   5.153   3.880   9.160
15389SOL     OW46124   4.387   3.833   7.550
15389SOL    HW146125   4.435   3.755   7.576
15389SOL    HW246126   4.325   3.803   7.484
15390SOL     OW46127   4.483   3.995   9.201
15390SOL    HW146128   4.567   3.950   9.200
15390SOL    HW246129   4.436   3.956   9.275
15391SOL     OW46130   4.593   5.250   8.647
15391SOL    HW146131   4.575   5.210   8.563
15391SOL    HW246132   4.660   5.195   8.687
15392SOL     OW46133   5.053   4.315   8.879
15392SOL    HW146134   5.086   4.286   8.964
15392SOL    HW246135   5.090   4.403   8.867
15393SOL     OW46136   4.540   5.100   8.404
15393SOL    HW146137   4.627   5.096   8.365
15393SOL    HW246138   4.482   5.116   8.329
15394SOL     OW46139   4.655   4.239   8.335
15394SOL    HW146140   4.629   4.227   8.244
15394SOL    HW246141   4.681   4.151   8.364
15395SOL     OW46142   4.288   3.787   7.938
15395SOL    HW146143   4.210   3.787   7.993
15395SOL    HW246144   4.276   3.862   7.879
15396SOL     OW46145   5.158   4.937   7.480
15396SOL    HW146146   5.187   4.863   7.533
15396SOL    HW246147   5.073   4.960   7.516
15397SOL     OW46148   4.006   3.772   7.636
15397SOL    HW146149   4.058   3.839   7.593
15397SOL    HW246150   4.070   3.714   7.677
15398SOL     OW46151   4.675   3.974   7.898
15398SOL    HW146152   4.650   4.009   7.813
15398SOL    HW246153   4.769   3.991   7.904
15399SOL     OW46154   4.799   4.419   8.892
15399SOL    HW146155   4.734   4.348   8.896
15399SOL    HW246156   4.883   4.373   8.888
15400SOL     OW46157   4.929   5.312   8.251
15400SOL    HW146158   4.944   5.372   8.177
15400SOL    HW246159   5.002   5.329   8.311
15401SOL     OW46160   4.206   4.885   8.156
15401SOL    HW146161   4.144   4.861   8.224
15401SOL    HW246162   4.156   4.878   8.075
15402SOL     OW46163   4.975   5.516   8.065
15402SOL    HW146164   5.025   5.579   8.012
15402SOL    HW246165   4.904   5.568   8.103
15403SOL     OW46166   4.755   4.240   7.478
15403SOL    HW146167   4.713   4.323   7.458
15403SOL    HW246168   4.820   4.260   7.546
15404SOL     OW46169   3.824   4.274   8.840
15404SOL    HW146170   3.916   4.277   8.813
15404SOL    HW246171   3.816   4.344   8.905
15405SOL     OW46172   4.283   3.946   8.632
15405SOL    HW146173   4.321   3.883   8.693
15405SOL    HW246174   4.190   3.947   8.652
15406SOL     OW46175   4.594   4.178   8.077
15406SOL    HW146176   4.554   4.234   8.011
15406SOL    HW246177   4.619   4.099   8.030
15407SOL     OW46178   4.746   3.783   8.188
15407SOL    HW146179   4.685   3.778   8.114
15407SOL    HW246180   4.721   3.710   8.244
15408SOL     OW46181   5.160   4.878   8.301
15408SOL    HW146182   5.088   4.816   8.308
15408SOL    HW246183   5.177   4.885   8.208
15409SOL     OW46184   5.187   4.341   8.395
15409SOL    HW146185   5.123   4.270   8.406
15409SOL    HW246186   5.243   4.334   8.473
15410SOL     OW46187   5.553   4.520   7.837
15410SOL    HW146188   5.614   4.476   7.897
15410SOL    HW246189   5.539   4.457   7.766
15411SOL     OW46190   4.222   5.148   7.597
15411SOL    HW146191   4.147   5.116   7.648
15411SOL    HW246192   4.218   5.099   7.515
15412SOL     OW46193   5.430   4.994   8.085
15412SOL    HW146194   5.524   4.987   8.104
15412SOL    HW246195   5.407   5.084   8.108
15413SOL     OW46196   5.116   4.300   7.513
15413SOL    HW146197   5.061   4.273   7.586
15413SOL    HW246198   5.205   4.277   7.540
15414SOL     OW46199   4.251   3.981   7.750
15414SOL    HW146200   4.305   3.939   7.683
15414SOL    HW246201   4.219   4.061   7.709
15415SOL     OW46202   5.458   4.967   8.980
15415SOL    HW146203   5.546   4.933   8.966
15415SOL    HW246204   5.471   5.055   9.017
15416SOL     OW46205   4.765   5.078   8.782
15416SOL    HW146206   4.688   5.044   8.828
15416SOL    HW246207   4.839   5.034   8.824
15417SOL     OW46208   5.332   5.359   9.113
15417SOL    HW146209   5.323   5.395   9.025
15417SOL    HW246210   5.409   5.302   9.108
15418SOL     OW46211   4.875   4.961   8.553
15418SOL    HW146212   4.814   4.995   8.618
15418SOL    HW246213   4.842   4.994   8.469
15419SOL     OW46214   5.334   4.816   8.524
15419SOL    HW146215   5.326   4.882   8.593
15419SOL    HW246216   5.264   4.837   8.462
15420SOL     OW46217   4.643   3.806   8.831
15420SOL    HW146218   4.663   3.791   8.738
15420SOL    HW246219   4.721   3.846   8.867
15421SOL     OW46220   4.706   4.839   9.171
15421SOL    HW146221   4.615   4.857   9.198
15421SOL    HW246222   4.700   4.758   9.120
15422SOL     OW46223   4.438   4.786   7.825
15422SOL    HW146224   4.422   4.760   7.915
15422SOL    HW246225   4.513   4.733   7.797
15423SOL     OW46226   4.151   4.552   8.708
15423SOL    HW146227   4.219   4.561   8.775
15423SOL    HW246228   4.120   4.462   8.717
15424SOL     OW46229   4.988   4.090   8.739
15424SOL    HW146230   5.016   4.171   8.782
15424SOL    HW246231   4.899   4.108   8.709
15425SOL     OW46232   3.802   5.293   8.809
15425SOL    HW146233   3.771   5.365   8.753
15425SOL    HW246234   3.897   5.294   8.799
15426SOL     OW46235   4.041   4.858   7.934
15426SOL    HW146236   4.042   4.930   7.871
15426SOL    HW246237   4.038   4.779   7.880
15427SOL     OW46238   4.259   4.240   8.308
15427SOL    HW146239   4.271   4.298   8.233
15427SOL    HW246240   4.327   4.266   8.370
15428SOL     OW46241   4.970   5.078   7.846
15428SOL    HW146242   5.027   5.148   7.880
15428SOL    HW246243   4.882   5.102   7.876
15429SOL     OW46244   5.033   5.193   8.590
15429SOL    HW146245   5.080   5.199   8.673
15429SOL    HW246246   4.982   5.112   8.598
15430SOL     OW46247   5.299   4.340   7.934
15430SOL    HW146248   5.247   4.382   8.003
15430SOL    HW246249   5.346   4.412   7.893
15431SOL     OW46250   4.068   5.257   8.749
15431SOL    HW146251   4.061   5.204   8.670
15431SOL    HW246252   4.162   5.273   8.759
15432SOL     OW46253   4.154   4.472   9.065
15432SOL    HW146254   4.214   4.515   9.004
15432SOL    HW246255   4.195   4.388   9.084
15433SOL     OW46256   5.348   4.511   9.148
15433SOL    HW146257   5.260   4.548   9.140
15433SOL    HW246258   5.398   4.550   9.076
15434SOL     OW46259   4.721   3.866   9.209
15434SOL    HW146260   4.778   3.939   9.189
15434SOL    HW246261   4.773   3.788   9.188
15435SOL     OW46262   4.218   3.759   9.212
15435SOL    HW146263   4.164   3.709   9.150
15435SOL    HW246264   4.167   3.836   9.233
15436SOL     OW46265   4.317   4.599   8.488
15436SOL    HW146266   4.354   4.687   8.490
15436SOL    HW246267   4.258   4.595   8.563
15437SOL     OW46268   5.032   4.576   8.452
15437SOL    HW146269   4.944   4.550   8.426
15437SOL    HW246270   5.087   4.500   8.431
15438SOL     OW46271   4.924   4.247   7.705
15438SOL    HW146272   4.933   4.170   7.762
15438SOL    HW246273   4.882   4.312   7.761
15439SOL     OW46274   4.016   3.918   8.687
15439SOL    HW146275   3.981   3.946   8.771
15439SOL    HW246276   3.999   3.824   8.684
15440SOL     OW46277   3.775   5.035   8.714
15440SOL    HW146278   3.803   4.980   8.786
15440SOL    HW246279   3.777   5.124   8.749
15441SOL     OW46280   4.436   4.346   8.488
15441SOL    HW146281   4.513   4.340   8.431
15441SOL    HW246282   4.407   4.437   8.478
15442SOL     OW46283   5.481   4.693   9.315
15442SOL    HW146284   5.434   4.622   9.272
15442SOL    HW246285   5.424   4.718   9.388
15443SOL     OW46286   4.049   3.784   8.075
15443SOL    HW146287   4.015   3.871   8.094
15443SOL    HW246288   4.055   3.742   8.161
15444SOL     OW46289   5.356   4.113   7.792
15444SOL    HW146290   5.388   4.048   7.854
15444SOL    HW246291   5.326   4.186   7.847
15445SOL     OW46292   4.759   4.482   8.403
15445SOL    HW146293   4.737   4.497   8.495
15445SOL    HW246294   4.729   4.393   8.385
15446SOL     OW46295   4.704   5.291   9.180
15446SOL    HW146296   4.684   5.334   9.097
15446SOL    HW246297   4.744   5.208   9.155
15447SOL     OW46298   5.563   5.217   9.047
15447SOL    HW146299   5.589   5.246   8.960
15447SOL    HW246300   5.641   5.229   9.101
15448SOL     OW46301   4.074   4.640   9.268
15448SOL    HW146302   4.153   4.660   9.317
15448SOL    HW246303   4.102   4.578   9.200
15449SOL     OW46304   5.245   3.992   7.567
15449SOL    HW146305   5.192   3.921   7.605
15449SOL    HW246306   5.285   4.035   7.642
15450SOL     OW46307   5.006   4.546   7.467
15450SOL    HW146308   5.045   4.459   7.474
15450SOL    HW246309   5.042   4.583   7.386
15451SOL     OW46310   4.794   5.077   8.315
15451SOL    HW146311   4.805   5.005   8.253
15451SOL    HW246312   4.846   5.149   8.277
15452SOL     OW46313   4.042   4.539   8.393
15452SOL    HW146314   4.137   4.554   8.390
15452SOL    HW246315   4.032   4.449   8.424
15453SOL     OW46316   4.037   4.262   8.460
15453SOL    HW146317   3.998   4.175   8.449
15453SOL    HW246318   4.115   4.260   8.403
15454SOL     OW46319   4.863   4.092   9.134
15454SOL    HW146320   4.816   4.144   9.199
15454SOL    HW246321   4.947   4.136   9.123
15455SOL     OW46322   4.879   3.914   8.922
15455SOL    HW146323   4.868   3.976   8.994
15455SOL    HW246324   4.925   3.963   8.854
15456SOL     OW46325   3.748   5.027   7.628
15456SOL    HW146326   3.658   5.049   7.603
15456SOL    HW246327   3.741   4.941   7.669
15457SOL     OW46328   3.817   5.494   8.399
15457SOL    HW146329   3.783   5.420   8.348
15457SOL    HW246330   3.904   5.511   8.362
15458SOL     OW46331   4.209   5.294   8.349
15458SOL    HW146332   4.280   5.355   8.372
15458SOL    HW246333   4.249   5.232   8.288
15459SOL     OW46334   4.673   4.505   8.661
15459SOL    HW146335   4.735   4.494   8.733
15459SOL    HW246336   4.594   4.460   8.690
15460SOL     OW46337   3.763   4.294   8.569
15460SOL    HW146338   3.844   4.292   8.519
15460SOL    HW246339   3.791   4.287   8.661
15461SOL     OW46340   3.910   4.259   9.186
15461SOL    HW146341   3.977   4.223   9.128
15461SOL    HW246342   3.875   4.334   9.139
15462SOL     OW46343   5.114   4.644   9.098
15462SOL    HW146344   5.131   4.738   9.094
15462SOL    HW246345   5.107   4.617   9.007
15463SOL     OW46346   4.542   4.293   7.820
15463SOL    HW146347   4.550   4.219   7.760
15463SOL    HW246348   4.465   4.341   7.789
15464SOL     OW46349   5.359   4.325   8.611
15464SOL    HW146350   5.345   4.266   8.685
15464SOL    HW246351   5.451   4.312   8.586
15465SOL     OW46352   3.949   5.267   9.168
15465SOL    HW146353   3.931   5.324   9.243
15465SOL    HW246354   3.959   5.180   9.206
15466SOL     OW46355   4.458   4.157   8.682
15466SOL    HW146356   4.394   4.088   8.667
15466SOL    HW246357   4.441   4.222   8.613
15467SOL     OW46358   4.633   5.402   8.932
15467SOL    HW146359   4.609   5.355   8.852
15467SOL    HW246360   4.634   5.494   8.907
15468SOL     OW46361   4.167   4.205   7.613
15468SOL    HW146362   4.231   4.272   7.637
15468SOL    HW246363   4.083   4.251   7.616
15469SOL     OW46364   3.854   4.874   8.929
15469SOL    HW146365   3.859   4.835   9.016
15469SOL    HW246366   3.875   4.802   8.869
15470SOL     OW46367   5.028   4.758   8.656
15470SOL    HW146368   5.037   4.694   8.585
15470SOL    HW246369   4.975   4.828   8.619
15471SOL     OW46370   5.051   4.583   7.739
15471SOL    HW146371   4.979   4.549   7.793
15471SOL    HW246372   5.022   4.569   7.649
15472SOL     OW46373   5.511   5.448   8.617
15472SOL    HW146374   5.572   5.474   8.549
15472SOL    HW246375   5.479   5.362   8.590
15473SOL     OW46376   4.965   5.458   8.539
15473SOL    HW146377   5.049   5.488   8.505
15473SOL    HW246378   4.979   5.366   8.563
15474SOL     OW46379   3.831   4.971   8.457
15474SOL    HW146380   3.803   4.992   8.546
15474SOL    HW246381   3.759   4.918   8.422
15475SOL     OW46382   4.411   5.407   9.201
15475SOL    HW146383   4.348   5.478   9.188
15475SOL    HW246384   4.486   5.430   9.146
15476SOL     OW46385   5.469   3.907   7.945
15476SOL    HW146386   5.527   3.888   7.872
15476SOL    HW246387   5.443   3.821   7.978
15477SOL     OW46388   5.121   5.294   7.951
15477SOL    HW146389   5.176   5.328   7.880
15477SOL    HW246390   5.066   5.368   7.977
15478SOL     OW46391   3.866   5.524   9.295
15478SOL    HW146392   3.819   5.453   9.340
15478SOL    HW246393   3.914   5.569   9.365
15479SOL     OW46394   5.003   4.660   8.111
15479SOL    HW146395   5.077   4.601   8.124
15479SOL    HW246396   5.039   4.732   8.059
15480SOL     OW46397   4.506   5.004   8.863
15480SOL    HW146398   4.480   5.052   8.941
15480SOL    HW246399   4.432   5.014   8.803
15481SOL     OW46400   4.392   5.359   7.606
15481SOL    HW146401   4.407   5.374   7.513
15481SOL    HW246402   4.340   5.279   7.610
15482SOL     OW46403   5.340   5.454   8.846
15482SOL    HW146404   5.397   5.455   8.769
15482SOL    HW246405   5.324   5.547   8.865
15483SOL     OW46406   5.572   3.881   8.413
15483SOL    HW146407   5.599   3.792   8.389
15483SOL    HW246408   5.484   3.890   8.375
15484SOL     OW46409   3.967   4.030   8.156
15484SOL    HW146410   3.881   4.066   8.135
15484SOL    HW246411   3.970   4.032   8.252
15485SOL     OW46412   4.934   5.313   7.486
15485SOL    HW146413   4.924   5.222   7.513
15485SOL    HW246414   4.865   5.327   7.421
15486SOL     OW46415   4.547   4.736   8.832
15486SOL    HW146416   4.583   4.728   8.743
15486SOL    HW246417   4.535   4.830   8.845
15487SOL     OW46418   4.644   4.635   7.745
15487SOL    HW146419   4.700   4.667   7.674
15487SOL    HW246420   4.696   4.567   7.787
15488SOL     OW46421   5.208   5.369   7.506
15488SOL    HW146422   5.116   5.349   7.489
15488SOL    HW246423   5.248   5.372   7.419
15489SOL     OW46424   4.086   5.037   8.949
15489SOL    HW146425   4.078   5.110   8.888
15489SOL    HW246426   4.008   4.984   8.933
15490SOL     OW46427   5.323   5.014   8.725
15490SOL    HW146428   5.377   4.990   8.800
15490SOL    HW246429   5.264   5.081   8.758
15491SOL     OW46430   4.802   4.844   8.179
15491SOL    HW146431   4.726   4.794   8.209
15491SOL    HW246432   4.863   4.777   8.148
15492SOL     OW46433   4.758   3.973   8.408
15492SOL    HW146434   4.757   3.931   8.322
15492SOL    HW246435   4.750   3.901   8.470
15493SOL     OW46436   4.329   5.211   7.925
15493SOL    HW146437   4.383   5.162   7.863
15493SOL    HW246438   4.248   5.228   7.877
15494SOL     OW46439   5.467   4.102   8.836
15494SOL    HW146440   5.539   4.165   8.832
15494SOL    HW246441   5.494   4.032   8.775
15495SOL     OW46442   4.004   5.065   7.747
15495SOL    HW146443   3.917   5.058   7.707
15495SOL    HW246444   3.989   5.113   7.828
15496SOL     OW46445   3.848   4.772   9.185
15496SOL    HW146446   3.770   4.745   9.233
15496SOL    HW246447   3.919   4.720   9.222
15497SOL     OW46448   4.403   3.912   8.943
15497SOL    HW146449   4.487   3.887   8.905
15497SOL    HW246450   4.425   3.946   9.030
15498SOL     OW46451   3.810   4.042   7.460
15498SOL    HW146452   3.733   4.022   7.407
15498SOL    HW246453   3.839   4.128   7.430
15499SOL     OW46454   5.139   4.577   8.834
15499SOL    HW146455   5.086   4.636   8.780
15499SOL    HW246456   5.227   4.582   8.797
15500SOL     OW46457   3.767   3.873   7.720
15500SOL    HW146458   3.754   3.943   7.656
15500SOL    HW246459   3.855   3.841   7.703
15501SOL     OW46460   4.906   5.046   7.570
15501SOL    HW146461   4.813   5.020   7.568
15501SOL    HW246462   4.928   5.049   7.663
15502SOL     OW46463   4.351   4.554   8.890
15502SOL    HW146464   4.409   4.629   8.878
15502SOL    HW246465   4.409   4.478   8.889
15503SOL     OW46466   5.211   5.527   8.441
15503SOL    HW146467   5.236   5.601   8.386
15503SOL    HW246468   5.293   5.484   8.462
15504SOL     OW46469   4.450   4.271   9.134
15504SOL    HW146470   4.495   4.326   9.198
15504SOL    HW246471   4.459   4.182   9.168
15505SOL     OW46472   5.192   4.907   9.069
15505SOL    HW146473   5.186   4.927   9.162
15505SOL    HW246474   5.282   4.932   9.045
15506SOL     OW46475   4.079   5.472   9.026
15506SOL    HW146476   3.997   5.519   9.010
15506SOL    HW246477   4.052   5.388   9.062
15507SOL     OW46478   5.379   4.600   8.700
15507SOL    HW146479   5.377   4.517   8.652
15507SOL    HW246480   5.367   4.666   8.632
15508SOL     OW46481   4.944   4.046   7.904
15508SOL    HW146482   5.004   3.971   7.903
15508SOL    HW246483   4.973   4.099   7.979
15509SOL     OW46484   4.300   4.450   8.130
15509SOL    HW146485   4.344   4.534   8.115
15509SOL    HW246486   4.239   4.441   8.056
15510SOL     OW46487   5.466   4.073   9.111
15510SOL    HW146488   5.466   4.088   9.017
15510SOL    HW246489   5.387   4.023   9.128
15511SOL     OW46490   5.480   4.646   8.952
15511SOL    HW146491   5.466   4.739   8.966
15511SOL    HW246492   5.454   4.631   8.861
15512SOL     OW46493   4.599   5.081   7.512
15512SOL    HW146494   4.558   5.101   7.596
15512SOL    HW246495   4.607   5.166   7.468
15513SOL     OW46496   4.393   5.490   8.375
15513SOL    HW146497   4.373   5.584   8.366
15513SOL    HW246498   4.488   5.485   8.372
15514SOL     OW46499   4.597   4.702   8.304
15514SOL    HW146500   4.646   4.628   8.339
15514SOL    HW246501   4.551   4.738   8.380
15515SOL     OW46502   4.795   4.705   7.534
15515SOL    HW146503   4.775   4.761   7.459
15515SOL    HW246504   4.869   4.653   7.506
15516SOL     OW46505   5.552   5.283   8.289
15516SOL    HW146506   5.477   5.274   8.231
15516SOL    HW246507   5.528   5.233   8.367
15517SOL     OW46508   3.934   5.014   9.284
15517SOL    HW146509   3.904   4.934   9.242
15517SOL    HW246510   3.873   5.029   9.356
15518SOL     OW46511   3.840   4.948   8.115
15518SOL    HW146512   3.871   4.906   8.196
15518SOL    HW246513   3.899   4.916   8.048
15519SOL     OW46514   4.412   5.145   9.080
15519SOL    HW146515   4.334   5.106   9.121
15519SOL    HW246516   4.418   5.233   9.118
15520SOL     OW46517   5.536   3.891   8.683
15520SOL    HW146518   5.530   3.796   8.694
15520SOL    HW246519   5.550   3.903   8.589
15521SOL     OW46520   4.143   4.146   7.967
15521SOL    HW146521   4.176   4.075   7.912
15521SOL    HW246522   4.090   4.102   8.034
15522SOL     OW46523   5.420   5.203   8.529
15522SOL    HW146524   5.341   5.185   8.477
15522SOL    HW246525   5.421   5.136   8.597
15523SOL     OW46526   4.076   4.290   8.740
15523SOL    HW146527   4.125   4.225   8.790
15523SOL    HW246528   4.083   4.261   8.649
15524SOL     OW46529   4.562   5.311   8.117
15524SOL    HW146530   4.534   5.382   8.059
15524SOL    HW246531   4.486   5.253   8.123
15525SOL     OW46532   5.143   3.954   8.561
15525SOL    HW146533   5.144   3.863   8.589
15525SOL    HW246534   5.098   4.001   8.631
15526SOL     OW46535   4.734   3.742   8.567
15526SOL    HW146536   4.680   3.678   8.519
15526SOL    HW246537   4.820   3.701   8.572
15527SOL     OW46538   4.503   5.056   7.777
15527SOL    HW146539   4.479   4.965   7.788
15527SOL    HW246540   4.584   5.067   7.828
15528SOL     OW46541   4.339   5.293   8.736
15528SOL    HW146542   4.335   5.377   8.782
15528SOL    HW246543   4.429   5.289   8.703
15529SOL     OW46544   5.103   3.762   7.641
15529SOL    HW146545   5.143   3.691   7.591
15529SOL    HW246546   5.012   3.735   7.652
15530SOL     OW46547   5.022   4.195   8.122
15530SOL    HW146548   4.971   4.277   8.119
15530SOL    HW246549   5.016   4.166   8.213
15531SOL     OW46550   5.309   3.913   8.342
15531SOL    HW146551   5.256   3.941   8.416
15531SOL    HW246552   5.308   3.987   8.282
15532SOL     OW46553   3.761   4.775   7.757
15532SOL    HW146554   3.854   4.764   7.738
15532SOL    HW246555   3.729   4.687   7.777
15533SOL     OW46556   4.619   5.399   7.777
15533SOL    HW146557   4.540   5.383   7.724
15533SOL    HW246558   4.593   5.468   7.839
15534SOL     OW46559   3.936   4.327   9.454
15534SOL    HW146560   3.847   4.318   9.488
15534SOL    HW246561   3.926   4.322   9.359
15535SOL     OW46562   5.533   4.291   9.521
15535SOL    HW146563   5.492   4.294   9.435
15535SOL    HW246564   5.479   4.229   9.571
15536SOL     OW46565   3.937   5.465   9.764
15536SOL    HW146566   3.957   5.537   9.824
15536SOL    HW246567   4.017   5.453   9.713
15537SOL     OW46568   3.947   5.187   9.844
15537SOL    HW146569   3.928   5.278   9.865
15537SOL    HW246570   3.872   5.138   9.880
15538SOL     OW46571   4.295   4.709   9.451
15538SOL    HW146572   4.345   4.753   9.382
15538SOL    HW246573   4.335   4.739   9.533
15539SOL     OW46574   3.788   4.400   9.884
15539SOL    HW146575   3.701   4.366   9.860
15539SOL    HW246576   3.770   4.478   9.937
15540SOL     OW46577   5.558   5.476   9.646
15540SOL    HW146578   5.636   5.456   9.698
15540SOL    HW246579   5.574   5.565   9.613
15541SOL     OW46580   3.772   5.314   9.433
15541SOL    HW146581   3.757   5.221   9.449
15541SOL    HW246582   3.736   5.358   9.510
15542SOL     OW46583   5.403   4.593   9.917
15542SOL    HW146584   5.474   4.618   9.976
15542SOL    HW246585   5.392   4.669   9.859
15543SOL     OW46586   5.415   4.821   9.751
15543SOL    HW146587   5.498   4.815   9.703
15543SOL    HW246588   5.432   4.885   9.820
15544SOL     OW46589   4.366   5.063   9.993
15544SOL    HW146590   4.308   4.986   9.990
15544SOL    HW246591   4.344   5.112   9.914
15545SOL     OW46592   4.542   3.753   9.827
15545SOL    HW146593   4.587   3.832   9.798
15545SOL    HW246594   4.449   3.777   9.830
15546SOL     OW46595   5.282   4.749   9.517
15546SOL    HW146596   5.222   4.680   9.545
15546SOL    HW246597   5.320   4.782   9.598
15547SOL     OW46598   4.309   4.423   9.583
15547SOL    HW146599   4.316   4.509   9.541
15547SOL    HW246600   4.250   4.437   9.657
15548SOL     OW46601   5.288   5.397   9.628
15548SOL    HW146602   5.381   5.419   9.635
15548SOL    HW246603   5.273   5.385   9.534
15549SOL     OW46604   4.770   4.413   9.734
15549SOL    HW146605   4.798   4.389   9.822
15549SOL    HW246606   4.684   4.372   9.725
15550SOL     OW46607   3.777   4.607   0.069
15550SOL    HW146608   3.853   4.564   0.109
15550SOL    HW246609   3.754   4.676   0.132
15551SOL     OW46610   4.612   4.072   9.503
15551SOL    HW146611   4.662   4.128   9.443
15551SOL    HW246612   4.593   3.994   9.452
15552SOL     OW46613   5.041   4.816   9.792
15552SOL    HW146614   5.092   4.846   9.867
15552SOL    HW246615   5.015   4.897   9.748
15553SOL     OW46616   4.716   5.158   9.783
15553SOL    HW146617   4.686   5.244   9.751
15553SOL    HW246618   4.690   5.156   9.875
15554SOL     OW46619   4.076   5.578   0.167
15554SOL    HW146620   4.080   5.497   0.218
15554SOL    HW246621   4.166   5.609   0.163
15555SOL     OW46622   4.041   4.684   9.577
15555SOL    HW146623   4.121   4.698   9.527
15555SOL    HW246624   4.000   4.608   9.535
15556SOL     OW46625   4.861   5.498   9.547
15556SOL    HW146626   4.781   5.464   9.588
15556SOL    HW246627   4.882   5.435   9.479
15557SOL     OW46628   5.361   5.117   9.402
15557SOL    HW146629   5.318   5.201   9.391
15557SOL    HW246630   5.294   5.052   9.379
15558SOL     OW46631   4.192   5.486   9.634
15558SOL    HW146632   4.242   5.516   9.710
15558SOL    HW246633   4.256   5.439   9.580
15559SOL     OW46634   5.146   3.875   9.738
15559SOL    HW146635   5.134   3.834   9.652
15559SOL    HW246636   5.241   3.878   9.750
15560SOL     OW46637   4.121   4.413   9.799
15560SOL    HW146638   4.123   4.320   9.820
15560SOL    HW246639   4.028   4.434   9.791
15561SOL     OW46640   4.386   3.831   9.415
15561SOL    HW146641   4.429   3.751   9.444
15561SOL    HW246642   4.324   3.803   9.349
15562SOL     OW46643   4.269   3.823   9.840
15562SOL    HW146644   4.177   3.817   9.866
15562SOL    HW246645   4.270   3.880   9.764
15563SOL     OW46646   5.163   4.933   9.344
15563SOL    HW146647   5.197   4.865   9.402
15563SOL    HW246648   5.076   4.953   9.380
15564SOL     OW46649   4.008   3.778   9.500
15564SOL    HW146650   4.058   3.844   9.452
15564SOL    HW246651   4.074   3.726   9.545
15565SOL     OW46652   4.671   3.986   9.757
15565SOL    HW146653   4.645   4.016   9.670
15565SOL    HW246654   4.764   4.005   9.763
15566SOL     OW46655   4.166   4.875   0.034
15566SOL    HW146656   4.097   4.911   0.091
15566SOL    HW246657   4.122   4.860   9.950
15567SOL     OW46658   5.024   5.560   9.900
15567SOL    HW146659   5.068   5.625   9.846
15567SOL    HW246660   4.931   5.583   9.895
15568SOL     OW46661   4.755   4.241   9.338
15568SOL    HW146662   4.711   4.324   9.318
15568SOL    HW246663   4.817   4.262   9.407
15569SOL     OW46664   4.569   4.167   9.943
15569SOL    HW146665   4.529   4.231   9.884
15569SOL    HW246666   4.599   4.097   9.885
15570SOL     OW46667   5.613   4.526   9.636
15570SOL    HW146668   5.637   4.490   9.721
15570SOL    HW246669   5.576   4.452   9.588
15571SOL     OW46670   4.218   5.151   9.465
15571SOL    HW146671   4.143   5.117   9.513
15571SOL    HW246672   4.218   5.102   9.382
15572SOL     OW46673   5.113   4.301   9.374
15572SOL    HW146674   5.054   4.280   9.446
15572SOL    HW246675   5.201   4.283   9.409
15573SOL     OW46676   4.267   3.983   9.624
15573SOL    HW146677   4.314   3.939   9.553
15573SOL    HW246678   4.229   4.061   9.582
15574SOL     OW46679   4.432   4.779   9.683
15574SOL    HW146680   4.400   4.734   9.762
15574SOL    HW246681   4.511   4.732   9.659
15575SOL     OW46682   4.031   4.852   9.799
15575SOL    HW146683   4.032   4.928   9.741
15575SOL    HW246684   4.039   4.777   9.740
15576SOL     OW46685   4.961   5.077   9.690
15576SOL    HW146686   5.017   5.148   9.722
15576SOL    HW246687   4.875   5.097   9.726
15577SOL     OW46688   5.352   4.362   9.787
15577SOL    HW146689   5.359   4.434   9.851
15577SOL    HW246690   5.302   4.399   9.715
15578SOL     OW46691   4.919   4.257   9.564
15578SOL    HW146692   4.925   4.181   9.622
15578SOL    HW246693   4.880   4.325   9.618
15579SOL     OW46694   4.006   3.814   9.928
15579SOL    HW146695   3.938   3.879   9.945
15579SOL    HW246696   4.021   3.773   0.012
15580SOL     OW46697   5.354   4.121   9.652
15580SOL    HW146698   5.375   4.045   9.706
15580SOL    HW246699   5.342   4.193   9.714
15581SOL     OW46700   5.253   3.988   9.423
15581SOL    HW146701   5.196   3.919   9.459
15581SOL    HW246702   5.285   4.035   9.500
15582SOL     OW46703   5.004   4.550   9.330
15582SOL    HW146704   5.042   4.462   9.337
15582SOL    HW246705   5.039   4.585   9.249
15583SOL     OW46706   3.747   5.040   9.485
15583SOL    HW146707   3.657   5.059   9.459
15583SOL    HW246708   3.743   4.953   9.525
15584SOL     OW46709   4.531   4.284   9.683
15584SOL    HW146710   4.542   4.215   9.617
15584SOL    HW246711   4.458   4.337   9.650
15585SOL     OW46712   4.172   4.200   9.483
15585SOL    HW146713   4.233   4.270   9.506
15585SOL    HW246714   4.086   4.242   9.481
15586SOL     OW46715   5.094   4.571   9.607
15586SOL    HW146716   5.045   4.627   9.668
15586SOL    HW246717   5.037   4.566   9.529
15587SOL     OW46718   5.428   3.883   9.770
15587SOL    HW146719   5.502   3.881   9.709
15587SOL    HW246720   5.450   3.818   9.837
15588SOL     OW46721   5.088   5.313   9.794
15588SOL    HW146722   5.159   5.329   9.732
15588SOL    HW246723   5.060   5.400   9.822
15589SOL     OW46724   4.391   5.363   9.475
15589SOL    HW146725   4.407   5.376   9.381
15589SOL    HW246726   4.337   5.284   9.479
15590SOL     OW46727   4.933   5.318   9.349
15590SOL    HW146728   4.924   5.226   9.373
15590SOL    HW246729   4.864   5.333   9.284
15591SOL     OW46730   4.647   4.637   9.614
15591SOL    HW146731   4.703   4.665   9.542
15591SOL    HW246732   4.698   4.568   9.658
15592SOL     OW46733   5.210   5.369   9.360
15592SOL    HW146734   5.117   5.352   9.345
15592SOL    HW246735   5.249   5.372   9.273
15593SOL     OW46736   4.316   5.201   9.763
15593SOL    HW146737   4.376   5.158   9.702
15593SOL    HW246738   4.233   5.208   9.715
15594SOL     OW46739   4.002   5.066   9.614
15594SOL    HW146740   3.916   5.061   9.572
15594SOL    HW246741   3.986   5.116   9.694
15595SOL     OW46742   3.808   4.040   9.322
15595SOL    HW146743   3.731   4.020   9.268
15595SOL    HW246744   3.837   4.126   9.292
15596SOL     OW46745   3.765   3.879   9.577
15596SOL    HW146746   3.757   3.945   9.508
15596SOL    HW246747   3.854   3.844   9.566
15597SOL     OW46748   4.904   5.048   9.421
15597SOL    HW146749   4.812   5.021   9.420
15597SOL    HW246750   4.927   5.052   9.514
15598SOL     OW46751   4.937   4.061   9.768
15598SOL    HW146752   5.013   4.003   9.762
15598SOL    HW246753   4.955   4.116   9.844
15599SOL     OW46754   4.336   4.566   9.893
15599SOL    HW146755   4.335   4.568   9.989
15599SOL    HW246756   4.262   4.509   9.870
15600SOL     OW46757   4.599   5.081   9.364
15600SOL    HW146758   4.561   5.097   9.451
15600SOL    HW246759   4.607   5.168   9.326
15601SOL     OW46760   4.792   4.703   9.398
15601SOL    HW146761   4.774   4.760   9.323
15601SOL    HW246762   4.868   4.651   9.371
15602SOL     OW46763   3.778   4.964   9.899
15602SOL    HW146764   3.775   4.971   9.994
15602SOL    HW246765   3.854   4.909   9.882
15603SOL     OW46766   4.134   4.151   9.866
15603SOL    HW146767   4.181   4.087   9.814
15603SOL    HW246768   4.169   4.141   9.954
15604SOL     OW46769   4.506   5.053   9.626
15604SOL    HW146770   4.481   4.962   9.643
15604SOL    HW246771   4.583   5.066   9.682
15605SOL     OW46772   5.099   3.765   9.492
15605SOL    HW146773   5.139   3.689   9.449
15605SOL    HW246774   5.009   3.737   9.510
15606SOL     OW46775   3.780   4.793   9.598
15606SOL    HW146776   3.876   4.787   9.591
15606SOL    HW246777   3.751   4.702   9.601
15607SOL     OW46778   4.618   5.395   9.664
15607SOL    HW146779   4.542   5.378   9.608
15607SOL    HW246780   4.588   5.465   9.723
15608SOL     OW46781   3.922   6.196   0.125
15608SOL    HW146782   3.839   6.182   0.171
15608SOL    HW246783   3.897   6.209   0.034
15609SOL     OW46784   3.943   5.875   0.990
15609SOL    HW146785   3.973   5.839   1.073
15609SOL    HW246786   3.856   5.837   0.978
15610SOL     OW46787   3.708   5.984   0.647
15610SOL    HW146788   3.626   6.006   0.692
15610SOL    HW246789   3.685   5.908   0.593
15611SOL     OW46790   4.299   6.894   1.209
15611SOL    HW146791   4.217   6.897   1.160
15611SOL    HW246792   4.316   6.985   1.232
15612SOL     OW46793   5.313   7.109   0.706
15612SOL    HW146794   5.266   7.078   0.783
15612SOL    HW246795   5.247   7.113   0.637
15613SOL     OW46796   4.863   6.287   0.686
15613SOL    HW146797   4.909   6.370   0.676
15613SOL    HW246798   4.813   6.296   0.767
15614SOL     OW46799   5.499   6.169   0.200
15614SOL    HW146800   5.425   6.199   0.147
15614SOL    HW246801   5.463   6.097   0.252
15615SOL     OW46802   4.451   6.715   1.058
15615SOL    HW146803   4.392   6.755   1.122
15615SOL    HW246804   4.494   6.789   1.015
15616SOL     OW46805   4.612   6.328   1.828
15616SOL    HW146806   4.605   6.395   1.896
15616SOL    HW246807   4.628   6.377   1.748
15617SOL     OW46808   4.410   6.563   0.645
15617SOL    HW146809   4.477   6.565   0.713
15617SOL    HW246810   4.343   6.625   0.676
15618SOL     OW46811   4.435   6.735   1.832
15618SOL    HW146812   4.487   6.808   1.867
15618SOL    HW246813   4.359   6.777   1.792
15619SOL     OW46814   4.066   6.982   1.071
15619SOL    HW146815   3.990   6.940   1.031
15619SOL    HW246816   4.102   7.038   1.002
15620SOL     OW46817   5.177   7.093   1.372
15620SOL    HW146818   5.232   7.170   1.385
15620SOL    HW246819   5.106   7.104   1.434
15621SOL     OW46820   4.182   5.960   1.455
15621SOL    HW146821   4.257   5.902   1.471
15621SOL    HW246822   4.106   5.909   1.483
15622SOL     OW46823   5.304   6.018   0.753
15622SOL    HW146824   5.230   6.026   0.692
15622SOL    HW246825   5.290   6.088   0.816
15623SOL     OW46826   3.952   7.306   0.470
15623SOL    HW146827   3.968   7.381   0.527
15623SOL    HW246828   4.037   7.286   0.431
15624SOL     OW46829   4.859   6.928   1.697
15624SOL    HW146830   4.905   6.917   1.780
15624SOL    HW246831   4.806   6.849   1.688
15625SOL     OW46832   3.933   7.030   0.508
15625SOL    HW146833   3.926   7.125   0.516
15625SOL    HW246834   3.894   6.996   0.588
15626SOL     OW46835   4.003   6.673   0.880
15626SOL    HW146836   4.006   6.584   0.916
15626SOL    HW246837   3.950   6.722   0.942
15627SOL     OW46838   4.297   7.390   1.420
15627SOL    HW146839   4.221   7.370   1.474
15627SOL    HW246840   4.330   7.473   1.454
15628SOL     OW46841   4.291   6.533   0.174
15628SOL    HW146842   4.265   6.603   0.114
15628SOL    HW246843   4.350   6.576   0.236
15629SOL     OW46844   5.315   5.720   1.459
15629SOL    HW146845   5.353   5.796   1.416
15629SOL    HW246846   5.284   5.752   1.543
15630SOL     OW46847   3.838   6.239   0.573
15630SOL    HW146848   3.803   6.154   0.597
15630SOL    HW246849   3.831   6.292   0.653
15631SOL     OW46850   5.586   7.324   0.307
15631SOL    HW146851   5.656   7.302   0.369
15631SOL    HW246852   5.600   7.416   0.285
15632SOL     OW46853   3.784   7.161   0.085
15632SOL    HW146854   3.761   7.074   0.117
15632SOL    HW246855   3.761   7.220   0.157
15633SOL     OW46856   5.422   6.506   0.664
15633SOL    HW146857   5.505   6.463   0.646
15633SOL    HW246858   5.403   6.555   0.584
15634SOL     OW46859   5.386   6.677   0.443
15634SOL    HW146860   5.467   6.673   0.393
15634SOL    HW246861   5.400   6.747   0.507
15635SOL     OW46862   3.845   6.335   1.578
15635SOL    HW146863   3.931   6.378   1.582
15635SOL    HW246864   3.783   6.406   1.564
15636SOL     OW46865   4.339   6.966   0.758
15636SOL    HW146866   4.297   6.881   0.752
15636SOL    HW246867   4.337   7.001   0.669
15637SOL     OW46868   4.995   6.812   1.417
15637SOL    HW146869   5.022   6.743   1.357
15637SOL    HW246870   5.056   6.806   1.490
15638SOL     OW46871   4.556   5.601   0.529
15638SOL    HW146872   4.597   5.681   0.498
15638SOL    HW246873   4.462   5.620   0.530
15639SOL     OW46874   3.911   6.542   1.302
15639SOL    HW146875   3.998   6.507   1.285
15639SOL    HW246876   3.856   6.505   1.232
15640SOL     OW46877   5.215   6.615   0.236
15640SOL    HW146878   5.160   6.542   0.267
15640SOL    HW246879   5.277   6.630   0.307
15641SOL     OW46880   4.903   7.408   1.635
15641SOL    HW146881   4.904   7.470   1.562
15641SOL    HW246882   4.920   7.323   1.595
15642SOL     OW46883   4.084   5.839   1.875
15642SOL    HW146884   4.119   5.920   1.913
15642SOL    HW246885   3.989   5.854   1.873
15643SOL     OW46886   5.196   7.003   0.930
15643SOL    HW146887   5.132   7.022   0.999
15643SOL    HW246888   5.178   6.912   0.906
15644SOL     OW46889   5.367   7.383   0.565
15644SOL    HW146890   5.351   7.337   0.482
15644SOL    HW246891   5.366   7.314   0.631
15645SOL     OW46892   4.317   6.277   0.285
15645SOL    HW146893   4.323   6.363   0.244
15645SOL    HW246894   4.250   6.287   0.353
15646SOL     OW46895   5.006   5.977   0.941
15646SOL    HW146896   4.917   5.942   0.947
15646SOL    HW246897   5.058   5.919   0.997
15647SOL     OW46898   5.314   7.263   0.324
15647SOL    HW146899   5.408   7.274   0.309
15647SOL    HW246900   5.278   7.245   0.237
15648SOL     OW46901   4.513   6.200   1.430
15648SOL    HW146902   4.491   6.171   1.519
15648SOL    HW246903   4.489   6.126   1.374
15649SOL     OW46904   5.116   6.062   1.674
15649SOL    HW146905   5.121   6.106   1.760
15649SOL    HW246906   5.166   5.982   1.685
15650SOL     OW46907   4.668   6.466   1.593
15650SOL    HW146908   4.724   6.403   1.549
15650SOL    HW246909   4.620   6.509   1.522
15651SOL     OW46910   4.731   5.984   1.209
15651SOL    HW146911   4.639   5.997   1.232
15651SOL    HW246912   4.729   5.939   1.125
15652SOL     OW46913   4.790   6.283   0.416
15652SOL    HW146914   4.810   6.279   0.510
15652SOL    HW246915   4.705   6.240   0.408
15653SOL     OW46916   3.817   6.413   0.783
15653SOL    HW146917   3.899   6.406   0.831
15653SOL    HW246918   3.769   6.484   0.827
15654SOL     OW46919   3.833   7.465   1.587
15654SOL    HW146920   3.841   7.445   1.681
15654SOL    HW246921   3.748   7.430   1.562
15655SOL     OW46922   4.585   5.925   0.200
15655SOL    HW146923   4.571   5.974   0.119
15655SOL    HW246924   4.594   5.834   0.171
15656SOL     OW46925   5.410   6.148   1.839
15656SOL    HW146926   5.389   6.226   1.788
15656SOL    HW246927   5.439   6.084   1.775
15657SOL     OW46928   5.120   6.735   0.556
15657SOL    HW146929   5.198   6.725   0.502
15657SOL    HW246930   5.064   6.796   0.507
15658SOL     OW46931   4.275   5.749   0.915
15658SOL    HW146932   4.281   5.776   1.006
15658SOL    HW246933   4.271   5.831   0.866
15659SOL     OW46934   4.724   7.039   0.471
15659SOL    HW146935   4.700   7.115   0.419
15659SOL    HW246936   4.691   7.059   0.559
15660SOL     OW46937   4.077   7.403   0.880
15660SOL    HW146938   4.122   7.319   0.884
15660SOL    HW246939   4.145   7.467   0.901
15661SOL     OW46940   5.527   6.630   0.895
15661SOL    HW146941   5.479   6.612   0.814
15661SOL    HW246942   5.459   6.640   0.962
15662SOL     OW46943   4.941   7.129   1.517
15662SOL    HW146944   4.930   7.059   1.580
15662SOL    HW246945   4.874   7.113   1.451
15663SOL     OW46946   4.036   6.513   0.290
15663SOL    HW146947   4.117   6.521   0.240
15663SOL    HW246948   4.039   6.425   0.326
15664SOL     OW46949   5.209   6.343   0.713
15664SOL    HW146950   5.209   6.302   0.800
15664SOL    HW246951   5.287   6.398   0.712
15665SOL     OW46952   4.197   6.870   1.748
15665SOL    HW146953   4.173   6.875   1.656
15665SOL    HW246954   4.114   6.858   1.794
15666SOL     OW46955   4.828   7.370   0.181
15666SOL    HW146956   4.772   7.329   0.247
15666SOL    HW246957   4.867   7.296   0.134
15667SOL     OW46958   3.932   5.842   1.498
15667SOL    HW146959   3.860   5.902   1.517
15667SOL    HW246960   3.902   5.757   1.532
15668SOL     OW46961   5.355   6.958   0.112
15668SOL    HW146962   5.314   7.044   0.105
15668SOL    HW246963   5.289   6.897   0.078
15669SOL     OW46964   4.212   7.294   0.376
15669SOL    HW146965   4.247   7.370   0.422
15669SOL    HW246966   4.278   7.273   0.310
15670SOL     OW46967   5.119   5.689   0.447
15670SOL    HW146968   5.116   5.669   0.353
15670SOL    HW246969   5.211   5.678   0.471
15671SOL     OW46970   3.976   7.374   1.215
15671SOL    HW146971   4.025   7.300   1.250
15671SOL    HW246972   3.963   7.353   1.122
15672SOL     OW46973   4.670   7.287   0.890
15672SOL    HW146974   4.754   7.244   0.904
15672SOL    HW246975   4.628   7.237   0.821
15673SOL     OW46976   4.097   6.279   0.464
15673SOL    HW146977   4.120   6.187   0.475
15673SOL    HW246978   4.008   6.286   0.499
15674SOL     OW46979   5.233   5.808   1.717
15674SOL    HW146980   5.246   5.827   1.810
15674SOL    HW246981   5.167   5.738   1.716
15675SOL     OW46982   4.331   5.678   0.117
15675SOL    HW146983   4.426   5.669   0.126
15675SOL    HW246984   4.317   5.684   0.022
15676SOL     OW46985   4.482   5.860   1.752
15676SOL    HW146986   4.567   5.815   1.750
15676SOL    HW246987   4.436   5.821   1.826
15677SOL     OW46988   4.594   7.114   1.201
15677SOL    HW146989   4.575   7.072   1.117
15677SOL    HW246990   4.661   7.059   1.241
15678SOL     OW46991   5.054   6.178   1.434
15678SOL    HW146992   5.087   6.147   1.518
15678SOL    HW246993   5.093   6.264   1.423
15679SOL     OW46994   4.541   6.963   0.961
15679SOL    HW146995   4.627   6.959   0.919
15679SOL    HW246996   4.479   6.975   0.890
15680SOL     OW46997   4.655   6.101   0.890
15680SOL    HW146998   4.630   6.088   0.799
15680SOL    HW246999   4.682   6.014   0.920
15681SOL     OW47000   4.288   5.662   0.502
15681SOL    HW147001   4.209   5.660   0.556
15681SOL    HW247002   4.275   5.734   0.442
15682SOL     OW47003   5.151   6.785   0.035
15682SOL    HW147004   5.175   6.719   0.100
15682SOL    HW247005   5.069   6.823   0.069
15683SOL     OW47006   4.676   5.836   0.450
15683SOL    HW147007   4.644   5.872   0.367
15683SOL    HW247008   4.769   5.857   0.451
15684SOL     OW47009   4.800   6.279   1.445
15684SOL    HW147010   4.737   6.207   1.451
15684SOL    HW247011   4.886   6.237   1.442
15685SOL     OW47012   4.929   7.174   0.800
15685SOL    HW147013   4.945   7.233   0.727
15685SOL    HW247014   5.001   7.191   0.861
15686SOL     OW47015   4.203   6.734   0.710
15686SOL    HW147016   4.139   6.713   0.778
15686SOL    HW247017   4.153   6.730   0.628
15687SOL     OW47018   4.977   7.379   0.613
15687SOL    HW147019   5.025   7.443   0.560
15687SOL    HW247020   4.907   7.431   0.655
15688SOL     OW47021   4.818   6.147   9.980
15688SOL    HW147022   4.730   6.110   9.986
15688SOL    HW247023   4.854   6.140   0.069
15689SOL     OW47024   3.823   6.138   1.391
15689SOL    HW147025   3.916   6.139   1.365
15689SOL    HW247026   3.816   6.206   1.457
15690SOL     OW47027   4.283   5.807   1.185
15690SOL    HW147028   4.321   5.743   1.245
15690SOL    HW247029   4.190   5.808   1.206
15691SOL     OW47030   4.597   6.038   0.633
15691SOL    HW147031   4.562   6.094   0.564
15691SOL    HW247032   4.621   5.957   0.587
15692SOL     OW47033   4.749   5.643   0.742
15692SOL    HW147034   4.686   5.640   0.671
15692SOL    HW247035   4.724   5.571   0.800
15693SOL     OW47036   5.155   6.739   0.854
15693SOL    HW147037   5.087   6.673   0.866
15693SOL    HW247038   5.165   6.746   0.759
15694SOL     OW47039   5.186   6.201   0.952
15694SOL    HW147040   5.122   6.130   0.962
15694SOL    HW247041   5.242   6.194   1.029
15695SOL     OW47042   5.584   6.375   0.369
15695SOL    HW147043   5.625   6.326   0.439
15695SOL    HW247044   5.545   6.308   0.312
15696SOL     OW47045   4.228   7.029   0.214
15696SOL    HW147046   4.147   6.984   0.234
15696SOL    HW247047   4.270   6.974   0.147
15697SOL     OW47048   5.435   6.858   0.632
15697SOL    HW147049   5.527   6.850   0.655
15697SOL    HW247050   5.410   6.946   0.658
15698SOL     OW47051   5.141   6.151   0.095
15698SOL    HW147052   5.065   6.139   0.151
15698SOL    HW247053   5.179   6.064   0.086
15699SOL     OW47054   4.233   5.850   0.310
15699SOL    HW147055   4.270   5.791   0.244
15699SOL    HW247056   4.210   5.929   0.261
15700SOL     OW47057   5.459   6.830   1.532
15700SOL    HW147058   5.547   6.796   1.519
15700SOL    HW247059   5.472   6.917   1.570
15701SOL     OW47060   4.766   6.942   1.336
15701SOL    HW147061   4.689   6.907   1.380
15701SOL    HW247062   4.840   6.896   1.376
15702SOL     OW47063   5.331   7.221   1.672
15702SOL    HW147064   5.320   7.257   1.584
15702SOL    HW247065   5.409   7.165   1.665
15703SOL     OW47066   4.875   6.824   1.105
15703SOL    HW147067   4.813   6.858   1.170
15703SOL    HW247068   4.841   6.856   1.021
15704SOL     OW47069   5.331   6.678   1.079
15704SOL    HW147070   5.323   6.744   1.147
15704SOL    HW247071   5.262   6.699   1.016
15705SOL     OW47072   4.643   5.667   1.383
15705SOL    HW147073   4.664   5.652   1.291
15705SOL    HW247074   4.721   5.708   1.419
15706SOL     OW47075   4.703   6.702   1.723
15706SOL    HW147076   4.613   6.718   1.751
15706SOL    HW247077   4.698   6.621   1.672
15707SOL     OW47078   4.447   6.638   0.377
15707SOL    HW147079   4.433   6.611   0.468
15707SOL    HW247080   4.528   6.593   0.351
15708SOL     OW47081   4.150   6.413   1.259
15708SOL    HW147082   4.218   6.424   1.326
15708SOL    HW247083   4.120   6.323   1.269
15709SOL     OW47084   4.989   5.955   1.291
15709SOL    HW147085   5.016   6.035   1.336
15709SOL    HW247086   4.899   5.973   1.262
15710SOL     OW47087   3.802   7.156   1.363
15710SOL    HW147088   3.772   7.228   1.307
15710SOL    HW247089   3.897   7.156   1.353
15711SOL     OW47090   4.039   6.711   0.488
15711SOL    HW147091   4.039   6.782   0.423
15711SOL    HW247092   4.047   6.631   0.436
15712SOL     OW47093   4.257   6.099   0.857
15712SOL    HW147094   4.267   6.158   0.782
15712SOL    HW247095   4.325   6.127   0.919
15713SOL     OW47096   4.973   6.934   0.419
15713SOL    HW147097   5.029   7.007   0.446
15713SOL    HW247098   4.885   6.960   0.444
15714SOL     OW47099   5.033   7.055   1.142
15714SOL    HW147100   5.081   7.061   1.225
15714SOL    HW247101   4.982   6.974   1.150
15715SOL     OW47102   5.264   6.208   0.473
15715SOL    HW147103   5.243   6.246   0.558
15715SOL    HW247104   5.219   6.265   0.409
15716SOL     OW47105   4.069   7.119   1.303
15716SOL    HW147106   4.061   7.066   1.223
15716SOL    HW247107   4.162   7.135   1.312
15717SOL     OW47108   4.156   6.332   1.618
15717SOL    HW147109   4.215   6.376   1.556
15717SOL    HW247110   4.200   6.250   1.639
15718SOL     OW47111   5.351   6.371   1.698
15718SOL    HW147112   5.264   6.410   1.689
15718SOL    HW247113   5.402   6.410   1.626
15719SOL     OW47114   4.719   5.727   1.757
15719SOL    HW147115   4.777   5.800   1.738
15719SOL    HW247116   4.770   5.649   1.736
15720SOL     OW47117   4.219   5.621   1.762
15720SOL    HW147118   4.165   5.571   1.702
15720SOL    HW247119   4.167   5.698   1.784
15721SOL     OW47120   4.314   6.461   1.038
15721SOL    HW147121   4.353   6.548   1.041
15721SOL    HW247122   4.257   6.457   1.115
15722SOL     OW47123   5.033   6.440   1.003
15722SOL    HW147124   4.945   6.413   0.978
15722SOL    HW247125   5.087   6.363   0.986
15723SOL     OW47126   4.915   6.105   0.246
15723SOL    HW147127   4.927   6.029   0.304
15723SOL    HW247128   4.874   6.171   0.301
15724SOL     OW47129   4.015   5.780   1.239
15724SOL    HW147130   3.981   5.808   1.323
15724SOL    HW247131   3.999   5.685   1.236
15725SOL     OW47132   3.773   6.899   1.267
15725SOL    HW147133   3.803   6.843   1.339
15725SOL    HW247134   3.776   6.987   1.303
15726SOL     OW47135   4.433   6.207   1.037
15726SOL    HW147136   4.512   6.201   0.984
15726SOL    HW247137   4.406   6.298   1.029
15727SOL     OW47138   5.475   6.554   1.869
15727SOL    HW147139   5.435   6.481   1.821
15727SOL    HW247140   5.412   6.574   1.938
15728SOL     OW47141   4.043   5.649   0.630
15728SOL    HW147142   4.011   5.738   0.649
15728SOL    HW247143   4.050   5.608   0.716
15729SOL     OW47144   5.360   5.979   0.352
15729SOL    HW147145   5.394   5.915   0.414
15729SOL    HW247146   5.325   6.050   0.406
15730SOL     OW47147   4.758   6.344   0.958
15730SOL    HW147148   4.736   6.359   1.050
15730SOL    HW247149   4.729   6.255   0.940
15731SOL     OW47150   4.704   7.151   1.735
15731SOL    HW147151   4.683   7.195   1.652
15731SOL    HW247152   4.743   7.068   1.709
15732SOL     OW47153   5.562   7.081   1.602
15732SOL    HW147154   5.589   7.110   1.515
15732SOL    HW247155   5.640   7.091   1.656
15733SOL     OW47156   4.073   6.505   1.816
15733SOL    HW147157   4.150   6.523   1.870
15733SOL    HW247158   4.104   6.442   1.751
15734SOL     OW47159   5.224   5.891   0.128
15734SOL    HW147160   5.175   5.811   0.150
15734SOL    HW247161   5.271   5.912   0.208
15735SOL     OW47162   5.045   6.404   0.040
15735SOL    HW147163   5.080   6.315   0.040
15735SOL    HW247164   5.102   6.452   9.979
15736SOL     OW47165   4.794   6.939   0.865
15736SOL    HW147166   4.805   6.866   0.805
15736SOL    HW247167   4.846   7.010   0.827
15737SOL     OW47168   4.042   6.400   0.944
15737SOL    HW147169   4.136   6.416   0.944
15737SOL    HW247170   4.032   6.310   0.975
15738SOL     OW47171   4.037   6.124   1.011
15738SOL    HW147172   3.998   6.037   1.002
15738SOL    HW247173   4.114   6.121   0.954
15739SOL     OW47174   4.863   5.954   1.685
15739SOL    HW147175   4.817   6.005   1.752
15739SOL    HW247176   4.948   5.996   1.677
15740SOL     OW47177   4.880   5.776   1.473
15740SOL    HW147178   4.869   5.838   1.545
15740SOL    HW247179   4.926   5.826   1.406
15741SOL     OW47180   3.742   6.876   0.171
15741SOL    HW147181   3.652   6.905   0.154
15741SOL    HW247182   3.732   6.796   0.223
15742SOL     OW47183   3.816   7.356   0.951
15742SOL    HW147184   3.783   7.282   0.900
15742SOL    HW247185   3.903   7.373   0.914
15743SOL     OW47186   4.208   7.158   0.905
15743SOL    HW147187   4.279   7.219   0.926
15743SOL    HW247188   4.250   7.090   0.852
15744SOL     OW47189   4.672   6.366   1.216
15744SOL    HW147190   4.735   6.355   1.287
15744SOL    HW247191   4.593   6.321   1.247
15745SOL     OW47192   3.764   6.159   1.121
15745SOL    HW147193   3.846   6.155   1.071
15745SOL    HW247194   3.791   6.151   1.212
15746SOL     OW47195   3.910   6.124   1.744
15746SOL    HW147196   3.983   6.092   1.692
15746SOL    HW247197   3.875   6.198   1.694
15747SOL     OW47198   5.116   6.507   1.652
15747SOL    HW147199   5.133   6.601   1.647
15747SOL    HW247200   5.108   6.479   1.560
15748SOL     OW47201   4.552   6.150   0.374
15748SOL    HW147202   4.557   6.075   0.315
15748SOL    HW247203   4.473   6.197   0.347
15749SOL     OW47204   5.360   6.186   1.164
15749SOL    HW147205   5.351   6.128   1.239
15749SOL    HW247206   5.451   6.176   1.136
15750SOL     OW47207   3.950   7.126   1.723
15750SOL    HW147208   3.926   7.174   1.802
15750SOL    HW247209   3.962   7.036   1.753
15751SOL     OW47210   4.457   6.019   1.233
15751SOL    HW147211   4.394   5.949   1.219
15751SOL    HW247212   4.439   6.083   1.164
15752SOL     OW47213   4.628   7.266   1.489
15752SOL    HW147214   4.607   7.218   1.409
15752SOL    HW247215   4.631   7.357   1.462
15753SOL     OW47216   4.176   6.072   0.155
15753SOL    HW147217   4.234   6.138   0.191
15753SOL    HW247218   4.090   6.115   0.150
15754SOL     OW47219   3.854   6.737   1.481
15754SOL    HW147220   3.858   6.697   1.568
15754SOL    HW247221   3.875   6.665   1.421
15755SOL     OW47222   5.027   6.620   1.209
15755SOL    HW147223   5.037   6.557   1.138
15755SOL    HW247224   4.974   6.690   1.171
15756SOL     OW47225   5.051   6.405   0.319
15756SOL    HW147226   4.965   6.382   0.356
15756SOL    HW247227   5.037   6.401   0.224
15757SOL     OW47228   5.511   7.310   1.170
15757SOL    HW147229   5.572   7.335   1.102
15757SOL    HW247230   5.479   7.224   1.143
15758SOL     OW47231   4.965   7.320   1.090
15758SOL    HW147232   5.049   7.349   1.057
15758SOL    HW247233   4.979   7.228   1.115
15759SOL     OW47234   3.829   6.835   1.011
15759SOL    HW147235   3.801   6.856   1.100
15759SOL    HW247236   3.758   6.782   0.976
15760SOL     OW47237   4.411   7.269   1.749
15760SOL    HW147238   4.349   7.340   1.736
15760SOL    HW247239   4.485   7.292   1.692
15761SOL     OW47240   4.610   5.664   0.099
15761SOL    HW147241   4.604   5.638   0.007
15761SOL    HW247242   4.688   5.619   0.131
15762SOL     OW47243   5.477   5.768   0.496
15762SOL    HW147244   5.537   5.745   0.424
15762SOL    HW247245   5.448   5.684   0.530
15763SOL     OW47246   5.124   7.157   0.504
15763SOL    HW147247   5.181   7.191   0.435
15763SOL    HW247248   5.071   7.232   0.530
15764SOL     OW47249   3.858   7.393   1.844
15764SOL    HW147250   3.817   7.316   1.885
15764SOL    HW247251   3.908   7.434   1.914
15765SOL     OW47252   5.003   6.519   0.669
15765SOL    HW147253   5.077   6.459   0.681
15765SOL    HW247254   5.040   6.591   0.618
15766SOL     OW47255   4.507   6.866   1.414
15766SOL    HW147256   4.481   6.914   1.493
15766SOL    HW247257   4.433   6.876   1.354
15767SOL     OW47258   4.409   7.224   0.188
15767SOL    HW147259   4.413   7.240   0.094
15767SOL    HW247260   4.353   7.147   0.198
15768SOL     OW47261   5.340   7.316   1.402
15768SOL    HW147262   5.397   7.316   1.325
15768SOL    HW247263   5.324   7.409   1.420
15769SOL     OW47264   5.569   5.746   0.963
15769SOL    HW147265   5.597   5.657   0.943
15769SOL    HW247266   5.481   5.752   0.926
15770SOL     OW47267   3.966   5.898   0.709
15770SOL    HW147268   3.880   5.934   0.689
15770SOL    HW247269   3.971   5.898   0.805
15771SOL     OW47270   4.940   7.153   0.052
15771SOL    HW147271   4.928   7.064   0.083
15771SOL    HW247272   4.954   7.144   9.958
15772SOL     OW47273   4.547   6.597   1.385
15772SOL    HW147274   4.585   6.588   1.298
15772SOL    HW247275   4.537   6.692   1.397
15773SOL     OW47276   4.667   6.508   0.296
15773SOL    HW147277   4.715   6.529   0.216
15773SOL    HW247278   4.714   6.434   0.334
15774SOL     OW47279   5.213   7.198   0.075
15774SOL    HW147280   5.118   7.190   0.082
15774SOL    HW247281   5.229   7.206   9.981
15775SOL     OW47282   4.087   6.899   1.502
15775SOL    HW147283   4.079   6.972   1.441
15775SOL    HW247284   4.009   6.846   1.485
15776SOL     OW47285   5.323   6.876   1.277
15776SOL    HW147286   5.377   6.852   1.352
15776SOL    HW247287   5.264   6.944   1.311
15777SOL     OW47288   4.801   6.704   0.731
15777SOL    HW147289   4.725   6.655   0.762
15777SOL    HW247290   4.863   6.637   0.702
15778SOL     OW47291   4.757   5.835   0.962
15778SOL    HW147292   4.757   5.792   0.876
15778SOL    HW247293   4.750   5.763   1.024
15779SOL     OW47294   4.346   7.071   0.508
15779SOL    HW147295   4.387   7.016   0.441
15779SOL    HW247296   4.277   7.119   0.461
15780SOL     OW47297   5.468   5.969   1.387
15780SOL    HW147298   5.540   6.033   1.384
15780SOL    HW247299   5.495   5.900   1.326
15781SOL     OW47300   3.994   6.899   0.283
15781SOL    HW147301   3.911   6.901   0.234
15781SOL    HW247302   3.977   6.952   0.360
15782SOL     OW47303   3.844   6.633   1.736
15782SOL    HW147304   3.767   6.604   1.785
15782SOL    HW247305   3.917   6.582   1.772
15783SOL     OW47306   4.403   5.774   1.495
15783SOL    HW147307   4.487   5.749   1.457
15783SOL    HW247308   4.426   5.808   1.582
15784SOL     OW47309   3.812   5.861   0.020
15784SOL    HW147310   3.723   5.878   9.990
15784SOL    HW247311   3.860   5.941   0.000
15785SOL     OW47312   5.139   6.440   1.388
15785SOL    HW147313   5.086   6.499   1.334
15785SOL    HW247314   5.227   6.444   1.351
15786SOL     OW47315   3.798   5.727   0.278
15786SOL    HW147316   3.791   5.776   0.196
15786SOL    HW247317   3.893   5.716   0.290
15787SOL     OW47318   4.921   6.898   0.146
15787SOL    HW147319   4.833   6.861   0.136
15787SOL    HW247320   4.938   6.896   0.240
15788SOL     OW47321   4.349   6.418   1.441
15788SOL    HW147322   4.408   6.493   1.430
15788SOL    HW247323   4.407   6.341   1.440
15789SOL     OW47324   5.211   7.389   0.993
15789SOL    HW147325   5.238   7.463   0.939
15789SOL    HW247326   5.293   7.344   1.015
15790SOL     OW47327   4.449   6.134   1.686
15790SOL    HW147328   4.496   6.188   1.750
15790SOL    HW247329   4.459   6.045   1.718
15791SOL     OW47330   5.192   6.770   1.619
15791SOL    HW147331   5.185   6.792   1.712
15791SOL    HW247332   5.282   6.794   1.596
15792SOL     OW47333   4.078   7.333   1.580
15792SOL    HW147334   3.996   7.379   1.562
15792SOL    HW247335   4.051   7.249   1.618
15793SOL     OW47336   5.379   6.461   1.253
15793SOL    HW147337   5.377   6.378   1.207
15793SOL    HW247338   5.366   6.527   1.185
15794SOL     OW47339   4.944   5.910   0.452
15794SOL    HW147340   5.004   5.835   0.449
15794SOL    HW247341   4.973   5.961   0.527
15795SOL     OW47342   4.290   6.309   0.678
15795SOL    HW147343   4.337   6.392   0.666
15795SOL    HW247344   4.226   6.308   0.606
15796SOL     OW47345   5.472   5.941   1.663
15796SOL    HW147346   5.467   5.957   1.569
15796SOL    HW247347   5.394   5.888   1.682
15797SOL     OW47348   5.484   6.511   1.504
15797SOL    HW147349   5.467   6.604   1.517
15797SOL    HW247350   5.457   6.494   1.414
15798SOL     OW47351   4.622   7.004   0.043
15798SOL    HW147352   4.536   6.964   0.026
15798SOL    HW247353   4.616   7.036   0.133
15799SOL     OW47354   4.391   7.355   0.929
15799SOL    HW147355   4.373   7.448   0.919
15799SOL    HW247356   4.487   7.348   0.926
15800SOL     OW47357   4.596   6.561   0.857
15800SOL    HW147358   4.647   6.489   0.893
15800SOL    HW247359   4.551   6.599   0.932
15801SOL     OW47360   4.820   6.559   0.074
15801SOL    HW147361   4.813   6.607   9.991
15801SOL    HW247362   4.894   6.500   0.062
15802SOL     OW47363   5.554   7.143   0.841
15802SOL    HW147364   5.478   7.135   0.784
15802SOL    HW247365   5.532   7.092   0.918
15803SOL     OW47366   3.936   6.872   1.836
15803SOL    HW147367   3.904   6.792   1.793
15803SOL    HW247368   3.877   6.884   1.910
15804SOL     OW47369   3.842   6.804   0.670
15804SOL    HW147370   3.872   6.764   0.751
15804SOL    HW247371   3.902   6.771   0.603
15805SOL     OW47372   4.414   7.005   1.632
15805SOL    HW147373   4.338   6.966   1.674
15805SOL    HW247374   4.419   7.093   1.669
15806SOL     OW47375   5.534   5.758   1.233
15806SOL    HW147376   5.536   5.663   1.247
15806SOL    HW247377   5.548   5.769   1.139
15807SOL     OW47378   4.137   6.020   0.516
15807SOL    HW147379   4.171   5.950   0.460
15807SOL    HW247380   4.089   5.974   0.585
15808SOL     OW47381   5.419   7.066   1.082
15808SOL    HW147382   5.341   7.046   1.030
15808SOL    HW247383   5.420   6.999   1.150
15809SOL     OW47384   4.076   6.151   1.292
15809SOL    HW147385   4.125   6.087   1.343
15809SOL    HW247386   4.084   6.121   1.201
15810SOL     OW47387   4.559   7.185   0.661
15810SOL    HW147388   4.550   7.268   0.615
15810SOL    HW247389   4.483   7.134   0.633
15811SOL     OW47390   5.146   5.819   1.116
15811SOL    HW147391   5.156   5.730   1.150
15811SOL    HW247392   5.100   5.866   1.185
15812SOL     OW47393   4.734   5.603   1.119
15812SOL    HW147394   4.679   5.540   1.073
15812SOL    HW247395   4.821   5.562   1.122
15813SOL     OW47396   4.499   6.912   0.344
15813SOL    HW147397   4.479   6.818   0.347
15813SOL    HW247398   4.585   6.919   0.386
15814SOL     OW47399   4.339   7.156   1.288
15814SOL    HW147400   4.334   7.240   1.333
15814SOL    HW247401   4.429   7.151   1.255
15815SOL     OW47402   5.076   5.644   0.176
15815SOL    HW147403   5.098   5.607   0.090
15815SOL    HW247404   4.986   5.614   0.192
15816SOL     OW47405   5.024   6.053   0.675
15816SOL    HW147406   4.974   6.135   0.671
15816SOL    HW247407   5.015   6.024   0.766
15817SOL     OW47408   5.306   5.774   0.894
15817SOL    HW147409   5.254   5.803   0.968
15817SOL    HW247410   5.305   5.848   0.833
15818SOL     OW47411   3.766   6.630   0.303
15818SOL    HW147412   3.861   6.631   0.308
15818SOL    HW247413   3.741   6.542   0.332
15819SOL     OW47414   4.630   7.266   0.344
15819SOL    HW147415   4.552   7.251   0.292
15819SOL    HW247416   4.605   7.336   0.405
15820SOL     OW47417   3.931   6.209   2.010
15820SOL    HW147418   3.843   6.196   2.046
15820SOL    HW247419   3.920   6.195   1.916
15821SOL     OW47420   3.942   5.877   2.852
15821SOL    HW147421   3.975   5.840   2.934
15821SOL    HW247422   3.855   5.838   2.842
15822SOL     OW47423   3.711   5.982   2.507
15822SOL    HW147424   3.631   6.007   2.553
15822SOL    HW247425   3.685   5.908   2.452
15823SOL     OW47426   4.299   6.895   3.070
15823SOL    HW147427   4.217   6.898   3.022
15823SOL    HW247428   4.317   6.987   3.093
15824SOL     OW47429   5.313   7.110   2.568
15824SOL    HW147430   5.266   7.079   2.645
15824SOL    HW247431   5.246   7.113   2.499
15825SOL     OW47432   4.861   6.290   2.549
15825SOL    HW147433   4.907   6.373   2.538
15825SOL    HW247434   4.812   6.301   2.630
15826SOL     OW47435   5.525   6.166   2.081
15826SOL    HW147436   5.487   6.166   1.994
15826SOL    HW247437   5.481   6.095   2.128
15827SOL     OW47438   4.448   6.715   2.918
15827SOL    HW147439   4.392   6.756   2.983
15827SOL    HW247440   4.491   6.789   2.874
15828SOL     OW47441   4.610   6.327   3.692
15828SOL    HW147442   4.606   6.392   3.762
15828SOL    HW247443   4.629   6.378   3.614
15829SOL     OW47444   4.409   6.572   2.506
15829SOL    HW147445   4.476   6.571   2.574
15829SOL    HW247446   4.343   6.633   2.539
15830SOL     OW47447   4.434   6.731   3.687
15830SOL    HW147448   4.481   6.807   3.722
15830SOL    HW247449   4.357   6.769   3.643
15831SOL     OW47450   4.063   6.984   2.934
15831SOL    HW147451   3.988   6.940   2.895
15831SOL    HW247452   4.100   7.037   2.863
15832SOL     OW47453   5.178   7.093   3.234
15832SOL    HW147454   5.233   7.170   3.247
15832SOL    HW247455   5.107   7.104   3.297
15833SOL     OW47456   4.184   5.960   3.318
15833SOL    HW147457   4.259   5.903   3.333
15833SOL    HW247458   4.109   5.907   3.346
15834SOL     OW47459   5.308   6.018   2.617
15834SOL    HW147460   5.240   6.028   2.551
15834SOL    HW247461   5.290   6.088   2.681
15835SOL     OW47462   3.943   7.314   2.327
15835SOL    HW147463   3.969   7.385   2.386
15835SOL    HW247464   4.016   7.303   2.267
15836SOL     OW47465   4.859   6.928   3.560
15836SOL    HW147466   4.906   6.915   3.643
15836SOL    HW247467   4.806   6.850   3.550
15837SOL     OW47468   3.953   7.043   2.395
15837SOL    HW147469   3.935   7.137   2.397
15837SOL    HW247470   3.904   7.008   2.469
15838SOL     OW47471   4.001   6.678   2.741
15838SOL    HW147472   4.008   6.588   2.772
15838SOL    HW247473   3.948   6.722   2.807
15839SOL     OW47474   4.295   7.397   3.272
15839SOL    HW147475   4.220   7.376   3.328
15839SOL    HW247476   4.332   7.476   3.310
15840SOL     OW47477   4.289   6.574   2.014
15840SOL    HW147478   4.340   6.616   1.945
15840SOL    HW247479   4.330   6.603   2.096
15841SOL     OW47480   5.313   5.723   3.322
15841SOL    HW147481   5.350   5.801   3.281
15841SOL    HW247482   5.285   5.753   3.409
15842SOL     OW47483   3.842   6.245   2.429
15842SOL    HW147484   3.811   6.157   2.452
15842SOL    HW247485   3.836   6.294   2.511
15843SOL     OW47486   5.570   7.329   2.180
15843SOL    HW147487   5.642   7.314   2.241
15843SOL    HW247488   5.577   7.422   2.157
15844SOL     OW47489   3.783   7.166   1.972
15844SOL    HW147490   3.762   7.075   1.991
15844SOL    HW247491   3.752   7.214   2.049
15845SOL     OW47492   5.422   6.511   2.516
15845SOL    HW147493   5.505   6.468   2.498
15845SOL    HW247494   5.403   6.561   2.437
15846SOL     OW47495   5.381   6.690   2.295
15846SOL    HW147496   5.466   6.682   2.251
15846SOL    HW247497   5.396   6.756   2.363
15847SOL     OW47498   3.893   6.331   3.449
15847SOL    HW147499   3.989   6.335   3.449
15847SOL    HW247500   3.866   6.420   3.473
15848SOL     OW47501   4.345   6.984   2.592
15848SOL    HW147502   4.303   6.898   2.597
15848SOL    HW247503   4.330   7.013   2.502
15849SOL     OW47504   4.996   6.812   3.278
15849SOL    HW147505   5.023   6.742   3.218
15849SOL    HW247506   5.057   6.806   3.351
15850SOL     OW47507   4.556   5.598   2.380
15850SOL    HW147508   4.596   5.681   2.353
15850SOL    HW247509   4.462   5.616   2.380
15851SOL     OW47510   3.909   6.548   3.145
15851SOL    HW147511   3.997   6.511   3.137
15851SOL    HW247512   3.860   6.509   3.073
15852SOL     OW47513   5.259   6.601   2.061
15852SOL    HW147514   5.190   6.541   2.091
15852SOL    HW247515   5.301   6.631   2.142
15853SOL     OW47516   4.900   7.407   3.496
15853SOL    HW147517   4.903   7.469   3.424
15853SOL    HW247518   4.918   7.322   3.456
15854SOL     OW47519   4.083   5.846   3.726
15854SOL    HW147520   4.119   5.923   3.770
15854SOL    HW247521   3.988   5.852   3.741
15855SOL     OW47522   5.195   7.004   2.792
15855SOL    HW147523   5.133   7.023   2.862
15855SOL    HW247524   5.178   6.913   2.768
15856SOL     OW47525   5.361   7.383   2.424
15856SOL    HW147526   5.344   7.335   2.343
15856SOL    HW247527   5.362   7.315   2.492
15857SOL     OW47528   4.311   6.285   2.133
15857SOL    HW147529   4.315   6.372   2.095
15857SOL    HW247530   4.246   6.292   2.203
15858SOL     OW47531   5.006   5.978   2.803
15858SOL    HW147532   4.917   5.943   2.808
15858SOL    HW247533   5.058   5.921   2.858
15859SOL     OW47534   5.303   7.259   2.181
15859SOL    HW147535   5.397   7.273   2.170
15859SOL    HW247536   5.270   7.246   2.092
15860SOL     OW47537   4.508   6.199   3.296
15860SOL    HW147538   4.485   6.170   3.384
15860SOL    HW247539   4.487   6.125   3.239
15861SOL     OW47540   5.118   6.060   3.543
15861SOL    HW147541   5.122   6.104   3.628
15861SOL    HW247542   5.169   5.980   3.556
15862SOL     OW47543   4.669   6.464   3.456
15862SOL    HW147544   4.725   6.400   3.412
15862SOL    HW247545   4.620   6.505   3.385
15863SOL     OW47546   4.732   5.988   3.070
15863SOL    HW147547   4.640   5.999   3.094
15863SOL    HW247548   4.730   5.941   2.987
15864SOL     OW47549   4.782   6.283   2.281
15864SOL    HW147550   4.803   6.280   2.374
15864SOL    HW247551   4.697   6.239   2.274
15865SOL     OW47552   3.817   6.409   2.647
15865SOL    HW147553   3.900   6.406   2.695
15865SOL    HW247554   3.769   6.481   2.688
15866SOL     OW47555   3.833   7.467   3.455
15866SOL    HW147556   3.842   7.441   3.546
15866SOL    HW247557   3.744   7.440   3.431
15867SOL     OW47558   4.613   5.937   2.062
15867SOL    HW147559   4.664   5.990   2.001
15867SOL    HW247560   4.591   5.858   2.012
15868SOL     OW47561   5.417   6.149   3.703
15868SOL    HW147562   5.392   6.226   3.652
15868SOL    HW247563   5.444   6.085   3.637
15869SOL     OW47564   5.117   6.735   2.406
15869SOL    HW147565   5.197   6.723   2.355
15869SOL    HW247566   5.064   6.796   2.355
15870SOL     OW47567   4.275   5.746   2.777
15870SOL    HW147568   4.282   5.774   2.869
15870SOL    HW247569   4.271   5.828   2.728
15871SOL     OW47570   4.721   7.042   2.327
15871SOL    HW147571   4.697   7.116   2.272
15871SOL    HW247572   4.692   7.066   2.415
15872SOL     OW47573   4.077   7.402   2.745
15872SOL    HW147574   4.124   7.318   2.748
15872SOL    HW247575   4.144   7.467   2.765
15873SOL     OW47576   5.528   6.633   2.751
15873SOL    HW147577   5.479   6.616   2.671
15873SOL    HW247578   5.460   6.640   2.819
15874SOL     OW47579   4.940   7.129   3.378
15874SOL    HW147580   4.930   7.060   3.444
15874SOL    HW247581   4.877   7.107   3.310
15875SOL     OW47582   4.024   6.544   2.127
15875SOL    HW147583   4.106   6.565   2.084
15875SOL    HW247584   4.001   6.457   2.095
15876SOL     OW47585   5.208   6.349   2.573
15876SOL    HW147586   5.210   6.305   2.658
15876SOL    HW247587   5.287   6.402   2.572
15877SOL     OW47588   4.205   6.864   3.597
15877SOL    HW147589   4.176   6.867   3.506
15877SOL    HW247590   4.124   6.863   3.649
15878SOL     OW47591   4.863   7.363   2.087
15878SOL    HW147592   4.781   7.332   2.127
15878SOL    HW247593   4.883   7.297   2.020
15879SOL     OW47594   3.933   5.838   3.357
15879SOL    HW147595   3.857   5.895   3.365
15879SOL    HW247596   3.904   5.754   3.392
15880SOL     OW47597   5.362   6.974   1.961
15880SOL    HW147598   5.321   7.060   1.949
15880SOL    HW247599   5.295   6.911   1.935
15881SOL     OW47600   4.183   7.327   2.178
15881SOL    HW147601   4.232   7.378   2.242
15881SOL    HW247602   4.250   7.287   2.123
15882SOL     OW47603   5.121   5.692   2.321
15882SOL    HW147604   5.121   5.667   2.228
15882SOL    HW247605   5.212   5.679   2.349
15883SOL     OW47606   3.974   7.372   3.079
15883SOL    HW147607   4.027   7.300   3.116
15883SOL    HW247608   3.970   7.353   2.986
15884SOL     OW47609   4.672   7.288   2.752
15884SOL    HW147610   4.757   7.247   2.767
15884SOL    HW247611   4.633   7.237   2.681
15885SOL     OW47612   4.118   6.272   2.334
15885SOL    HW147613   4.131   6.178   2.347
15885SOL    HW247614   4.025   6.286   2.351
15886SOL     OW47615   5.242   5.810   3.591
15886SOL    HW147616   5.257   5.832   3.683
15886SOL    HW247617   5.181   5.736   3.593
15887SOL     OW47618   4.387   5.696   1.965
15887SOL    HW147619   4.433   5.617   1.993
15887SOL    HW247620   4.326   5.665   1.898
15888SOL     OW47621   4.480   5.863   3.615
15888SOL    HW147622   4.565   5.819   3.612
15888SOL    HW247623   4.436   5.826   3.692
15889SOL     OW47624   4.592   7.112   3.060
15889SOL    HW147625   4.576   7.069   2.976
15889SOL    HW247626   4.661   7.059   3.101
15890SOL     OW47627   5.056   6.178   3.302
15890SOL    HW147628   5.089   6.146   3.386
15890SOL    HW247629   5.097   6.264   3.291
15891SOL     OW47630   4.539   6.961   2.817
15891SOL    HW147631   4.627   6.957   2.779
15891SOL    HW247632   4.481   6.977   2.743
15892SOL     OW47633   4.653   6.102   2.751
15892SOL    HW147634   4.628   6.089   2.659
15892SOL    HW247635   4.681   6.015   2.780
15893SOL     OW47636   4.288   5.650   2.352
15893SOL    HW147637   4.210   5.650   2.408
15893SOL    HW247638   4.275   5.724   2.294
15894SOL     OW47639   5.158   6.798   1.894
15894SOL    HW147640   5.188   6.724   1.947
15894SOL    HW247641   5.073   6.821   1.931
15895SOL     OW47642   4.007   5.634   2.050
15895SOL    HW147643   4.060   5.701   2.008
15895SOL    HW247644   4.070   5.576   2.092
15896SOL     OW47645   4.676   5.837   2.313
15896SOL    HW147646   4.651   5.873   2.228
15896SOL    HW247647   4.770   5.854   2.319
15897SOL     OW47648   4.801   6.277   3.307
15897SOL    HW147649   4.742   6.201   3.316
15897SOL    HW247650   4.888   6.238   3.307
15898SOL     OW47651   4.929   7.172   2.664
15898SOL    HW147652   4.945   7.233   2.592
15898SOL    HW247653   5.003   7.187   2.724
15899SOL     OW47654   4.203   6.748   2.571
15899SOL    HW147655   4.140   6.724   2.639
15899SOL    HW247656   4.154   6.740   2.489
15900SOL     OW47657   4.975   7.378   2.479
15900SOL    HW147658   5.025   7.441   2.427
15900SOL    HW247659   4.905   7.429   2.518
15901SOL     OW47660   4.756   6.101   1.892
15901SOL    HW147661   4.714   6.184   1.873
15901SOL    HW247662   4.820   6.120   1.960
15902SOL     OW47663   3.826   6.147   3.255
15902SOL    HW147664   3.917   6.140   3.225
15902SOL    HW247665   3.827   6.217   3.320
15903SOL     OW47666   4.287   5.805   3.047
15903SOL    HW147667   4.324   5.741   3.107
15903SOL    HW247668   4.193   5.805   3.067
15904SOL     OW47669   4.593   6.040   2.492
15904SOL    HW147670   4.555   6.096   2.425
15904SOL    HW247671   4.619   5.961   2.446
15905SOL     OW47672   4.745   5.644   2.602
15905SOL    HW147673   4.684   5.637   2.528
15905SOL    HW247674   4.721   5.571   2.660
15906SOL     OW47675   5.157   6.739   2.717
15906SOL    HW147676   5.090   6.672   2.728
15906SOL    HW247677   5.170   6.745   2.622
15907SOL     OW47678   5.186   6.202   2.811
15907SOL    HW147679   5.123   6.131   2.822
15907SOL    HW247680   5.243   6.195   2.889
15908SOL     OW47681   5.552   6.382   2.248
15908SOL    HW147682   5.612   6.339   2.309
15908SOL    HW247683   5.539   6.318   2.178
15909SOL     OW47684   4.222   7.011   2.013
15909SOL    HW147685   4.147   6.979   2.063
15909SOL    HW247686   4.219   6.961   1.931
15910SOL     OW47687   5.433   6.859   2.494
15910SOL    HW147688   5.526   6.852   2.515
15910SOL    HW247689   5.409   6.947   2.520
15911SOL     OW47690   5.116   6.161   1.928
15911SOL    HW147691   5.060   6.135   2.001
15911SOL    HW247692   5.205   6.138   1.956
15912SOL     OW47693   4.250   5.844   2.164
15912SOL    HW147694   4.304   5.802   2.097
15912SOL    HW247695   4.218   5.924   2.122
15913SOL     OW47696   5.459   6.830   3.393
15913SOL    HW147697   5.547   6.796   3.380
15913SOL    HW247698   5.473   6.917   3.432
15914SOL     OW47699   4.768   6.944   3.198
15914SOL    HW147700   4.691   6.907   3.241
15914SOL    HW247701   4.842   6.896   3.237
15915SOL     OW47702   5.330   7.221   3.533
15915SOL    HW147703   5.320   7.258   3.445
15915SOL    HW247704   5.407   7.166   3.528
15916SOL     OW47705   4.875   6.823   2.967
15916SOL    HW147706   4.813   6.858   3.032
15916SOL    HW247707   4.842   6.855   2.883
15917SOL     OW47708   5.334   6.678   2.939
15917SOL    HW147709   5.326   6.744   3.008
15917SOL    HW247710   5.264   6.700   2.878
15918SOL     OW47711   4.642   5.669   3.243
15918SOL    HW147712   4.665   5.654   3.152
15918SOL    HW247713   4.720   5.709   3.281
15919SOL     OW47714   4.701   6.704   3.578
15919SOL    HW147715   4.610   6.719   3.606
15919SOL    HW247716   4.697   6.622   3.529
15920SOL     OW47717   4.438   6.648   2.238
15920SOL    HW147718   4.423   6.622   2.329
15920SOL    HW247719   4.512   6.595   2.210
15921SOL     OW47720   4.148   6.414   3.123
15921SOL    HW147721   4.216   6.424   3.189
15921SOL    HW247722   4.120   6.323   3.131
15922SOL     OW47723   4.990   5.959   3.153
15922SOL    HW147724   5.017   6.038   3.200
15922SOL    HW247725   4.901   5.978   3.124
15923SOL     OW47726   3.802   7.149   3.219
15923SOL    HW147727   3.774   7.225   3.167
15923SOL    HW247728   3.897   7.149   3.212
15924SOL     OW47729   4.041   6.721   2.347
15924SOL    HW147730   4.043   6.792   2.284
15924SOL    HW247731   4.039   6.641   2.293
15925SOL     OW47732   4.257   6.104   2.720
15925SOL    HW147733   4.270   6.162   2.645
15925SOL    HW247734   4.325   6.128   2.782
15926SOL     OW47735   4.971   6.940   2.260
15926SOL    HW147736   5.028   7.010   2.294
15926SOL    HW247737   4.884   6.963   2.290
15927SOL     OW47738   5.034   7.054   3.005
15927SOL    HW147739   5.082   7.062   3.087
15927SOL    HW247740   4.983   6.973   3.014
15928SOL     OW47741   5.299   6.205   2.347
15928SOL    HW147742   5.248   6.245   2.417
15928SOL    HW247743   5.350   6.277   2.310
15929SOL     OW47744   4.070   7.115   3.168
15929SOL    HW147745   4.063   7.065   3.086
15929SOL    HW247746   4.164   7.133   3.178
15930SOL     OW47747   4.171   6.315   3.484
15930SOL    HW147748   4.226   6.361   3.420
15930SOL    HW247749   4.224   6.239   3.510
15931SOL     OW47750   5.351   6.370   3.560
15931SOL    HW147751   5.264   6.409   3.552
15931SOL    HW247752   5.401   6.410   3.488
15932SOL     OW47753   4.716   5.730   3.615
15932SOL    HW147754   4.777   5.802   3.598
15932SOL    HW247755   4.766   5.651   3.596
15933SOL     OW47756   4.224   5.626   3.620
15933SOL    HW147757   4.169   5.572   3.563
15933SOL    HW247758   4.171   5.703   3.639
15934SOL     OW47759   4.314   6.462   2.902
15934SOL    HW147760   4.353   6.549   2.905
15934SOL    HW247761   4.258   6.458   2.979
15935SOL     OW47762   5.033   6.440   2.863
15935SOL    HW147763   4.945   6.412   2.839
15935SOL    HW247764   5.088   6.364   2.846
15936SOL     OW47765   4.922   6.109   2.119
15936SOL    HW147766   4.933   6.033   2.176
15936SOL    HW247767   4.881   6.175   2.175
15937SOL     OW47768   4.018   5.778   3.098
15937SOL    HW147769   3.987   5.805   3.185
15937SOL    HW247770   4.002   5.684   3.095
15938SOL     OW47771   3.732   6.894   3.149
15938SOL    HW147772   3.778   6.838   3.211
15938SOL    HW247773   3.758   6.983   3.172
15939SOL     OW47774   4.435   6.207   2.901
15939SOL    HW147775   4.513   6.199   2.846
15939SOL    HW247776   4.407   6.298   2.891
15940SOL     OW47777   5.474   6.555   3.729
15940SOL    HW147778   5.436   6.480   3.683
15940SOL    HW247779   5.411   6.575   3.798
15941SOL     OW47780   4.049   5.646   2.491
15941SOL    HW147781   4.016   5.733   2.509
15941SOL    HW247782   4.055   5.604   2.577
15942SOL     OW47783   5.356   5.977   2.206
15942SOL    HW147784   5.387   5.911   2.268
15942SOL    HW247785   5.326   6.050   2.261
15943SOL     OW47786   4.757   6.345   2.820
15943SOL    HW147787   4.736   6.359   2.912
15943SOL    HW247788   4.728   6.255   2.802
15944SOL     OW47789   4.704   7.150   3.601
15944SOL    HW147790   4.682   7.196   3.519
15944SOL    HW247791   4.744   7.068   3.573
15945SOL     OW47792   5.561   7.081   3.465
15945SOL    HW147793   5.589   7.110   3.378
15945SOL    HW247794   5.639   7.091   3.520
15946SOL     OW47795   4.093   6.509   3.669
15946SOL    HW147796   4.163   6.530   3.731
15946SOL    HW247797   4.130   6.441   3.613
15947SOL     OW47798   5.246   5.855   1.981
15947SOL    HW147799   5.194   5.784   2.018
15947SOL    HW247800   5.285   5.898   2.056
15948SOL     OW47801   5.004   6.407   1.881
15948SOL    HW147802   5.044   6.320   1.889
15948SOL    HW247803   5.041   6.443   1.800
15949SOL     OW47804   4.793   6.938   2.728
15949SOL    HW147805   4.804   6.866   2.667
15949SOL    HW247806   4.845   7.009   2.691
15950SOL     OW47807   4.043   6.405   2.807
15950SOL    HW147808   4.138   6.420   2.808
15950SOL    HW247809   4.033   6.315   2.836
15951SOL     OW47810   4.035   6.127   2.870
15951SOL    HW147811   3.997   6.040   2.862
15951SOL    HW247812   4.113   6.125   2.815
15952SOL     OW47813   4.863   5.956   3.545
15952SOL    HW147814   4.819   6.006   3.615
15952SOL    HW247815   4.951   5.995   3.540
15953SOL     OW47816   4.879   5.778   3.333
15953SOL    HW147817   4.869   5.839   3.406
15953SOL    HW247818   4.927   5.828   3.267
15954SOL     OW47819   3.748   6.889   2.041
15954SOL    HW147820   3.658   6.911   2.016
15954SOL    HW247821   3.740   6.802   2.082
15955SOL     OW47822   3.815   7.357   2.810
15955SOL    HW147823   3.783   7.284   2.758
15955SOL    HW247824   3.903   7.374   2.776
15956SOL     OW47825   4.208   7.154   2.764
15956SOL    HW147826   4.279   7.215   2.787
15956SOL    HW247827   4.248   7.093   2.702
15957SOL     OW47828   4.672   6.366   3.079
15957SOL    HW147829   4.735   6.352   3.150
15957SOL    HW247830   4.593   6.319   3.108
15958SOL     OW47831   3.764   6.161   2.983
15958SOL    HW147832   3.845   6.157   2.931
15958SOL    HW247833   3.794   6.158   3.074
15959SOL     OW47834   3.904   6.111   3.609
15959SOL    HW147835   3.978   6.065   3.571
15959SOL    HW247836   3.890   6.186   3.552
15960SOL     OW47837   5.115   6.506   3.515
15960SOL    HW147838   5.133   6.600   3.510
15960SOL    HW247839   5.109   6.478   3.423
15961SOL     OW47840   4.542   6.154   2.234
15961SOL    HW147841   4.551   6.080   2.174
15961SOL    HW247842   4.465   6.201   2.202
15962SOL     OW47843   5.361   6.187   3.025
15962SOL    HW147844   5.353   6.127   3.099
15962SOL    HW247845   5.451   6.177   2.996
15963SOL     OW47846   3.952   7.132   3.576
15963SOL    HW147847   3.933   7.199   3.642
15963SOL    HW247848   3.974   7.054   3.626
15964SOL     OW47849   4.458   6.019   3.097
15964SOL    HW147850   4.396   5.948   3.082
15964SOL    HW247851   4.439   6.082   3.028
15965SOL     OW47852   4.620   7.270   3.359
15965SOL    HW147853   4.602   7.219   3.280
15965SOL    HW247854   4.628   7.361   3.329
15966SOL     OW47855   4.166   6.067   2.025
15966SOL    HW147856   4.231   6.133   2.050
15966SOL    HW247857   4.082   6.113   2.029
15967SOL     OW47858   3.848   6.725   3.339
15967SOL    HW147859   3.859   6.677   3.420
15967SOL    HW247860   3.871   6.662   3.270
15968SOL     OW47861   5.028   6.620   3.070
15968SOL    HW147862   5.038   6.556   2.999
15968SOL    HW247863   4.975   6.690   3.032
15969SOL     OW47864   5.049   6.448   2.153
15969SOL    HW147865   4.980   6.411   2.208
15969SOL    HW247866   5.020   6.431   2.063
15970SOL     OW47867   5.511   7.310   3.033
15970SOL    HW147868   5.572   7.336   2.964
15970SOL    HW247869   5.479   7.225   3.006
15971SOL     OW47870   4.964   7.319   2.952
15971SOL    HW147871   5.049   7.349   2.919
15971SOL    HW247872   4.979   7.228   2.977
15972SOL     OW47873   3.824   6.827   2.889
15972SOL    HW147874   3.784   6.847   2.974
15972SOL    HW247875   3.758   6.775   2.843
15973SOL     OW47876   4.414   7.271   3.609
15973SOL    HW147877   4.352   7.343   3.596
15973SOL    HW247878   4.487   7.290   3.551
15974SOL     OW47879   5.467   5.770   2.358
15974SOL    HW147880   5.527   5.750   2.286
15974SOL    HW247881   5.440   5.685   2.392
15975SOL     OW47882   5.121   7.155   2.366
15975SOL    HW147883   5.176   7.190   2.295
15975SOL    HW247884   5.066   7.229   2.392
15976SOL     OW47885   3.867   7.374   3.706
15976SOL    HW147886   3.819   7.305   3.752
15976SOL    HW247887   3.913   7.421   3.775
15977SOL     OW47888   5.002   6.522   2.526
15977SOL    HW147889   5.076   6.462   2.540
15977SOL    HW247890   5.039   6.593   2.474
15978SOL     OW47891   4.509   6.865   3.270
15978SOL    HW147892   4.483   6.914   3.348
15978SOL    HW247893   4.435   6.874   3.210
15979SOL     OW47894   4.392   7.222   2.021
15979SOL    HW147895   4.407   7.236   1.928
15979SOL    HW247896   4.340   7.142   2.025
15980SOL     OW47897   5.339   7.317   3.264
15980SOL    HW147898   5.397   7.317   3.187
15980SOL    HW247899   5.323   7.410   3.281
15981SOL     OW47900   5.569   5.746   2.824
15981SOL    HW147901   5.598   5.657   2.804
15981SOL    HW247902   5.481   5.753   2.787
15982SOL     OW47903   3.967   5.892   2.571
15982SOL    HW147904   3.882   5.929   2.549
15982SOL    HW247905   3.971   5.894   2.666
15983SOL     OW47906   4.933   7.174   1.900
15983SOL    HW147907   4.923   7.083   1.928
15983SOL    HW247908   4.863   7.187   1.836
15984SOL     OW47909   4.548   6.595   3.248
15984SOL    HW147910   4.590   6.584   3.162
15984SOL    HW247911   4.539   6.690   3.257
15985SOL     OW47912   4.643   6.496   2.156
15985SOL    HW147913   4.700   6.529   2.087
15985SOL    HW247914   4.696   6.429   2.200
15986SOL     OW47915   5.207   7.231   1.920
15986SOL    HW147916   5.115   7.211   1.903
15986SOL    HW247917   5.247   7.235   1.833
15987SOL     OW47918   4.081   6.892   3.359
15987SOL    HW147919   4.075   6.967   3.300
15987SOL    HW247920   4.002   6.841   3.341
15988SOL     OW47921   5.323   6.876   3.139
15988SOL    HW147922   5.377   6.851   3.214
15988SOL    HW247923   5.264   6.943   3.174
15989SOL     OW47924   4.800   6.705   2.591
15989SOL    HW147925   4.725   6.655   2.622
15989SOL    HW247926   4.863   6.639   2.562
15990SOL     OW47927   4.756   5.835   2.822
15990SOL    HW147928   4.755   5.793   2.737
15990SOL    HW247929   4.750   5.763   2.885
15991SOL     OW47930   4.328   7.072   2.337
15991SOL    HW147931   4.384   7.023   2.276
15991SOL    HW247932   4.248   7.088   2.288
15992SOL     OW47933   5.463   5.973   3.242
15992SOL    HW147934   5.536   6.035   3.242
15992SOL    HW247935   5.491   5.903   3.184
15993SOL     OW47936   4.003   6.928   2.161
15993SOL    HW147937   3.916   6.920   2.121
15993SOL    HW247938   3.988   6.975   2.242
15994SOL     OW47939   3.850   6.580   3.576
15994SOL    HW147940   3.792   6.577   3.652
15994SOL    HW247941   3.938   6.566   3.612
15995SOL     OW47942   4.403   5.775   3.358
15995SOL    HW147943   4.487   5.749   3.320
15995SOL    HW247944   4.425   5.807   3.445
15996SOL     OW47945   3.810   5.904   1.877
15996SOL    HW147946   3.732   5.883   1.824
15996SOL    HW247947   3.838   5.990   1.845
15997SOL     OW47948   5.140   6.441   3.251
15997SOL    HW147949   5.088   6.499   3.196
15997SOL    HW247950   5.228   6.444   3.214
15998SOL     OW47951   3.768   5.735   2.134
15998SOL    HW147952   3.756   5.805   2.069
15998SOL    HW247953   3.856   5.702   2.117
15999SOL     OW47954   4.907   6.908   1.985
15999SOL    HW147955   4.817   6.875   1.985
15999SOL    HW247956   4.932   6.912   2.078
16000SOL     OW47957   4.349   6.418   3.303
16000SOL    HW147958   4.408   6.493   3.292
16000SOL    HW247959   4.406   6.342   3.301
16001SOL     OW47960   5.211   7.389   2.856
16001SOL    HW147961   5.238   7.463   2.801
16001SOL    HW247962   5.293   7.345   2.879
16002SOL     OW47963   4.437   6.139   3.554
16002SOL    HW147964   4.490   6.191   3.614
16002SOL    HW247965   4.450   6.049   3.582
16003SOL     OW47966   5.192   6.770   3.480
16003SOL    HW147967   5.185   6.791   3.573
16003SOL    HW247968   5.282   6.793   3.457
16004SOL     OW47969   4.079   7.339   3.434
16004SOL    HW147970   3.996   7.385   3.420
16004SOL    HW247971   4.054   7.253   3.468
16005SOL     OW47972   5.379   6.461   3.115
16005SOL    HW147973   5.378   6.377   3.069
16005SOL    HW247974   5.368   6.526   3.046
16006SOL     OW47975   4.945   5.909   2.318
16006SOL    HW147976   5.004   5.834   2.317
16006SOL    HW247977   4.973   5.961   2.393
16007SOL     OW47978   4.299   6.313   2.542
16007SOL    HW147979   4.343   6.397   2.527
16007SOL    HW247980   4.238   6.304   2.469
16008SOL     OW47981   5.473   5.948   3.519
16008SOL    HW147982   5.463   5.963   3.425
16008SOL    HW247983   5.399   5.893   3.542
16009SOL     OW47984   5.482   6.512   3.366
16009SOL    HW147985   5.464   6.606   3.379
16009SOL    HW247986   5.455   6.495   3.276
16010SOL     OW47987   4.592   6.943   1.923
16010SOL    HW147988   4.556   6.961   2.010
16010SOL    HW247989   4.604   7.030   1.884
16011SOL     OW47990   4.392   7.352   2.788
16011SOL    HW147991   4.373   7.445   2.780
16011SOL    HW247992   4.487   7.346   2.787
16012SOL     OW47993   4.596   6.562   2.717
16012SOL    HW147994   4.646   6.489   2.753
16012SOL    HW247995   4.551   6.599   2.793
16013SOL     OW47996   4.796   6.570   1.948
16013SOL    HW147997   4.775   6.624   1.871
16013SOL    HW247998   4.869   6.516   1.920
16014SOL     OW47999   5.556   7.143   2.700
16014SOL    HW148000   5.478   7.135   2.645
16014SOL    HW248001   5.538   7.088   2.776
16015SOL     OW48002   3.969   6.896   3.729
16015SOL    HW148003   3.879   6.864   3.721
16015SOL    HW248004   3.982   6.907   3.823
16016SOL     OW48005   3.842   6.806   2.531
16016SOL    HW148006   3.877   6.763   2.609
16016SOL    HW248007   3.899   6.777   2.460
16017SOL     OW48008   4.414   7.009   3.482
16017SOL    HW148009   4.343   6.964   3.528
16017SOL    HW248010   4.422   7.093   3.526
16018SOL     OW48011   5.533   5.760   3.094
16018SOL    HW148012   5.538   5.665   3.109
16018SOL    HW248013   5.547   5.770   3.000
16019SOL     OW48014   4.141   6.009   2.379
16019SOL    HW148015   4.176   5.938   2.325
16019SOL    HW248016   4.090   5.965   2.447
16020SOL     OW48017   5.419   7.067   2.945
16020SOL    HW148018   5.341   7.047   2.892
16020SOL    HW248019   5.420   6.999   3.012
16021SOL     OW48020   4.077   6.150   3.153
16021SOL    HW148021   4.127   6.086   3.204
16021SOL    HW248022   4.087   6.120   3.062
16022SOL     OW48023   4.562   7.171   2.532
16022SOL    HW148024   4.532   7.241   2.474
16022SOL    HW248025   4.486   7.113   2.539
16023SOL     OW48026   5.147   5.822   2.978
16023SOL    HW148027   5.160   5.734   3.015
16023SOL    HW248028   5.101   5.870   3.047
16024SOL     OW48029   4.734   5.604   2.981
16024SOL    HW148030   4.679   5.541   2.935
16024SOL    HW248031   4.821   5.563   2.983
16025SOL     OW48032   4.505   6.918   2.190
16025SOL    HW148033   4.481   6.826   2.202
16025SOL    HW248034   4.585   6.929   2.242
16026SOL     OW48035   4.339   7.158   3.147
16026SOL    HW148036   4.334   7.244   3.190
16026SOL    HW248037   4.429   7.152   3.115
16027SOL     OW48038   5.105   5.625   2.054
16027SOL    HW148039   5.145   5.552   2.007
16027SOL    HW248040   5.013   5.599   2.064
16028SOL     OW48041   5.022   6.057   2.537
16028SOL    HW148042   4.971   6.139   2.535
16028SOL    HW248043   5.015   6.027   2.627
16029SOL     OW48044   5.306   5.773   2.756
16029SOL    HW148045   5.254   5.803   2.830
16029SOL    HW248046   5.306   5.848   2.695
16030SOL     OW48047   3.761   6.637   2.171
16030SOL    HW148048   3.854   6.626   2.152
16030SOL    HW248049   3.729   6.549   2.191
16031SOL     OW48050   4.619   7.261   2.192
16031SOL    HW148051   4.541   7.246   2.139
16031SOL    HW248052   4.594   7.330   2.253
16032SOL     OW48053   3.921   6.211   3.867
16032SOL    HW148054   3.833   6.192   3.899
16032SOL    HW248055   3.920   6.185   3.776
16033SOL     OW48056   3.943   5.875   4.714
16033SOL    HW148057   3.974   5.840   4.798
16033SOL    HW248058   3.856   5.835   4.702
16034SOL     OW48059   3.707   5.987   4.368
16034SOL    HW148060   3.627   6.009   4.415
16034SOL    HW248061   3.684   5.911   4.315
16035SOL     OW48062   4.299   6.897   4.935
16035SOL    HW148063   4.216   6.900   4.886
16035SOL    HW248064   4.317   6.989   4.957
16036SOL     OW48065   5.319   7.110   4.433
16036SOL    HW148066   5.271   7.077   4.509
16036SOL    HW248067   5.253   7.113   4.364
16037SOL     OW48068   4.839   6.312   4.390
16037SOL    HW148069   4.886   6.395   4.402
16037SOL    HW248070   4.876   6.254   4.457
16038SOL     OW48071   5.529   6.169   3.947
16038SOL    HW148072   5.489   6.164   3.860
16038SOL    HW248073   5.483   6.102   3.998
16039SOL     OW48074   4.443   6.716   4.780
16039SOL    HW148075   4.388   6.757   4.847
16039SOL    HW248076   4.489   6.790   4.739
16040SOL     OW48077   4.604   6.332   5.555
16040SOL    HW148078   4.598   6.403   5.620
16040SOL    HW248079   4.626   6.376   5.473
16041SOL     OW48080   4.405   6.572   4.363
16041SOL    HW148081   4.474   6.568   4.430
16041SOL    HW248082   4.341   6.634   4.399
16042SOL     OW48083   4.433   6.733   5.556
16042SOL    HW148084   4.485   6.807   5.590
16042SOL    HW248085   4.357   6.774   5.515
16043SOL     OW48086   4.066   6.986   4.794
16043SOL    HW148087   3.990   6.944   4.754
16043SOL    HW248088   4.103   7.039   4.724
16044SOL     OW48089   5.174   7.093   5.098
16044SOL    HW148090   5.230   7.170   5.109
16044SOL    HW248091   5.103   7.106   5.160
16045SOL     OW48092   4.169   5.967   5.187
16045SOL    HW148093   4.244   5.910   5.203
16045SOL    HW248094   4.093   5.914   5.210
16046SOL     OW48095   5.342   5.976   4.371
16046SOL    HW148096   5.257   5.988   4.413
16046SOL    HW248097   5.405   6.004   4.438
16047SOL     OW48098   3.945   7.310   4.189
16047SOL    HW148099   3.969   7.381   4.249
16047SOL    HW248100   4.020   7.302   4.130
16048SOL     OW48101   4.859   6.926   5.421
16048SOL    HW148102   4.907   6.912   5.503
16048SOL    HW248103   4.806   6.846   5.412
16049SOL     OW48104   3.957   7.036   4.244
16049SOL    HW148105   3.941   7.130   4.253
16049SOL    HW248106   3.914   6.997   4.320
16050SOL     OW48107   4.003   6.677   4.599
16050SOL    HW148108   4.009   6.587   4.633
16050SOL    HW248109   3.951   6.723   4.665
16051SOL     OW48110   4.289   7.399   5.136
16051SOL    HW148111   4.217   7.374   5.194
16051SOL    HW248112   4.326   7.478   5.175
16052SOL     OW48113   4.286   6.582   3.873
16052SOL    HW148114   4.341   6.620   3.805
16052SOL    HW248115   4.329   6.607   3.955
16053SOL     OW48116   3.831   6.251   4.286
16053SOL    HW148117   3.805   6.162   4.313
16053SOL    HW248118   3.830   6.302   4.367
16054SOL     OW48119   5.570   7.329   4.040
16054SOL    HW148120   5.641   7.313   4.102
16054SOL    HW248121   5.577   7.422   4.018
16055SOL     OW48122   3.770   7.161   3.839
16055SOL    HW148123   3.752   7.069   3.860
16055SOL    HW248124   3.743   7.209   3.917
16056SOL     OW48125   5.449   6.519   4.372
16056SOL    HW148126   5.493   6.462   4.309
16056SOL    HW248127   5.401   6.582   4.318
16057SOL     OW48128   5.379   6.699   4.149
16057SOL    HW148129   5.464   6.684   4.108
16057SOL    HW248130   5.395   6.765   4.216
16058SOL     OW48131   3.850   6.333   5.304
16058SOL    HW148132   3.938   6.371   5.309
16058SOL    HW248133   3.793   6.409   5.293
16059SOL     OW48134   4.346   6.985   4.453
16059SOL    HW148135   4.305   6.899   4.458
16059SOL    HW248136   4.332   7.013   4.362
16060SOL     OW48137   4.995   6.810   5.139
16060SOL    HW148138   5.022   6.741   5.079
16060SOL    HW248139   5.057   6.804   5.212
16061SOL     OW48140   4.551   5.616   4.207
16061SOL    HW148141   4.591   5.702   4.196
16061SOL    HW248142   4.458   5.634   4.219
16062SOL     OW48143   3.906   6.544   5.022
16062SOL    HW148144   3.994   6.510   5.006
16062SOL    HW248145   3.852   6.499   4.957
16063SOL     OW48146   5.261   6.603   3.919
16063SOL    HW148147   5.188   6.548   3.948
16063SOL    HW248148   5.301   6.635   3.999
16064SOL     OW48149   4.898   7.404   5.357
16064SOL    HW148150   4.903   7.466   5.284
16064SOL    HW248151   4.915   7.319   5.317
16065SOL     OW48152   4.080   5.843   5.601
16065SOL    HW148153   4.117   5.923   5.639
16065SOL    HW248154   3.986   5.858   5.599
16066SOL     OW48155   5.191   7.003   4.650
16066SOL    HW148156   5.131   7.021   4.722
16066SOL    HW248157   5.175   6.911   4.627
16067SOL     OW48158   5.360   7.384   4.286
16067SOL    HW148159   5.344   7.336   4.205
16067SOL    HW248160   5.365   7.317   4.354
16068SOL     OW48161   4.308   6.279   3.990
16068SOL    HW148162   4.327   6.368   3.960
16068SOL    HW248163   4.245   6.291   4.060
16069SOL     OW48164   5.303   7.260   4.044
16069SOL    HW148165   5.397   7.274   4.032
16069SOL    HW248166   5.269   7.247   3.955
16070SOL     OW48167   4.483   6.210   5.149
16070SOL    HW148168   4.471   6.178   5.239
16070SOL    HW248169   4.468   6.132   5.094
16071SOL     OW48170   5.104   6.067   5.404
16071SOL    HW148171   5.112   6.108   5.490
16071SOL    HW248172   5.186   6.018   5.393
16072SOL     OW48173   4.669   6.459   5.320
16072SOL    HW148174   4.719   6.389   5.277
16072SOL    HW248175   4.620   6.501   5.249
16073SOL     OW48176   4.721   5.991   4.985
16073SOL    HW148177   4.626   5.999   4.982
16073SOL    HW248178   4.746   5.975   4.894
16074SOL     OW48179   4.769   6.292   4.129
16074SOL    HW148180   4.792   6.299   4.222
16074SOL    HW248181   4.688   6.241   4.128
16075SOL     OW48182   3.815   6.426   4.500
16075SOL    HW148183   3.898   6.412   4.545
16075SOL    HW248184   3.772   6.495   4.550
16076SOL     OW48185   3.834   7.464   5.311
16076SOL    HW148186   3.840   7.446   5.405
16076SOL    HW248187   3.750   7.426   5.285
16077SOL     OW48188   4.620   5.933   3.923
16077SOL    HW148189   4.669   5.989   3.862
16077SOL    HW248190   4.614   5.848   3.880
16078SOL     OW48191   5.425   6.149   5.567
16078SOL    HW148192   5.402   6.224   5.513
16078SOL    HW248193   5.391   6.074   5.519
16079SOL     OW48194   5.122   6.744   4.267
16079SOL    HW148195   5.199   6.729   4.214
16079SOL    HW248196   5.067   6.802   4.214
16080SOL     OW48197   4.274   5.735   4.636
16080SOL    HW148198   4.279   5.767   4.726
16080SOL    HW248199   4.282   5.814   4.582
16081SOL     OW48200   4.722   7.042   4.190
16081SOL    HW148201   4.698   7.118   4.138
16081SOL    HW248202   4.694   7.063   4.279
16082SOL     OW48203   4.077   7.401   4.607
16082SOL    HW148204   4.123   7.318   4.610
16082SOL    HW248205   4.144   7.466   4.627
16083SOL     OW48206   5.535   6.650   4.611
16083SOL    HW148207   5.497   6.617   4.529
16083SOL    HW248208   5.460   6.653   4.671
16084SOL     OW48209   4.935   7.127   5.239
16084SOL    HW148210   4.927   7.058   5.306
16084SOL    HW248211   4.879   7.097   5.168
16085SOL     OW48212   4.025   6.544   3.987
16085SOL    HW148213   4.107   6.564   3.943
16085SOL    HW248214   4.015   6.449   3.977
16086SOL     OW48215   5.196   6.347   4.399
16086SOL    HW148216   5.155   6.290   4.463
16086SOL    HW248217   5.280   6.371   4.438
16087SOL     OW48218   4.198   6.871   5.473
16087SOL    HW148219   4.173   6.876   5.380
16087SOL    HW248220   4.115   6.858   5.519
16088SOL     OW48221   4.863   7.364   3.947
16088SOL    HW148222   4.783   7.334   3.989
16088SOL    HW248223   4.884   7.297   3.882
16089SOL     OW48224   3.926   5.839   5.224
16089SOL    HW148225   3.855   5.897   5.252
16089SOL    HW248226   3.899   5.752   5.255
16090SOL     OW48227   5.363   6.976   3.822
16090SOL    HW148228   5.321   7.061   3.810
16090SOL    HW248229   5.297   6.912   3.795
16091SOL     OW48230   4.184   7.327   4.041
16091SOL    HW148231   4.232   7.379   4.105
16091SOL    HW248232   4.253   7.291   3.984
16092SOL     OW48233   5.083   5.689   4.184
16092SOL    HW148234   5.085   5.675   4.089
16092SOL    HW248235   5.162   5.646   4.217
16093SOL     OW48236   3.976   7.373   4.939
16093SOL    HW148237   4.026   7.301   4.978
16093SOL    HW248238   3.972   7.353   4.846
16094SOL     OW48239   4.673   7.288   4.614
16094SOL    HW148240   4.758   7.247   4.629
16094SOL    HW248241   4.633   7.236   4.543
16095SOL     OW48242   4.107   6.278   4.184
16095SOL    HW148243   4.121   6.184   4.197
16095SOL    HW248244   4.016   6.293   4.210
16096SOL     OW48245   5.333   5.907   5.488
16096SOL    HW148246   5.291   5.892   5.574
16096SOL    HW248247   5.340   5.820   5.450
16097SOL     OW48248   4.382   5.697   3.830
16097SOL    HW148249   4.428   5.619   3.862
16097SOL    HW248250   4.327   5.665   3.758
16098SOL     OW48251   4.458   5.876   5.488
16098SOL    HW148252   4.546   5.839   5.488
16098SOL    HW248253   4.417   5.840   5.566
16099SOL     OW48254   4.593   7.115   4.924
16099SOL    HW148255   4.576   7.070   4.841
16099SOL    HW248256   4.662   7.063   4.965
16100SOL     OW48257   5.046   6.196   5.148
16100SOL    HW148258   5.098   6.141   5.206
16100SOL    HW248259   5.100   6.275   5.136
16101SOL     OW48260   4.539   6.962   4.684
16101SOL    HW148261   4.627   6.956   4.646
16101SOL    HW248262   4.481   6.976   4.608
16102SOL     OW48263   4.651   6.131   4.616
16102SOL    HW148264   4.630   6.112   4.525
16102SOL    HW248265   4.681   6.048   4.652
16103SOL     OW48266   4.280   5.657   4.214
16103SOL    HW148267   4.202   5.655   4.270
16103SOL    HW248268   4.265   5.729   4.154
16104SOL     OW48269   5.161   6.799   3.753
16104SOL    HW148270   5.192   6.725   3.806
16104SOL    HW248271   5.076   6.822   3.792
16105SOL     OW48272   4.015   5.633   3.913
16105SOL    HW148273   4.077   5.698   3.879
16105SOL    HW248274   4.071   5.569   3.958
16106SOL     OW48275   4.684   5.855   4.182
16106SOL    HW148276   4.666   5.886   4.093
16106SOL    HW248277   4.777   5.874   4.196
16107SOL     OW48278   4.790   6.260   5.178
16107SOL    HW148279   4.746   6.177   5.163
16107SOL    HW248280   4.883   6.240   5.169
16108SOL     OW48281   4.928   7.170   4.526
16108SOL    HW148282   4.945   7.233   4.455
16108SOL    HW248283   5.007   7.172   4.579
16109SOL     OW48284   4.203   6.750   4.431
16109SOL    HW148285   4.141   6.725   4.500
16109SOL    HW248286   4.153   6.741   4.350
16110SOL     OW48287   4.976   7.378   4.342
16110SOL    HW148288   5.024   7.441   4.289
16110SOL    HW248289   4.905   7.429   4.381
16111SOL     OW48290   4.761   6.101   3.756
16111SOL    HW148291   4.718   6.184   3.739
16111SOL    HW248292   4.822   6.119   3.827
16112SOL     OW48293   3.821   6.141   5.112
16112SOL    HW148294   3.913   6.140   5.086
16112SOL    HW248295   3.815   6.208   5.181
16113SOL     OW48296   4.278   5.809   4.901
16113SOL    HW148297   4.319   5.750   4.964
16113SOL    HW248298   4.185   5.809   4.926
16114SOL     OW48299   4.583   6.045   4.362
16114SOL    HW148300   4.550   6.103   4.292
16114SOL    HW248301   4.618   5.969   4.315
16115SOL     OW48302   4.718   5.563   4.432
16115SOL    HW148303   4.676   5.607   4.358
16115SOL    HW248304   4.663   5.486   4.447
16116SOL     OW48305   5.152   6.737   4.577
16116SOL    HW148306   5.094   6.662   4.591
16116SOL    HW248307   5.159   6.745   4.482
16117SOL     OW48308   5.550   6.380   4.123
16117SOL    HW148309   5.616   6.338   4.177
16117SOL    HW248310   5.534   6.319   4.051
16118SOL     OW48311   4.227   7.017   3.888
16118SOL    HW148312   4.147   6.985   3.930
16118SOL    HW248313   4.240   6.958   3.813
16119SOL     OW48314   5.436   6.865   4.346
16119SOL    HW148315   5.528   6.857   4.371
16119SOL    HW248316   5.411   6.952   4.378
16120SOL     OW48317   5.115   6.163   3.797
16120SOL    HW148318   5.059   6.136   3.870
16120SOL    HW248319   5.204   6.143   3.827
16121SOL     OW48320   4.244   5.847   4.022
16121SOL    HW148321   4.303   5.805   3.959
16121SOL    HW248322   4.215   5.927   3.979
16122SOL     OW48323   5.460   6.834   5.256
16122SOL    HW148324   5.547   6.796   5.242
16122SOL    HW248325   5.477   6.920   5.295
16123SOL     OW48326   4.771   6.950   5.065
16123SOL    HW148327   4.692   6.911   5.105
16123SOL    HW248328   4.843   6.897   5.100
16124SOL     OW48329   5.331   7.222   5.398
16124SOL    HW148330   5.320   7.258   5.310
16124SOL    HW248331   5.409   7.167   5.391
16125SOL     OW48332   4.878   6.828   4.830
16125SOL    HW148333   4.812   6.858   4.892
16125SOL    HW248334   4.844   6.854   4.744
16126SOL     OW48335   5.335   6.690   4.798
16126SOL    HW148336   5.325   6.756   4.866
16126SOL    HW248337   5.261   6.706   4.738
16127SOL     OW48338   4.627   5.715   5.140
16127SOL    HW148339   4.624   5.707   5.045
16127SOL    HW248340   4.713   5.751   5.159
16128SOL     OW48341   4.702   6.699   5.446
16128SOL    HW148342   4.611   6.714   5.471
16128SOL    HW248343   4.699   6.618   5.394
16129SOL     OW48344   4.436   6.648   4.097
16129SOL    HW148345   4.424   6.622   4.189
16129SOL    HW248346   4.508   6.593   4.066
16130SOL     OW48347   4.145   6.418   4.981
16130SOL    HW148348   4.211   6.431   5.049
16130SOL    HW248349   4.119   6.326   4.990
16131SOL     OW48350   3.803   7.156   5.086
16131SOL    HW148351   3.775   7.229   5.030
16131SOL    HW248352   3.898   7.154   5.078
16132SOL     OW48353   4.037   6.721   4.207
16132SOL    HW148354   4.041   6.793   4.144
16132SOL    HW248355   4.038   6.642   4.152
16133SOL     OW48356   4.252   6.113   4.581
16133SOL    HW148357   4.266   6.172   4.507
16133SOL    HW248358   4.324   6.134   4.642
16134SOL     OW48359   4.973   6.946   4.119
16134SOL    HW148360   5.030   7.013   4.157
16134SOL    HW248361   4.886   6.967   4.151
16135SOL     OW48362   5.035   7.056   4.865
16135SOL    HW148363   5.082   7.062   4.948
16135SOL    HW248364   4.984   6.975   4.872
16136SOL     OW48365   5.271   6.251   4.148
16136SOL    HW148366   5.229   6.270   4.232
16136SOL    HW248367   5.337   6.320   4.138
16137SOL     OW48368   4.069   7.118   5.029
16137SOL    HW148369   4.062   7.067   4.948
16137SOL    HW248370   4.163   7.135   5.038
16138SOL     OW48371   4.155   6.328   5.346
16138SOL    HW148372   4.209   6.377   5.284
16138SOL    HW248373   4.206   6.250   5.366
16139SOL     OW48374   5.354   6.369   5.424
16139SOL    HW148375   5.267   6.407   5.412
16139SOL    HW248376   5.404   6.400   5.349
16140SOL     OW48377   4.701   5.758   5.510
16140SOL    HW148378   4.761   5.823   5.472
16140SOL    HW248379   4.749   5.676   5.504
16141SOL     OW48380   4.214   5.629   5.484
16141SOL    HW148381   4.162   5.579   5.422
16141SOL    HW248382   4.160   5.705   5.505
16142SOL     OW48383   4.304   6.466   4.757
16142SOL    HW148384   4.349   6.551   4.764
16142SOL    HW248385   4.253   6.460   4.837
16143SOL     OW48386   5.015   6.446   4.716
16143SOL    HW148387   4.921   6.434   4.708
16143SOL    HW248388   5.053   6.366   4.679
16144SOL     OW48389   4.921   6.109   3.990
16144SOL    HW148390   4.941   6.041   4.054
16144SOL    HW248391   4.876   6.177   4.040
16145SOL     OW48392   4.013   5.781   4.964
16145SOL    HW148393   3.977   5.808   5.049
16145SOL    HW248394   3.998   5.687   4.961
16146SOL     OW48395   3.770   6.899   4.990
16146SOL    HW148396   3.801   6.843   5.060
16146SOL    HW248397   3.775   6.988   5.026
16147SOL     OW48398   4.433   6.212   4.762
16147SOL    HW148399   4.513   6.202   4.711
16147SOL    HW248400   4.409   6.303   4.751
16148SOL     OW48401   5.472   6.557   5.592
16148SOL    HW148402   5.436   6.483   5.544
16148SOL    HW248403   5.407   6.575   5.660
16149SOL     OW48404   4.041   5.648   4.353
16149SOL    HW148405   4.010   5.736   4.373
16149SOL    HW248406   4.049   5.605   4.439
16150SOL     OW48407   5.347   5.998   4.087
16150SOL    HW148408   5.356   5.958   4.173
16150SOL    HW248409   5.308   6.084   4.104
16151SOL     OW48410   4.740   6.382   4.702
16151SOL    HW148411   4.716   6.375   4.794
16151SOL    HW248412   4.726   6.294   4.666
16152SOL     OW48413   4.705   7.148   5.467
16152SOL    HW148414   4.680   7.196   5.388
16152SOL    HW248415   4.744   7.067   5.434
16153SOL     OW48416   5.563   7.084   5.330
16153SOL    HW148417   5.590   7.110   5.242
16153SOL    HW248418   5.642   7.094   5.383
16154SOL     OW48419   4.073   6.505   5.540
16154SOL    HW148420   4.150   6.524   5.595
16154SOL    HW248421   4.104   6.440   5.477
16155SOL     OW48422   5.256   5.859   3.857
16155SOL    HW148423   5.200   5.789   3.890
16155SOL    HW248424   5.291   5.900   3.935
16156SOL     OW48425   4.995   6.404   3.741
16156SOL    HW148426   5.038   6.319   3.754
16156SOL    HW248427   5.036   6.440   3.662
16157SOL     OW48428   4.790   6.936   4.590
16157SOL    HW148429   4.799   6.864   4.528
16157SOL    HW248430   4.842   7.007   4.552
16158SOL     OW48431   4.041   6.404   4.661
16158SOL    HW148432   4.135   6.420   4.667
16158SOL    HW248433   4.030   6.314   4.692
16159SOL     OW48434   4.031   6.127   4.731
16159SOL    HW148435   3.996   6.038   4.723
16159SOL    HW248436   4.110   6.127   4.677
16160SOL     OW48437   4.854   5.965   5.411
16160SOL    HW148438   4.812   6.020   5.478
16160SOL    HW248439   4.942   6.001   5.403
16161SOL     OW48440   4.870   5.847   5.162
16161SOL    HW148441   4.870   5.893   5.246
16161SOL    HW248442   4.830   5.908   5.101
16162SOL     OW48443   3.729   6.886   3.907
16162SOL    HW148444   3.639   6.907   3.881
16162SOL    HW248445   3.722   6.798   3.945
16163SOL     OW48446   3.813   7.358   4.671
16163SOL    HW148447   3.782   7.282   4.621
16163SOL    HW248448   3.902   7.373   4.638
16164SOL     OW48449   4.209   7.156   4.624
16164SOL    HW148450   4.280   7.216   4.647
16164SOL    HW248451   4.250   7.094   4.563
16165SOL     OW48452   4.656   6.368   4.963
16165SOL    HW148453   4.726   6.347   5.024
16165SOL    HW248454   4.580   6.319   4.994
16166SOL     OW48455   3.766   6.166   4.842
16166SOL    HW148456   3.848   6.159   4.794
16166SOL    HW248457   3.791   6.156   4.934
16167SOL     OW48458   3.914   6.122   5.469
16167SOL    HW148459   3.993   6.094   5.421
16167SOL    HW248460   3.879   6.194   5.417
16168SOL     OW48461   5.120   6.508   5.375
16168SOL    HW148462   5.137   6.602   5.369
16168SOL    HW248463   5.115   6.479   5.284
16169SOL     OW48464   4.537   6.148   4.093
16169SOL    HW148465   4.551   6.072   4.035
16169SOL    HW248466   4.459   6.191   4.058
16170SOL     OW48467   3.948   7.126   5.449
16170SOL    HW148468   3.923   7.170   5.530
16170SOL    HW248469   3.963   7.035   5.474
16171SOL     OW48470   4.448   6.021   4.956
16171SOL    HW148471   4.388   5.951   4.932
16171SOL    HW248472   4.438   6.086   4.886
16172SOL     OW48473   4.607   7.276   5.233
16172SOL    HW148474   4.598   7.221   5.155
16172SOL    HW248475   4.619   7.364   5.198
16173SOL     OW48476   4.160   6.069   3.880
16173SOL    HW148477   4.228   6.132   3.904
16173SOL    HW248478   4.078   6.117   3.892
16174SOL     OW48479   3.852   6.737   5.203
16174SOL    HW148480   3.858   6.696   5.289
16174SOL    HW248481   3.873   6.666   5.142
16175SOL     OW48482   5.032   6.621   4.926
16175SOL    HW148483   5.035   6.554   4.857
16175SOL    HW248484   4.979   6.691   4.889
16176SOL     OW48485   5.042   6.469   4.010
16176SOL    HW148486   4.993   6.417   4.074
16176SOL    HW248487   5.011   6.439   3.925
16177SOL     OW48488   5.517   7.313   4.902
16177SOL    HW148489   5.576   7.335   4.830
16177SOL    HW248490   5.475   7.232   4.875
16178SOL     OW48491   4.964   7.322   4.820
16178SOL    HW148492   5.048   7.351   4.784
16178SOL    HW248493   4.978   7.230   4.841
16179SOL     OW48494   3.828   6.840   4.732
16179SOL    HW148495   3.800   6.859   4.822
16179SOL    HW248496   3.759   6.784   4.697
16180SOL     OW48497   4.415   7.270   5.468
16180SOL    HW148498   4.353   7.342   5.456
16180SOL    HW248499   4.483   7.287   5.403
16181SOL     OW48500   5.124   7.157   4.231
16181SOL    HW148501   5.178   7.191   4.160
16181SOL    HW248502   5.069   7.230   4.257
16182SOL     OW48503   3.853   7.397   5.569
16182SOL    HW148504   3.816   7.319   5.609
16182SOL    HW248505   3.906   7.437   5.639
16183SOL     OW48506   5.001   6.537   4.392
16183SOL    HW148507   5.068   6.468   4.395
16183SOL    HW248508   5.040   6.606   4.338
16184SOL     OW48509   4.511   6.868   5.132
16184SOL    HW148510   4.483   6.914   5.211
16184SOL    HW248511   4.437   6.875   5.072
16185SOL     OW48512   4.396   7.231   3.883
16185SOL    HW148513   4.412   7.241   3.789
16185SOL    HW248514   4.346   7.149   3.889
16186SOL     OW48515   5.338   7.317   5.129
16186SOL    HW148516   5.396   7.315   5.053
16186SOL    HW248517   5.322   7.410   5.145
16187SOL     OW48518   3.965   5.896   4.433
16187SOL    HW148519   3.879   5.933   4.414
16187SOL    HW248520   3.971   5.897   4.529
16188SOL     OW48521   4.932   7.171   3.765
16188SOL    HW148522   4.923   7.080   3.793
16188SOL    HW248523   4.862   7.184   3.701
16189SOL     OW48524   4.547   6.596   5.118
16189SOL    HW148525   4.588   6.573   5.034
16189SOL    HW248526   4.542   6.692   5.117
16190SOL     OW48527   4.632   6.493   3.995
16190SOL    HW148528   4.695   6.534   3.936
16190SOL    HW248529   4.683   6.429   4.045
16191SOL     OW48530   5.206   7.233   3.782
16191SOL    HW148531   5.114   7.211   3.766
16191SOL    HW248532   5.245   7.236   3.695
16192SOL     OW48533   4.084   6.900   5.228
16192SOL    HW148534   4.079   6.972   5.165
16192SOL    HW248535   4.007   6.846   5.209
16193SOL     OW48536   5.321   6.879   5.005
16193SOL    HW148537   5.375   6.852   5.080
16193SOL    HW248538   5.261   6.944   5.041
16194SOL     OW48539   4.791   6.709   4.445
16194SOL    HW148540   4.718   6.657   4.478
16194SOL    HW248541   4.859   6.645   4.424
16195SOL     OW48542   4.721   5.879   4.717
16195SOL    HW148543   4.765   5.837   4.643
16195SOL    HW248544   4.687   5.806   4.769
16196SOL     OW48545   4.331   7.072   4.196
16196SOL    HW148546   4.388   7.021   4.137
16196SOL    HW248547   4.257   7.097   4.141
16197SOL     OW48548   3.984   6.929   4.003
16197SOL    HW148549   3.892   6.917   3.983
16197SOL    HW248550   3.984   6.975   4.087
16198SOL     OW48551   3.845   6.632   5.458
16198SOL    HW148552   3.768   6.603   5.508
16198SOL    HW248553   3.917   6.581   5.495
16199SOL     OW48554   4.380   5.784   5.236
16199SOL    HW148555   4.468   5.771   5.200
16199SOL    HW248556   4.394   5.818   5.324
16200SOL     OW48557   3.803   5.900   3.755
16200SOL    HW148558   3.730   5.865   3.703
16200SOL    HW248559   3.828   5.980   3.710
16201SOL     OW48560   5.156   6.453   5.109
16201SOL    HW148561   5.100   6.505   5.052
16201SOL    HW248562   5.242   6.455   5.067
16202SOL     OW48563   3.775   5.733   3.997
16202SOL    HW148564   3.767   5.802   3.930
16202SOL    HW248565   3.864   5.699   3.985
16203SOL     OW48566   4.913   6.901   3.850
16203SOL    HW148567   4.838   6.841   3.855
16203SOL    HW248568   4.939   6.915   3.941
16204SOL     OW48569   4.336   6.432   5.170
16204SOL    HW148570   4.399   6.504   5.161
16204SOL    HW248571   4.388   6.353   5.163
16205SOL     OW48572   5.210   7.390   4.720
16205SOL    HW148573   5.242   7.461   4.665
16205SOL    HW248574   5.287   7.335   4.735
16206SOL     OW48575   4.432   6.146   5.412
16206SOL    HW148576   4.486   6.199   5.472
16206SOL    HW248577   4.441   6.057   5.444
16207SOL     OW48578   5.194   6.774   5.342
16207SOL    HW148579   5.188   6.794   5.436
16207SOL    HW248580   5.284   6.795   5.318
16208SOL     OW48581   4.079   7.333   5.305
16208SOL    HW148582   3.996   7.378   5.288
16208SOL    HW248583   4.053   7.249   5.343
16209SOL     OW48584   5.390   6.474   4.961
16209SOL    HW148585   5.393   6.401   4.898
16209SOL    HW248586   5.375   6.551   4.907
16210SOL     OW48587   4.953   5.929   4.212
16210SOL    HW148588   5.001   5.847   4.203
16210SOL    HW248589   4.990   5.970   4.290
16211SOL     OW48590   4.288   6.316   4.397
16211SOL    HW148591   4.337   6.397   4.386
16211SOL    HW248592   4.230   6.312   4.321
16212SOL     OW48593   5.488   6.495   5.220
16212SOL    HW148594   5.478   6.589   5.238
16212SOL    HW248595   5.464   6.486   5.128
16213SOL     OW48596   4.563   6.950   3.775
16213SOL    HW148597   4.550   6.964   3.869
16213SOL    HW248598   4.599   7.033   3.744
16214SOL     OW48599   4.393   7.352   4.649
16214SOL    HW148600   4.375   7.446   4.641
16214SOL    HW248601   4.488   7.346   4.649
16215SOL     OW48602   4.587   6.571   4.574
16215SOL    HW148603   4.642   6.500   4.608
16215SOL    HW248604   4.541   6.605   4.651
16216SOL     OW48605   4.801   6.587   3.805
16216SOL    HW148606   4.776   6.630   3.723
16216SOL    HW248607   4.869   6.525   3.781
16217SOL     OW48608   5.577   7.132   4.559
16217SOL    HW148609   5.492   7.122   4.517
16217SOL    HW248610   5.592   7.049   4.604
16218SOL     OW48611   3.935   6.870   5.559
16218SOL    HW148612   3.905   6.790   5.516
16218SOL    HW248613   3.876   6.882   5.633
16219SOL     OW48614   3.846   6.808   4.392
16219SOL    HW148615   3.877   6.770   4.473
16219SOL    HW248616   3.904   6.774   4.324
16220SOL     OW48617   4.413   7.005   5.350
16220SOL    HW148618   4.340   6.964   5.395
16220SOL    HW248619   4.421   7.092   5.389
16221SOL     OW48620   5.648   5.760   5.008
16221SOL    HW148621   5.626   5.827   5.072
16221SOL    HW248622   5.581   5.769   4.940
16222SOL     OW48623   4.126   6.015   4.231
16222SOL    HW148624   4.171   5.945   4.185
16222SOL    HW248625   4.084   5.972   4.305
16223SOL     OW48626   5.397   7.084   4.824
16223SOL    HW148627   5.333   7.057   4.757
16223SOL    HW248628   5.398   7.011   4.886
16224SOL     OW48629   4.074   6.155   5.014
16224SOL    HW148630   4.121   6.092   5.069
16224SOL    HW248631   4.086   6.122   4.925
16225SOL     OW48632   4.560   7.165   4.398
16225SOL    HW148633   4.525   7.229   4.337
16225SOL    HW248634   4.489   7.103   4.412
16226SOL     OW48635   4.643   5.659   4.867
16226SOL    HW148636   4.596   5.593   4.816
16226SOL    HW248637   4.717   5.611   4.904
16227SOL     OW48638   4.509   6.917   4.051
16227SOL    HW148639   4.486   6.825   4.065
16227SOL    HW248640   4.589   6.930   4.103
16228SOL     OW48641   4.339   7.161   5.009
16228SOL    HW148642   4.333   7.247   5.052
16228SOL    HW248643   4.429   7.155   4.978
16229SOL     OW48644   5.095   5.634   3.911
16229SOL    HW148645   5.144   5.556   3.884
16229SOL    HW248646   5.004   5.605   3.916
16230SOL     OW48647   3.756   6.629   4.013
16230SOL    HW148648   3.851   6.619   4.004
16230SOL    HW248649   3.726   6.541   4.038
16231SOL     OW48650   4.622   7.264   4.057
16231SOL    HW148651   4.544   7.251   4.003
16231SOL    HW248652   4.597   7.333   4.119
16232SOL     OW48653   3.930   6.211   5.734
16232SOL    HW148654   3.842   6.197   5.770
16232SOL    HW248655   3.921   6.195   5.640
16233SOL     OW48656   3.942   5.875   6.577
16233SOL    HW148657   3.973   5.839   6.660
16233SOL    HW248658   3.855   5.837   6.565
16234SOL     OW48659   3.712   5.982   6.232
16234SOL    HW148660   3.632   6.007   6.279
16234SOL    HW248661   3.686   5.909   6.177
16235SOL     OW48662   4.299   6.895   6.796
16235SOL    HW148663   4.217   6.897   6.746
16235SOL    HW248664   4.316   6.986   6.819
16236SOL     OW48665   5.314   7.112   6.291
16236SOL    HW148666   5.267   7.080   6.367
16236SOL    HW248667   5.248   7.115   6.221
16237SOL     OW48668   4.861   6.293   6.274
16237SOL    HW148669   4.907   6.376   6.261
16237SOL    HW248670   4.813   6.304   6.356
16238SOL     OW48671   5.524   6.171   5.813
16238SOL    HW148672   5.490   6.170   5.724
16238SOL    HW248673   5.479   6.099   5.857
16239SOL     OW48674   4.450   6.716   6.644
16239SOL    HW148675   4.392   6.757   6.709
16239SOL    HW248676   4.492   6.789   6.600
16240SOL     OW48677   4.612   6.328   7.414
16240SOL    HW148678   4.603   6.395   7.481
16240SOL    HW248679   4.628   6.376   7.333
16241SOL     OW48680   4.409   6.571   6.230
16241SOL    HW148681   4.476   6.571   6.298
16241SOL    HW248682   4.343   6.633   6.261
16242SOL     OW48683   4.436   6.736   7.419
16242SOL    HW148684   4.488   6.809   7.454
16242SOL    HW248685   4.360   6.778   7.378
16243SOL     OW48686   4.066   6.983   6.655
16243SOL    HW148687   3.991   6.941   6.615
16243SOL    HW248688   4.103   7.038   6.586
16244SOL     OW48689   5.177   7.091   6.959
16244SOL    HW148690   5.232   7.169   6.971
16244SOL    HW248691   5.105   7.103   7.021
16245SOL     OW48692   4.182   5.961   7.043
16245SOL    HW148693   4.257   5.903   7.057
16245SOL    HW248694   4.106   5.910   7.068
16246SOL     OW48695   5.310   6.019   6.342
16246SOL    HW148696   5.246   6.031   6.271
16246SOL    HW248697   5.291   6.090   6.403
16247SOL     OW48698   3.942   7.314   6.050
16247SOL    HW148699   3.969   7.385   6.109
16247SOL    HW248700   4.016   7.303   5.991
16248SOL     OW48701   4.859   6.927   7.283
16248SOL    HW148702   4.905   6.916   7.367
16248SOL    HW248703   4.806   6.848   7.274
16249SOL     OW48704   3.956   7.043   6.118
16249SOL    HW148705   3.935   7.137   6.122
16249SOL    HW248706   3.907   7.005   6.191
16250SOL     OW48707   4.007   6.676   6.464
16250SOL    HW148708   4.009   6.587   6.498
16250SOL    HW248709   3.951   6.724   6.526
16251SOL     OW48710   4.296   7.392   7.005
16251SOL    HW148711   4.220   7.371   7.060
16251SOL    HW248712   4.329   7.474   7.040
16252SOL     OW48713   4.288   6.574   5.739
16252SOL    HW148714   4.339   6.615   5.669
16252SOL    HW248715   4.330   6.603   5.820
16253SOL     OW48716   5.316   5.717   7.047
16253SOL    HW148717   5.355   5.793   7.002
16253SOL    HW248718   5.284   5.752   7.130
16254SOL     OW48719   3.841   6.245   6.153
16254SOL    HW148720   3.811   6.157   6.176
16254SOL    HW248721   3.836   6.295   6.234
16255SOL     OW48722   5.571   7.329   5.901
16255SOL    HW148723   5.643   7.314   5.963
16255SOL    HW248724   5.578   7.422   5.878
16256SOL     OW48725   3.785   7.167   5.695
16256SOL    HW148726   3.765   7.075   5.714
16256SOL    HW248727   3.753   7.214   5.772
16257SOL     OW48728   5.424   6.513   6.238
16257SOL    HW148729   5.501   6.464   6.210
16257SOL    HW248730   5.400   6.566   6.162
16258SOL     OW48731   5.380   6.692   6.019
16258SOL    HW148732   5.465   6.684   5.975
16258SOL    HW248733   5.395   6.757   6.088
16259SOL     OW48734   3.845   6.335   7.164
16259SOL    HW148735   3.931   6.378   7.167
16259SOL    HW248736   3.783   6.406   7.150
16260SOL     OW48737   4.346   6.984   6.317
16260SOL    HW148738   4.304   6.898   6.321
16260SOL    HW248739   4.330   7.013   6.227
16261SOL     OW48740   4.994   6.812   7.004
16261SOL    HW148741   5.021   6.742   6.943
16261SOL    HW248742   5.056   6.806   7.076
16262SOL     OW48743   4.553   5.600   6.113
16262SOL    HW148744   4.594   5.681   6.082
16262SOL    HW248745   4.459   5.618   6.111
16263SOL     OW48746   3.911   6.542   6.887
16263SOL    HW148747   3.998   6.507   6.871
16263SOL    HW248748   3.857   6.507   6.816
16264SOL     OW48749   5.258   6.602   5.786
16264SOL    HW148750   5.189   6.542   5.816
16264SOL    HW248751   5.301   6.631   5.867
16265SOL     OW48752   4.902   7.407   7.221
16265SOL    HW148753   4.904   7.469   7.148
16265SOL    HW248754   4.919   7.322   7.180
16266SOL     OW48755   4.083   5.839   7.462
16266SOL    HW148756   4.119   5.919   7.500
16266SOL    HW248757   3.989   5.854   7.459
16267SOL     OW48758   5.195   7.006   6.514
16267SOL    HW148759   5.132   7.024   6.584
16267SOL    HW248760   5.179   6.915   6.490
16268SOL     OW48761   5.360   7.384   6.147
16268SOL    HW148762   5.344   7.337   6.065
16268SOL    HW248763   5.362   7.316   6.214
16269SOL     OW48764   4.311   6.285   5.858
16269SOL    HW148765   4.315   6.372   5.819
16269SOL    HW248766   4.247   6.293   5.928
16270SOL     OW48767   5.006   5.981   6.528
16270SOL    HW148768   4.917   5.946   6.532
16270SOL    HW248769   5.058   5.922   6.583
16271SOL     OW48770   5.303   7.260   5.905
16271SOL    HW148771   5.397   7.273   5.893
16271SOL    HW248772   5.269   7.248   5.817
16272SOL     OW48773   4.513   6.199   7.017
16272SOL    HW148774   4.490   6.170   7.105
16272SOL    HW248775   4.489   6.126   6.960
16273SOL     OW48776   5.115   6.064   7.259
16273SOL    HW148777   5.120   6.107   7.344
16273SOL    HW248778   5.165   5.983   7.270
16274SOL     OW48779   4.668   6.466   7.179
16274SOL    HW148780   4.724   6.402   7.135
16274SOL    HW248781   4.620   6.509   7.108
16275SOL     OW48782   4.731   5.983   6.796
16275SOL    HW148783   4.639   5.996   6.817
16275SOL    HW248784   4.730   5.941   6.710
16276SOL     OW48785   4.780   6.285   6.007
16276SOL    HW148786   4.800   6.281   6.100
16276SOL    HW248787   4.695   6.240   5.999
16277SOL     OW48788   3.816   6.411   6.370
16277SOL    HW148789   3.899   6.405   6.418
16277SOL    HW248790   3.769   6.483   6.411
16278SOL     OW48791   3.834   7.465   7.173
16278SOL    HW148792   3.840   7.446   7.266
16278SOL    HW248793   3.749   7.428   7.147
16279SOL     OW48794   4.621   5.929   5.783
16279SOL    HW148795   4.665   5.993   5.727
16279SOL    HW248796   4.618   5.849   5.730
16280SOL     OW48797   5.409   6.149   7.427
16280SOL    HW148798   5.388   6.227   7.374
16280SOL    HW248799   5.438   6.084   7.363
16281SOL     OW48800   5.117   6.736   6.128
16281SOL    HW148801   5.196   6.722   6.075
16281SOL    HW248802   5.064   6.796   6.077
16282SOL     OW48803   4.275   5.746   6.500
16282SOL    HW148804   4.281   5.776   6.590
16282SOL    HW248805   4.271   5.827   6.448
16283SOL     OW48806   4.723   7.043   6.052
16283SOL    HW148807   4.698   7.117   5.996
16283SOL    HW248808   4.692   7.067   6.139
16284SOL     OW48809   4.077   7.402   6.467
16284SOL    HW148810   4.123   7.317   6.471
16284SOL    HW248811   4.145   7.466   6.487
16285SOL     OW48812   5.530   6.630   6.475
16285SOL    HW148813   5.484   6.614   6.392
16285SOL    HW248814   5.460   6.638   6.540
16286SOL     OW48815   4.940   7.128   7.102
16286SOL    HW148816   4.930   7.058   7.166
16286SOL    HW248817   4.876   7.107   7.034
16287SOL     OW48818   4.024   6.544   5.851
16287SOL    HW148819   4.107   6.565   5.808
16287SOL    HW248820   4.001   6.457   5.818
16288SOL     OW48821   5.208   6.357   6.303
16288SOL    HW148822   5.211   6.311   6.387
16288SOL    HW248823   5.289   6.408   6.300
16289SOL     OW48824   4.197   6.870   7.334
16289SOL    HW148825   4.173   6.875   7.242
16289SOL    HW248826   4.114   6.858   7.380
16290SOL     OW48827   4.864   7.361   5.812
16290SOL    HW148828   4.782   7.331   5.851
16290SOL    HW248829   4.884   7.296   5.745
16291SOL     OW48830   3.933   5.842   7.084
16291SOL    HW148831   3.860   5.902   7.100
16291SOL    HW248832   3.902   5.758   7.118
16292SOL     OW48833   5.364   6.978   5.689
16292SOL    HW148834   5.323   7.062   5.673
16292SOL    HW248835   5.300   6.913   5.661
16293SOL     OW48836   4.183   7.327   5.901
16293SOL    HW148837   4.233   7.377   5.966
16293SOL    HW248838   4.250   7.287   5.846
16294SOL     OW48839   5.122   5.692   6.055
16294SOL    HW148840   5.117   5.669   5.962
16294SOL    HW248841   5.213   5.675   6.079
16295SOL     OW48842   3.976   7.374   6.800
16295SOL    HW148843   4.025   7.300   6.835
16295SOL    HW248844   3.963   7.354   6.708
16296SOL     OW48845   4.673   7.288   6.475
16296SOL    HW148846   4.758   7.247   6.487
16296SOL    HW248847   4.632   7.238   6.404
16297SOL     OW48848   4.118   6.273   6.059
16297SOL    HW148849   4.131   6.179   6.072
16297SOL    HW248850   4.025   6.287   6.075
16298SOL     OW48851   5.231   5.810   7.303
16298SOL    HW148852   5.243   5.828   7.396
16298SOL    HW248853   5.165   5.740   7.301
16299SOL     OW48854   4.373   5.697   5.696
16299SOL    HW148855   4.429   5.621   5.712
16299SOL    HW248856   4.315   5.670   5.625
16300SOL     OW48857   4.483   5.860   7.339
16300SOL    HW148858   4.568   5.814   7.337
16300SOL    HW248859   4.436   5.820   7.412
16301SOL     OW48860   4.592   7.113   6.786
16301SOL    HW148861   4.575   7.072   6.701
16301SOL    HW248862   4.661   7.059   6.826
16302SOL     OW48863   5.053   6.178   7.018
16302SOL    HW148864   5.086   6.148   7.103
16302SOL    HW248865   5.092   6.264   7.007
16303SOL     OW48866   4.539   6.962   6.543
16303SOL    HW148867   4.627   6.958   6.505
16303SOL    HW248868   4.481   6.978   6.468
16304SOL     OW48869   4.653   6.101   6.474
16304SOL    HW148870   4.628   6.089   6.382
16304SOL    HW248871   4.681   6.014   6.502
16305SOL     OW48872   4.287   5.653   6.081
16305SOL    HW148873   4.208   5.652   6.135
16305SOL    HW248874   4.275   5.727   6.022
16306SOL     OW48875   5.163   6.801   5.618
16306SOL    HW148876   5.192   6.725   5.670
16306SOL    HW248877   5.077   6.823   5.654
16307SOL     OW48878   4.006   5.636   5.775
16307SOL    HW148879   4.059   5.702   5.731
16307SOL    HW248880   4.070   5.578   5.818
16308SOL     OW48881   4.675   5.835   6.038
16308SOL    HW148882   4.651   5.868   5.951
16308SOL    HW248883   4.769   5.853   6.044
16309SOL     OW48884   4.799   6.279   7.030
16309SOL    HW148885   4.736   6.207   7.034
16309SOL    HW248886   4.884   6.236   7.026
16310SOL     OW48887   4.928   7.175   6.390
16310SOL    HW148888   4.944   7.235   6.316
16310SOL    HW248889   5.006   7.184   6.445
16311SOL     OW48890   4.205   6.748   6.294
16311SOL    HW148891   4.142   6.723   6.362
16311SOL    HW248892   4.156   6.741   6.212
16312SOL     OW48893   4.974   7.378   6.204
16312SOL    HW148894   5.023   7.441   6.150
16312SOL    HW248895   4.903   7.430   6.241
16313SOL     OW48896   4.749   6.108   5.622
16313SOL    HW148897   4.707   6.192   5.602
16313SOL    HW248898   4.815   6.131   5.688
16314SOL     OW48899   3.824   6.136   6.978
16314SOL    HW148900   3.916   6.138   6.951
16314SOL    HW248901   3.817   6.205   7.043
16315SOL     OW48902   4.283   5.808   6.769
16315SOL    HW148903   4.321   5.742   6.828
16315SOL    HW248904   4.190   5.808   6.790
16316SOL     OW48905   4.594   6.040   6.215
16316SOL    HW148906   4.554   6.095   6.148
16316SOL    HW248907   4.620   5.960   6.169
16317SOL     OW48908   4.741   5.648   6.330
16317SOL    HW148909   4.681   5.643   6.256
16317SOL    HW248910   4.718   5.574   6.385
16318SOL     OW48911   5.161   6.742   6.438
16318SOL    HW148912   5.090   6.678   6.444
16318SOL    HW248913   5.179   6.748   6.344
16319SOL     OW48914   5.187   6.203   6.536
16319SOL    HW148915   5.123   6.133   6.545
16319SOL    HW248916   5.243   6.196   6.614
16320SOL     OW48917   5.553   6.385   5.980
16320SOL    HW148918   5.615   6.341   6.038
16320SOL    HW248919   5.538   6.323   5.908
16321SOL     OW48920   4.222   7.013   5.737
16321SOL    HW148921   4.147   6.979   5.786
16321SOL    HW248922   4.222   6.962   5.656
16322SOL     OW48923   5.431   6.857   6.222
16322SOL    HW148924   5.524   6.850   6.241
16322SOL    HW248925   5.409   6.948   6.244
16323SOL     OW48926   5.115   6.163   5.662
16323SOL    HW148927   5.052   6.137   5.729
16323SOL    HW248928   5.199   6.127   5.692
16324SOL     OW48929   4.247   5.847   5.894
16324SOL    HW148930   4.299   5.801   5.827
16324SOL    HW248931   4.217   5.926   5.850
16325SOL     OW48932   5.459   6.830   7.118
16325SOL    HW148933   5.547   6.796   7.104
16325SOL    HW248934   5.473   6.918   7.155
16326SOL     OW48935   4.767   6.944   6.924
16326SOL    HW148936   4.689   6.908   6.967
16326SOL    HW248937   4.840   6.896   6.963
16327SOL     OW48938   5.332   7.220   7.259
16327SOL    HW148939   5.320   7.257   7.171
16327SOL    HW248940   5.410   7.165   7.252
16328SOL     OW48941   4.876   6.826   6.692
16328SOL    HW148942   4.813   6.859   6.757
16328SOL    HW248943   4.842   6.857   6.608
16329SOL     OW48944   5.333   6.676   6.661
16329SOL    HW148945   5.325   6.743   6.730
16329SOL    HW248946   5.264   6.698   6.599
16330SOL     OW48947   4.642   5.666   6.968
16330SOL    HW148948   4.663   5.651   6.876
16330SOL    HW248949   4.721   5.707   7.004
16331SOL     OW48950   4.703   6.701   7.310
16331SOL    HW148951   4.613   6.717   7.337
16331SOL    HW248952   4.699   6.621   7.258
16332SOL     OW48953   4.438   6.649   5.962
16332SOL    HW148954   4.423   6.622   6.053
16332SOL    HW248955   4.513   6.597   5.934
16333SOL     OW48956   4.150   6.414   6.846
16333SOL    HW148957   4.218   6.424   6.912
16333SOL    HW248958   4.120   6.324   6.855
16334SOL     OW48959   4.988   5.952   6.879
16334SOL    HW148960   5.016   6.033   6.922
16334SOL    HW248961   4.899   5.971   6.848
16335SOL     OW48962   3.802   7.155   6.948
16335SOL    HW148963   3.771   7.226   6.892
16335SOL    HW248964   3.897   7.155   6.938
16336SOL     OW48965   4.041   6.720   6.072
16336SOL    HW148966   4.043   6.791   6.008
16336SOL    HW248967   4.038   6.640   6.018
16337SOL     OW48968   4.257   6.105   6.447
16337SOL    HW148969   4.269   6.163   6.372
16337SOL    HW248970   4.326   6.130   6.508
16338SOL     OW48971   4.972   6.941   5.985
16338SOL    HW148972   5.029   7.010   6.019
16338SOL    HW248973   4.884   6.964   6.015
16339SOL     OW48974   5.034   7.055   6.728
16339SOL    HW148975   5.081   7.061   6.811
16339SOL    HW248976   4.983   6.974   6.735
16340SOL     OW48977   5.301   6.208   6.084
16340SOL    HW148978   5.249   6.253   6.150
16340SOL    HW248979   5.347   6.277   6.037
16341SOL     OW48980   4.068   7.119   6.888
16341SOL    HW148981   4.061   7.066   6.808
16341SOL    HW248982   4.162   7.135   6.897
16342SOL     OW48983   4.155   6.332   7.204
16342SOL    HW148984   4.214   6.376   7.142
16342SOL    HW248985   4.198   6.249   7.223
16343SOL     OW48986   5.351   6.373   7.284
16343SOL    HW148987   5.264   6.411   7.275
16343SOL    HW248988   5.402   6.410   7.212
16344SOL     OW48989   4.719   5.726   7.346
16344SOL    HW148990   4.778   5.799   7.326
16344SOL    HW248991   4.770   5.648   7.323
16345SOL     OW48992   4.218   5.621   7.350
16345SOL    HW148993   4.164   5.571   7.288
16345SOL    HW248994   4.166   5.698   7.371
16346SOL     OW48995   4.317   6.461   6.626
16346SOL    HW148996   4.354   6.549   6.629
16346SOL    HW248997   4.258   6.457   6.701
16347SOL     OW48998   5.032   6.438   6.593
16347SOL    HW148999   4.945   6.412   6.564
16347SOL    HW249000   5.088   6.363   6.572
16348SOL     OW49001   4.920   6.110   5.848
16348SOL    HW149002   4.931   6.032   5.903
16348SOL    HW249003   4.878   6.174   5.905
16349SOL     OW49004   4.016   5.779   6.825
16349SOL    HW149005   3.982   5.807   6.910
16349SOL    HW249006   3.999   5.685   6.822
16350SOL     OW49007   3.772   6.897   6.852
16350SOL    HW149008   3.803   6.841   6.923
16350SOL    HW249009   3.776   6.986   6.887
16351SOL     OW49010   4.437   6.208   6.626
16351SOL    HW149011   4.513   6.200   6.569
16351SOL    HW249012   4.408   6.299   6.616
16352SOL     OW49013   5.475   6.553   7.456
16352SOL    HW149014   5.436   6.482   7.407
16352SOL    HW249015   5.411   6.574   7.524
16353SOL     OW49016   4.047   5.645   6.217
16353SOL    HW149017   4.014   5.734   6.235
16353SOL    HW249018   4.053   5.604   6.303
16354SOL     OW49019   5.358   5.978   5.949
16354SOL    HW149020   5.392   5.914   6.011
16354SOL    HW249021   5.331   6.052   6.004
16355SOL     OW49022   4.756   6.345   6.541
16355SOL    HW149023   4.735   6.359   6.633
16355SOL    HW249024   4.727   6.255   6.524
16356SOL     OW49025   4.705   7.150   7.323
16356SOL    HW149026   4.682   7.195   7.241
16356SOL    HW249027   4.744   7.068   7.295
16357SOL     OW49028   5.562   7.081   7.189
16357SOL    HW149029   5.589   7.109   7.101
16357SOL    HW249030   5.641   7.092   7.242
16358SOL     OW49031   4.073   6.505   7.402
16358SOL    HW149032   4.150   6.522   7.456
16358SOL    HW249033   4.104   6.442   7.336
16359SOL     OW49034   5.230   5.869   5.732
16359SOL    HW149035   5.174   5.797   5.761
16359SOL    HW249036   5.271   5.902   5.813
16360SOL     OW49037   5.009   6.411   5.607
16360SOL    HW149038   5.048   6.324   5.615
16360SOL    HW249039   5.044   6.445   5.525
16361SOL     OW49040   4.793   6.940   6.454
16361SOL    HW149041   4.803   6.867   6.392
16361SOL    HW249042   4.844   7.011   6.415
16362SOL     OW49043   4.042   6.403   6.530
16362SOL    HW149044   4.137   6.416   6.526
16362SOL    HW249045   4.032   6.313   6.561
16363SOL     OW49046   4.036   6.125   6.598
16363SOL    HW149047   3.997   6.038   6.588
16363SOL    HW249048   4.113   6.123   6.542
16364SOL     OW49049   4.862   5.953   7.272
16364SOL    HW149050   4.817   6.004   7.339
16364SOL    HW249051   4.947   5.996   7.262
16365SOL     OW49052   4.879   5.775   7.061
16365SOL    HW149053   4.868   5.837   7.132
16365SOL    HW249054   4.925   5.824   6.993
16366SOL     OW49055   3.748   6.889   5.765
16366SOL    HW149056   3.658   6.912   5.740
16366SOL    HW249057   3.741   6.803   5.806
16367SOL     OW49058   3.816   7.356   6.537
16367SOL    HW149059   3.783   7.282   6.486
16367SOL    HW249060   3.903   7.373   6.501
16368SOL     OW49061   4.209   7.156   6.487
16368SOL    HW149062   4.280   7.216   6.510
16368SOL    HW249063   4.249   7.095   6.426
16369SOL     OW49064   4.672   6.367   6.800
16369SOL    HW149065   4.734   6.355   6.872
16369SOL    HW249066   4.593   6.321   6.828
16370SOL     OW49067   3.763   6.159   6.708
16370SOL    HW149068   3.844   6.155   6.657
16370SOL    HW249069   3.792   6.150   6.799
16371SOL     OW49070   3.911   6.124   7.330
16371SOL    HW149071   3.983   6.090   7.276
16371SOL    HW249072   3.876   6.198   7.280
16372SOL     OW49073   5.116   6.507   7.237
16372SOL    HW149074   5.133   6.601   7.232
16372SOL    HW249075   5.108   6.479   7.146
16373SOL     OW49076   4.542   6.152   5.957
16373SOL    HW149077   4.550   6.078   5.897
16373SOL    HW249078   4.465   6.200   5.925
16374SOL     OW49079   5.359   6.187   6.751
16374SOL    HW149080   5.349   6.127   6.824
16374SOL    HW249081   5.450   6.176   6.723
16375SOL     OW49082   3.949   7.126   7.310
16375SOL    HW149083   3.925   7.173   7.390
16375SOL    HW249084   3.962   7.035   7.338
16376SOL     OW49085   4.458   6.019   6.820
16376SOL    HW149086   4.394   5.949   6.804
16376SOL    HW249087   4.440   6.083   6.751
16377SOL     OW49088   4.621   7.269   7.081
16377SOL    HW149089   4.604   7.219   7.001
16377SOL    HW249090   4.627   7.360   7.051
16378SOL     OW49091   4.165   6.069   5.751
16378SOL    HW149092   4.230   6.134   5.774
16378SOL    HW249093   4.081   6.116   5.755
16379SOL     OW49094   3.854   6.736   7.066
16379SOL    HW149095   3.858   6.696   7.153
16379SOL    HW249096   3.875   6.665   7.006
16380SOL     OW49097   5.027   6.621   6.796
16380SOL    HW149098   5.036   6.557   6.725
16380SOL    HW249099   4.975   6.691   6.757
16381SOL     OW49100   5.048   6.448   5.880
16381SOL    HW149101   4.978   6.408   5.931
16381SOL    HW249102   5.023   6.432   5.789
16382SOL     OW49103   5.514   7.309   6.759
16382SOL    HW149104   5.574   7.335   6.690
16382SOL    HW249105   5.478   7.225   6.731
16383SOL     OW49106   4.966   7.322   6.682
16383SOL    HW149107   5.049   7.351   6.646
16383SOL    HW249108   4.979   7.230   6.704
16384SOL     OW49109   3.828   6.836   6.594
16384SOL    HW149110   3.800   6.856   6.683
16384SOL    HW249111   3.758   6.781   6.559
16385SOL     OW49112   4.412   7.270   7.333
16385SOL    HW149113   4.349   7.340   7.321
16385SOL    HW249114   4.484   7.291   7.273
16386SOL     OW49115   5.473   5.769   6.096
16386SOL    HW149116   5.529   5.752   6.020
16386SOL    HW249117   5.445   5.682   6.125
16387SOL     OW49118   5.122   7.156   6.091
16387SOL    HW149119   5.177   7.190   6.019
16387SOL    HW249120   5.066   7.230   6.115
16388SOL     OW49121   3.855   7.395   7.430
16388SOL    HW149122   3.816   7.317   7.471
16388SOL    HW249123   3.907   7.435   7.500
16389SOL     OW49124   5.001   6.526   6.254
16389SOL    HW149125   5.075   6.467   6.269
16389SOL    HW249126   5.037   6.596   6.199
16390SOL     OW49127   4.508   6.866   6.999
16390SOL    HW149128   4.481   6.913   7.078
16390SOL    HW249129   4.434   6.876   6.940
16391SOL     OW49130   4.393   7.224   5.742
16391SOL    HW149131   4.410   7.237   5.649
16391SOL    HW249132   4.341   7.144   5.747
16392SOL     OW49133   5.339   7.315   6.989
16392SOL    HW149134   5.397   7.315   6.912
16392SOL    HW249135   5.324   7.408   7.006
16393SOL     OW49136   5.568   5.746   6.552
16393SOL    HW149137   5.597   5.657   6.530
16393SOL    HW249138   5.482   5.753   6.513
16394SOL     OW49139   3.967   5.892   6.296
16394SOL    HW149140   3.882   5.929   6.274
16394SOL    HW249141   3.971   5.895   6.391
16395SOL     OW49142   4.934   7.171   5.627
16395SOL    HW149143   4.926   7.080   5.654
16395SOL    HW249144   4.863   7.184   5.563
16396SOL     OW49145   4.547   6.597   6.971
16396SOL    HW149146   4.585   6.586   6.884
16396SOL    HW249147   4.537   6.691   6.982
16397SOL     OW49148   4.646   6.500   5.881
16397SOL    HW149149   4.703   6.532   5.811
16397SOL    HW249150   4.697   6.431   5.924
16398SOL     OW49151   5.206   7.236   5.645
16398SOL    HW149152   5.114   7.213   5.628
16398SOL    HW249153   5.246   7.238   5.558
16399SOL     OW49154   4.086   6.899   7.089
16399SOL    HW149155   4.079   6.972   7.026
16399SOL    HW249156   4.008   6.846   7.071
16400SOL     OW49157   5.322   6.875   6.862
16400SOL    HW149158   5.377   6.851   6.936
16400SOL    HW249159   5.263   6.942   6.897
16401SOL     OW49160   4.798   6.708   6.316
16401SOL    HW149161   4.723   6.657   6.346
16401SOL    HW249162   4.861   6.642   6.287
16402SOL     OW49163   4.757   5.836   6.548
16402SOL    HW149164   4.755   5.794   6.462
16402SOL    HW249165   4.750   5.764   6.610
16403SOL     OW49166   4.328   7.073   6.061
16403SOL    HW149167   4.385   7.024   6.002
16403SOL    HW249168   4.248   7.087   6.012
16404SOL     OW49169   5.470   5.966   6.976
16404SOL    HW149170   5.541   6.031   6.971
16404SOL    HW249171   5.496   5.898   6.914
16405SOL     OW49172   4.004   6.926   5.884
16405SOL    HW149173   3.917   6.919   5.845
16405SOL    HW249174   3.989   6.975   5.966
16406SOL     OW49175   3.845   6.632   7.321
16406SOL    HW149176   3.768   6.604   7.371
16406SOL    HW249177   3.917   6.581   7.358
16407SOL     OW49178   4.403   5.774   7.082
16407SOL    HW149179   4.486   5.749   7.042
16407SOL    HW249180   4.426   5.808   7.168
16408SOL     OW49181   3.807   5.906   5.603
16408SOL    HW149182   3.731   5.885   5.549
16408SOL    HW249183   3.837   5.990   5.569
16409SOL     OW49184   5.139   6.440   6.974
16409SOL    HW149185   5.086   6.499   6.920
16409SOL    HW249186   5.227   6.444   6.936
16410SOL     OW49187   3.767   5.737   5.857
16410SOL    HW149188   3.755   5.806   5.792
16410SOL    HW249189   3.856   5.704   5.841
16411SOL     OW49190   4.912   6.904   5.711
16411SOL    HW149191   4.826   6.861   5.712
16411SOL    HW249192   4.936   6.910   5.804
16412SOL     OW49193   4.350   6.417   7.028
16412SOL    HW149194   4.409   6.492   7.016
16412SOL    HW249195   4.407   6.341   7.026
16413SOL     OW49196   5.210   7.390   6.579
16413SOL    HW149197   5.237   7.463   6.524
16413SOL    HW249198   5.291   7.341   6.595
16414SOL     OW49199   4.448   6.134   7.273
16414SOL    HW149200   4.496   6.187   7.336
16414SOL    HW249201   4.459   6.044   7.304
16415SOL     OW49202   5.193   6.771   7.205
16415SOL    HW149203   5.186   6.793   7.298
16415SOL    HW249204   5.282   6.794   7.181
16416SOL     OW49205   4.078   7.333   7.166
16416SOL    HW149206   3.996   7.379   7.148
16416SOL    HW249207   4.051   7.249   7.205
16417SOL     OW49208   5.379   6.461   6.839
16417SOL    HW149209   5.377   6.377   6.793
16417SOL    HW249210   5.367   6.526   6.770
16418SOL     OW49211   4.944   5.908   6.047
16418SOL    HW149212   5.004   5.834   6.046
16418SOL    HW249213   4.972   5.962   6.120
16419SOL     OW49214   4.297   6.314   6.269
16419SOL    HW149215   4.342   6.397   6.253
16419SOL    HW249216   4.237   6.305   6.195
16420SOL     OW49217   5.471   5.941   7.252
16420SOL    HW149218   5.468   5.956   7.157
16420SOL    HW249219   5.393   5.888   7.269
16421SOL     OW49220   5.485   6.510   7.089
16421SOL    HW149221   5.468   6.603   7.101
16421SOL    HW249222   5.458   6.492   6.999
16422SOL     OW49223   4.582   6.945   5.643
16422SOL    HW149224   4.552   6.967   5.731
16422SOL    HW249225   4.606   7.029   5.604
16423SOL     OW49226   4.393   7.352   6.513
16423SOL    HW149227   4.374   7.445   6.504
16423SOL    HW249228   4.489   7.347   6.511
16424SOL     OW49229   4.595   6.563   6.442
16424SOL    HW149230   4.645   6.489   6.476
16424SOL    HW249231   4.550   6.599   6.518
16425SOL     OW49232   4.799   6.575   5.672
16425SOL    HW149233   4.775   6.623   5.593
16425SOL    HW249234   4.873   6.520   5.645
16426SOL     OW49235   5.559   7.144   6.422
16426SOL    HW149236   5.480   7.136   6.368
16426SOL    HW249237   5.544   7.082   6.494
16427SOL     OW49238   3.935   6.871   7.422
16427SOL    HW149239   3.904   6.792   7.379
16427SOL    HW249240   3.876   6.883   7.496
16428SOL     OW49241   3.841   6.810   6.253
16428SOL    HW149242   3.873   6.769   6.334
16428SOL    HW249243   3.900   6.778   6.185
16429SOL     OW49244   4.414   7.004   7.218
16429SOL    HW149245   4.338   6.966   7.260
16429SOL    HW249246   4.420   7.093   7.255
16430SOL     OW49247   5.535   5.755   6.822
16430SOL    HW149248   5.536   5.660   6.834
16430SOL    HW249249   5.548   5.768   6.728
16431SOL     OW49250   4.142   6.011   6.106
16431SOL    HW149251   4.176   5.941   6.050
16431SOL    HW249252   4.090   5.965   6.173
16432SOL     OW49253   5.415   7.069   6.671
16432SOL    HW149254   5.339   7.050   6.616
16432SOL    HW249255   5.413   7.000   6.738
16433SOL     OW49256   4.076   6.152   6.878
16433SOL    HW149257   4.126   6.087   6.928
16433SOL    HW249258   4.084   6.122   6.787
16434SOL     OW49259   4.561   7.170   6.256
16434SOL    HW149260   4.531   7.238   6.197
16434SOL    HW249261   4.486   7.110   6.265
16435SOL     OW49262   5.144   5.819   6.700
16435SOL    HW149263   5.151   5.728   6.730
16435SOL    HW249264   5.099   5.864   6.771
16436SOL     OW49265   4.734   5.602   6.705
16436SOL    HW149266   4.683   5.539   6.655
16436SOL    HW249267   4.821   5.563   6.711
16437SOL     OW49268   4.505   6.920   5.916
16437SOL    HW149269   4.481   6.827   5.926
16437SOL    HW249270   4.586   6.928   5.966
16438SOL     OW49271   4.339   7.157   6.874
16438SOL    HW149272   4.334   7.241   6.919
16438SOL    HW249273   4.428   7.152   6.841
16439SOL     OW49274   5.085   5.636   5.791
16439SOL    HW149275   5.118   5.580   5.721
16439SOL    HW249276   4.994   5.607   5.804
16440SOL     OW49277   5.021   6.060   6.262
16440SOL    HW149278   4.970   6.141   6.260
16440SOL    HW249279   5.015   6.031   6.353
16441SOL     OW49280   5.306   5.774   6.478
16441SOL    HW149281   5.254   5.805   6.552
16441SOL    HW249282   5.307   5.848   6.417
16442SOL     OW49283   3.761   6.637   5.894
16442SOL    HW149284   3.854   6.625   5.875
16442SOL    HW249285   3.729   6.549   5.914
16443SOL     OW49286   4.619   7.262   5.916
16443SOL    HW149287   4.541   7.247   5.863
16443SOL    HW249288   4.593   7.331   5.977
16444SOL     OW49289   3.932   6.208   7.596
16444SOL    HW149290   3.844   6.196   7.632
16444SOL    HW249291   3.921   6.194   7.502
16445SOL     OW49292   3.943   5.875   8.438
16445SOL    HW149293   3.973   5.839   8.521
16445SOL    HW249294   3.856   5.837   8.426
16446SOL     OW49295   3.711   5.982   8.094
16446SOL    HW149296   3.631   6.007   8.141
16446SOL    HW249297   3.684   5.908   8.039
16447SOL     OW49298   4.299   6.894   8.657
16447SOL    HW149299   4.217   6.897   8.608
16447SOL    HW249300   4.316   6.986   8.681
16448SOL     OW49301   5.312   7.111   8.153
16448SOL    HW149302   5.265   7.079   8.230
16448SOL    HW249303   5.246   7.114   8.084
16449SOL     OW49304   4.862   6.290   8.134
16449SOL    HW149305   4.908   6.373   8.123
16449SOL    HW249306   4.813   6.301   8.216
16450SOL     OW49307   5.524   6.168   7.668
16450SOL    HW149308   5.486   6.167   7.580
16450SOL    HW249309   5.481   6.096   7.714
16451SOL     OW49310   4.451   6.716   8.506
16451SOL    HW149311   4.393   6.756   8.570
16451SOL    HW249312   4.493   6.790   8.461
16452SOL     OW49313   4.612   6.330   9.275
16452SOL    HW149314   4.613   6.398   9.342
16452SOL    HW249315   4.627   6.377   9.193
16453SOL     OW49316   4.409   6.571   8.092
16453SOL    HW149317   4.477   6.571   8.160
16453SOL    HW249318   4.343   6.633   8.123
16454SOL     OW49319   4.436   6.738   9.273
16454SOL    HW149320   4.488   6.811   9.307
16454SOL    HW249321   4.359   6.779   9.235
16455SOL     OW49322   4.067   6.983   8.517
16455SOL    HW149323   3.991   6.940   8.477
16455SOL    HW249324   4.103   7.038   8.448
16456SOL     OW49325   5.178   7.092   8.819
16456SOL    HW149326   5.232   7.170   8.831
16456SOL    HW249327   5.106   7.104   8.882
16457SOL     OW49328   4.182   5.960   8.904
16457SOL    HW149329   4.256   5.902   8.919
16457SOL    HW249330   4.105   5.909   8.930
16458SOL     OW49331   5.309   6.018   8.203
16458SOL    HW149332   5.243   6.029   8.134
16458SOL    HW249333   5.290   6.088   8.265
16459SOL     OW49334   3.942   7.314   7.912
16459SOL    HW149335   3.969   7.385   7.971
16459SOL    HW249336   4.016   7.303   7.853
16460SOL     OW49337   4.859   6.929   9.142
16460SOL    HW149338   4.902   6.919   9.226
16460SOL    HW249339   4.807   6.849   9.132
16461SOL     OW49340   3.956   7.043   7.981
16461SOL    HW149341   3.935   7.137   7.985
16461SOL    HW249342   3.907   7.005   8.053
16462SOL     OW49343   4.009   6.676   8.327
16462SOL    HW149344   4.010   6.586   8.360
16462SOL    HW249345   3.952   6.724   8.387
16463SOL     OW49346   4.298   7.391   8.867
16463SOL    HW149347   4.222   7.371   8.921
16463SOL    HW249348   4.331   7.474   8.902
16464SOL     OW49349   4.289   6.574   7.600
16464SOL    HW149350   4.340   6.616   7.531
16464SOL    HW249351   4.330   6.603   7.682
16465SOL     OW49352   5.315   5.719   8.905
16465SOL    HW149353   5.354   5.795   8.863
16465SOL    HW249354   5.283   5.751   8.989
16466SOL     OW49355   3.843   6.244   8.015
16466SOL    HW149356   3.811   6.157   8.039
16466SOL    HW249357   3.837   6.295   8.096
16467SOL     OW49358   5.570   7.329   7.765
16467SOL    HW149359   5.643   7.314   7.826
16467SOL    HW249360   5.577   7.422   7.742
16468SOL     OW49361   3.784   7.166   7.558
16468SOL    HW149362   3.763   7.075   7.577
16468SOL    HW249363   3.752   7.214   7.635
16469SOL     OW49364   5.422   6.512   8.100
16469SOL    HW149365   5.502   6.466   8.075
16469SOL    HW249366   5.399   6.565   8.023
16470SOL     OW49367   5.380   6.691   7.881
16470SOL    HW149368   5.465   6.683   7.837
16470SOL    HW249369   5.395   6.757   7.949
16471SOL     OW49370   3.844   6.335   9.026
16471SOL    HW149371   3.929   6.379   9.030
16471SOL    HW249372   3.781   6.405   9.013
16472SOL     OW49373   4.346   6.984   8.179
16472SOL    HW149374   4.305   6.898   8.183
16472SOL    HW249375   4.331   7.013   8.089
16473SOL     OW49376   4.995   6.812   8.865
16473SOL    HW149377   5.023   6.743   8.805
16473SOL    HW249378   5.056   6.807   8.939
16474SOL     OW49379   4.555   5.596   7.967
16474SOL    HW149380   4.595   5.678   7.939
16474SOL    HW249381   4.461   5.615   7.967
16475SOL     OW49382   3.911   6.542   8.749
16475SOL    HW149383   3.998   6.507   8.733
16475SOL    HW249384   3.857   6.507   8.678
16476SOL     OW49385   5.259   6.601   7.647
16476SOL    HW149386   5.190   6.541   7.677
16476SOL    HW249387   5.301   6.631   7.728
16477SOL     OW49388   4.901   7.408   9.084
16477SOL    HW149389   4.903   7.470   9.011
16477SOL    HW249390   4.918   7.323   9.043
16478SOL     OW49391   4.084   5.839   9.323
16478SOL    HW149392   4.120   5.919   9.363
16478SOL    HW249393   3.989   5.856   9.319
16479SOL     OW49394   5.196   7.004   8.378
16479SOL    HW149395   5.132   7.023   8.447
16479SOL    HW249396   5.179   6.913   8.354
16480SOL     OW49397   5.361   7.383   8.010
16480SOL    HW149398   5.344   7.336   7.928
16480SOL    HW249399   5.361   7.314   8.077
16481SOL     OW49400   4.311   6.285   7.720
16481SOL    HW149401   4.314   6.373   7.681
16481SOL    HW249402   4.246   6.293   7.790
16482SOL     OW49403   5.006   5.980   8.389
16482SOL    HW149404   4.918   5.945   8.394
16482SOL    HW249405   5.058   5.921   8.444
16483SOL     OW49406   5.303   7.259   7.767
16483SOL    HW149407   5.397   7.274   7.756
16483SOL    HW249408   5.270   7.247   7.678
16484SOL     OW49409   4.514   6.199   8.879
16484SOL    HW149410   4.490   6.170   8.967
16484SOL    HW249411   4.489   6.126   8.822
16485SOL     OW49412   5.115   6.061   9.118
16485SOL    HW149413   5.119   6.105   9.203
16485SOL    HW249414   5.165   5.981   9.130
16486SOL     OW49415   4.668   6.466   9.039
16486SOL    HW149416   4.724   6.403   8.995
16486SOL    HW249417   4.620   6.509   8.969
16487SOL     OW49418   4.731   5.983   8.657
16487SOL    HW149419   4.639   5.996   8.680
16487SOL    HW249420   4.729   5.941   8.571
16488SOL     OW49421   4.782   6.283   7.866
16488SOL    HW149422   4.803   6.280   7.960
16488SOL    HW249423   4.698   6.239   7.859
16489SOL     OW49424   3.817   6.410   8.231
16489SOL    HW149425   3.899   6.405   8.280
16489SOL    HW249426   3.769   6.482   8.272
16490SOL     OW49427   3.835   7.465   9.040
16490SOL    HW149428   3.843   7.443   9.133
16490SOL    HW249429   3.750   7.428   9.015
16491SOL     OW49430   4.613   5.936   7.648
16491SOL    HW149431   4.664   5.991   7.588
16491SOL    HW249432   4.591   5.859   7.597
16492SOL     OW49433   5.406   6.147   9.285
16492SOL    HW149434   5.386   6.226   9.235
16492SOL    HW249435   5.435   6.083   9.220
16493SOL     OW49436   5.117   6.736   7.991
16493SOL    HW149437   5.196   6.724   7.939
16493SOL    HW249438   5.063   6.796   7.940
16494SOL     OW49439   4.275   5.746   8.363
16494SOL    HW149440   4.281   5.775   8.454
16494SOL    HW249441   4.271   5.828   8.312
16495SOL     OW49442   4.722   7.042   7.913
16495SOL    HW149443   4.697   7.116   7.858
16495SOL    HW249444   4.691   7.066   8.001
16496SOL     OW49445   4.078   7.402   8.328
16496SOL    HW149446   4.123   7.318   8.332
16496SOL    HW249447   4.145   7.466   8.349
16497SOL     OW49448   5.528   6.629   8.337
16497SOL    HW149449   5.481   6.614   8.255
16497SOL    HW249450   5.459   6.638   8.403
16498SOL     OW49451   4.942   7.130   8.964
16498SOL    HW149452   4.930   7.059   9.027
16498SOL    HW249453   4.875   7.114   8.897
16499SOL     OW49454   4.024   6.545   7.713
16499SOL    HW149455   4.107   6.566   7.670
16499SOL    HW249456   4.001   6.458   7.680
16500SOL     OW49457   5.208   6.350   8.159
16500SOL    HW149458   5.211   6.306   8.244
16500SOL    HW249459   5.288   6.403   8.157
16501SOL     OW49460   4.195   6.872   9.196
16501SOL    HW149461   4.171   6.876   9.103
16501SOL    HW249462   4.112   6.862   9.242
16502SOL     OW49463   4.864   7.361   7.675
16502SOL    HW149464   4.781   7.331   7.713
16502SOL    HW249465   4.884   7.297   7.607
16503SOL     OW49466   3.932   5.841   8.947
16503SOL    HW149467   3.858   5.901   8.961
16503SOL    HW249468   3.902   5.758   8.982
16504SOL     OW49469   5.363   6.975   7.549
16504SOL    HW149470   5.322   7.060   7.535
16504SOL    HW249471   5.296   6.912   7.522
16505SOL     OW49472   4.183   7.327   7.763
16505SOL    HW149473   4.232   7.378   7.828
16505SOL    HW249474   4.250   7.287   7.708
16506SOL     OW49475   5.121   5.691   7.907
16506SOL    HW149476   5.120   5.667   7.814
16506SOL    HW249477   5.212   5.680   7.934
16507SOL     OW49478   3.976   7.374   8.662
16507SOL    HW149479   4.025   7.300   8.697
16507SOL    HW249480   3.962   7.354   8.570
16508SOL     OW49481   4.672   7.288   8.337
16508SOL    HW149482   4.757   7.247   8.352
16508SOL    HW249483   4.633   7.238   8.267
16509SOL     OW49484   4.119   6.271   7.921
16509SOL    HW149485   4.132   6.177   7.934
16509SOL    HW249486   4.026   6.285   7.938
16510SOL     OW49487   5.231   5.807   9.162
16510SOL    HW149488   5.244   5.827   9.255
16510SOL    HW249489   5.166   5.737   9.162
16511SOL     OW49490   4.387   5.695   7.551
16511SOL    HW149491   4.436   5.617   7.575
16511SOL    HW249492   4.325   5.665   7.484
16512SOL     OW49493   4.482   5.858   9.202
16512SOL    HW149494   4.566   5.813   9.201
16512SOL    HW249495   4.435   5.821   9.276
16513SOL     OW49496   4.593   7.113   8.647
16513SOL    HW149497   4.575   7.071   8.563
16513SOL    HW249498   4.660   7.058   8.687
16514SOL     OW49499   5.053   6.178   8.879
16514SOL    HW149500   5.086   6.147   8.963
16514SOL    HW249501   5.092   6.265   8.868
16515SOL     OW49502   4.540   6.962   8.404
16515SOL    HW149503   4.627   6.958   8.366
16515SOL    HW249504   4.482   6.978   8.330
16516SOL     OW49505   4.654   6.101   8.336
16516SOL    HW149506   4.629   6.089   8.244
16516SOL    HW249507   4.682   6.014   8.364
16517SOL     OW49508   4.288   5.649   7.938
16517SOL    HW149509   4.210   5.649   7.993
16517SOL    HW249510   4.276   5.724   7.879
16518SOL     OW49511   5.159   6.799   7.480
16518SOL    HW149512   5.188   6.725   7.533
16518SOL    HW249513   5.074   6.822   7.516
16519SOL     OW49514   4.006   5.634   7.636
16519SOL    HW149515   4.058   5.701   7.592
16519SOL    HW249516   4.070   5.576   7.677
16520SOL     OW49517   4.676   5.835   7.899
16520SOL    HW149518   4.650   5.871   7.813
16520SOL    HW249519   4.770   5.853   7.904
16521SOL     OW49520   4.799   6.280   8.891
16521SOL    HW149521   4.737   6.207   8.897
16521SOL    HW249522   4.885   6.237   8.888
16522SOL     OW49523   4.929   7.173   8.251
16522SOL    HW149524   4.944   7.233   8.178
16522SOL    HW249525   5.003   7.188   8.309
16523SOL     OW49526   4.206   6.748   8.156
16523SOL    HW149527   4.144   6.723   8.224
16523SOL    HW249528   4.156   6.741   8.075
16524SOL     OW49529   4.975   7.378   8.065
16524SOL    HW149530   5.024   7.441   8.012
16524SOL    HW249531   4.904   7.430   8.103
16525SOL     OW49532   4.756   6.101   7.478
16525SOL    HW149533   4.714   6.185   7.459
16525SOL    HW249534   4.820   6.122   7.546
16526SOL     OW49535   3.824   6.136   8.840
16526SOL    HW149536   3.916   6.139   8.813
16526SOL    HW249537   3.816   6.206   8.905
16527SOL     OW49538   4.283   5.807   8.632
16527SOL    HW149539   4.320   5.743   8.693
16527SOL    HW249540   4.190   5.808   8.653
16528SOL     OW49541   4.594   6.040   8.077
16528SOL    HW149542   4.555   6.096   8.010
16528SOL    HW249543   4.619   5.960   8.030
16529SOL     OW49544   4.746   5.645   8.188
16529SOL    HW149545   4.685   5.640   8.115
16529SOL    HW249546   4.721   5.572   8.245
16530SOL     OW49547   5.158   6.740   8.302
16530SOL    HW149548   5.088   6.676   8.310
16530SOL    HW249549   5.174   6.747   8.207
16531SOL     OW49550   5.187   6.203   8.396
16531SOL    HW149551   5.123   6.132   8.406
16531SOL    HW249552   5.242   6.196   8.474
16532SOL     OW49553   5.553   6.382   7.836
16532SOL    HW149554   5.613   6.339   7.896
16532SOL    HW249555   5.539   6.319   7.766
16533SOL     OW49556   4.222   7.011   7.598
16533SOL    HW149557   4.147   6.979   7.648
16533SOL    HW249558   4.219   6.962   7.516
16534SOL     OW49559   5.431   6.858   8.082
16534SOL    HW149560   5.525   6.851   8.102
16534SOL    HW249561   5.408   6.947   8.107
16535SOL     OW49562   5.116   6.162   7.513
16535SOL    HW149563   5.061   6.135   7.586
16535SOL    HW249564   5.205   6.138   7.540
16536SOL     OW49565   4.251   5.843   7.750
16536SOL    HW149566   4.305   5.801   7.683
16536SOL    HW249567   4.219   5.923   7.709
16537SOL     OW49568   5.459   6.829   8.980
16537SOL    HW149569   5.547   6.795   8.966
16537SOL    HW249570   5.472   6.916   9.017
16538SOL     OW49571   4.766   6.941   8.783
16538SOL    HW149572   4.688   6.907   8.828
16538SOL    HW249573   4.839   6.896   8.824
16539SOL     OW49574   5.332   7.221   9.113
16539SOL    HW149575   5.323   7.257   9.025
16539SOL    HW249576   5.409   7.165   9.108
16540SOL     OW49577   4.875   6.824   8.553
16540SOL    HW149578   4.813   6.858   8.618
16540SOL    HW249579   4.842   6.856   8.470
16541SOL     OW49580   5.334   6.678   8.525
16541SOL    HW149581   5.326   6.744   8.593
16541SOL    HW249582   5.264   6.699   8.463
16542SOL     OW49583   4.643   5.667   8.831
16542SOL    HW149584   4.664   5.652   8.738
16542SOL    HW249585   4.721   5.708   8.867
16543SOL     OW49586   4.705   6.701   9.171
16543SOL    HW149587   4.615   6.718   9.197
16543SOL    HW249588   4.701   6.620   9.120
16544SOL     OW49589   4.438   6.648   7.824
16544SOL    HW149590   4.423   6.622   7.915
16544SOL    HW249591   4.513   6.595   7.796
16545SOL     OW49592   4.151   6.414   8.707
16545SOL    HW149593   4.218   6.424   8.774
16545SOL    HW249594   4.120   6.324   8.717
16546SOL     OW49595   4.988   5.953   8.740
16546SOL    HW149596   5.016   6.034   8.783
16546SOL    HW249597   4.899   5.972   8.710
16547SOL     OW49598   3.802   7.155   8.809
16547SOL    HW149599   3.771   7.227   8.753
16547SOL    HW249600   3.897   7.156   8.799
16548SOL     OW49601   4.041   6.720   7.934
16548SOL    HW149602   4.042   6.792   7.870
16548SOL    HW249603   4.038   6.641   7.881
16549SOL     OW49604   4.258   6.103   8.308
16549SOL    HW149605   4.270   6.161   8.233
16549SOL    HW249606   4.326   6.129   8.369
16550SOL     OW49607   4.971   6.940   7.846
16550SOL    HW149608   5.027   7.010   7.880
16550SOL    HW249609   4.883   6.964   7.876
16551SOL     OW49610   5.033   7.055   8.590
16551SOL    HW149611   5.081   7.061   8.673
16551SOL    HW249612   4.982   6.974   8.598
16552SOL     OW49613   5.298   6.202   7.935
16552SOL    HW149614   5.247   6.244   8.004
16552SOL    HW249615   5.347   6.274   7.894
16553SOL     OW49616   4.068   7.119   8.749
16553SOL    HW149617   4.061   7.067   8.670
16553SOL    HW249618   4.162   7.135   8.759
16554SOL     OW49619   4.154   6.334   9.065
16554SOL    HW149620   4.214   6.377   9.004
16554SOL    HW249621   4.196   6.250   9.085
16555SOL     OW49622   5.350   6.374   9.148
16555SOL    HW149623   5.263   6.412   9.138
16555SOL    HW249624   5.401   6.412   9.077
16556SOL     OW49625   4.720   5.728   9.210
16556SOL    HW149626   4.777   5.801   9.189
16556SOL    HW249627   4.770   5.650   9.187
16557SOL     OW49628   4.219   5.620   9.211
16557SOL    HW149629   4.165   5.571   9.150
16557SOL    HW249630   4.167   5.698   9.232
16558SOL     OW49631   4.316   6.461   8.487
16558SOL    HW149632   4.354   6.549   8.490
16558SOL    HW249633   4.258   6.457   8.563
16559SOL     OW49634   5.032   6.439   8.451
16559SOL    HW149635   4.944   6.412   8.425
16559SOL    HW249636   5.087   6.363   8.432
16560SOL     OW49637   4.923   6.109   7.706
16560SOL    HW149638   4.934   6.032   7.762
16560SOL    HW249639   4.882   6.174   7.761
16561SOL     OW49640   4.016   5.779   8.687
16561SOL    HW149641   3.981   5.807   8.771
16561SOL    HW249642   3.999   5.685   8.684
16562SOL     OW49643   3.774   6.897   8.713
16562SOL    HW149644   3.803   6.842   8.786
16562SOL    HW249645   3.777   6.986   8.749
16563SOL     OW49646   4.436   6.208   8.487
16563SOL    HW149647   4.513   6.201   8.431
16563SOL    HW249648   4.407   6.299   8.478
16564SOL     OW49649   5.479   6.557   9.317
16564SOL    HW149650   5.435   6.485   9.272
16564SOL    HW249651   5.422   6.580   9.389
16565SOL     OW49652   4.049   5.646   8.076
16565SOL    HW149653   4.015   5.733   8.094
16565SOL    HW249654   4.055   5.604   8.162
16566SOL     OW49655   5.356   5.976   7.792
16566SOL    HW149656   5.388   5.910   7.854
16566SOL    HW249657   5.326   6.048   7.847
16567SOL     OW49658   4.758   6.344   8.404
16567SOL    HW149659   4.736   6.359   8.496
16567SOL    HW249660   4.728   6.255   8.386
16568SOL     OW49661   4.704   7.153   9.181
16568SOL    HW149662   4.684   7.196   9.099
16568SOL    HW249663   4.744   7.070   9.155
16569SOL     OW49664   5.562   7.080   9.048
16569SOL    HW149665   5.589   7.108   8.961
16569SOL    HW249666   5.640   7.091   9.102
16570SOL     OW49667   4.074   6.502   9.267
16570SOL    HW149668   4.153   6.522   9.317
16570SOL    HW249669   4.102   6.440   9.200
16571SOL     OW49670   5.244   5.855   7.567
16571SOL    HW149671   5.192   5.784   7.605
16571SOL    HW249672   5.284   5.898   7.643
16572SOL     OW49673   5.005   6.408   7.467
16572SOL    HW149674   5.045   6.321   7.475
16572SOL    HW249675   5.042   6.444   7.386
16573SOL     OW49676   4.794   6.939   8.315
16573SOL    HW149677   4.805   6.866   8.253
16573SOL    HW249678   4.845   7.010   8.277
16574SOL     OW49679   4.042   6.402   8.392
16574SOL    HW149680   4.137   6.416   8.390
16574SOL    HW249681   4.032   6.312   8.423
16575SOL     OW49682   4.037   6.124   8.460
16575SOL    HW149683   3.998   6.037   8.449
16575SOL    HW249684   4.114   6.122   8.403
16576SOL     OW49685   4.862   5.954   9.133
16576SOL    HW149686   4.817   6.006   9.199
16576SOL    HW249687   4.947   5.996   9.123
16577SOL     OW49688   4.879   5.776   8.922
16577SOL    HW149689   4.868   5.838   8.994
16577SOL    HW249690   4.926   5.825   8.855
16578SOL     OW49691   3.748   6.889   7.628
16578SOL    HW149692   3.659   6.911   7.602
16578SOL    HW249693   3.741   6.803   7.668
16579SOL     OW49694   3.817   7.356   8.399
16579SOL    HW149695   3.783   7.282   8.348
16579SOL    HW249696   3.904   7.373   8.362
16580SOL     OW49697   4.209   7.156   8.349
16580SOL    HW149698   4.280   7.216   8.372
16580SOL    HW249699   4.249   7.094   8.288
16581SOL     OW49700   4.672   6.367   8.662
16581SOL    HW149701   4.734   6.355   8.734
16581SOL    HW249702   4.593   6.322   8.691
16582SOL     OW49703   3.763   6.157   8.569
16582SOL    HW149704   3.844   6.154   8.519
16582SOL    HW249705   3.791   6.150   8.660
16583SOL     OW49706   3.911   6.121   9.187
16583SOL    HW149707   3.980   6.086   9.130
16583SOL    HW249708   3.876   6.196   9.139
16584SOL     OW49709   5.115   6.507   9.098
16584SOL    HW149710   5.132   6.601   9.094
16584SOL    HW249711   5.108   6.479   9.007
16585SOL     OW49712   4.542   6.155   7.820
16585SOL    HW149713   4.551   6.080   7.760
16585SOL    HW249714   4.465   6.202   7.788
16586SOL     OW49715   5.359   6.188   8.611
16586SOL    HW149716   5.349   6.129   8.685
16586SOL    HW249717   5.450   6.176   8.584
16587SOL     OW49718   3.949   7.129   9.169
16587SOL    HW149719   3.930   7.185   9.244
16587SOL    HW249720   3.959   7.041   9.206
16588SOL     OW49721   4.458   6.019   8.682
16588SOL    HW149722   4.394   5.949   8.667
16588SOL    HW249723   4.440   6.083   8.613
16589SOL     OW49724   4.628   7.266   8.936
16589SOL    HW149725   4.606   7.218   8.856
16589SOL    HW249726   4.631   7.358   8.909
16590SOL     OW49727   4.166   6.067   7.613
16590SOL    HW149728   4.231   6.133   7.637
16590SOL    HW249729   4.083   6.113   7.616
16591SOL     OW49730   3.853   6.736   8.928
16591SOL    HW149731   3.858   6.697   9.016
16591SOL    HW249732   3.875   6.664   8.869
16592SOL     OW49733   5.028   6.620   8.656
16592SOL    HW149734   5.037   6.557   8.585
16592SOL    HW249735   4.975   6.691   8.619
16593SOL     OW49736   5.050   6.446   7.739
16593SOL    HW149737   4.979   6.410   7.793
16593SOL    HW249738   5.021   6.431   7.649
16594SOL     OW49739   5.512   7.310   8.618
16594SOL    HW149740   5.573   7.335   8.549
16594SOL    HW249741   5.479   7.224   8.590
16595SOL     OW49742   4.964   7.320   8.540
16595SOL    HW149743   5.049   7.350   8.506
16595SOL    HW249744   4.979   7.229   8.564
16596SOL     OW49745   3.830   6.834   8.456
16596SOL    HW149746   3.802   6.855   8.545
16596SOL    HW249747   3.759   6.780   8.421
16597SOL     OW49748   4.412   7.269   9.200
16597SOL    HW149749   4.350   7.340   9.187
16597SOL    HW249750   4.486   7.291   9.144
16598SOL     OW49751   5.468   5.770   7.944
16598SOL    HW149752   5.527   5.750   7.872
16598SOL    HW249753   5.442   5.684   7.978
16599SOL     OW49754   5.121   7.156   7.951
16599SOL    HW149755   5.176   7.190   7.881
16599SOL    HW249756   5.066   7.229   7.977
16600SOL     OW49757   3.865   7.387   9.296
16600SOL    HW149758   3.819   7.316   9.340
16600SOL    HW249759   3.914   7.431   9.365
16601SOL     OW49760   5.003   6.522   8.112
16601SOL    HW149761   5.077   6.463   8.125
16601SOL    HW249762   5.039   6.594   8.060
16602SOL     OW49763   4.507   6.866   8.862
16602SOL    HW149764   4.480   6.914   8.940
16602SOL    HW249765   4.433   6.876   8.801
16603SOL     OW49766   4.393   7.222   7.606
16603SOL    HW149767   4.408   7.236   7.513
16603SOL    HW249768   4.340   7.142   7.610
16604SOL     OW49769   5.339   7.317   8.846
16604SOL    HW149770   5.397   7.317   8.770
16604SOL    HW249771   5.324   7.409   8.864
16605SOL     OW49772   5.569   5.746   8.413
16605SOL    HW149773   5.597   5.657   8.391
16605SOL    HW249774   5.481   5.753   8.374
16606SOL     OW49775   3.967   5.892   8.156
16606SOL    HW149776   3.881   5.929   8.135
16606SOL    HW249777   3.971   5.894   8.252
16607SOL     OW49778   4.934   7.174   7.487
16607SOL    HW149779   4.924   7.083   7.514
16607SOL    HW249780   4.864   7.187   7.423
16608SOL     OW49781   4.547   6.597   8.832
16608SOL    HW149782   4.584   6.588   8.745
16608SOL    HW249783   4.536   6.692   8.844
16609SOL     OW49784   4.645   6.497   7.743
16609SOL    HW149785   4.701   6.530   7.673
16609SOL    HW249786   4.697   6.429   7.786
16610SOL     OW49787   5.207   7.232   7.506
16610SOL    HW149788   5.115   7.211   7.489
16610SOL    HW249789   5.248   7.235   7.419
16611SOL     OW49790   4.086   6.899   8.949
16611SOL    HW149791   4.078   6.972   8.888
16611SOL    HW249792   4.008   6.846   8.933
16612SOL     OW49793   5.323   6.876   8.725
16612SOL    HW149794   5.377   6.851   8.800
16612SOL    HW249795   5.264   6.943   8.759
16613SOL     OW49796   4.801   6.706   8.178
16613SOL    HW149797   4.725   6.656   8.209
16613SOL    HW249798   4.863   6.639   8.148
16614SOL     OW49799   4.757   5.836   8.408
16614SOL    HW149800   4.756   5.793   8.322
16614SOL    HW249801   4.750   5.764   8.471
16615SOL     OW49802   4.328   7.073   7.923
16615SOL    HW149803   4.383   7.023   7.862
16615SOL    HW249804   4.247   7.088   7.876
16616SOL     OW49805   5.470   5.967   8.837
16616SOL    HW149806   5.540   6.032   8.832
16616SOL    HW249807   5.496   5.899   8.775
16617SOL     OW49808   4.004   6.927   7.747
16617SOL    HW149809   3.917   6.919   7.707
16617SOL    HW249810   3.989   6.975   7.828
16618SOL     OW49811   3.848   6.634   9.184
16618SOL    HW149812   3.770   6.607   9.232
16618SOL    HW249813   3.919   6.582   9.222
16619SOL     OW49814   4.403   5.774   8.943
16619SOL    HW149815   4.487   5.749   8.905
16619SOL    HW249816   4.425   5.808   9.030
16620SOL     OW49817   3.809   5.904   7.462
16620SOL    HW149818   3.733   5.883   7.409
16620SOL    HW249819   3.838   5.990   7.431
16621SOL     OW49820   5.140   6.440   8.835
16621SOL    HW149821   5.087   6.499   8.780
16621SOL    HW249822   5.228   6.445   8.798
16622SOL     OW49823   3.767   5.735   7.720
16622SOL    HW149824   3.755   5.805   7.655
16622SOL    HW249825   3.856   5.703   7.703
16623SOL     OW49826   4.907   6.907   7.571
16623SOL    HW149827   4.817   6.877   7.570
16623SOL    HW249828   4.931   6.911   7.664
16624SOL     OW49829   4.350   6.418   8.890
16624SOL    HW149830   4.408   6.492   8.878
16624SOL    HW249831   4.407   6.341   8.889
16625SOL     OW49832   5.211   7.389   8.441
16625SOL    HW149833   5.237   7.463   8.386
16625SOL    HW249834   5.292   7.344   8.461
16626SOL     OW49835   4.449   6.134   9.135
16626SOL    HW149836   4.495   6.188   9.199
16626SOL    HW249837   4.459   6.044   9.168
16627SOL     OW49838   5.192   6.770   9.069
16627SOL    HW149839   5.187   6.790   9.162
16627SOL    HW249840   5.282   6.794   9.045
16628SOL     OW49841   4.080   7.334   9.026
16628SOL    HW149842   3.997   7.381   9.010
16628SOL    HW249843   4.053   7.250   9.063
16629SOL     OW49844   5.380   6.461   8.701
16629SOL    HW149845   5.378   6.378   8.654
16629SOL    HW249846   5.368   6.528   8.632
16630SOL     OW49847   4.944   5.908   7.904
16630SOL    HW149848   5.004   5.834   7.903
16630SOL    HW249849   4.973   5.960   7.979
16631SOL     OW49850   4.300   6.312   8.129
16631SOL    HW149851   4.343   6.396   8.114
16631SOL    HW249852   4.239   6.304   8.056
16632SOL     OW49853   5.471   5.938   9.111
16632SOL    HW149854   5.468   5.955   9.017
16632SOL    HW249855   5.393   5.885   9.129
16633SOL     OW49856   5.484   6.510   8.952
16633SOL    HW149857   5.467   6.603   8.965
16633SOL    HW249858   5.458   6.493   8.862
16634SOL     OW49859   4.594   6.943   7.510
16634SOL    HW149860   4.557   6.963   7.596
16634SOL    HW249861   4.606   7.029   7.469
16635SOL     OW49862   4.393   7.352   8.374
16635SOL    HW149863   4.374   7.446   8.366
16635SOL    HW249864   4.488   7.347   8.372
16636SOL     OW49865   4.596   6.563   8.304
16636SOL    HW149866   4.646   6.490   8.339
16636SOL    HW249867   4.551   6.600   8.380
16637SOL     OW49868   4.797   6.570   7.535
16637SOL    HW149869   4.775   6.624   7.458
16637SOL    HW249870   4.870   6.516   7.506
16638SOL     OW49871   5.554   7.144   8.287
16638SOL    HW149872   5.478   7.136   8.231
16638SOL    HW249873   5.533   7.091   8.364
16639SOL     OW49874   3.934   6.876   9.284
16639SOL    HW149875   3.904   6.796   9.242
16639SOL    HW249876   3.872   6.891   9.355
16640SOL     OW49877   3.841   6.811   8.115
16640SOL    HW149878   3.871   6.769   8.196
16640SOL    HW249879   3.900   6.778   8.048
16641SOL     OW49880   4.411   7.007   9.078
16641SOL    HW149881   4.335   6.968   9.120
16641SOL    HW249882   4.418   7.094   9.117
16642SOL     OW49883   5.536   5.757   8.683
16642SOL    HW149884   5.537   5.662   8.695
16642SOL    HW249885   5.549   5.769   8.589
16643SOL     OW49886   4.142   6.009   7.966
16643SOL    HW149887   4.176   5.938   7.911
16643SOL    HW249888   4.090   5.964   8.033
16644SOL     OW49889   5.419   7.066   8.530
16644SOL    HW149890   5.341   7.047   8.478
16644SOL    HW249891   5.419   6.999   8.598
16645SOL     OW49892   4.076   6.152   8.740
16645SOL    HW149893   4.126   6.087   8.790
16645SOL    HW249894   4.084   6.122   8.649
16646SOL     OW49895   4.562   7.170   8.118
16646SOL    HW149896   4.531   7.239   8.059
16646SOL    HW249897   4.487   7.111   8.127
16647SOL     OW49898   5.145   5.819   8.563
16647SOL    HW149899   5.154   5.730   8.595
16647SOL    HW249900   5.099   5.866   8.633
16648SOL     OW49901   4.734   5.603   8.567
16648SOL    HW149902   4.680   5.541   8.519
16648SOL    HW249903   4.821   5.563   8.571
16649SOL     OW49904   4.504   6.919   7.777
16649SOL    HW149905   4.480   6.827   7.788
16649SOL    HW249906   4.584   6.929   7.828
16650SOL     OW49907   4.339   7.156   8.735
16650SOL    HW149908   4.334   7.241   8.780
16650SOL    HW249909   4.429   7.151   8.703
16651SOL     OW49910   5.104   5.624   7.640
16651SOL    HW149911   5.144   5.553   7.591
16651SOL    HW249912   5.012   5.598   7.651
16652SOL     OW49913   5.021   6.058   8.122
16652SOL    HW149914   4.971   6.139   8.120
16652SOL    HW249915   5.015   6.028   8.213
16653SOL     OW49916   5.306   5.774   8.341
16653SOL    HW149917   5.254   5.804   8.416
16653SOL    HW249918   5.307   5.848   8.281
16654SOL     OW49919   3.761   6.637   7.756
16654SOL    HW149920   3.854   6.626   7.738
16654SOL    HW249921   3.729   6.549   7.777
16655SOL     OW49922   4.619   7.261   7.778
16655SOL    HW149923   4.541   7.246   7.725
16655SOL    HW249924   4.593   7.330   7.839
16656SOL     OW49925   3.935   6.191   9.454
16656SOL    HW149926   3.846   6.181   9.488
16656SOL    HW249927   3.926   6.184   9.359
16657SOL     OW49928   5.530   6.155   9.521
16657SOL    HW149929   5.488   6.157   9.435
16657SOL    HW249930   5.481   6.090   9.570
16658SOL     OW49931   3.936   7.328   9.764
16658SOL    HW149932   3.957   7.400   9.823
16658SOL    HW249933   4.016   7.315   9.713
16659SOL     OW49934   3.947   7.049   9.844
16659SOL    HW149935   3.927   7.139   9.867
16659SOL    HW249936   3.873   6.998   9.878
16660SOL     OW49937   4.295   6.571   9.451
16660SOL    HW149938   4.345   6.614   9.382
16660SOL    HW249939   4.335   6.601   9.533
16661SOL     OW49940   3.789   6.262   9.883
16661SOL    HW149941   3.702   6.228   9.860
16661SOL    HW249942   3.770   6.340   9.936
16662SOL     OW49943   5.554   7.340   9.642
16662SOL    HW149944   5.632   7.320   9.696
16662SOL    HW249945   5.570   7.428   9.609
16663SOL     OW49946   3.773   7.177   9.433
16663SOL    HW149947   3.758   7.083   9.449
16663SOL    HW249948   3.736   7.220   9.510
16664SOL     OW49949   5.399   6.457   9.918
16664SOL    HW149950   5.471   6.478   9.978
16664SOL    HW249951   5.391   6.533   9.862
16665SOL     OW49952   5.418   6.686   9.757
16665SOL    HW149953   5.500   6.682   9.709
16665SOL    HW249954   5.426   6.762   9.814
16666SOL     OW49955   4.364   6.926   9.993
16666SOL    HW149956   4.307   6.849   9.990
16666SOL    HW249957   4.343   6.975   9.914
16667SOL     OW49958   4.542   5.615   9.827
16667SOL    HW149959   4.587   5.694   9.798
16667SOL    HW249960   4.450   5.640   9.829
16668SOL     OW49961   5.282   6.611   9.520
16668SOL    HW149962   5.221   6.542   9.547
16668SOL    HW249963   5.320   6.642   9.602
16669SOL     OW49964   4.309   6.285   9.583
16669SOL    HW149965   4.317   6.371   9.542
16669SOL    HW249966   4.251   6.300   9.658
16670SOL     OW49967   5.287   7.260   9.627
16670SOL    HW149968   5.380   7.282   9.634
16670SOL    HW249969   5.272   7.247   9.534
16671SOL     OW49970   4.770   6.275   9.734
16671SOL    HW149971   4.798   6.252   9.823
16671SOL    HW249972   4.684   6.234   9.724
16672SOL     OW49973   3.777   6.469   0.069
16672SOL    HW149974   3.852   6.424   0.109
16672SOL    HW249975   3.754   6.538   0.132
16673SOL     OW49976   4.616   5.933   9.503
16673SOL    HW149977   4.664   5.991   9.444
16673SOL    HW249978   4.602   5.853   9.452
16674SOL     OW49979   5.038   6.681   9.796
16674SOL    HW149980   5.091   6.711   9.871
16674SOL    HW249981   5.013   6.761   9.751
16675SOL     OW49982   4.717   7.021   9.783
16675SOL    HW149983   4.687   7.106   9.751
16675SOL    HW249984   4.690   7.019   9.874
16676SOL     OW49985   4.076   7.440   0.167
16676SOL    HW149986   4.080   7.359   0.218
16676SOL    HW249987   4.166   7.471   0.163
16677SOL     OW49988   4.040   6.546   9.576
16677SOL    HW149989   4.121   6.560   9.527
16677SOL    HW249990   4.000   6.470   9.534
16678SOL     OW49991   4.861   7.361   9.547
16678SOL    HW149992   4.782   7.327   9.587
16678SOL    HW249993   4.883   7.297   9.478
16679SOL     OW49994   5.361   6.979   9.403
16679SOL    HW149995   5.318   7.063   9.391
16679SOL    HW249996   5.295   6.914   9.380
16680SOL     OW49997   4.192   7.348   9.634
16680SOL    HW149998   4.242   7.376   9.710
16680SOL    HW249999   4.256   7.301   9.580
16681SOL     OW50000   5.148   5.737   9.738
16681SOL    HW150001   5.137   5.695   9.653
16681SOL    HW250002   5.243   5.741   9.751
16682SOL     OW50003   4.120   6.274   9.800
16682SOL    HW150004   4.123   6.181   9.820
16682SOL    HW250005   4.027   6.294   9.793
16683SOL     OW50006   4.385   5.693   9.416
16683SOL    HW150007   4.431   5.614   9.442
16683SOL    HW250008   4.324   5.665   9.349
16684SOL     OW50009   4.269   5.685   9.840
16684SOL    HW150010   4.177   5.679   9.865
16684SOL    HW250011   4.269   5.743   9.764
16685SOL     OW50012   5.164   6.794   9.344
16685SOL    HW150013   5.198   6.726   9.403
16685SOL    HW250014   5.077   6.815   9.380
16686SOL     OW50015   4.008   5.639   9.500
16686SOL    HW150016   4.058   5.705   9.452
16686SOL    HW250017   4.075   5.587   9.545
16687SOL     OW50018   4.672   5.847   9.758
16687SOL    HW150019   4.647   5.878   9.670
16687SOL    HW250020   4.766   5.866   9.764
16688SOL     OW50021   4.166   6.736   0.034
16688SOL    HW150022   4.097   6.772   0.090
16688SOL    HW250023   4.123   6.722   9.950
16689SOL     OW50024   5.024   7.422   9.900
16689SOL    HW150025   5.068   7.487   9.845
16689SOL    HW250026   4.931   7.446   9.895
16690SOL     OW50027   4.756   6.104   9.338
16690SOL    HW150028   4.713   6.187   9.318
16690SOL    HW250029   4.819   6.125   9.407
16691SOL     OW50030   4.568   6.028   9.942
16691SOL    HW150031   4.530   6.092   9.882
16691SOL    HW250032   4.600   5.958   9.886
16692SOL     OW50033   5.606   6.391   9.637
16692SOL    HW150034   5.637   6.352   9.719
16692SOL    HW250035   5.571   6.318   9.587
16693SOL     OW50036   4.218   7.013   9.465
16693SOL    HW150037   4.143   6.979   9.512
16693SOL    HW250038   4.219   6.964   9.382
16694SOL     OW50039   5.113   6.162   9.370
16694SOL    HW150040   5.058   6.140   9.445
16694SOL    HW250041   5.202   6.139   9.398
16695SOL     OW50042   4.266   5.846   9.624
16695SOL    HW150043   4.314   5.801   9.554
16695SOL    HW250044   4.229   5.923   9.582
16696SOL     OW50045   4.432   6.641   9.683
16696SOL    HW150046   4.400   6.596   9.761
16696SOL    HW250047   4.512   6.594   9.659
16697SOL     OW50048   4.031   6.713   9.798
16697SOL    HW150049   4.032   6.789   9.740
16697SOL    HW250050   4.039   6.638   9.740
16698SOL     OW50051   4.962   6.940   9.691
16698SOL    HW150052   5.018   7.011   9.722
16698SOL    HW250053   4.875   6.960   9.726
16699SOL     OW50054   5.359   6.224   9.789
16699SOL    HW150055   5.363   6.298   9.849
16699SOL    HW250056   5.310   6.257   9.713
16700SOL     OW50057   4.921   6.118   9.565
16700SOL    HW150058   4.927   6.042   9.623
16700SOL    HW250059   4.881   6.186   9.619
16701SOL     OW50060   4.006   5.675   9.928
16701SOL    HW150061   3.938   5.740   9.945
16701SOL    HW250062   4.021   5.634   0.013
16702SOL     OW50063   5.355   5.982   9.655
16702SOL    HW150064   5.377   5.906   9.709
16702SOL    HW250065   5.346   6.054   9.718
16703SOL     OW50066   5.245   5.858   9.425
16703SOL    HW150067   5.191   5.787   9.460
16703SOL    HW250068   5.281   5.901   9.503
16704SOL     OW50069   5.004   6.411   9.330
16704SOL    HW150070   5.042   6.323   9.337
16704SOL    HW250071   5.040   6.446   9.249
16705SOL     OW50072   3.747   6.902   9.485
16705SOL    HW150073   3.657   6.921   9.459
16705SOL    HW250074   3.743   6.815   9.524
16706SOL     OW50075   4.531   6.145   9.682
16706SOL    HW150076   4.543   6.076   9.616
16706SOL    HW250077   4.459   6.198   9.649
16707SOL     OW50078   4.171   6.062   9.483
16707SOL    HW150079   4.232   6.132   9.507
16707SOL    HW250080   4.085   6.105   9.481
16708SOL     OW50081   5.093   6.432   9.605
16708SOL    HW150082   5.039   6.483   9.665
16708SOL    HW250083   5.039   6.425   9.526
16709SOL     OW50084   5.430   5.743   9.771
16709SOL    HW150085   5.501   5.744   9.707
16709SOL    HW250086   5.446   5.665   9.824
16710SOL     OW50087   5.088   7.175   9.794
16710SOL    HW150088   5.159   7.192   9.732
16710SOL    HW250089   5.060   7.262   9.823
16711SOL     OW50090   4.391   7.225   9.474
16711SOL    HW150091   4.408   7.238   9.381
16711SOL    HW250092   4.338   7.146   9.479
16712SOL     OW50093   4.932   7.180   9.350
16712SOL    HW150094   4.924   7.087   9.373
16712SOL    HW250095   4.863   7.194   9.285
16713SOL     OW50096   4.648   6.499   9.615
16713SOL    HW150097   4.704   6.527   9.542
16713SOL    HW250098   4.698   6.430   9.658
16714SOL     OW50099   5.209   7.232   9.360
16714SOL    HW150100   5.117   7.214   9.344
16714SOL    HW250101   5.248   7.235   9.273
16715SOL     OW50102   4.316   7.063   9.762
16715SOL    HW150103   4.376   7.020   9.702
16715SOL    HW250104   4.234   7.069   9.714
16716SOL     OW50105   4.002   6.928   9.614
16716SOL    HW150106   3.916   6.923   9.572
16716SOL    HW250107   3.986   6.979   9.694
16717SOL     OW50108   3.808   5.902   9.322
16717SOL    HW150109   3.731   5.882   9.268
16717SOL    HW250110   3.837   5.988   9.292
16718SOL     OW50111   3.766   5.740   9.577
16718SOL    HW150112   3.757   5.806   9.508
16718SOL    HW250113   3.854   5.706   9.566
16719SOL     OW50114   4.905   6.909   9.422
16719SOL    HW150115   4.814   6.879   9.422
16719SOL    HW250116   4.928   6.914   9.515
16720SOL     OW50117   4.939   5.921   9.768
16720SOL    HW150118   5.014   5.863   9.760
16720SOL    HW250119   4.959   5.976   9.844
16721SOL     OW50120   4.334   6.429   9.892
16721SOL    HW150121   4.335   6.430   9.988
16721SOL    HW250122   4.260   6.371   9.870
16722SOL     OW50123   4.595   6.944   9.363
16722SOL    HW150124   4.559   6.960   9.450
16722SOL    HW250125   4.606   7.031   9.325
16723SOL     OW50126   4.791   6.564   9.396
16723SOL    HW150127   4.774   6.621   9.321
16723SOL    HW250128   4.867   6.512   9.370
16724SOL     OW50129   3.779   6.827   9.899
16724SOL    HW150130   3.775   6.833   9.994
16724SOL    HW250131   3.854   6.771   9.881
16725SOL     OW50132   4.133   6.011   9.865
16725SOL    HW150133   4.181   5.949   9.812
16725SOL    HW250134   4.170   6.001   9.953
16726SOL     OW50135   4.507   6.915   9.627
16726SOL    HW150136   4.481   6.824   9.643
16726SOL    HW250137   4.583   6.929   9.682
16727SOL     OW50138   5.101   5.627   9.492
16727SOL    HW150139   5.143   5.551   9.453
16727SOL    HW250140   5.011   5.599   9.509
16728SOL     OW50141   3.780   6.655   9.598
16728SOL    HW150142   3.876   6.648   9.591
16728SOL    HW250143   3.750   6.564   9.601
16729SOL     OW50144   4.618   7.258   9.664
16729SOL    HW150145   4.543   7.240   9.608
16729SOL    HW250146   4.588   7.327   9.723
16730SOL     OW50147   3.922   8.060   0.126
16730SOL    HW150148   3.839   8.045   0.171
16730SOL    HW250149   3.897   8.071   0.034
16731SOL     OW50150   3.943   7.736   0.990
16731SOL    HW150151   3.973   7.701   1.073
16731SOL    HW250152   3.856   7.699   0.978
16732SOL     OW50153   3.708   7.846   0.647
16732SOL    HW150154   3.626   7.868   0.692
16732SOL    HW250155   3.685   7.771   0.593
16733SOL     OW50156   4.298   8.754   1.208
16733SOL    HW150157   4.216   8.757   1.160
16733SOL    HW250158   4.316   8.845   1.232
16734SOL     OW50159   5.313   8.970   0.706
16734SOL    HW150160   5.266   8.939   0.784
16734SOL    HW250161   5.246   8.973   0.637
16735SOL     OW50162   4.863   8.149   0.686
16735SOL    HW150163   4.909   8.232   0.676
16735SOL    HW250164   4.813   8.158   0.767
16736SOL     OW50165   5.498   8.031   0.200
16736SOL    HW150166   5.424   8.061   0.147
16736SOL    HW250167   5.463   7.959   0.252
16737SOL     OW50168   4.451   8.576   1.058
16737SOL    HW150169   4.392   8.616   1.122
16737SOL    HW250170   4.495   8.650   1.016
16738SOL     OW50171   4.611   8.190   1.828
16738SOL    HW150172   4.604   8.257   1.896
16738SOL    HW250173   4.628   8.239   1.748
16739SOL     OW50174   4.409   8.426   0.646
16739SOL    HW150175   4.477   8.427   0.713
16739SOL    HW250176   4.344   8.488   0.676
16740SOL     OW50177   4.436   8.598   1.833
16740SOL    HW150178   4.487   8.670   1.867
16740SOL    HW250179   4.360   8.639   1.792
16741SOL     OW50180   4.067   8.844   1.070
16741SOL    HW150181   3.990   8.802   1.031
16741SOL    HW250182   4.102   8.900   1.001
16742SOL     OW50183   5.178   8.954   1.372
16742SOL    HW150184   5.233   9.031   1.385
16742SOL    HW250185   5.106   8.965   1.434
16743SOL     OW50186   4.182   7.822   1.455
16743SOL    HW150187   4.257   7.764   1.471
16743SOL    HW250188   4.106   7.771   1.482
16744SOL     OW50189   5.304   7.880   0.752
16744SOL    HW150190   5.230   7.888   0.692
16744SOL    HW250191   5.290   7.950   0.816
16745SOL     OW50192   3.951   9.170   0.468
16745SOL    HW150193   3.966   9.245   0.526
16745SOL    HW250194   4.037   9.152   0.429
16746SOL     OW50195   4.859   8.789   1.697
16746SOL    HW150196   4.905   8.778   1.780
16746SOL    HW250197   4.806   8.710   1.688
16747SOL     OW50198   3.932   8.894   0.508
16747SOL    HW150199   3.927   8.989   0.517
16747SOL    HW250200   3.893   8.860   0.588
16748SOL     OW50201   4.005   8.535   0.880
16748SOL    HW150202   4.007   8.446   0.916
16748SOL    HW250203   3.951   8.584   0.942
16749SOL     OW50204   4.300   9.244   1.424
16749SOL    HW150205   4.221   9.228   1.476
16749SOL    HW250206   4.330   9.331   1.452
16750SOL     OW50207   4.292   8.396   0.175
16750SOL    HW150208   4.266   8.465   0.114
16750SOL    HW250209   4.350   8.439   0.237
16751SOL     OW50210   5.315   7.581   1.459
16751SOL    HW150211   5.353   7.658   1.416
16751SOL    HW250212   5.284   7.614   1.543
16752SOL     OW50213   3.838   8.101   0.573
16752SOL    HW150214   3.803   8.016   0.597
16752SOL    HW250215   3.831   8.154   0.652
16753SOL     OW50216   5.583   9.182   0.307
16753SOL    HW150217   5.652   9.162   0.371
16753SOL    HW250218   5.598   9.274   0.285
16754SOL     OW50219   3.801   9.022   0.091
16754SOL    HW150220   3.771   8.934   0.115
16754SOL    HW250221   3.768   9.078   0.161
16755SOL     OW50222   5.422   8.368   0.664
16755SOL    HW150223   5.505   8.324   0.647
16755SOL    HW250224   5.403   8.417   0.584
16756SOL     OW50225   5.386   8.538   0.443
16756SOL    HW150226   5.468   8.535   0.393
16756SOL    HW250227   5.401   8.608   0.507
16757SOL     OW50228   3.845   8.197   1.578
16757SOL    HW150229   3.930   8.241   1.582
16757SOL    HW250230   3.782   8.268   1.564
16758SOL     OW50231   4.345   8.834   0.748
16758SOL    HW150232   4.303   8.748   0.749
16758SOL    HW250233   4.333   8.865   0.659
16759SOL     OW50234   4.995   8.674   1.417
16759SOL    HW150235   5.022   8.604   1.357
16759SOL    HW250236   5.056   8.668   1.490
16760SOL     OW50237   4.556   7.463   0.530
16760SOL    HW150238   4.597   7.544   0.498
16760SOL    HW250239   4.462   7.483   0.530
16761SOL     OW50240   3.911   8.404   1.302
16761SOL    HW150241   3.998   8.369   1.285
16761SOL    HW250242   3.856   8.368   1.232
16762SOL     OW50243   5.215   8.476   0.236
16762SOL    HW150244   5.161   8.404   0.267
16762SOL    HW250245   5.277   8.492   0.307
16763SOL     OW50246   4.907   9.270   1.633
16763SOL    HW150247   4.906   9.331   1.559
16763SOL    HW250248   4.922   9.184   1.593
16764SOL     OW50249   4.083   7.701   1.875
16764SOL    HW150250   4.119   7.781   1.913
16764SOL    HW250251   3.989   7.716   1.872
16765SOL     OW50252   5.197   8.863   0.931
16765SOL    HW150253   5.133   8.883   1.000
16765SOL    HW250254   5.178   8.773   0.907
16766SOL     OW50255   5.373   9.237   0.567
16766SOL    HW150256   5.352   9.193   0.485
16766SOL    HW250257   5.368   9.169   0.633
16767SOL     OW50258   4.317   8.139   0.285
16767SOL    HW150259   4.323   8.225   0.244
16767SOL    HW250260   4.250   8.149   0.353
16768SOL     OW50261   5.006   7.839   0.941
16768SOL    HW150262   4.917   7.805   0.947
16768SOL    HW250263   5.058   7.781   0.997
16769SOL     OW50264   5.312   9.122   0.325
16769SOL    HW150265   5.406   9.133   0.310
16769SOL    HW250266   5.276   9.106   0.237
16770SOL     OW50267   4.513   8.062   1.430
16770SOL    HW150268   4.491   8.033   1.519
16770SOL    HW250269   4.489   7.988   1.374
16771SOL     OW50270   5.116   7.924   1.674
16771SOL    HW150271   5.121   7.968   1.759
16771SOL    HW250272   5.166   7.844   1.685
16772SOL     OW50273   4.668   8.328   1.593
16772SOL    HW150274   4.724   8.265   1.549
16772SOL    HW250275   4.620   8.371   1.522
16773SOL     OW50276   4.731   7.845   1.210
16773SOL    HW150277   4.639   7.859   1.232
16773SOL    HW250278   4.729   7.801   1.125
16774SOL     OW50279   4.790   8.145   0.416
16774SOL    HW150280   4.810   8.142   0.510
16774SOL    HW250281   4.705   8.102   0.408
16775SOL     OW50282   3.817   8.276   0.783
16775SOL    HW150283   3.899   8.268   0.831
16775SOL    HW250284   3.769   8.346   0.827
16776SOL     OW50285   3.829   9.318   1.585
16776SOL    HW150286   3.838   9.301   1.679
16776SOL    HW250287   3.744   9.281   1.562
16777SOL     OW50288   4.585   7.787   0.200
16777SOL    HW150289   4.572   7.836   0.119
16777SOL    HW250290   4.594   7.696   0.171
16778SOL     OW50291   5.410   8.010   1.840
16778SOL    HW150292   5.389   8.088   1.788
16778SOL    HW250293   5.439   7.946   1.775
16779SOL     OW50294   5.119   8.597   0.556
16779SOL    HW150295   5.198   8.587   0.502
16779SOL    HW250296   5.064   8.658   0.507
16780SOL     OW50297   4.275   7.611   0.915
16780SOL    HW150298   4.281   7.639   1.006
16780SOL    HW250299   4.271   7.693   0.865
16781SOL     OW50300   4.722   8.899   0.472
16781SOL    HW150301   4.697   8.976   0.421
16781SOL    HW250302   4.691   8.918   0.560
16782SOL     OW50303   4.076   9.264   0.880
16782SOL    HW150304   4.122   9.180   0.884
16782SOL    HW250305   4.144   9.329   0.899
16783SOL     OW50306   5.527   8.492   0.895
16783SOL    HW150307   5.479   8.474   0.814
16783SOL    HW250308   5.460   8.502   0.962
16784SOL     OW50309   4.942   8.991   1.516
16784SOL    HW150310   4.931   8.920   1.580
16784SOL    HW250311   4.874   8.975   1.451
16785SOL     OW50312   4.036   8.377   0.289
16785SOL    HW150313   4.118   8.384   0.240
16785SOL    HW250314   4.038   8.288   0.325
16786SOL     OW50315   5.209   8.205   0.713
16786SOL    HW150316   5.209   8.164   0.800
16786SOL    HW250317   5.287   8.260   0.712
16787SOL     OW50318   4.197   8.732   1.748
16787SOL    HW150319   4.173   8.736   1.656
16787SOL    HW250320   4.114   8.720   1.794
16788SOL     OW50321   4.821   9.229   0.181
16788SOL    HW150322   4.767   9.188   0.249
16788SOL    HW250323   4.861   9.155   0.135
16789SOL     OW50324   3.932   7.704   1.498
16789SOL    HW150325   3.861   7.764   1.517
16789SOL    HW250326   3.902   7.620   1.532
16790SOL     OW50327   5.356   8.820   0.110
16790SOL    HW150328   5.314   8.906   0.104
16790SOL    HW250329   5.290   8.759   0.077
16791SOL     OW50330   4.209   9.163   0.370
16791SOL    HW150331   4.244   9.240   0.415
16791SOL    HW250332   4.275   9.143   0.304
16792SOL     OW50333   5.119   7.551   0.447
16792SOL    HW150334   5.116   7.531   0.354
16792SOL    HW250335   5.211   7.539   0.472
16793SOL     OW50336   3.975   9.231   1.214
16793SOL    HW150337   4.025   9.157   1.248
16793SOL    HW250338   3.963   9.211   1.121
16794SOL     OW50339   4.671   9.146   0.893
16794SOL    HW150340   4.756   9.104   0.907
16794SOL    HW250341   4.630   9.094   0.824
16795SOL     OW50342   4.098   8.141   0.464
16795SOL    HW150343   4.120   8.049   0.475
16795SOL    HW250344   4.009   8.148   0.499
16796SOL     OW50345   5.232   7.670   1.717
16796SOL    HW150346   5.245   7.689   1.810
16796SOL    HW250347   5.167   7.600   1.715
16797SOL     OW50348   4.331   7.540   0.117
16797SOL    HW150349   4.426   7.530   0.127
16797SOL    HW250350   4.317   7.547   0.023
16798SOL     OW50351   4.483   7.722   1.752
16798SOL    HW150352   4.567   7.677   1.750
16798SOL    HW250353   4.436   7.683   1.826
16799SOL     OW50354   4.595   8.975   1.200
16799SOL    HW150355   4.576   8.934   1.116
16799SOL    HW250356   4.662   8.920   1.241
16800SOL     OW50357   5.054   8.039   1.433
16800SOL    HW150358   5.087   8.009   1.518
16800SOL    HW250359   5.093   8.126   1.422
16801SOL     OW50360   4.542   8.823   0.961
16801SOL    HW150361   4.628   8.820   0.920
16801SOL    HW250362   4.481   8.836   0.889
16802SOL     OW50363   4.655   7.963   0.890
16802SOL    HW150364   4.630   7.950   0.799
16802SOL    HW250365   4.682   7.876   0.920
16803SOL     OW50366   4.288   7.524   0.503
16803SOL    HW150367   4.209   7.522   0.556
16803SOL    HW250368   4.275   7.597   0.442
16804SOL     OW50369   5.152   8.647   0.035
16804SOL    HW150370   5.176   8.581   0.100
16804SOL    HW250371   5.071   8.685   0.069
16805SOL     OW50372   4.676   7.698   0.450
16805SOL    HW150373   4.644   7.734   0.367
16805SOL    HW250374   4.769   7.720   0.451
16806SOL     OW50375   4.800   8.141   1.445
16806SOL    HW150376   4.737   8.069   1.450
16806SOL    HW250377   4.885   8.099   1.442
16807SOL     OW50378   4.931   9.035   0.803
16807SOL    HW150379   4.946   9.094   0.729
16807SOL    HW250380   5.001   9.056   0.864
16808SOL     OW50381   4.205   8.600   0.711
16808SOL    HW150382   4.142   8.578   0.779
16808SOL    HW250383   4.155   8.595   0.630
16809SOL     OW50384   4.977   9.236   0.612
16809SOL    HW150385   5.026   9.300   0.561
16809SOL    HW250386   4.906   9.286   0.652
16810SOL     OW50387   4.818   8.010   9.980
16810SOL    HW150388   4.730   7.972   9.986
16810SOL    HW250389   4.853   8.002   0.069
16811SOL     OW50390   3.823   8.000   1.391
16811SOL    HW150391   3.915   8.001   1.365
16811SOL    HW250392   3.816   8.069   1.457
16812SOL     OW50393   4.283   7.669   1.185
16812SOL    HW150394   4.320   7.604   1.245
16812SOL    HW250395   4.190   7.670   1.205
16813SOL     OW50396   4.597   7.900   0.633
16813SOL    HW150397   4.562   7.957   0.564
16813SOL    HW250398   4.621   7.819   0.587
16814SOL     OW50399   4.749   7.506   0.743
16814SOL    HW150400   4.685   7.502   0.671
16814SOL    HW250401   4.724   7.433   0.800
16815SOL     OW50402   5.155   8.600   0.854
16815SOL    HW150403   5.087   8.533   0.867
16815SOL    HW250404   5.165   8.607   0.759
16816SOL     OW50405   5.186   8.063   0.952
16816SOL    HW150406   5.122   7.992   0.962
16816SOL    HW250407   5.242   8.056   1.029
16817SOL     OW50408   5.584   8.237   0.368
16817SOL    HW150409   5.626   8.188   0.439
16817SOL    HW250410   5.545   8.170   0.312
16818SOL     OW50411   4.227   8.892   0.214
16818SOL    HW150412   4.146   8.846   0.235
16818SOL    HW250413   4.269   8.836   0.148
16819SOL     OW50414   5.435   8.720   0.631
16819SOL    HW150415   5.527   8.713   0.655
16819SOL    HW250416   5.409   8.808   0.658
16820SOL     OW50417   5.141   8.013   0.095
16820SOL    HW150418   5.065   8.001   0.151
16820SOL    HW250419   5.179   7.926   0.087
16821SOL     OW50420   4.232   7.712   0.310
16821SOL    HW150421   4.270   7.653   0.244
16821SOL    HW250422   4.210   7.791   0.261
16822SOL     OW50423   5.459   8.692   1.532
16822SOL    HW150424   5.547   8.658   1.519
16822SOL    HW250425   5.472   8.779   1.570
16823SOL     OW50426   4.766   8.803   1.336
16823SOL    HW150427   4.689   8.768   1.380
16823SOL    HW250428   4.840   8.757   1.376
16824SOL     OW50429   5.331   9.083   1.672
16824SOL    HW150430   5.320   9.119   1.584
16824SOL    HW250431   5.409   9.027   1.665
16825SOL     OW50432   4.874   8.685   1.105
16825SOL    HW150433   4.812   8.720   1.170
16825SOL    HW250434   4.841   8.717   1.021
16826SOL     OW50435   5.331   8.539   1.078
16826SOL    HW150436   5.324   8.606   1.147
16826SOL    HW250437   5.262   8.561   1.016
16827SOL     OW50438   4.643   7.529   1.383
16827SOL    HW150439   4.664   7.514   1.291
16827SOL    HW250440   4.721   7.570   1.419
16828SOL     OW50441   4.703   8.563   1.724
16828SOL    HW150442   4.613   8.580   1.751
16828SOL    HW250443   4.698   8.483   1.673
16829SOL     OW50444   4.448   8.502   0.378
16829SOL    HW150445   4.434   8.474   0.468
16829SOL    HW250446   4.528   8.456   0.351
16830SOL     OW50447   4.150   8.275   1.259
16830SOL    HW150448   4.218   8.286   1.326
16830SOL    HW250449   4.120   8.185   1.269
16831SOL     OW50450   4.989   7.816   1.291
16831SOL    HW150451   5.016   7.896   1.336
16831SOL    HW250452   4.899   7.835   1.262
16832SOL     OW50453   3.802   9.018   1.363
16832SOL    HW150454   3.773   9.089   1.307
16832SOL    HW250455   3.898   9.017   1.354
16833SOL     OW50456   4.040   8.574   0.489
16833SOL    HW150457   4.039   8.644   0.424
16833SOL    HW250458   4.048   8.493   0.437
16834SOL     OW50459   4.257   7.961   0.857
16834SOL    HW150460   4.268   8.020   0.782
16834SOL    HW250461   4.325   7.989   0.919
16835SOL     OW50462   4.972   8.795   0.419
16835SOL    HW150463   5.028   8.868   0.446
16835SOL    HW250464   4.884   8.821   0.444
16836SOL     OW50465   5.033   8.915   1.143
16836SOL    HW150466   5.081   8.922   1.226
16836SOL    HW250467   4.982   8.834   1.151
16837SOL     OW50468   5.263   8.070   0.473
16837SOL    HW150469   5.242   8.108   0.558
16837SOL    HW250470   5.219   8.126   0.410
16838SOL     OW50471   4.069   8.978   1.303
16838SOL    HW150472   4.062   8.926   1.223
16838SOL    HW250473   4.163   8.995   1.313
16839SOL     OW50474   4.156   8.194   1.619
16839SOL    HW150475   4.215   8.237   1.556
16839SOL    HW250476   4.201   8.111   1.639
16840SOL     OW50477   5.351   8.234   1.698
16840SOL    HW150478   5.264   8.272   1.689
16840SOL    HW250479   5.402   8.272   1.626
16841SOL     OW50480   4.719   7.589   1.758
16841SOL    HW150481   4.778   7.662   1.739
16841SOL    HW250482   4.770   7.511   1.736
16842SOL     OW50483   4.219   7.483   1.762
16842SOL    HW150484   4.164   7.433   1.702
16842SOL    HW250485   4.167   7.560   1.784
16843SOL     OW50486   4.314   8.323   1.038
16843SOL    HW150487   4.353   8.410   1.041
16843SOL    HW250488   4.257   8.318   1.115
16844SOL     OW50489   5.033   8.302   1.003
16844SOL    HW150490   4.945   8.275   0.977
16844SOL    HW250491   5.087   8.225   0.986
16845SOL     OW50492   4.915   7.967   0.246
16845SOL    HW150493   4.927   7.891   0.304
16845SOL    HW250494   4.874   8.033   0.302
16846SOL     OW50495   4.016   7.642   1.239
16846SOL    HW150496   3.981   7.670   1.323
16846SOL    HW250497   3.999   7.547   1.236
16847SOL     OW50498   3.773   8.760   1.267
16847SOL    HW150499   3.803   8.705   1.339
16847SOL    HW250500   3.776   8.849   1.303
16848SOL     OW50501   4.433   8.069   1.037
16848SOL    HW150502   4.512   8.063   0.984
16848SOL    HW250503   4.405   8.160   1.029
16849SOL     OW50504   5.475   8.416   1.869
16849SOL    HW150505   5.435   8.343   1.821
16849SOL    HW250506   5.411   8.436   1.938
16850SOL     OW50507   4.043   7.512   0.630
16850SOL    HW150508   4.011   7.600   0.649
16850SOL    HW250509   4.050   7.470   0.716
16851SOL     OW50510   5.361   7.841   0.352
16851SOL    HW150511   5.394   7.777   0.414
16851SOL    HW250512   5.325   7.911   0.406
16852SOL     OW50513   4.758   8.206   0.958
16852SOL    HW150514   4.736   8.221   1.050
16852SOL    HW250515   4.729   8.117   0.940
16853SOL     OW50516   4.706   9.014   1.734
16853SOL    HW150517   4.684   9.057   1.651
16853SOL    HW250518   4.744   8.930   1.708
16854SOL     OW50519   5.562   8.943   1.602
16854SOL    HW150520   5.589   8.971   1.515
16854SOL    HW250521   5.640   8.953   1.656
16855SOL     OW50522   4.073   8.367   1.816
16855SOL    HW150523   4.150   8.384   1.871
16855SOL    HW250524   4.104   8.304   1.751
16856SOL     OW50525   5.223   7.753   0.128
16856SOL    HW150526   5.175   7.673   0.150
16856SOL    HW250527   5.271   7.774   0.208
16857SOL     OW50528   5.045   8.266   0.040
16857SOL    HW150529   5.080   8.177   0.041
16857SOL    HW250530   5.102   8.313   9.979
16858SOL     OW50531   4.794   8.801   0.866
16858SOL    HW150532   4.805   8.728   0.805
16858SOL    HW250533   4.847   8.872   0.829
16859SOL     OW50534   4.042   8.262   0.944
16859SOL    HW150535   4.137   8.278   0.944
16859SOL    HW250536   4.032   8.172   0.975
16860SOL     OW50537   4.037   7.986   1.011
16860SOL    HW150538   3.998   7.899   1.002
16860SOL    HW250539   4.114   7.983   0.954
16861SOL     OW50540   4.862   7.816   1.685
16861SOL    HW150541   4.817   7.867   1.752
16861SOL    HW250542   4.948   7.858   1.677
16862SOL     OW50543   4.880   7.638   1.473
16862SOL    HW150544   4.868   7.699   1.546
16862SOL    HW250545   4.926   7.687   1.406
16863SOL     OW50546   3.742   8.738   0.170
16863SOL    HW150547   3.652   8.767   0.154
16863SOL    HW250548   3.732   8.658   0.223
16864SOL     OW50549   3.816   9.216   0.950
16864SOL    HW150550   3.783   9.142   0.899
16864SOL    HW250551   3.903   9.233   0.914
16865SOL     OW50552   4.208   9.018   0.904
16865SOL    HW150553   4.278   9.080   0.924
16865SOL    HW250554   4.250   8.952   0.848
16866SOL     OW50555   4.672   8.228   1.216
16866SOL    HW150556   4.735   8.217   1.287
16866SOL    HW250557   4.593   8.183   1.247
16867SOL     OW50558   3.764   8.021   1.121
16867SOL    HW150559   3.846   8.017   1.071
16867SOL    HW250560   3.791   8.013   1.212
16868SOL     OW50561   3.910   7.986   1.744
16868SOL    HW150562   3.983   7.955   1.691
16868SOL    HW250563   3.874   8.060   1.694
16869SOL     OW50564   5.116   8.368   1.652
16869SOL    HW150565   5.133   8.463   1.647
16869SOL    HW250566   5.108   8.341   1.560
16870SOL     OW50567   4.552   8.012   0.374
16870SOL    HW150568   4.557   7.937   0.315
16870SOL    HW250569   4.473   8.059   0.347
16871SOL     OW50570   5.360   8.049   1.164
16871SOL    HW150571   5.351   7.990   1.239
16871SOL    HW250572   5.451   8.038   1.136
16872SOL     OW50573   3.949   8.986   1.723
16872SOL    HW150574   3.925   9.034   1.802
16872SOL    HW250575   3.962   8.896   1.753
16873SOL     OW50576   4.458   7.881   1.233
16873SOL    HW150577   4.394   7.811   1.219
16873SOL    HW250578   4.439   7.945   1.164
16874SOL     OW50579   4.630   9.127   1.488
16874SOL    HW150580   4.607   9.080   1.408
16874SOL    HW250581   4.632   9.219   1.461
16875SOL     OW50582   4.175   7.934   0.156
16875SOL    HW150583   4.234   8.001   0.191
16875SOL    HW250584   4.090   7.978   0.151
16876SOL     OW50585   3.854   8.598   1.481
16876SOL    HW150586   3.858   8.559   1.568
16876SOL    HW250587   3.875   8.527   1.421
16877SOL     OW50588   5.027   8.482   1.209
16877SOL    HW150589   5.037   8.419   1.138
16877SOL    HW250590   4.974   8.552   1.171
16878SOL     OW50591   5.051   8.267   0.319
16878SOL    HW150592   4.966   8.244   0.356
16878SOL    HW250593   5.037   8.263   0.224
16879SOL     OW50594   5.511   9.171   1.170
16879SOL    HW150595   5.573   9.197   1.102
16879SOL    HW250596   5.479   9.085   1.143
16880SOL     OW50597   4.964   9.178   1.090
16880SOL    HW150598   5.048   9.208   1.056
16880SOL    HW250599   4.979   9.087   1.115
16881SOL     OW50600   3.830   8.696   1.011
16881SOL    HW150601   3.802   8.718   1.100
16881SOL    HW250602   3.758   8.643   0.975
16882SOL     OW50603   4.413   9.128   1.750
16882SOL    HW150604   4.349   9.198   1.737
16882SOL    HW250605   4.486   9.152   1.692
16883SOL     OW50606   4.610   7.526   0.099
16883SOL    HW150607   4.604   7.500   0.007
16883SOL    HW250608   4.688   7.481   0.132
16884SOL     OW50609   5.478   7.630   0.495
16884SOL    HW150610   5.538   7.607   0.425
16884SOL    HW250611   5.448   7.546   0.530
16885SOL     OW50612   5.123   9.017   0.504
16885SOL    HW150613   5.180   9.052   0.436
16885SOL    HW250614   5.070   9.091   0.532
16886SOL     OW50615   3.857   9.254   1.844
16886SOL    HW150616   3.818   9.178   1.886
16886SOL    HW250617   3.909   9.296   1.913
16887SOL     OW50618   5.003   8.381   0.669
16887SOL    HW150619   5.077   8.321   0.682
16887SOL    HW250620   5.040   8.453   0.619
16888SOL     OW50621   4.508   8.728   1.414
16888SOL    HW150622   4.482   8.775   1.493
16888SOL    HW250623   4.433   8.738   1.354
16889SOL     OW50624   4.407   9.087   0.186
16889SOL    HW150625   4.421   9.092   0.091
16889SOL    HW250626   4.350   9.011   0.198
16890SOL     OW50627   5.341   9.177   1.401
16890SOL    HW150628   5.398   9.176   1.324
16890SOL    HW250629   5.324   9.270   1.418
16891SOL     OW50630   5.569   7.608   0.964
16891SOL    HW150631   5.597   7.519   0.943
16891SOL    HW250632   5.481   7.614   0.926
16892SOL     OW50633   3.966   7.760   0.709
16892SOL    HW150634   3.880   7.796   0.689
16892SOL    HW250635   3.971   7.760   0.805
16893SOL     OW50636   4.940   9.014   0.054
16893SOL    HW150637   4.928   8.924   0.085
16893SOL    HW250638   4.952   9.007   9.960
16894SOL     OW50639   4.547   8.459   1.385
16894SOL    HW150640   4.585   8.450   1.298
16894SOL    HW250641   4.536   8.553   1.397
16895SOL     OW50642   4.667   8.371   0.295
16895SOL    HW150643   4.716   8.392   0.216
16895SOL    HW250644   4.714   8.297   0.334
16896SOL     OW50645   5.213   9.058   0.073
16896SOL    HW150646   5.118   9.051   0.084
16896SOL    HW250647   5.226   9.067   9.979
16897SOL     OW50648   4.087   8.760   1.502
16897SOL    HW150649   4.080   8.833   1.441
16897SOL    HW250650   4.009   8.707   1.486
16898SOL     OW50651   5.323   8.738   1.277
16898SOL    HW150652   5.377   8.714   1.352
16898SOL    HW250653   5.264   8.805   1.311
16899SOL     OW50654   4.801   8.566   0.730
16899SOL    HW150655   4.725   8.517   0.761
16899SOL    HW250656   4.862   8.499   0.701
16900SOL     OW50657   4.757   7.697   0.962
16900SOL    HW150658   4.757   7.654   0.876
16900SOL    HW250659   4.750   7.625   1.024
16901SOL     OW50660   4.337   8.932   0.499
16901SOL    HW150661   4.381   8.879   0.432
16901SOL    HW250662   4.271   8.982   0.450
16902SOL     OW50663   5.469   7.831   1.387
16902SOL    HW150664   5.540   7.895   1.384
16902SOL    HW250665   5.495   7.762   1.327
16903SOL     OW50666   3.993   8.761   0.284
16903SOL    HW150667   3.910   8.763   0.236
16903SOL    HW250668   3.977   8.815   0.362
16904SOL     OW50669   3.844   8.494   1.736
16904SOL    HW150670   3.767   8.466   1.785
16904SOL    HW250671   3.917   8.443   1.773
16905SOL     OW50672   4.403   7.636   1.495
16905SOL    HW150673   4.487   7.611   1.457
16905SOL    HW250674   4.426   7.670   1.582
16906SOL     OW50675   3.811   7.723   0.020
16906SOL    HW150676   3.722   7.739   9.990
16906SOL    HW250677   3.859   7.803   9.999
16907SOL     OW50678   5.139   8.302   1.388
16907SOL    HW150679   5.086   8.361   1.333
16907SOL    HW250680   5.227   8.306   1.351
16908SOL     OW50681   3.799   7.589   0.278
16908SOL    HW150682   3.791   7.639   0.196
16908SOL    HW250683   3.893   7.577   0.290
16909SOL     OW50684   4.922   8.758   0.146
16909SOL    HW150685   4.836   8.717   0.137
16909SOL    HW250686   4.940   8.757   0.240
16910SOL     OW50687   4.349   8.280   1.441
16910SOL    HW150688   4.408   8.354   1.430
16910SOL    HW250689   4.407   8.203   1.440
16911SOL     OW50690   5.210   9.240   0.989
16911SOL    HW150691   5.234   9.318   0.940
16911SOL    HW250692   5.293   9.200   1.013
16912SOL     OW50693   4.449   7.996   1.686
16912SOL    HW150694   4.496   8.050   1.750
16912SOL    HW250695   4.459   7.907   1.718
16913SOL     OW50696   5.192   8.632   1.619
16913SOL    HW150697   5.185   8.654   1.712
16913SOL    HW250698   5.282   8.656   1.596
16914SOL     OW50699   4.075   9.189   1.576
16914SOL    HW150700   3.993   9.236   1.558
16914SOL    HW250701   4.047   9.106   1.615
16915SOL     OW50702   5.379   8.323   1.253
16915SOL    HW150703   5.377   8.240   1.206
16915SOL    HW250704   5.366   8.389   1.185
16916SOL     OW50705   4.944   7.772   0.451
16916SOL    HW150706   5.004   7.697   0.449
16916SOL    HW250707   4.973   7.823   0.527
16917SOL     OW50708   4.290   8.172   0.678
16917SOL    HW150709   4.337   8.254   0.666
16917SOL    HW250710   4.227   8.170   0.606
16918SOL     OW50711   5.472   7.803   1.664
16918SOL    HW150712   5.468   7.819   1.569
16918SOL    HW250713   5.394   7.750   1.682
16919SOL     OW50714   5.484   8.373   1.504
16919SOL    HW150715   5.467   8.466   1.517
16919SOL    HW250716   5.457   8.356   1.414
16920SOL     OW50717   4.621   8.867   0.043
16920SOL    HW150718   4.535   8.828   0.025
16920SOL    HW250719   4.618   8.890   0.136
16921SOL     OW50720   4.391   9.215   0.924
16921SOL    HW150721   4.372   9.308   0.916
16921SOL    HW250722   4.487   9.210   0.925
16922SOL     OW50723   4.596   8.423   0.856
16922SOL    HW150724   4.647   8.351   0.892
16922SOL    HW250725   4.551   8.461   0.932
16923SOL     OW50726   4.821   8.422   0.073
16923SOL    HW150727   4.813   8.468   9.989
16923SOL    HW250728   4.895   8.363   0.062
16924SOL     OW50729   5.555   9.003   0.840
16924SOL    HW150730   5.478   8.995   0.783
16924SOL    HW250731   5.532   8.953   0.918
16925SOL     OW50732   3.936   8.732   1.836
16925SOL    HW150733   3.904   8.653   1.793
16925SOL    HW250734   3.877   8.745   1.910
16926SOL     OW50735   3.842   8.666   0.670
16926SOL    HW150736   3.872   8.627   0.752
16926SOL    HW250737   3.903   8.633   0.604
16927SOL     OW50738   4.415   8.866   1.633
16927SOL    HW150739   4.338   8.827   1.675
16927SOL    HW250740   4.420   8.954   1.670
16928SOL     OW50741   5.534   7.620   1.234
16928SOL    HW150742   5.536   7.525   1.247
16928SOL    HW250743   5.548   7.631   1.140
16929SOL     OW50744   4.137   7.882   0.516
16929SOL    HW150745   4.171   7.812   0.460
16929SOL    HW250746   4.089   7.836   0.585
16930SOL     OW50747   5.420   8.927   1.081
16930SOL    HW150748   5.342   8.907   1.029
16930SOL    HW250749   5.421   8.860   1.149
16931SOL     OW50750   4.076   8.013   1.292
16931SOL    HW150751   4.125   7.949   1.343
16931SOL    HW250752   4.084   7.983   1.201
16932SOL     OW50753   4.561   9.028   0.674
16932SOL    HW150754   4.535   9.097   0.613
16932SOL    HW250755   4.487   8.968   0.676
16933SOL     OW50756   5.146   7.681   1.115
16933SOL    HW150757   5.155   7.591   1.148
16933SOL    HW250758   5.100   7.728   1.185
16934SOL     OW50759   4.734   7.465   1.119
16934SOL    HW150760   4.680   7.402   1.073
16934SOL    HW250761   4.821   7.424   1.123
16935SOL     OW50762   4.501   8.775   0.339
16935SOL    HW150763   4.480   8.682   0.345
16935SOL    HW250764   4.584   8.784   0.386
16936SOL     OW50765   4.340   9.014   1.288
16936SOL    HW150766   4.335   9.097   1.335
16936SOL    HW250767   4.430   9.011   1.255
16937SOL     OW50768   5.076   7.505   0.176
16937SOL    HW150769   5.099   7.468   0.091
16937SOL    HW250770   4.986   7.476   0.192
16938SOL     OW50771   5.024   7.916   0.675
16938SOL    HW150772   4.974   7.998   0.671
16938SOL    HW250773   5.015   7.887   0.766
16939SOL     OW50774   5.306   7.636   0.893
16939SOL    HW150775   5.254   7.665   0.968
16939SOL    HW250776   5.305   7.710   0.833
16940SOL     OW50777   3.766   8.492   0.303
16940SOL    HW150778   3.862   8.493   0.308
16940SOL    HW250779   3.742   8.404   0.332
16941SOL     OW50780   4.625   9.128   0.351
16941SOL    HW150781   4.547   9.114   0.297
16941SOL    HW250782   4.603   9.202   0.407
16942SOL     OW50783   3.932   8.070   2.010
16942SOL    HW150784   3.844   8.057   2.046
16942SOL    HW250785   3.920   8.056   1.916
16943SOL     OW50786   3.943   7.736   2.852
16943SOL    HW150787   3.973   7.701   2.935
16943SOL    HW250788   3.855   7.700   2.840
16944SOL     OW50789   3.711   7.844   2.508
16944SOL    HW150790   3.631   7.869   2.555
16944SOL    HW250791   3.684   7.770   2.453
16945SOL     OW50792   4.299   8.754   3.070
16945SOL    HW150793   4.216   8.758   3.021
16945SOL    HW250794   4.316   8.846   3.094
16946SOL     OW50795   5.311   8.970   2.567
16946SOL    HW150796   5.265   8.940   2.645
16946SOL    HW250797   5.244   8.973   2.499
16947SOL     OW50798   4.861   8.152   2.548
16947SOL    HW150799   4.907   8.235   2.537
16947SOL    HW250800   4.813   8.163   2.630
16948SOL     OW50801   5.525   8.029   2.081
16948SOL    HW150802   5.486   8.028   1.994
16948SOL    HW250803   5.481   7.958   2.128
16949SOL     OW50804   4.451   8.577   2.919
16949SOL    HW150805   4.392   8.617   2.984
16949SOL    HW250806   4.493   8.651   2.876
16950SOL     OW50807   4.611   8.190   3.690
16950SOL    HW150808   4.604   8.257   3.758
16950SOL    HW250809   4.628   8.239   3.609
16951SOL     OW50810   4.409   8.433   2.506
16951SOL    HW150811   4.477   8.433   2.574
16951SOL    HW250812   4.344   8.495   2.537
16952SOL     OW50813   4.435   8.597   3.694
16952SOL    HW150814   4.487   8.670   3.729
16952SOL    HW250815   4.359   8.639   3.654
16953SOL     OW50816   4.067   8.844   2.931
16953SOL    HW150817   3.991   8.802   2.891
16953SOL    HW250818   4.103   8.900   2.861
16954SOL     OW50819   5.178   8.953   3.234
16954SOL    HW150820   5.233   9.030   3.247
16954SOL    HW250821   5.106   8.965   3.296
16955SOL     OW50822   4.184   7.822   3.316
16955SOL    HW150823   4.258   7.765   3.332
16955SOL    HW250824   4.108   7.771   3.344
16956SOL     OW50825   5.308   7.880   2.617
16956SOL    HW150826   5.242   7.891   2.549
16956SOL    HW250827   5.290   7.950   2.680
16957SOL     OW50828   3.942   9.178   2.327
16957SOL    HW150829   3.969   9.249   2.385
16957SOL    HW250830   4.016   9.167   2.267
16958SOL     OW50831   4.859   8.789   3.559
16958SOL    HW150832   4.905   8.778   3.642
16958SOL    HW250833   4.805   8.710   3.550
16959SOL     OW50834   3.956   8.907   2.395
16959SOL    HW150835   3.935   9.000   2.399
16959SOL    HW250836   3.906   8.868   2.467
16960SOL     OW50837   4.009   8.538   2.740
16960SOL    HW150838   4.010   8.448   2.774
16960SOL    HW250839   3.953   8.585   2.801
16961SOL     OW50840   4.299   9.245   3.285
16961SOL    HW150841   4.221   9.228   3.338
16961SOL    HW250842   4.329   9.331   3.314
16962SOL     OW50843   4.289   8.436   2.014
16962SOL    HW150844   4.341   8.478   1.945
16962SOL    HW250845   4.330   8.465   2.096
16963SOL     OW50846   5.313   7.582   3.320
16963SOL    HW150847   5.353   7.658   3.277
16963SOL    HW250848   5.283   7.615   3.404
16964SOL     OW50849   3.843   8.107   2.429
16964SOL    HW150850   3.811   8.020   2.453
16964SOL    HW250851   3.837   8.157   2.510
16965SOL     OW50852   5.571   9.188   2.179
16965SOL    HW150853   5.641   9.173   2.241
16965SOL    HW250854   5.579   9.280   2.155
16966SOL     OW50855   3.784   9.027   1.971
16966SOL    HW150856   3.763   8.935   1.990
16966SOL    HW250857   3.752   9.074   2.048
16967SOL     OW50858   5.422   8.373   2.515
16967SOL    HW150859   5.504   8.329   2.494
16967SOL    HW250860   5.401   8.425   2.437
16968SOL     OW50861   5.381   8.552   2.295
16968SOL    HW150862   5.466   8.544   2.251
16968SOL    HW250863   5.395   8.618   2.363
16969SOL     OW50864   3.844   8.198   3.440
16969SOL    HW150865   3.929   8.242   3.444
16969SOL    HW250866   3.781   8.268   3.426
16970SOL     OW50867   4.347   8.846   2.592
16970SOL    HW150868   4.306   8.760   2.597
16970SOL    HW250869   4.331   8.875   2.502
16971SOL     OW50870   4.994   8.673   3.279
16971SOL    HW150871   5.022   8.604   3.219
16971SOL    HW250872   5.056   8.668   3.352
16972SOL     OW50873   4.555   7.459   2.381
16972SOL    HW150874   4.595   7.541   2.353
16972SOL    HW250875   4.461   7.477   2.381
16973SOL     OW50876   3.911   8.404   3.164
16973SOL    HW150877   3.998   8.369   3.147
16973SOL    HW250878   3.857   8.370   3.092
16974SOL     OW50879   5.259   8.463   2.061
16974SOL    HW150880   5.190   8.403   2.091
16974SOL    HW250881   5.301   8.493   2.142
16975SOL     OW50882   4.907   9.269   3.494
16975SOL    HW150883   4.906   9.330   3.420
16975SOL    HW250884   4.922   9.183   3.455
16976SOL     OW50885   4.083   7.700   3.737
16976SOL    HW150886   4.120   7.780   3.774
16976SOL    HW250887   3.989   7.716   3.733
16977SOL     OW50888   5.196   8.865   2.793
16977SOL    HW150889   5.133   8.884   2.862
16977SOL    HW250890   5.178   8.774   2.769
16978SOL     OW50891   5.370   9.230   2.429
16978SOL    HW150892   5.347   9.188   2.346
16978SOL    HW250893   5.363   9.159   2.494
16979SOL     OW50894   4.311   8.147   2.133
16979SOL    HW150895   4.315   8.235   2.095
16979SOL    HW250896   4.246   8.154   2.204
16980SOL     OW50897   5.006   7.841   2.803
16980SOL    HW150898   4.918   7.806   2.808
16980SOL    HW250899   5.058   7.783   2.858
16981SOL     OW50900   5.303   9.119   2.181
16981SOL    HW150901   5.397   9.135   2.170
16981SOL    HW250902   5.270   9.108   2.092
16982SOL     OW50903   4.512   8.061   3.293
16982SOL    HW150904   4.489   8.032   3.381
16982SOL    HW250905   4.488   7.988   3.236
16983SOL     OW50906   5.116   7.924   3.536
16983SOL    HW150907   5.121   7.967   3.621
16983SOL    HW250908   5.166   7.843   3.547
16984SOL     OW50909   4.668   8.328   3.455
16984SOL    HW150910   4.725   8.264   3.411
16984SOL    HW250911   4.620   8.370   3.384
16985SOL     OW50912   4.732   7.846   3.071
16985SOL    HW150913   4.639   7.859   3.093
16985SOL    HW250914   4.730   7.803   2.986
16986SOL     OW50915   4.782   8.145   2.280
16986SOL    HW150916   4.803   8.142   2.374
16986SOL    HW250917   4.697   8.101   2.273
16987SOL     OW50918   3.817   8.273   2.645
16987SOL    HW150919   3.899   8.268   2.694
16987SOL    HW250920   3.769   8.345   2.686
16988SOL     OW50921   3.829   9.318   3.447
16988SOL    HW150922   3.837   9.302   3.541
16988SOL    HW250923   3.745   9.279   3.423
16989SOL     OW50924   4.613   7.798   2.062
16989SOL    HW150925   4.664   7.852   2.001
16989SOL    HW250926   4.592   7.720   2.012
16990SOL     OW50927   5.411   8.010   3.701
16990SOL    HW150928   5.389   8.088   3.650
16990SOL    HW250929   5.440   7.946   3.637
16991SOL     OW50930   5.117   8.597   2.405
16991SOL    HW150931   5.197   8.586   2.354
16991SOL    HW250932   5.064   8.658   2.354
16992SOL     OW50933   4.274   7.608   2.778
16992SOL    HW150934   4.281   7.637   2.869
16992SOL    HW250935   4.271   7.690   2.728
16993SOL     OW50936   4.721   8.903   2.327
16993SOL    HW150937   4.696   8.978   2.274
16993SOL    HW250938   4.691   8.925   2.415
16994SOL     OW50939   4.077   9.264   2.741
16994SOL    HW150940   4.123   9.180   2.745
16994SOL    HW250941   4.144   9.329   2.761
16995SOL     OW50942   5.528   8.493   2.751
16995SOL    HW150943   5.480   8.477   2.670
16995SOL    HW250944   5.460   8.501   2.818
16996SOL     OW50945   4.941   8.990   3.378
16996SOL    HW150946   4.930   8.920   3.442
16996SOL    HW250947   4.875   8.973   3.311
16997SOL     OW50948   4.024   8.407   2.128
16997SOL    HW150949   4.107   8.427   2.084
16997SOL    HW250950   4.002   8.319   2.096
16998SOL     OW50951   5.208   8.211   2.573
16998SOL    HW150952   5.210   8.168   2.658
16998SOL    HW250953   5.288   8.265   2.571
16999SOL     OW50954   4.197   8.732   3.610
16999SOL    HW150955   4.173   8.737   3.518
16999SOL    HW250956   4.114   8.719   3.656
17000SOL     OW50957   4.858   9.224   2.086
17000SOL    HW150958   4.778   9.192   2.127
17000SOL    HW250959   4.879   9.158   2.020
17001SOL     OW50960   3.934   7.704   3.361
17001SOL    HW150961   3.864   7.767   3.380
17001SOL    HW250962   3.902   7.621   3.397
17002SOL     OW50963   5.362   8.836   1.961
17002SOL    HW150964   5.321   8.921   1.949
17002SOL    HW250965   5.295   8.773   1.935
17003SOL     OW50966   4.181   9.193   2.176
17003SOL    HW150967   4.230   9.243   2.241
17003SOL    HW250968   4.249   9.150   2.123
17004SOL     OW50969   5.121   7.553   2.321
17004SOL    HW150970   5.121   7.529   2.228
17004SOL    HW250971   5.212   7.540   2.349
17005SOL     OW50972   3.975   9.232   3.075
17005SOL    HW150973   4.024   9.157   3.109
17005SOL    HW250974   3.960   9.211   2.983
17006SOL     OW50975   4.671   9.146   2.752
17006SOL    HW150976   4.757   9.106   2.765
17006SOL    HW250977   4.631   9.094   2.682
17007SOL     OW50978   4.119   8.133   2.334
17007SOL    HW150979   4.131   8.039   2.347
17007SOL    HW250980   4.026   8.148   2.352
17008SOL     OW50981   5.234   7.670   3.580
17008SOL    HW150982   5.246   7.690   3.673
17008SOL    HW250983   5.171   7.598   3.579
17009SOL     OW50984   4.387   7.557   1.965
17009SOL    HW150985   4.434   7.479   1.991
17009SOL    HW250986   4.326   7.527   1.897
17010SOL     OW50987   4.482   7.722   3.615
17010SOL    HW150988   4.566   7.677   3.613
17010SOL    HW250989   4.436   7.684   3.690
17011SOL     OW50990   4.594   8.975   3.061
17011SOL    HW150991   4.576   8.933   2.977
17011SOL    HW250992   4.661   8.920   3.101
17012SOL     OW50993   5.054   8.040   3.296
17012SOL    HW150994   5.087   8.009   3.380
17012SOL    HW250995   5.093   8.126   3.285
17013SOL     OW50996   4.541   8.823   2.819
17013SOL    HW150997   4.628   8.819   2.780
17013SOL    HW250998   4.482   8.838   2.745
17014SOL     OW50999   4.654   7.963   2.750
17014SOL    HW151000   4.629   7.951   2.658
17014SOL    HW251001   4.682   7.876   2.779
17015SOL     OW51002   4.288   7.511   2.352
17015SOL    HW151003   4.210   7.512   2.408
17015SOL    HW251004   4.276   7.586   2.294
17016SOL     OW51005   5.158   8.660   1.894
17016SOL    HW151006   5.188   8.586   1.947
17016SOL    HW251007   5.073   8.683   1.931
17017SOL     OW51008   4.006   7.496   2.051
17017SOL    HW151009   4.059   7.563   2.007
17017SOL    HW251010   4.071   7.438   2.092
17018SOL     OW51011   4.676   7.698   2.313
17018SOL    HW151012   4.650   7.734   2.228
17018SOL    HW251013   4.770   7.715   2.319
17019SOL     OW51014   4.799   8.141   3.307
17019SOL    HW151015   4.738   8.068   3.312
17019SOL    HW251016   4.886   8.099   3.304
17020SOL     OW51017   4.930   9.035   2.666
17020SOL    HW151018   4.945   9.094   2.592
17020SOL    HW251019   5.003   9.053   2.726
17021SOL     OW51020   4.206   8.610   2.570
17021SOL    HW151021   4.144   8.585   2.638
17021SOL    HW251022   4.156   8.603   2.489
17022SOL     OW51023   4.976   9.236   2.477
17022SOL    HW151024   5.024   9.300   2.424
17022SOL    HW251025   4.904   9.287   2.515
17023SOL     OW51026   4.756   7.963   1.892
17023SOL    HW151027   4.714   8.046   1.873
17023SOL    HW251028   4.820   7.983   1.960
17024SOL     OW51029   3.824   7.999   3.254
17024SOL    HW151030   3.916   8.001   3.227
17024SOL    HW251031   3.817   8.068   3.320
17025SOL     OW51032   4.283   7.668   3.047
17025SOL    HW151033   4.320   7.603   3.107
17025SOL    HW251034   4.189   7.669   3.068
17026SOL     OW51035   4.594   7.902   2.492
17026SOL    HW151036   4.554   7.958   2.425
17026SOL    HW251037   4.619   7.823   2.445
17027SOL     OW51038   4.745   7.507   2.602
17027SOL    HW151039   4.685   7.501   2.529
17027SOL    HW251040   4.721   7.434   2.660
17028SOL     OW51041   5.157   8.601   2.716
17028SOL    HW151042   5.088   8.535   2.726
17028SOL    HW251043   5.172   8.607   2.622
17029SOL     OW51044   5.187   8.064   2.811
17029SOL    HW151045   5.123   7.994   2.821
17029SOL    HW251046   5.242   8.058   2.888
17030SOL     OW51047   5.552   8.244   2.249
17030SOL    HW151048   5.612   8.201   2.310
17030SOL    HW251049   5.539   8.180   2.179
17031SOL     OW51050   4.222   8.872   2.013
17031SOL    HW151051   4.146   8.840   2.063
17031SOL    HW251052   4.219   8.823   1.931
17032SOL     OW51053   5.432   8.719   2.495
17032SOL    HW151054   5.525   8.713   2.516
17032SOL    HW251055   5.407   8.808   2.521
17033SOL     OW51056   5.116   8.023   1.928
17033SOL    HW151057   5.060   7.997   2.000
17033SOL    HW251058   5.205   7.999   1.956
17034SOL     OW51059   4.251   7.705   2.164
17034SOL    HW151060   4.305   7.663   2.097
17034SOL    HW251061   4.219   7.785   2.123
17035SOL     OW51062   5.459   8.692   3.394
17035SOL    HW151063   5.547   8.658   3.380
17035SOL    HW251064   5.473   8.779   3.431
17036SOL     OW51065   4.766   8.804   3.198
17036SOL    HW151066   4.689   8.769   3.242
17036SOL    HW251067   4.840   8.757   3.238
17037SOL     OW51068   5.331   9.083   3.534
17037SOL    HW151069   5.320   9.119   3.446
17037SOL    HW251070   5.409   9.027   3.528
17038SOL     OW51071   4.875   8.685   2.967
17038SOL    HW151072   4.813   8.720   3.032
17038SOL    HW251073   4.842   8.717   2.883
17039SOL     OW51074   5.333   8.539   2.939
17039SOL    HW151075   5.326   8.605   3.007
17039SOL    HW251076   5.263   8.560   2.877
17040SOL     OW51077   4.643   7.529   3.245
17040SOL    HW151078   4.664   7.514   3.153
17040SOL    HW251079   4.722   7.570   3.281
17041SOL     OW51080   4.703   8.563   3.585
17041SOL    HW151081   4.613   8.580   3.613
17041SOL    HW251082   4.698   8.483   3.534
17042SOL     OW51083   4.438   8.510   2.238
17042SOL    HW151084   4.423   8.484   2.329
17042SOL    HW251085   4.512   8.457   2.210
17043SOL     OW51086   4.150   8.276   3.121
17043SOL    HW151087   4.218   8.286   3.188
17043SOL    HW251088   4.120   8.186   3.131
17044SOL     OW51089   4.989   7.817   3.153
17044SOL    HW151090   5.016   7.897   3.198
17044SOL    HW251091   4.899   7.835   3.124
17045SOL     OW51092   3.802   9.017   3.225
17045SOL    HW151093   3.772   9.088   3.169
17045SOL    HW251094   3.897   9.017   3.215
17046SOL     OW51095   4.041   8.583   2.348
17046SOL    HW151096   4.042   8.654   2.285
17046SOL    HW251097   4.039   8.503   2.294
17047SOL     OW51098   4.257   7.964   2.721
17047SOL    HW151099   4.270   8.023   2.646
17047SOL    HW251100   4.326   7.990   2.783
17048SOL     OW51101   4.971   8.802   2.260
17048SOL    HW151102   5.027   8.871   2.294
17048SOL    HW251103   4.883   8.825   2.290
17049SOL     OW51104   5.034   8.915   3.005
17049SOL    HW151105   5.081   8.922   3.088
17049SOL    HW251106   4.983   8.834   3.013
17050SOL     OW51107   5.299   8.066   2.348
17050SOL    HW151108   5.247   8.107   2.418
17050SOL    HW251109   5.349   8.138   2.309
17051SOL     OW51110   4.069   8.978   3.164
17051SOL    HW151111   4.062   8.926   3.084
17051SOL    HW251112   4.162   8.995   3.174
17052SOL     OW51113   4.159   8.191   3.482
17052SOL    HW151114   4.216   8.236   3.419
17052SOL    HW251115   4.206   8.111   3.504
17053SOL     OW51116   5.351   8.234   3.560
17053SOL    HW151117   5.264   8.272   3.551
17053SOL    HW251118   5.402   8.272   3.488
17054SOL     OW51119   4.718   7.589   3.619
17054SOL    HW151120   4.777   7.662   3.600
17054SOL    HW251121   4.768   7.511   3.597
17055SOL     OW51122   4.220   7.484   3.622
17055SOL    HW151123   4.167   7.436   3.559
17055SOL    HW251124   4.168   7.561   3.645
17056SOL     OW51125   4.315   8.322   2.901
17056SOL    HW151126   4.354   8.410   2.904
17056SOL    HW251127   4.258   8.319   2.977
17057SOL     OW51128   5.033   8.301   2.865
17057SOL    HW151129   4.944   8.274   2.840
17057SOL    HW251130   5.088   8.225   2.846
17058SOL     OW51131   4.922   7.971   2.119
17058SOL    HW151132   4.933   7.894   2.176
17058SOL    HW251133   4.881   8.036   2.175
17059SOL     OW51134   4.015   7.640   3.101
17059SOL    HW151135   3.981   7.670   3.186
17059SOL    HW251136   3.997   7.546   3.100
17060SOL     OW51137   3.774   8.760   3.128
17060SOL    HW151138   3.803   8.704   3.200
17060SOL    HW251139   3.776   8.848   3.164
17061SOL     OW51140   4.435   8.069   2.901
17061SOL    HW151141   4.513   8.062   2.846
17061SOL    HW251142   4.407   8.160   2.891
17062SOL     OW51143   5.474   8.416   3.731
17062SOL    HW151144   5.435   8.343   3.683
17062SOL    HW251145   5.411   8.436   3.800
17063SOL     OW51146   4.049   7.507   2.492
17063SOL    HW151147   4.016   7.595   2.509
17063SOL    HW251148   4.055   7.466   2.578
17064SOL     OW51149   5.356   7.839   2.206
17064SOL    HW151150   5.388   7.773   2.268
17064SOL    HW251151   5.326   7.911   2.261
17065SOL     OW51152   4.758   8.206   2.819
17065SOL    HW151153   4.736   8.221   2.911
17065SOL    HW251154   4.728   8.117   2.801
17066SOL     OW51155   4.706   9.014   3.597
17066SOL    HW151156   4.684   9.057   3.514
17066SOL    HW251157   4.744   8.930   3.570
17067SOL     OW51158   5.561   8.943   3.465
17067SOL    HW151159   5.589   8.971   3.377
17067SOL    HW251160   5.640   8.953   3.519
17068SOL     OW51161   4.073   8.366   3.677
17068SOL    HW151162   4.150   8.384   3.732
17068SOL    HW251163   4.105   8.303   3.613
17069SOL     OW51164   5.245   7.717   1.981
17069SOL    HW151165   5.193   7.646   2.018
17069SOL    HW251166   5.285   7.760   2.056
17070SOL     OW51167   5.004   8.269   1.881
17070SOL    HW151168   5.044   8.182   1.889
17070SOL    HW251169   5.041   8.305   1.800
17071SOL     OW51170   4.794   8.801   2.728
17071SOL    HW151171   4.805   8.728   2.667
17071SOL    HW251172   4.846   8.872   2.691
17072SOL     OW51173   4.042   8.264   2.806
17072SOL    HW151174   4.137   8.278   2.805
17072SOL    HW251175   4.032   8.174   2.837
17073SOL     OW51176   4.037   7.986   2.873
17073SOL    HW151177   3.998   7.899   2.863
17073SOL    HW251178   4.114   7.984   2.816
17074SOL     OW51179   4.862   7.816   3.547
17074SOL    HW151180   4.817   7.867   3.614
17074SOL    HW251181   4.948   7.857   3.538
17075SOL     OW51182   4.880   7.638   3.335
17075SOL    HW151183   4.869   7.699   3.407
17075SOL    HW251184   4.927   7.687   3.268
17076SOL     OW51185   3.748   8.750   2.041
17076SOL    HW151186   3.658   8.772   2.016
17076SOL    HW251187   3.741   8.664   2.082
17077SOL     OW51188   3.817   9.216   2.813
17077SOL    HW151189   3.783   9.143   2.762
17077SOL    HW251190   3.904   9.234   2.776
17078SOL     OW51191   4.209   9.017   2.763
17078SOL    HW151192   4.279   9.079   2.784
17078SOL    HW251193   4.249   8.956   2.701
17079SOL     OW51194   4.672   8.228   3.077
17079SOL    HW151195   4.735   8.216   3.149
17079SOL    HW251196   4.593   8.183   3.106
17080SOL     OW51197   3.763   8.019   2.983
17080SOL    HW151198   3.845   8.017   2.933
17080SOL    HW251199   3.791   8.012   3.075
17081SOL     OW51200   3.911   7.988   3.606
17081SOL    HW151201   3.988   7.960   3.555
17081SOL    HW251202   3.875   8.061   3.556
17082SOL     OW51203   5.116   8.369   3.514
17082SOL    HW151204   5.133   8.463   3.509
17082SOL    HW251205   5.108   8.341   3.422
17083SOL     OW51206   4.542   8.016   2.234
17083SOL    HW151207   4.551   7.942   2.174
17083SOL    HW251208   4.465   8.064   2.202
17084SOL     OW51209   5.360   8.049   3.025
17084SOL    HW151210   5.350   7.990   3.099
17084SOL    HW251211   5.451   8.039   2.997
17085SOL     OW51212   3.949   8.986   3.586
17085SOL    HW151213   3.924   9.033   3.666
17085SOL    HW251214   3.962   8.896   3.615
17086SOL     OW51215   4.457   7.880   3.096
17086SOL    HW151216   4.394   7.811   3.081
17086SOL    HW251217   4.439   7.944   3.027
17087SOL     OW51218   4.627   9.129   3.352
17087SOL    HW151219   4.605   9.080   3.273
17087SOL    HW251220   4.630   9.220   3.324
17088SOL     OW51221   4.166   7.929   2.026
17088SOL    HW151222   4.231   7.995   2.051
17088SOL    HW251223   4.083   7.975   2.029
17089SOL     OW51224   3.853   8.598   3.343
17089SOL    HW151225   3.858   8.559   3.430
17089SOL    HW251226   3.875   8.527   3.283
17090SOL     OW51227   5.028   8.482   3.070
17090SOL    HW151228   5.037   8.418   2.999
17090SOL    HW251229   4.974   8.552   3.033
17091SOL     OW51230   5.049   8.309   2.153
17091SOL    HW151231   4.979   8.273   2.208
17091SOL    HW251232   5.020   8.293   2.063
17092SOL     OW51233   5.512   9.170   3.033
17092SOL    HW151234   5.573   9.197   2.964
17092SOL    HW251235   5.479   9.085   3.005
17093SOL     OW51236   4.964   9.179   2.954
17093SOL    HW151237   5.048   9.209   2.919
17093SOL    HW251238   4.979   9.088   2.978
17094SOL     OW51239   3.831   8.695   2.871
17094SOL    HW151240   3.802   8.716   2.960
17094SOL    HW251241   3.759   8.642   2.835
17095SOL     OW51242   4.414   9.128   3.612
17095SOL    HW151243   4.350   9.198   3.599
17095SOL    HW251244   4.486   9.151   3.553
17096SOL     OW51245   5.468   7.632   2.358
17096SOL    HW151246   5.527   7.612   2.286
17096SOL    HW251247   5.441   7.547   2.392
17097SOL     OW51248   5.121   9.016   2.365
17097SOL    HW151249   5.175   9.051   2.295
17097SOL    HW251250   5.066   9.090   2.393
17098SOL     OW51251   3.856   9.255   3.706
17098SOL    HW151252   3.817   9.179   3.747
17098SOL    HW251253   3.908   9.296   3.775
17099SOL     OW51254   5.003   8.384   2.526
17099SOL    HW151255   5.076   8.324   2.540
17099SOL    HW251256   5.039   8.456   2.474
17100SOL     OW51257   4.508   8.728   3.275
17100SOL    HW151258   4.482   8.775   3.354
17100SOL    HW251259   4.433   8.738   3.216
17101SOL     OW51260   4.392   9.084   2.022
17101SOL    HW151261   4.408   9.098   1.929
17101SOL    HW251262   4.340   9.004   2.027
17102SOL     OW51263   5.341   9.177   3.263
17102SOL    HW151264   5.398   9.176   3.187
17102SOL    HW251265   5.324   9.269   3.280
17103SOL     OW51266   5.569   7.608   2.826
17103SOL    HW151267   5.597   7.519   2.806
17103SOL    HW251268   5.481   7.615   2.788
17104SOL     OW51269   3.967   7.754   2.570
17104SOL    HW151270   3.881   7.791   2.549
17104SOL    HW251271   3.971   7.756   2.666
17105SOL     OW51272   4.933   9.035   1.900
17105SOL    HW151273   4.923   8.944   1.928
17105SOL    HW251274   4.863   9.048   1.835
17106SOL     OW51275   4.548   8.459   3.247
17106SOL    HW151276   4.585   8.449   3.160
17106SOL    HW251277   4.537   8.553   3.258
17107SOL     OW51278   4.643   8.358   2.156
17107SOL    HW151279   4.700   8.391   2.087
17107SOL    HW251280   4.696   8.291   2.200
17108SOL     OW51281   5.206   9.092   1.920
17108SOL    HW151282   5.115   9.072   1.902
17108SOL    HW251283   5.247   9.096   1.833
17109SOL     OW51284   4.086   8.761   3.364
17109SOL    HW151285   4.079   8.834   3.302
17109SOL    HW251286   4.008   8.707   3.347
17110SOL     OW51287   5.323   8.737   3.139
17110SOL    HW151288   5.378   8.713   3.214
17110SOL    HW251289   5.264   8.804   3.173
17111SOL     OW51290   4.801   8.568   2.591
17111SOL    HW151291   4.725   8.518   2.622
17111SOL    HW251292   4.863   8.501   2.562
17112SOL     OW51293   4.757   7.697   2.822
17112SOL    HW151294   4.756   7.655   2.737
17112SOL    HW251295   4.750   7.625   2.885
17113SOL     OW51296   4.327   8.933   2.336
17113SOL    HW151297   4.382   8.884   2.275
17113SOL    HW251298   4.245   8.946   2.289
17114SOL     OW51299   5.468   7.831   3.249
17114SOL    HW151300   5.540   7.895   3.245
17114SOL    HW251301   5.495   7.762   3.188
17115SOL     OW51302   4.003   8.789   2.161
17115SOL    HW151303   3.916   8.781   2.122
17115SOL    HW251304   3.988   8.837   2.242
17116SOL     OW51305   3.845   8.494   3.597
17116SOL    HW151306   3.768   8.466   3.647
17116SOL    HW251307   3.917   8.443   3.634
17117SOL     OW51308   4.404   7.637   3.357
17117SOL    HW151309   4.488   7.612   3.319
17117SOL    HW251310   4.426   7.670   3.444
17118SOL     OW51311   3.810   7.765   1.876
17118SOL    HW151312   3.732   7.745   1.824
17118SOL    HW251313   3.838   7.851   1.845
17119SOL     OW51314   5.139   8.302   3.250
17119SOL    HW151315   5.087   8.361   3.195
17119SOL    HW251316   5.227   8.306   3.213
17120SOL     OW51317   3.768   7.597   2.134
17120SOL    HW151318   3.755   7.667   2.070
17120SOL    HW251319   3.856   7.565   2.118
17121SOL     OW51320   4.907   8.769   1.985
17121SOL    HW151321   4.816   8.738   1.985
17121SOL    HW251322   4.931   8.773   2.078
17122SOL     OW51323   4.349   8.280   3.303
17122SOL    HW151324   4.408   8.355   3.292
17122SOL    HW251325   4.407   8.203   3.302
17123SOL     OW51326   5.209   9.243   2.852
17123SOL    HW151327   5.233   9.320   2.801
17123SOL    HW251328   5.293   9.201   2.872
17124SOL     OW51329   4.446   7.997   3.549
17124SOL    HW151330   4.494   8.050   3.612
17124SOL    HW251331   4.457   7.907   3.581
17125SOL     OW51332   5.192   8.633   3.481
17125SOL    HW151333   5.185   8.654   3.574
17125SOL    HW251334   5.282   8.656   3.458
17126SOL     OW51335   4.075   9.189   3.438
17126SOL    HW151336   3.994   9.236   3.421
17126SOL    HW251337   4.048   9.106   3.478
17127SOL     OW51338   5.379   8.323   3.115
17127SOL    HW151339   5.377   8.239   3.069
17127SOL    HW251340   5.368   8.389   3.046
17128SOL     OW51341   4.945   7.770   2.318
17128SOL    HW151342   5.004   7.696   2.317
17128SOL    HW251343   4.973   7.823   2.393
17129SOL     OW51344   4.300   8.174   2.542
17129SOL    HW151345   4.344   8.258   2.528
17129SOL    HW251346   4.239   8.166   2.469
17130SOL     OW51347   5.472   7.804   3.525
17130SOL    HW151348   5.468   7.820   3.431
17130SOL    HW251349   5.395   7.750   3.544
17131SOL     OW51350   5.484   8.373   3.366
17131SOL    HW151351   5.467   8.466   3.378
17131SOL    HW251352   5.457   8.355   3.275
17132SOL     OW51353   4.594   8.805   1.924
17132SOL    HW151354   4.557   8.823   2.010
17132SOL    HW251355   4.604   8.892   1.884
17133SOL     OW51356   4.392   9.215   2.785
17133SOL    HW151357   4.373   9.309   2.777
17133SOL    HW251358   4.487   9.210   2.786
17134SOL     OW51359   4.596   8.425   2.718
17134SOL    HW151360   4.646   8.351   2.753
17134SOL    HW251361   4.551   8.462   2.793
17135SOL     OW51362   4.796   8.432   1.948
17135SOL    HW151363   4.775   8.486   1.872
17135SOL    HW251364   4.870   8.378   1.920
17136SOL     OW51365   5.555   9.004   2.701
17136SOL    HW151366   5.478   8.996   2.645
17136SOL    HW251367   5.534   8.951   2.779
17137SOL     OW51368   3.936   8.732   3.698
17137SOL    HW151369   3.905   8.653   3.655
17137SOL    HW251370   3.877   8.744   3.772
17138SOL     OW51371   3.841   8.673   2.530
17138SOL    HW151372   3.872   8.631   2.610
17138SOL    HW251373   3.900   8.640   2.462
17139SOL     OW51374   4.414   8.866   3.494
17139SOL    HW151375   4.338   8.827   3.536
17139SOL    HW251376   4.420   8.954   3.531
17140SOL     OW51377   5.533   7.619   3.096
17140SOL    HW151378   5.536   7.525   3.109
17140SOL    HW251379   5.548   7.631   3.002
17141SOL     OW51380   4.141   7.871   2.380
17141SOL    HW151381   4.176   7.800   2.325
17141SOL    HW251382   4.090   7.827   2.447
17142SOL     OW51383   5.419   8.928   2.944
17142SOL    HW151384   5.341   8.909   2.892
17142SOL    HW251385   5.420   8.860   3.011
17143SOL     OW51386   4.076   8.014   3.153
17143SOL    HW151387   4.126   7.949   3.203
17143SOL    HW251388   4.084   7.984   3.062
17144SOL     OW51389   4.560   9.025   2.534
17144SOL    HW151390   4.525   9.089   2.472
17144SOL    HW251391   4.488   8.964   2.549
17145SOL     OW51392   5.146   7.682   2.977
17145SOL    HW151393   5.157   7.593   3.011
17145SOL    HW251394   5.100   7.729   3.047
17146SOL     OW51395   4.734   7.465   2.981
17146SOL    HW151396   4.681   7.402   2.933
17146SOL    HW251397   4.821   7.425   2.985
17147SOL     OW51398   4.505   8.780   2.190
17147SOL    HW151399   4.481   8.688   2.202
17147SOL    HW251400   4.584   8.791   2.242
17148SOL     OW51401   4.340   9.015   3.149
17148SOL    HW151402   4.334   9.098   3.196
17148SOL    HW251403   4.429   9.012   3.116
17149SOL     OW51404   5.105   7.486   2.054
17149SOL    HW151405   5.145   7.414   2.007
17149SOL    HW251406   5.013   7.460   2.065
17150SOL     OW51407   5.021   7.919   2.537
17150SOL    HW151408   4.971   8.001   2.534
17150SOL    HW251409   5.015   7.890   2.627
17151SOL     OW51410   5.306   7.635   2.755
17151SOL    HW151411   5.254   7.665   2.829
17151SOL    HW251412   5.307   7.710   2.695
17152SOL     OW51413   3.761   8.499   2.170
17152SOL    HW151414   3.854   8.487   2.152
17152SOL    HW251415   3.729   8.411   2.190
17153SOL     OW51416   4.617   9.125   2.196
17153SOL    HW151417   4.539   9.110   2.144
17153SOL    HW251418   4.594   9.197   2.255
17154SOL     OW51419   3.931   8.071   3.872
17154SOL    HW151420   3.844   8.058   3.909
17154SOL    HW251421   3.920   8.057   3.778
17155SOL     OW51422   3.943   7.737   4.714
17155SOL    HW151423   3.973   7.701   4.797
17155SOL    HW251424   3.856   7.699   4.702
17156SOL     OW51425   3.710   7.843   4.370
17156SOL    HW151426   3.631   7.869   4.417
17156SOL    HW251427   3.683   7.770   4.315
17157SOL     OW51428   4.299   8.755   4.933
17157SOL    HW151429   4.216   8.758   4.884
17157SOL    HW251430   4.316   8.846   4.956
17158SOL     OW51431   5.312   8.971   4.429
17158SOL    HW151432   5.266   8.940   4.507
17158SOL    HW251433   5.245   8.973   4.361
17159SOL     OW51434   4.861   8.153   4.410
17159SOL    HW151435   4.907   8.236   4.400
17159SOL    HW251436   4.812   8.163   4.492
17160SOL     OW51437   5.525   8.029   3.944
17160SOL    HW151438   5.486   8.028   3.856
17160SOL    HW251439   5.481   7.958   3.990
17161SOL     OW51440   4.450   8.577   4.781
17161SOL    HW151441   4.392   8.617   4.846
17161SOL    HW251442   4.493   8.651   4.738
17162SOL     OW51443   4.612   8.189   5.553
17162SOL    HW151444   4.603   8.257   5.620
17162SOL    HW251445   4.629   8.238   5.472
17163SOL     OW51446   4.409   8.433   4.368
17163SOL    HW151447   4.477   8.432   4.436
17163SOL    HW251448   4.343   8.495   4.400
17164SOL     OW51449   4.435   8.597   5.556
17164SOL    HW151450   4.486   8.670   5.591
17164SOL    HW251451   4.359   8.638   5.516
17165SOL     OW51452   4.067   8.845   4.793
17165SOL    HW151453   3.991   8.802   4.753
17165SOL    HW251454   4.103   8.899   4.723
17166SOL     OW51455   5.178   8.953   5.096
17166SOL    HW151456   5.233   9.030   5.109
17166SOL    HW251457   5.106   8.965   5.159
17167SOL     OW51458   4.182   7.823   5.180
17167SOL    HW151459   4.257   7.765   5.195
17167SOL    HW251460   4.106   7.771   5.207
17168SOL     OW51461   5.309   7.880   4.479
17168SOL    HW151462   5.243   7.891   4.410
17168SOL    HW251463   5.289   7.950   4.542
17169SOL     OW51464   3.942   9.178   4.189
17169SOL    HW151465   3.969   9.249   4.247
17169SOL    HW251466   4.016   9.167   4.129
17170SOL     OW51467   4.859   8.789   5.421
17170SOL    HW151468   4.905   8.777   5.504
17170SOL    HW251469   4.805   8.710   5.412
17171SOL     OW51470   3.957   8.906   4.257
17171SOL    HW151471   3.935   9.000   4.261
17171SOL    HW251472   3.907   8.867   4.328
17172SOL     OW51473   4.009   8.538   4.603
17172SOL    HW151474   4.010   8.448   4.636
17172SOL    HW251475   3.953   8.585   4.664
17173SOL     OW51476   4.298   9.247   5.146
17173SOL    HW151477   4.220   9.228   5.199
17173SOL    HW251478   4.328   9.332   5.176
17174SOL     OW51479   4.289   8.436   3.876
17174SOL    HW151480   4.340   8.478   3.807
17174SOL    HW251481   4.330   8.465   3.957
17175SOL     OW51482   5.311   7.583   5.181
17175SOL    HW151483   5.352   7.658   5.137
17175SOL    HW251484   5.282   7.617   5.266
17176SOL     OW51485   3.842   8.107   4.291
17176SOL    HW151486   3.811   8.020   4.315
17176SOL    HW251487   3.836   8.158   4.372
17177SOL     OW51488   5.571   9.188   4.040
17177SOL    HW151489   5.641   9.173   4.103
17177SOL    HW251490   5.579   9.280   4.016
17178SOL     OW51491   3.785   9.027   3.833
17178SOL    HW151492   3.764   8.935   3.851
17178SOL    HW251493   3.752   9.074   3.910
17179SOL     OW51494   5.422   8.373   4.378
17179SOL    HW151495   5.504   8.329   4.357
17179SOL    HW251496   5.402   8.424   4.299
17180SOL     OW51497   5.381   8.552   4.157
17180SOL    HW151498   5.466   8.543   4.113
17180SOL    HW251499   5.395   8.617   4.225
17181SOL     OW51500   3.846   8.196   5.302
17181SOL    HW151501   3.932   8.238   5.306
17181SOL    HW251502   3.785   8.268   5.289
17182SOL     OW51503   4.347   8.846   4.454
17182SOL    HW151504   4.305   8.760   4.459
17182SOL    HW251505   4.331   8.875   4.364
17183SOL     OW51506   4.994   8.674   5.141
17183SOL    HW151507   5.022   8.604   5.081
17183SOL    HW251508   5.056   8.668   5.214
17184SOL     OW51509   4.555   7.463   4.241
17184SOL    HW151510   4.595   7.546   4.215
17184SOL    HW251511   4.461   7.481   4.242
17185SOL     OW51512   3.911   8.404   5.025
17185SOL    HW151513   3.998   8.369   5.009
17185SOL    HW251514   3.857   8.367   4.955
17186SOL     OW51515   5.258   8.463   3.923
17186SOL    HW151516   5.190   8.403   3.953
17186SOL    HW251517   5.301   8.492   4.004
17187SOL     OW51518   4.907   9.269   5.356
17187SOL    HW151519   4.906   9.329   5.282
17187SOL    HW251520   4.921   9.182   5.317
17188SOL     OW51521   4.083   7.701   5.599
17188SOL    HW151522   4.119   7.782   5.637
17188SOL    HW251523   3.988   7.716   5.597
17189SOL     OW51524   5.196   8.865   4.654
17189SOL    HW151525   5.133   8.884   4.724
17189SOL    HW251526   5.178   8.774   4.630
17190SOL     OW51527   5.369   9.231   4.291
17190SOL    HW151528   5.346   9.189   4.208
17190SOL    HW251529   5.363   9.160   4.356
17191SOL     OW51530   4.310   8.146   3.995
17191SOL    HW151531   4.315   8.234   3.957
17191SOL    HW251532   4.246   8.154   4.065
17192SOL     OW51533   5.005   7.842   4.664
17192SOL    HW151534   4.917   7.806   4.670
17192SOL    HW251535   5.058   7.783   4.719
17193SOL     OW51536   5.303   9.120   4.044
17193SOL    HW151537   5.397   9.134   4.032
17193SOL    HW251538   5.269   9.108   3.955
17194SOL     OW51539   4.512   8.061   5.155
17194SOL    HW151540   4.490   8.032   5.243
17194SOL    HW251541   4.488   7.988   5.098
17195SOL     OW51542   5.116   7.924   5.397
17195SOL    HW151543   5.121   7.967   5.483
17195SOL    HW251544   5.165   7.843   5.408
17196SOL     OW51545   4.669   8.327   5.317
17196SOL    HW151546   4.725   8.263   5.273
17196SOL    HW251547   4.620   8.369   5.247
17197SOL     OW51548   4.732   7.847   4.932
17197SOL    HW151549   4.640   7.859   4.955
17197SOL    HW251550   4.730   7.801   4.848
17198SOL     OW51551   4.782   8.145   4.142
17198SOL    HW151552   4.803   8.143   4.236
17198SOL    HW251553   4.697   8.101   4.135
17199SOL     OW51554   3.817   8.275   4.506
17199SOL    HW151555   3.899   8.268   4.555
17199SOL    HW251556   3.769   8.346   4.549
17200SOL     OW51557   3.829   9.317   5.308
17200SOL    HW151558   3.837   9.302   5.402
17200SOL    HW251559   3.746   9.277   5.284
17201SOL     OW51560   4.615   7.798   3.923
17201SOL    HW151561   4.664   7.853   3.862
17201SOL    HW251562   4.598   7.717   3.874
17202SOL     OW51563   5.411   8.011   5.564
17202SOL    HW151564   5.389   8.088   5.512
17202SOL    HW251565   5.440   7.946   5.499
17203SOL     OW51566   5.117   8.598   4.268
17203SOL    HW151567   5.197   8.585   4.216
17203SOL    HW251568   5.064   8.658   4.216
17204SOL     OW51569   4.274   7.609   4.639
17204SOL    HW151570   4.281   7.637   4.731
17204SOL    HW251571   4.271   7.691   4.590
17205SOL     OW51572   4.721   8.903   4.189
17205SOL    HW151573   4.696   8.978   4.136
17205SOL    HW251574   4.692   8.925   4.278
17206SOL     OW51575   4.078   9.264   4.603
17206SOL    HW151576   4.123   9.180   4.607
17206SOL    HW251577   4.145   9.329   4.623
17207SOL     OW51578   5.528   8.494   4.613
17207SOL    HW151579   5.481   8.478   4.532
17207SOL    HW251580   5.460   8.502   4.680
17208SOL     OW51581   4.941   8.990   5.240
17208SOL    HW151582   4.930   8.920   5.304
17208SOL    HW251583   4.876   8.970   5.172
17209SOL     OW51584   4.024   8.406   3.990
17209SOL    HW151585   4.107   8.427   3.946
17209SOL    HW251586   4.002   8.319   3.958
17210SOL     OW51587   5.208   8.212   4.436
17210SOL    HW151588   5.210   8.168   4.521
17210SOL    HW251589   5.288   8.265   4.434
17211SOL     OW51590   4.197   8.732   5.472
17211SOL    HW151591   4.173   8.737   5.380
17211SOL    HW251592   4.115   8.719   5.518
17212SOL     OW51593   4.858   9.224   3.948
17212SOL    HW151594   4.778   9.192   3.989
17212SOL    HW251595   4.879   9.157   3.882
17213SOL     OW51596   3.932   7.703   5.223
17213SOL    HW151597   3.860   7.763   5.242
17213SOL    HW251598   3.902   7.619   5.256
17214SOL     OW51599   5.363   8.836   3.824
17214SOL    HW151600   5.321   8.922   3.811
17214SOL    HW251601   5.296   8.773   3.797
17215SOL     OW51602   4.181   9.193   4.038
17215SOL    HW151603   4.230   9.243   4.103
17215SOL    HW251604   4.249   9.150   3.985
17216SOL     OW51605   5.122   7.553   4.183
17216SOL    HW151606   5.122   7.528   4.090
17216SOL    HW251607   5.211   7.536   4.212
17217SOL     OW51608   3.976   9.232   4.937
17217SOL    HW151609   4.025   9.157   4.971
17217SOL    HW251610   3.960   9.211   4.845
17218SOL     OW51611   4.671   9.146   4.614
17218SOL    HW151612   4.757   9.106   4.627
17218SOL    HW251613   4.631   9.094   4.544
17219SOL     OW51614   4.118   8.134   4.196
17219SOL    HW151615   4.130   8.040   4.208
17219SOL    HW251616   4.025   8.149   4.213
17220SOL     OW51617   5.233   7.671   5.442
17220SOL    HW151618   5.244   7.691   5.535
17220SOL    HW251619   5.172   7.597   5.440
17221SOL     OW51620   4.385   7.556   3.828
17221SOL    HW151621   4.432   7.477   3.855
17221SOL    HW251622   4.326   7.526   3.759
17222SOL     OW51623   4.483   7.722   5.478
17222SOL    HW151624   4.568   7.676   5.475
17222SOL    HW251625   4.437   7.681   5.550
17223SOL     OW51626   4.594   8.976   4.923
17223SOL    HW151627   4.576   8.933   4.839
17223SOL    HW251628   4.662   8.921   4.964
17224SOL     OW51629   5.054   8.040   5.157
17224SOL    HW151630   5.087   8.008   5.241
17224SOL    HW251631   5.093   8.126   5.146
17225SOL     OW51632   4.540   8.823   4.682
17225SOL    HW151633   4.628   8.819   4.643
17225SOL    HW251634   4.482   8.838   4.608
17226SOL     OW51635   4.654   7.963   4.612
17226SOL    HW151636   4.629   7.951   4.521
17226SOL    HW251637   4.681   7.876   4.641
17227SOL     OW51638   4.286   7.512   4.215
17227SOL    HW151639   4.209   7.512   4.271
17227SOL    HW251640   4.274   7.587   4.156
17228SOL     OW51641   5.159   8.660   3.756
17228SOL    HW151642   5.188   8.586   3.809
17228SOL    HW251643   5.074   8.683   3.793
17229SOL     OW51644   4.006   7.493   3.910
17229SOL    HW151645   4.058   7.562   3.868
17229SOL    HW251646   4.071   7.438   3.954
17230SOL     OW51647   4.676   7.702   4.175
17230SOL    HW151648   4.651   7.736   4.089
17230SOL    HW251649   4.770   7.717   4.181
17231SOL     OW51650   4.799   8.140   5.169
17231SOL    HW151651   4.738   8.067   5.174
17231SOL    HW251652   4.885   8.099   5.165
17232SOL     OW51653   4.930   9.035   4.528
17232SOL    HW151654   4.945   9.095   4.454
17232SOL    HW251655   5.004   9.050   4.586
17233SOL     OW51656   4.206   8.610   4.432
17233SOL    HW151657   4.144   8.586   4.501
17233SOL    HW251658   4.156   8.603   4.351
17234SOL     OW51659   4.976   9.237   4.339
17234SOL    HW151660   5.024   9.300   4.286
17234SOL    HW251661   4.903   9.287   4.377
17235SOL     OW51662   4.756   7.963   3.753
17235SOL    HW151663   4.714   8.047   3.735
17235SOL    HW251664   4.820   7.983   3.822
17236SOL     OW51665   3.823   8.000   5.114
17236SOL    HW151666   3.915   8.000   5.088
17236SOL    HW251667   3.817   8.068   5.181
17237SOL     OW51668   4.283   7.667   4.909
17237SOL    HW151669   4.320   7.600   4.968
17237SOL    HW251670   4.190   7.668   4.930
17238SOL     OW51671   4.593   7.904   4.354
17238SOL    HW151672   4.554   7.959   4.287
17238SOL    HW251673   4.620   7.824   4.308
17239SOL     OW51674   4.744   7.507   4.464
17239SOL    HW151675   4.684   7.499   4.390
17239SOL    HW251676   4.721   7.434   4.521
17240SOL     OW51677   5.157   8.601   4.578
17240SOL    HW151678   5.089   8.534   4.588
17240SOL    HW251679   5.171   8.607   4.484
17241SOL     OW51680   5.186   8.064   4.673
17241SOL    HW151681   5.122   7.994   4.683
17241SOL    HW251682   5.242   8.057   4.750
17242SOL     OW51683   5.552   8.244   4.111
17242SOL    HW151684   5.612   8.201   4.172
17242SOL    HW251685   5.538   8.180   4.041
17243SOL     OW51686   4.222   8.873   3.875
17243SOL    HW151687   4.146   8.841   3.925
17243SOL    HW251688   4.219   8.824   3.793
17244SOL     OW51689   5.433   8.720   4.356
17244SOL    HW151690   5.526   8.714   4.377
17244SOL    HW251691   5.408   8.809   4.382
17245SOL     OW51692   5.116   8.023   3.790
17245SOL    HW151693   5.060   7.996   3.862
17245SOL    HW251694   5.205   7.997   3.817
17246SOL     OW51695   4.249   7.705   4.026
17246SOL    HW151696   4.304   7.663   3.959
17246SOL    HW251697   4.218   7.785   3.984
17247SOL     OW51698   5.459   8.692   5.256
17247SOL    HW151699   5.547   8.658   5.242
17247SOL    HW251700   5.473   8.779   5.294
17248SOL     OW51701   4.767   8.805   5.061
17248SOL    HW151702   4.689   8.769   5.104
17248SOL    HW251703   4.840   8.758   5.100
17249SOL     OW51704   5.331   9.084   5.396
17249SOL    HW151705   5.320   9.119   5.308
17249SOL    HW251706   5.409   9.027   5.390
17250SOL     OW51707   4.875   8.686   4.830
17250SOL    HW151708   4.812   8.720   4.894
17250SOL    HW251709   4.842   8.718   4.746
17251SOL     OW51710   5.333   8.539   4.800
17251SOL    HW151711   5.326   8.605   4.869
17251SOL    HW251712   5.263   8.560   4.739
17252SOL     OW51713   4.641   7.529   5.107
17252SOL    HW151714   4.662   7.512   5.016
17252SOL    HW251715   4.720   7.569   5.143
17253SOL     OW51716   4.703   8.563   5.448
17253SOL    HW151717   4.613   8.579   5.475
17253SOL    HW251718   4.699   8.482   5.396
17254SOL     OW51719   4.438   8.510   4.100
17254SOL    HW151720   4.423   8.484   4.191
17254SOL    HW251721   4.512   8.457   4.071
17255SOL     OW51722   4.150   8.275   4.983
17255SOL    HW151723   4.218   8.285   5.050
17255SOL    HW251724   4.120   8.185   4.992
17256SOL     OW51725   4.989   7.815   5.015
17256SOL    HW151726   5.017   7.896   5.059
17256SOL    HW251727   4.900   7.834   4.985
17257SOL     OW51728   3.802   9.017   5.088
17257SOL    HW151729   3.772   9.087   5.030
17257SOL    HW251730   3.897   9.017   5.077
17258SOL     OW51731   4.041   8.582   4.210
17258SOL    HW151732   4.042   8.654   4.146
17258SOL    HW251733   4.039   8.503   4.157
17259SOL     OW51734   4.257   7.965   4.582
17259SOL    HW151735   4.270   8.023   4.508
17259SOL    HW251736   4.325   7.990   4.644
17260SOL     OW51737   4.971   8.802   4.122
17260SOL    HW151738   5.028   8.871   4.156
17260SOL    HW251739   4.883   8.825   4.152
17261SOL     OW51740   5.034   8.915   4.867
17261SOL    HW151741   5.081   8.922   4.949
17261SOL    HW251742   4.983   8.834   4.874
17262SOL     OW51743   5.298   8.065   4.211
17262SOL    HW151744   5.247   8.107   4.280
17262SOL    HW251745   5.348   8.137   4.172
17263SOL     OW51746   4.068   8.979   5.026
17263SOL    HW151747   4.061   8.926   4.946
17263SOL    HW251748   4.162   8.995   5.036
17264SOL     OW51749   4.155   8.194   5.342
17264SOL    HW151750   4.214   8.237   5.280
17264SOL    HW251751   4.198   8.111   5.362
17265SOL     OW51752   5.352   8.235   5.422
17265SOL    HW151753   5.264   8.273   5.413
17265SOL    HW251754   5.402   8.272   5.350
17266SOL     OW51755   4.719   7.588   5.481
17266SOL    HW151756   4.779   7.661   5.461
17266SOL    HW251757   4.768   7.510   5.458
17267SOL     OW51758   4.220   7.484   5.486
17267SOL    HW151759   4.166   7.433   5.426
17267SOL    HW251760   4.167   7.561   5.507
17268SOL     OW51761   4.315   8.322   4.762
17268SOL    HW151762   4.353   8.410   4.766
17268SOL    HW251763   4.258   8.318   4.839
17269SOL     OW51764   5.033   8.301   4.727
17269SOL    HW151765   4.944   8.274   4.702
17269SOL    HW251766   5.088   8.225   4.709
17270SOL     OW51767   4.922   7.971   3.981
17270SOL    HW151768   4.934   7.894   4.037
17270SOL    HW251769   4.881   8.036   4.037
17271SOL     OW51770   4.015   7.641   4.963
17271SOL    HW151771   3.981   7.670   5.048
17271SOL    HW251772   3.998   7.547   4.961
17272SOL     OW51773   3.774   8.760   4.990
17272SOL    HW151774   3.803   8.703   5.061
17272SOL    HW251775   3.776   8.848   5.026
17273SOL     OW51776   4.435   8.068   4.763
17273SOL    HW151777   4.513   8.061   4.708
17273SOL    HW251778   4.407   8.159   4.753
17274SOL     OW51779   5.475   8.417   5.593
17274SOL    HW151780   5.436   8.344   5.545
17274SOL    HW251781   5.411   8.436   5.662
17275SOL     OW51782   4.047   7.506   4.354
17275SOL    HW151783   4.014   7.594   4.372
17275SOL    HW251784   4.054   7.465   4.440
17276SOL     OW51785   5.356   7.839   4.068
17276SOL    HW151786   5.388   7.773   4.130
17276SOL    HW251787   5.326   7.911   4.123
17277SOL     OW51788   4.757   8.207   4.681
17277SOL    HW151789   4.736   8.221   4.773
17277SOL    HW251790   4.728   8.117   4.663
17278SOL     OW51791   4.706   9.014   5.459
17278SOL    HW151792   4.684   9.057   5.377
17278SOL    HW251793   4.744   8.930   5.432
17279SOL     OW51794   5.562   8.943   5.327
17279SOL    HW151795   5.589   8.971   5.240
17279SOL    HW251796   5.640   8.953   5.381
17280SOL     OW51797   4.074   8.368   5.539
17280SOL    HW151798   4.150   8.384   5.594
17280SOL    HW251799   4.104   8.305   5.474
17281SOL     OW51800   5.244   7.719   3.843
17281SOL    HW151801   5.193   7.646   3.880
17281SOL    HW251802   5.284   7.761   3.919
17282SOL     OW51803   5.004   8.269   3.743
17282SOL    HW151804   5.044   8.182   3.751
17282SOL    HW251805   5.041   8.305   3.663
17283SOL     OW51806   4.793   8.801   4.590
17283SOL    HW151807   4.804   8.728   4.529
17283SOL    HW251808   4.846   8.872   4.553
17284SOL     OW51809   4.042   8.264   4.668
17284SOL    HW151810   4.137   8.278   4.667
17284SOL    HW251811   4.032   8.174   4.699
17285SOL     OW51812   4.036   7.986   4.734
17285SOL    HW151813   3.997   7.899   4.725
17285SOL    HW251814   4.113   7.984   4.678
17286SOL     OW51815   4.862   7.815   5.408
17286SOL    HW151816   4.817   7.866   5.476
17286SOL    HW251817   4.948   7.858   5.400
17287SOL     OW51818   4.879   7.637   5.197
17287SOL    HW151819   4.868   7.699   5.269
17287SOL    HW251820   4.926   7.686   5.130
17288SOL     OW51821   3.748   8.750   3.903
17288SOL    HW151822   3.658   8.772   3.878
17288SOL    HW251823   3.741   8.664   3.944
17289SOL     OW51824   3.817   9.216   4.675
17289SOL    HW151825   3.783   9.143   4.624
17289SOL    HW251826   3.904   9.234   4.638
17290SOL     OW51827   4.209   9.017   4.624
17290SOL    HW151828   4.279   9.079   4.647
17290SOL    HW251829   4.249   8.956   4.563
17291SOL     OW51830   4.671   8.229   4.940
17291SOL    HW151831   4.734   8.216   5.011
17291SOL    HW251832   4.593   8.182   4.968
17292SOL     OW51833   3.764   8.022   4.844
17292SOL    HW151834   3.845   8.018   4.794
17292SOL    HW251835   3.791   8.014   4.936
17293SOL     OW51836   3.910   7.986   5.469
17293SOL    HW151837   3.982   7.952   5.416
17293SOL    HW251838   3.875   8.059   5.418
17294SOL     OW51839   5.116   8.369   5.376
17294SOL    HW151840   5.133   8.463   5.370
17294SOL    HW251841   5.108   8.341   5.285
17295SOL     OW51842   4.542   8.016   4.095
17295SOL    HW151843   4.551   7.942   4.035
17295SOL    HW251844   4.465   8.063   4.063
17296SOL     OW51845   5.360   8.050   4.887
17296SOL    HW151846   5.350   7.989   4.960
17296SOL    HW251847   5.451   8.040   4.859
17297SOL     OW51848   3.948   8.986   5.449
17297SOL    HW151849   3.923   9.031   5.530
17297SOL    HW251850   3.963   8.895   5.476
17298SOL     OW51851   4.458   7.879   4.958
17298SOL    HW151852   4.394   7.809   4.944
17298SOL    HW251853   4.439   7.943   4.889
17299SOL     OW51854   4.624   9.131   5.217
17299SOL    HW151855   4.604   9.081   5.137
17299SOL    HW251856   4.628   9.222   5.187
17300SOL     OW51857   4.166   7.929   3.886
17300SOL    HW151858   4.231   7.994   3.911
17300SOL    HW251859   4.082   7.975   3.891
17301SOL     OW51860   3.854   8.598   5.204
17301SOL    HW151861   3.858   8.558   5.291
17301SOL    HW251862   3.875   8.527   5.144
17302SOL     OW51863   5.028   8.482   4.932
17302SOL    HW151864   5.037   8.418   4.862
17302SOL    HW251865   4.974   8.552   4.894
17303SOL     OW51866   5.049   8.310   4.015
17303SOL    HW151867   4.979   8.272   4.070
17303SOL    HW251868   5.020   8.293   3.925
17304SOL     OW51869   5.513   9.170   4.896
17304SOL    HW151870   5.574   9.196   4.827
17304SOL    HW251871   5.479   9.085   4.868
17305SOL     OW51872   4.965   9.180   4.818
17305SOL    HW151873   5.048   9.210   4.782
17305SOL    HW251874   4.979   9.089   4.841
17306SOL     OW51875   3.830   8.697   4.732
17306SOL    HW151876   3.802   8.717   4.821
17306SOL    HW251877   3.759   8.643   4.697
17307SOL     OW51878   4.415   9.128   5.473
17307SOL    HW151879   4.351   9.198   5.460
17307SOL    HW251880   4.486   9.150   5.413
17308SOL     OW51881   5.470   7.633   4.220
17308SOL    HW151882   5.528   7.612   4.148
17308SOL    HW251883   5.441   7.548   4.254
17309SOL     OW51884   5.121   9.016   4.228
17309SOL    HW151885   5.176   9.051   4.157
17309SOL    HW251886   5.067   9.090   4.255
17310SOL     OW51887   3.855   9.258   5.568
17310SOL    HW151888   3.817   9.180   5.609
17310SOL    HW251889   3.908   9.298   5.637
17311SOL     OW51890   5.003   8.385   4.389
17311SOL    HW151891   5.076   8.325   4.403
17311SOL    HW251892   5.039   8.456   4.337
17312SOL     OW51893   4.508   8.728   5.136
17312SOL    HW151894   4.481   8.775   5.215
17312SOL    HW251895   4.434   8.737   5.076
17313SOL     OW51896   4.392   9.085   3.884
17313SOL    HW151897   4.408   9.098   3.791
17313SOL    HW251898   4.340   9.004   3.889
17314SOL     OW51899   5.340   9.176   5.126
17314SOL    HW151900   5.398   9.175   5.049
17314SOL    HW251901   5.323   9.269   5.141
17315SOL     OW51902   5.570   7.606   4.688
17315SOL    HW151903   5.598   7.517   4.669
17315SOL    HW251904   5.483   7.613   4.651
17316SOL     OW51905   3.967   7.754   4.432
17316SOL    HW151906   3.881   7.790   4.411
17316SOL    HW251907   3.971   7.756   4.528
17317SOL     OW51908   4.933   9.035   3.762
17317SOL    HW151909   4.923   8.944   3.790
17317SOL    HW251910   4.863   9.047   3.698
17318SOL     OW51911   4.548   8.458   5.110
17318SOL    HW151912   4.586   8.447   5.023
17318SOL    HW251913   4.537   8.553   5.120
17319SOL     OW51914   4.644   8.358   4.018
17319SOL    HW151915   4.701   8.391   3.948
17319SOL    HW251916   4.696   8.291   4.061
17320SOL     OW51917   5.206   9.093   3.782
17320SOL    HW151918   5.114   9.072   3.764
17320SOL    HW251919   5.247   9.097   3.695
17321SOL     OW51920   4.085   8.762   5.227
17321SOL    HW151921   4.079   8.834   5.164
17321SOL    HW251922   4.008   8.708   5.209
17322SOL     OW51923   5.323   8.737   5.001
17322SOL    HW151924   5.377   8.712   5.076
17322SOL    HW251925   5.264   8.804   5.035
17323SOL     OW51926   4.800   8.568   4.453
17323SOL    HW151927   4.725   8.518   4.484
17323SOL    HW251928   4.863   8.501   4.424
17324SOL     OW51929   4.756   7.697   4.685
17324SOL    HW151930   4.755   7.654   4.599
17324SOL    HW251931   4.750   7.625   4.747
17325SOL     OW51932   4.327   8.933   4.198
17325SOL    HW151933   4.383   8.884   4.137
17325SOL    HW251934   4.245   8.945   4.151
17326SOL     OW51935   5.469   7.830   5.111
17326SOL    HW151936   5.541   7.893   5.106
17326SOL    HW251937   5.496   7.760   5.051
17327SOL     OW51938   4.003   8.789   4.023
17327SOL    HW151939   3.916   8.781   3.984
17327SOL    HW251940   3.988   8.837   4.104
17328SOL     OW51941   3.844   8.494   5.459
17328SOL    HW151942   3.767   8.466   5.508
17328SOL    HW251943   3.916   8.443   5.496
17329SOL     OW51944   4.403   7.638   5.220
17329SOL    HW151945   4.486   7.612   5.181
17329SOL    HW251946   4.426   7.671   5.307
17330SOL     OW51947   3.810   7.766   3.736
17330SOL    HW151948   3.732   7.748   3.683
17330SOL    HW251949   3.840   7.852   3.705
17331SOL     OW51950   5.139   8.303   5.112
17331SOL    HW151951   5.087   8.361   5.057
17331SOL    HW251952   5.227   8.306   5.075
17332SOL     OW51953   3.768   7.595   3.996
17332SOL    HW151954   3.755   7.667   3.934
17332SOL    HW251955   3.857   7.564   3.979
17333SOL     OW51956   4.908   8.769   3.847
17333SOL    HW151957   4.818   8.735   3.847
17333SOL    HW251958   4.932   8.773   3.940
17334SOL     OW51959   4.349   8.280   5.166
17334SOL    HW151960   4.408   8.354   5.155
17334SOL    HW251961   4.406   8.203   5.165
17335SOL     OW51962   5.209   9.243   4.714
17335SOL    HW151963   5.234   9.320   4.664
17335SOL    HW251964   5.292   9.199   4.733
17336SOL     OW51965   4.449   7.995   5.411
17336SOL    HW151966   4.497   8.049   5.475
17336SOL    HW251967   4.459   7.906   5.442
17337SOL     OW51968   5.192   8.633   5.343
17337SOL    HW151969   5.186   8.654   5.436
17337SOL    HW251970   5.282   8.656   5.319
17338SOL     OW51971   4.076   9.189   5.301
17338SOL    HW151972   3.994   9.235   5.283
17338SOL    HW251973   4.048   9.106   5.341
17339SOL     OW51974   5.379   8.323   4.977
17339SOL    HW151975   5.377   8.239   4.931
17339SOL    HW251976   5.368   8.388   4.908
17340SOL     OW51977   4.946   7.771   4.179
17340SOL    HW151978   5.005   7.696   4.178
17340SOL    HW251979   4.974   7.823   4.255
17341SOL     OW51980   4.299   8.174   4.404
17341SOL    HW151981   4.343   8.258   4.390
17341SOL    HW251982   4.238   8.166   4.331
17342SOL     OW51983   5.472   7.804   5.387
17342SOL    HW151984   5.468   7.820   5.293
17342SOL    HW251985   5.395   7.750   5.406
17343SOL     OW51986   5.484   8.373   5.227
17343SOL    HW151987   5.467   8.466   5.239
17343SOL    HW251988   5.457   8.355   5.137
17344SOL     OW51989   4.591   8.805   3.785
17344SOL    HW151990   4.556   8.823   3.872
17344SOL    HW251991   4.603   8.892   3.746
17345SOL     OW51992   4.392   9.215   4.647
17345SOL    HW151993   4.374   9.309   4.639
17345SOL    HW251994   4.487   9.209   4.648
17346SOL     OW51995   4.596   8.425   4.580
17346SOL    HW151996   4.646   8.351   4.615
17346SOL    HW251997   4.550   8.461   4.656
17347SOL     OW51998   4.797   8.433   3.810
17347SOL    HW151999   4.776   8.486   3.733
17347SOL    HW252000   4.870   8.378   3.782
17348SOL     OW52001   5.557   9.003   4.562
17348SOL    HW152002   5.479   8.996   4.507
17348SOL    HW252003   5.539   8.947   4.637
17349SOL     OW52004   3.936   8.731   5.560
17349SOL    HW152005   3.905   8.652   5.517
17349SOL    HW252006   3.877   8.743   5.634
17350SOL     OW52007   3.842   8.674   4.392
17350SOL    HW152008   3.872   8.632   4.473
17350SOL    HW252009   3.901   8.640   4.324
17351SOL     OW52010   4.414   8.866   5.354
17351SOL    HW152011   4.338   8.827   5.397
17351SOL    HW252012   4.420   8.954   5.392
17352SOL     OW52013   5.535   7.617   4.959
17352SOL    HW152014   5.535   7.522   4.972
17352SOL    HW252015   5.549   7.628   4.865
17353SOL     OW52016   4.140   7.871   4.241
17353SOL    HW152017   4.175   7.800   4.187
17353SOL    HW252018   4.089   7.827   4.309
17354SOL     OW52019   5.417   8.929   4.807
17354SOL    HW152020   5.340   8.910   4.754
17354SOL    HW252021   5.417   8.861   4.875
17355SOL     OW52022   4.076   8.013   5.015
17355SOL    HW152023   4.125   7.949   5.067
17355SOL    HW252024   4.084   7.983   4.925
17356SOL     OW52025   4.560   9.024   4.397
17356SOL    HW152026   4.524   9.087   4.334
17356SOL    HW252027   4.488   8.962   4.412
17357SOL     OW52028   5.145   7.680   4.836
17357SOL    HW152029   5.152   7.589   4.865
17357SOL    HW252030   5.100   7.724   4.908
17358SOL     OW52031   4.733   7.465   4.844
17358SOL    HW152032   4.680   7.401   4.797
17358SOL    HW252033   4.820   7.426   4.849
17359SOL     OW52034   4.505   8.780   4.052
17359SOL    HW152035   4.481   8.688   4.064
17359SOL    HW252036   4.585   8.791   4.104
17360SOL     OW52037   4.339   9.016   5.011
17360SOL    HW152038   4.334   9.099   5.057
17360SOL    HW252039   4.429   9.012   4.978
17361SOL     OW52040   5.106   7.487   3.915
17361SOL    HW152041   5.146   7.413   3.869
17361SOL    HW252042   5.014   7.461   3.925
17362SOL     OW52043   5.021   7.920   4.398
17362SOL    HW152044   4.970   8.001   4.396
17362SOL    HW252045   5.015   7.890   4.489
17363SOL     OW52046   5.309   7.635   4.616
17363SOL    HW152047   5.255   7.664   4.690
17363SOL    HW252048   5.309   7.710   4.556
17364SOL     OW52049   3.761   8.499   4.032
17364SOL    HW152050   3.854   8.487   4.014
17364SOL    HW252051   3.729   8.411   4.052
17365SOL     OW52052   4.618   9.125   4.059
17365SOL    HW152053   4.539   9.110   4.006
17365SOL    HW252054   4.594   9.197   4.117
17366SOL     OW52055   3.931   8.072   5.734
17366SOL    HW152056   3.844   8.059   5.770
17366SOL    HW252057   3.921   8.057   5.640
17367SOL     OW52058   3.943   7.737   6.576
17367SOL    HW152059   3.973   7.701   6.659
17367SOL    HW252060   3.856   7.699   6.564
17368SOL     OW52061   3.711   7.844   6.232
17368SOL    HW152062   3.632   7.869   6.279
17368SOL    HW252063   3.685   7.771   6.177
17369SOL     OW52064   4.299   8.755   6.795
17369SOL    HW152065   4.216   8.758   6.746
17369SOL    HW252066   4.316   8.846   6.818
17370SOL     OW52067   5.312   8.971   6.291
17370SOL    HW152068   5.266   8.940   6.369
17370SOL    HW252069   5.245   8.973   6.223
17371SOL     OW52070   4.861   8.153   6.272
17371SOL    HW152071   4.907   8.236   6.261
17371SOL    HW252072   4.812   8.163   6.354
17372SOL     OW52073   5.524   8.030   5.806
17372SOL    HW152074   5.486   8.029   5.718
17372SOL    HW252075   5.481   7.958   5.852
17373SOL     OW52076   4.451   8.577   6.644
17373SOL    HW152077   4.392   8.617   6.708
17373SOL    HW252078   4.494   8.651   6.601
17374SOL     OW52079   4.612   8.189   7.414
17374SOL    HW152080   4.603   8.257   7.482
17374SOL    HW252081   4.629   8.238   7.334
17375SOL     OW52082   4.410   8.434   6.230
17375SOL    HW152083   4.477   8.433   6.298
17375SOL    HW252084   4.344   8.495   6.261
17376SOL     OW52085   4.435   8.597   7.419
17376SOL    HW152086   4.487   8.670   7.453
17376SOL    HW252087   4.359   8.639   7.378
17377SOL     OW52088   4.067   8.845   6.655
17377SOL    HW152089   3.991   8.802   6.615
17377SOL    HW252090   4.103   8.899   6.585
17378SOL     OW52091   5.178   8.953   6.958
17378SOL    HW152092   5.233   9.030   6.971
17378SOL    HW252093   5.106   8.965   7.020
17379SOL     OW52094   4.182   7.823   7.042
17379SOL    HW152095   4.257   7.765   7.057
17379SOL    HW252096   4.106   7.771   7.069
17380SOL     OW52097   5.310   7.880   6.341
17380SOL    HW152098   5.245   7.891   6.271
17380SOL    HW252099   5.290   7.950   6.403
17381SOL     OW52100   3.942   9.178   6.051
17381SOL    HW152101   3.968   9.249   6.109
17381SOL    HW252102   4.016   9.167   5.991
17382SOL     OW52103   4.859   8.789   7.283
17382SOL    HW152104   4.905   8.778   7.366
17382SOL    HW252105   4.806   8.710   7.274
17383SOL     OW52106   3.957   8.906   6.119
17383SOL    HW152107   3.935   8.999   6.124
17383SOL    HW252108   3.907   8.866   6.190
17384SOL     OW52109   4.009   8.538   6.465
17384SOL    HW152110   4.010   8.448   6.499
17384SOL    HW252111   3.953   8.585   6.526
17385SOL     OW52112   4.298   9.246   7.008
17385SOL    HW152113   4.221   9.228   7.061
17385SOL    HW252114   4.329   9.332   7.038
17386SOL     OW52115   4.289   8.435   5.738
17386SOL    HW152116   4.340   8.477   5.669
17386SOL    HW252117   4.330   8.465   5.820
17387SOL     OW52118   5.315   7.580   7.046
17387SOL    HW152119   5.354   7.656   7.002
17387SOL    HW252120   5.284   7.614   7.129
17388SOL     OW52121   3.842   8.107   6.153
17388SOL    HW152122   3.811   8.020   6.176
17388SOL    HW252123   3.837   8.157   6.234
17389SOL     OW52124   5.571   9.188   5.902
17389SOL    HW152125   5.642   9.173   5.965
17389SOL    HW252126   5.579   9.280   5.878
17390SOL     OW52127   3.786   9.027   5.695
17390SOL    HW152128   3.764   8.936   5.712
17390SOL    HW252129   3.753   9.075   5.771
17391SOL     OW52130   5.422   8.374   6.239
17391SOL    HW152131   5.503   8.328   6.215
17391SOL    HW252132   5.401   8.425   6.161
17392SOL     OW52133   5.381   8.552   6.019
17392SOL    HW152134   5.465   8.544   5.975
17392SOL    HW252135   5.395   8.618   6.087
17393SOL     OW52136   3.846   8.197   7.164
17393SOL    HW152137   3.931   8.239   7.167
17393SOL    HW252138   3.783   8.268   7.150
17394SOL     OW52139   4.347   8.846   6.316
17394SOL    HW152140   4.305   8.760   6.321
17394SOL    HW252141   4.331   8.875   6.226
17395SOL     OW52142   4.994   8.673   7.003
17395SOL    HW152143   5.021   8.604   6.943
17395SOL    HW252144   5.056   8.668   7.076
17396SOL     OW52145   4.555   7.461   6.105
17396SOL    HW152146   4.595   7.543   6.077
17396SOL    HW252147   4.461   7.478   6.105
17397SOL     OW52148   3.911   8.404   6.887
17397SOL    HW152149   3.998   8.369   6.871
17397SOL    HW252150   3.857   8.368   6.817
17398SOL     OW52151   5.258   8.463   5.786
17398SOL    HW152152   5.190   8.403   5.815
17398SOL    HW252153   5.301   8.493   5.866
17399SOL     OW52154   4.907   9.269   7.218
17399SOL    HW152155   4.906   9.330   7.144
17399SOL    HW252156   4.921   9.183   7.178
17400SOL     OW52157   4.083   7.701   7.462
17400SOL    HW152158   4.119   7.782   7.500
17400SOL    HW252159   3.988   7.716   7.459
17401SOL     OW52160   5.196   8.865   6.516
17401SOL    HW152161   5.133   8.884   6.585
17401SOL    HW252162   5.178   8.774   6.492
17402SOL     OW52163   5.368   9.231   6.153
17402SOL    HW152164   5.346   9.189   6.070
17402SOL    HW252165   5.362   9.161   6.217
17403SOL     OW52166   4.311   8.147   5.857
17403SOL    HW152167   4.314   8.234   5.819
17403SOL    HW252168   4.246   8.154   5.928
17404SOL     OW52169   5.006   7.842   6.527
17404SOL    HW152170   4.917   7.807   6.531
17404SOL    HW252171   5.058   7.783   6.582
17405SOL     OW52172   5.303   9.120   5.905
17405SOL    HW152173   5.397   9.134   5.894
17405SOL    HW252174   5.269   9.108   5.816
17406SOL     OW52175   4.513   8.061   7.017
17406SOL    HW152176   4.491   8.032   7.105
17406SOL    HW252177   4.489   7.988   6.960
17407SOL     OW52178   5.115   7.925   7.259
17407SOL    HW152179   5.120   7.968   7.345
17407SOL    HW252180   5.165   7.844   7.270
17408SOL     OW52181   4.668   8.328   7.179
17408SOL    HW152182   4.724   8.264   7.135
17408SOL    HW252183   4.620   8.370   7.109
17409SOL     OW52184   4.732   7.846   6.795
17409SOL    HW152185   4.640   7.858   6.817
17409SOL    HW252186   4.730   7.802   6.710
17410SOL     OW52187   4.782   8.146   6.004
17410SOL    HW152188   4.803   8.143   6.098
17410SOL    HW252189   4.698   8.102   5.997
17411SOL     OW52190   3.817   8.273   6.369
17411SOL    HW152191   3.899   8.268   6.418
17411SOL    HW252192   3.769   8.345   6.410
17412SOL     OW52193   3.829   9.318   7.170
17412SOL    HW152194   3.837   9.302   7.264
17412SOL    HW252195   3.746   9.278   7.146
17413SOL     OW52196   4.612   7.799   5.786
17413SOL    HW152197   4.664   7.852   5.725
17413SOL    HW252198   4.589   7.721   5.736
17414SOL     OW52199   5.410   8.011   7.426
17414SOL    HW152200   5.389   8.088   7.374
17414SOL    HW252201   5.439   7.946   7.362
17415SOL     OW52202   5.117   8.598   6.130
17415SOL    HW152203   5.197   8.585   6.077
17415SOL    HW252204   5.064   8.658   6.078
17416SOL     OW52205   4.275   7.608   6.501
17416SOL    HW152206   4.281   7.637   6.592
17416SOL    HW252207   4.271   7.689   6.450
17417SOL     OW52208   4.722   8.903   6.051
17417SOL    HW152209   4.696   8.979   5.998
17417SOL    HW252210   4.692   8.925   6.140
17418SOL     OW52211   4.078   9.264   6.465
17418SOL    HW152212   4.123   9.180   6.469
17418SOL    HW252213   4.145   9.329   6.485
17419SOL     OW52214   5.529   8.493   6.475
17419SOL    HW152215   5.481   8.477   6.393
17419SOL    HW252216   5.460   8.501   6.541
17420SOL     OW52217   4.941   8.990   7.102
17420SOL    HW152218   4.930   8.920   7.166
17420SOL    HW252219   4.876   8.971   7.034
17421SOL     OW52220   4.024   8.406   5.852
17421SOL    HW152221   4.107   8.426   5.808
17421SOL    HW252222   4.001   8.318   5.820
17422SOL     OW52223   5.208   8.213   6.298
17422SOL    HW152224   5.210   8.168   6.383
17422SOL    HW252225   5.288   8.265   6.296
17423SOL     OW52226   4.197   8.732   7.334
17423SOL    HW152227   4.173   8.737   7.242
17423SOL    HW252228   4.114   8.719   7.380
17424SOL     OW52229   4.858   9.224   5.810
17424SOL    HW152230   4.778   9.192   5.851
17424SOL    HW252231   4.879   9.157   5.744
17425SOL     OW52232   3.932   7.704   7.084
17425SOL    HW152233   3.860   7.764   7.100
17425SOL    HW252234   3.902   7.620   7.118
17426SOL     OW52235   5.363   8.837   5.686
17426SOL    HW152236   5.321   8.922   5.673
17426SOL    HW252237   5.297   8.773   5.659
17427SOL     OW52238   4.181   9.192   5.900
17427SOL    HW152239   4.230   9.242   5.965
17427SOL    HW252240   4.248   9.149   5.847
17428SOL     OW52241   5.121   7.552   6.044
17428SOL    HW152242   5.121   7.528   5.951
17428SOL    HW252243   5.211   7.536   6.073
17429SOL     OW52244   3.975   9.232   6.799
17429SOL    HW152245   4.024   9.157   6.833
17429SOL    HW252246   3.960   9.211   6.707
17430SOL     OW52247   4.671   9.146   6.476
17430SOL    HW152248   4.757   9.106   6.489
17430SOL    HW252249   4.631   9.094   6.406
17431SOL     OW52250   4.119   8.133   6.058
17431SOL    HW152251   4.131   8.039   6.071
17431SOL    HW252252   4.025   8.147   6.076
17432SOL     OW52253   5.232   7.671   7.303
17432SOL    HW152254   5.244   7.690   7.396
17432SOL    HW252255   5.167   7.601   7.301
17433SOL     OW52256   4.387   7.556   5.689
17433SOL    HW152257   4.435   7.478   5.714
17433SOL    HW252258   4.326   7.527   5.621
17434SOL     OW52259   4.484   7.721   7.339
17434SOL    HW152260   4.568   7.676   7.337
17434SOL    HW252261   4.437   7.682   7.412
17435SOL     OW52262   4.594   8.975   6.785
17435SOL    HW152263   4.576   8.933   6.701
17435SOL    HW252264   4.661   8.921   6.826
17436SOL     OW52265   5.053   8.040   7.018
17436SOL    HW152266   5.086   8.009   7.103
17436SOL    HW252267   5.092   8.126   7.007
17437SOL     OW52268   4.540   8.823   6.544
17437SOL    HW152269   4.628   8.819   6.505
17437SOL    HW252270   4.482   8.838   6.470
17438SOL     OW52271   4.654   7.963   6.474
17438SOL    HW152272   4.629   7.952   6.382
17438SOL    HW252273   4.681   7.876   6.502
17439SOL     OW52274   4.288   7.512   6.076
17439SOL    HW152275   4.210   7.512   6.131
17439SOL    HW252276   4.276   7.586   6.017
17440SOL     OW52277   5.160   8.661   5.618
17440SOL    HW152278   5.189   8.586   5.671
17440SOL    HW252279   5.074   8.683   5.654
17441SOL     OW52280   4.007   7.496   5.774
17441SOL    HW152281   4.060   7.562   5.731
17441SOL    HW252282   4.070   7.437   5.815
17442SOL     OW52283   4.676   7.700   6.037
17442SOL    HW152284   4.651   7.734   5.951
17442SOL    HW252285   4.770   7.716   6.042
17443SOL     OW52286   4.799   8.141   7.030
17443SOL    HW152287   4.736   8.069   7.035
17443SOL    HW252288   4.884   8.098   7.027
17444SOL     OW52289   4.930   9.036   6.390
17444SOL    HW152290   4.945   9.095   6.316
17444SOL    HW252291   5.004   9.051   6.449
17445SOL     OW52292   4.206   8.610   6.294
17445SOL    HW152293   4.144   8.586   6.363
17445SOL    HW252294   4.156   8.603   6.213
17446SOL     OW52295   4.976   9.237   6.201
17446SOL    HW152296   5.024   9.300   6.148
17446SOL    HW252297   4.903   9.287   6.238
17447SOL     OW52298   4.756   7.962   5.616
17447SOL    HW152299   4.714   8.046   5.597
17447SOL    HW252300   4.820   7.982   5.684
17448SOL     OW52301   3.824   7.999   6.977
17448SOL    HW152302   3.916   8.000   6.951
17448SOL    HW252303   3.817   8.068   7.043
17449SOL     OW52304   4.283   7.669   6.770
17449SOL    HW152305   4.320   7.603   6.829
17449SOL    HW252306   4.190   7.670   6.791
17450SOL     OW52307   4.594   7.903   6.215
17450SOL    HW152308   4.555   7.959   6.148
17450SOL    HW252309   4.620   7.823   6.169
17451SOL     OW52310   4.744   7.508   6.326
17451SOL    HW152311   4.684   7.501   6.252
17451SOL    HW252312   4.720   7.434   6.383
17452SOL     OW52313   5.158   8.601   6.440
17452SOL    HW152314   5.089   8.535   6.449
17452SOL    HW252315   5.173   8.608   6.345
17453SOL     OW52316   5.187   8.064   6.534
17453SOL    HW152317   5.123   7.994   6.544
17453SOL    HW252318   5.242   8.058   6.612
17454SOL     OW52319   5.552   8.245   5.974
17454SOL    HW152320   5.613   8.201   6.034
17454SOL    HW252321   5.538   8.181   5.904
17455SOL     OW52322   4.222   8.873   5.737
17455SOL    HW152323   4.147   8.841   5.787
17455SOL    HW252324   4.220   8.824   5.655
17456SOL     OW52325   5.432   8.720   6.219
17456SOL    HW152326   5.526   8.713   6.239
17456SOL    HW252327   5.408   8.809   6.244
17457SOL     OW52328   5.117   8.023   5.651
17457SOL    HW152329   5.060   7.995   5.724
17457SOL    HW252330   5.205   7.996   5.678
17458SOL     OW52331   4.251   7.705   5.888
17458SOL    HW152332   4.304   7.663   5.821
17458SOL    HW252333   4.219   7.785   5.846
17459SOL     OW52334   5.459   8.692   7.118
17459SOL    HW152335   5.547   8.658   7.104
17459SOL    HW252336   5.473   8.779   7.156
17460SOL     OW52337   4.766   8.805   6.923
17460SOL    HW152338   4.689   8.769   6.966
17460SOL    HW252339   4.840   8.758   6.962
17461SOL     OW52340   5.331   9.083   7.258
17461SOL    HW152341   5.320   9.119   7.170
17461SOL    HW252342   5.409   9.027   7.252
17462SOL     OW52343   4.875   8.686   6.692
17462SOL    HW152344   4.812   8.720   6.756
17462SOL    HW252345   4.842   8.718   6.608
17463SOL     OW52346   5.333   8.539   6.662
17463SOL    HW152347   5.326   8.605   6.731
17463SOL    HW252348   5.264   8.560   6.600
17464SOL     OW52349   4.642   7.529   6.969
17464SOL    HW152350   4.663   7.513   6.877
17464SOL    HW252351   4.721   7.570   7.005
17465SOL     OW52352   4.703   8.563   7.310
17465SOL    HW152353   4.613   8.579   7.337
17465SOL    HW252354   4.699   8.482   7.259
17466SOL     OW52355   4.438   8.510   5.962
17466SOL    HW152356   4.423   8.484   6.052
17466SOL    HW252357   4.513   8.458   5.933
17467SOL     OW52358   4.150   8.276   6.845
17467SOL    HW152359   4.218   8.285   6.912
17467SOL    HW252360   4.120   8.185   6.855
17468SOL     OW52361   4.988   7.815   6.878
17468SOL    HW152362   5.016   7.896   6.922
17468SOL    HW252363   4.900   7.834   6.848
17469SOL     OW52364   3.802   9.017   6.949
17469SOL    HW152365   3.772   9.087   6.892
17469SOL    HW252366   3.897   9.017   6.939
17470SOL     OW52367   4.041   8.582   6.072
17470SOL    HW152368   4.042   8.653   6.008
17470SOL    HW252369   4.038   8.502   6.019
17471SOL     OW52370   4.257   7.966   6.445
17471SOL    HW152371   4.270   8.024   6.371
17471SOL    HW252372   4.326   7.991   6.507
17472SOL     OW52373   4.971   8.802   5.984
17472SOL    HW152374   5.028   8.871   6.019
17472SOL    HW252375   4.883   8.825   6.014
17473SOL     OW52376   5.034   8.915   6.729
17473SOL    HW152377   5.081   8.922   6.811
17473SOL    HW252378   4.983   8.834   6.736
17474SOL     OW52379   5.297   8.063   6.074
17474SOL    HW152380   5.246   8.106   6.143
17474SOL    HW252381   5.345   8.135   6.032
17475SOL     OW52382   4.068   8.979   6.888
17475SOL    HW152383   4.061   8.926   6.808
17475SOL    HW252384   4.162   8.995   6.898
17476SOL     OW52385   4.155   8.195   7.203
17476SOL    HW152386   4.214   8.238   7.142
17476SOL    HW252387   4.197   8.111   7.223
17477SOL     OW52388   5.352   8.234   7.284
17477SOL    HW152389   5.264   8.272   7.275
17477SOL    HW252390   5.402   8.272   7.212
17478SOL     OW52391   4.719   7.588   7.344
17478SOL    HW152392   4.778   7.661   7.325
17478SOL    HW252393   4.770   7.510   7.322
17479SOL     OW52394   4.219   7.483   7.349
17479SOL    HW152395   4.164   7.433   7.288
17479SOL    HW252396   4.166   7.560   7.370
17480SOL     OW52397   4.316   8.322   6.625
17480SOL    HW152398   4.354   8.410   6.629
17480SOL    HW252399   4.258   8.318   6.701
17481SOL     OW52400   5.032   8.301   6.589
17481SOL    HW152401   4.944   8.274   6.564
17481SOL    HW252402   5.088   8.225   6.570
17482SOL     OW52403   4.922   7.971   5.843
17482SOL    HW152404   4.933   7.894   5.899
17482SOL    HW252405   4.881   8.036   5.899
17483SOL     OW52406   4.016   7.642   6.825
17483SOL    HW152407   3.981   7.670   6.909
17483SOL    HW252408   3.999   7.547   6.822
17484SOL     OW52409   3.774   8.759   6.852
17484SOL    HW152410   3.803   8.703   6.923
17484SOL    HW252411   3.776   8.848   6.888
17485SOL     OW52412   4.436   8.069   6.625
17485SOL    HW152413   4.514   8.062   6.569
17485SOL    HW252414   4.408   8.160   6.615
17486SOL     OW52415   5.475   8.416   7.456
17486SOL    HW152416   5.436   8.344   7.407
17486SOL    HW252417   5.411   8.436   7.524
17487SOL     OW52418   4.049   7.508   6.214
17487SOL    HW152419   4.016   7.596   6.233
17487SOL    HW252420   4.055   7.466   6.300
17488SOL     OW52421   5.356   7.838   5.930
17488SOL    HW152422   5.389   7.772   5.992
17488SOL    HW252423   5.325   7.909   5.986
17489SOL     OW52424   4.758   8.207   6.542
17489SOL    HW152425   4.736   8.221   6.634
17489SOL    HW252426   4.728   8.117   6.524
17490SOL     OW52427   4.706   9.014   7.321
17490SOL    HW152428   4.684   9.057   7.239
17490SOL    HW252429   4.744   8.930   7.294
17491SOL     OW52430   5.562   8.943   7.189
17491SOL    HW152431   5.589   8.971   7.101
17491SOL    HW252432   5.640   8.953   7.243
17492SOL     OW52433   4.073   8.367   7.402
17492SOL    HW152434   4.150   8.384   7.456
17492SOL    HW252435   4.104   8.304   7.336
17493SOL     OW52436   5.242   7.719   5.706
17493SOL    HW152437   5.191   7.646   5.742
17493SOL    HW252438   5.283   7.760   5.782
17494SOL     OW52439   5.005   8.269   5.606
17494SOL    HW152440   5.045   8.182   5.613
17494SOL    HW252441   5.042   8.305   5.525
17495SOL     OW52442   4.794   8.801   6.453
17495SOL    HW152443   4.805   8.728   6.391
17495SOL    HW252444   4.846   8.872   6.415
17496SOL     OW52445   4.042   8.264   6.530
17496SOL    HW152446   4.137   8.278   6.528
17496SOL    HW252447   4.032   8.174   6.561
17497SOL     OW52448   4.036   7.986   6.597
17497SOL    HW152449   3.997   7.899   6.587
17497SOL    HW252450   4.114   7.985   6.541
17498SOL     OW52451   4.862   7.815   7.271
17498SOL    HW152452   4.817   7.866   7.338
17498SOL    HW252453   4.948   7.858   7.262
17499SOL     OW52454   4.879   7.637   7.060
17499SOL    HW152455   4.868   7.699   7.132
17499SOL    HW252456   4.926   7.686   6.992
17500SOL     OW52457   3.748   8.750   5.765
17500SOL    HW152458   3.659   8.773   5.740
17500SOL    HW252459   3.741   8.664   5.806
17501SOL     OW52460   3.817   9.216   6.537
17501SOL    HW152461   3.783   9.143   6.486
17501SOL    HW252462   3.904   9.234   6.500
17502SOL     OW52463   4.209   9.017   6.486
17502SOL    HW152464   4.279   9.079   6.508
17502SOL    HW252465   4.249   8.956   6.425
17503SOL     OW52466   4.672   8.229   6.801
17503SOL    HW152467   4.734   8.217   6.873
17503SOL    HW252468   4.593   8.183   6.829
17504SOL     OW52469   3.763   8.021   6.707
17504SOL    HW152470   3.844   8.017   6.656
17504SOL    HW252471   3.791   8.013   6.798
17505SOL     OW52472   3.910   7.986   7.330
17505SOL    HW152473   3.981   7.951   7.276
17505SOL    HW252474   3.875   8.059   7.280
17506SOL     OW52475   5.116   8.369   7.237
17506SOL    HW152476   5.133   8.463   7.232
17506SOL    HW252477   5.108   8.341   7.146
17507SOL     OW52478   4.542   8.017   5.957
17507SOL    HW152479   4.552   7.943   5.898
17507SOL    HW252480   4.465   8.064   5.926
17508SOL     OW52481   5.359   8.050   6.749
17508SOL    HW152482   5.349   7.990   6.823
17508SOL    HW252483   5.450   8.039   6.721
17509SOL     OW52484   3.949   8.986   7.311
17509SOL    HW152485   3.923   9.032   7.391
17509SOL    HW252486   3.962   8.895   7.338
17510SOL     OW52487   4.458   7.880   6.820
17510SOL    HW152488   4.394   7.811   6.805
17510SOL    HW252489   4.440   7.944   6.751
17511SOL     OW52490   4.625   9.130   7.078
17511SOL    HW152491   4.604   9.081   6.998
17511SOL    HW252492   4.629   9.221   7.049
17512SOL     OW52493   4.166   7.929   5.750
17512SOL    HW152494   4.231   7.995   5.774
17512SOL    HW252495   4.082   7.975   5.754
17513SOL     OW52496   3.854   8.598   7.066
17513SOL    HW152497   3.858   8.558   7.153
17513SOL    HW252498   3.875   8.527   7.006
17514SOL     OW52499   5.028   8.482   6.794
17514SOL    HW152500   5.037   8.418   6.724
17514SOL    HW252501   4.974   8.552   6.757
17515SOL     OW52502   5.049   8.309   5.878
17515SOL    HW152503   4.979   8.271   5.932
17515SOL    HW252504   5.021   8.292   5.788
17516SOL     OW52505   5.513   9.170   6.758
17516SOL    HW152506   5.574   9.196   6.689
17516SOL    HW252507   5.479   9.085   6.730
17517SOL     OW52508   4.965   9.180   6.680
17517SOL    HW152509   5.048   9.210   6.644
17517SOL    HW252510   4.979   9.088   6.703
17518SOL     OW52511   3.830   8.696   6.594
17518SOL    HW152512   3.802   8.717   6.683
17518SOL    HW252513   3.759   8.642   6.559
17519SOL     OW52514   4.414   9.129   7.335
17519SOL    HW152515   4.350   9.198   7.322
17519SOL    HW252516   4.486   9.151   7.275
17520SOL     OW52517   5.471   7.633   6.083
17520SOL    HW152518   5.529   7.613   6.010
17520SOL    HW252519   5.442   7.548   6.115
17521SOL     OW52520   5.121   9.016   6.090
17521SOL    HW152521   5.176   9.051   6.019
17521SOL    HW252522   5.066   9.090   6.117
17522SOL     OW52523   3.855   9.257   7.430
17522SOL    HW152524   3.817   9.179   7.471
17522SOL    HW252525   3.908   9.297   7.499
17523SOL     OW52526   5.003   8.385   6.252
17523SOL    HW152527   5.076   8.325   6.265
17523SOL    HW252528   5.039   8.456   6.199
17524SOL     OW52529   4.508   8.728   6.999
17524SOL    HW152530   4.481   8.775   7.078
17524SOL    HW252531   4.433   8.737   6.939
17525SOL     OW52532   4.392   9.085   5.746
17525SOL    HW152533   4.409   9.098   5.653
17525SOL    HW252534   4.340   9.005   5.750
17526SOL     OW52535   5.341   9.176   6.988
17526SOL    HW152536   5.398   9.175   6.911
17526SOL    HW252537   5.324   9.269   7.004
17527SOL     OW52538   5.569   7.607   6.551
17527SOL    HW152539   5.598   7.518   6.530
17527SOL    HW252540   5.482   7.615   6.513
17528SOL     OW52541   3.967   7.754   6.294
17528SOL    HW152542   3.882   7.791   6.273
17528SOL    HW252543   3.971   7.756   6.390
17529SOL     OW52544   4.933   9.034   5.625
17529SOL    HW152545   4.923   8.943   5.653
17529SOL    HW252546   4.863   9.047   5.560
17530SOL     OW52547   4.547   8.458   6.972
17530SOL    HW152548   4.585   8.448   6.884
17530SOL    HW252549   4.537   8.553   6.982
17531SOL     OW52550   4.645   8.360   5.880
17531SOL    HW152551   4.702   8.393   5.811
17531SOL    HW252552   4.697   8.292   5.923
17532SOL     OW52553   5.206   9.094   5.644
17532SOL    HW152554   5.114   9.072   5.626
17532SOL    HW252555   5.246   9.097   5.557
17533SOL     OW52556   4.086   8.761   7.089
17533SOL    HW152557   4.079   8.834   7.026
17533SOL    HW252558   4.009   8.707   7.071
17534SOL     OW52559   5.323   8.737   6.863
17534SOL    HW152560   5.377   8.713   6.937
17534SOL    HW252561   5.264   8.804   6.897
17535SOL     OW52562   4.800   8.568   6.315
17535SOL    HW152563   4.725   8.518   6.346
17535SOL    HW252564   4.863   8.502   6.286
17536SOL     OW52565   4.757   7.697   6.546
17536SOL    HW152566   4.755   7.655   6.460
17536SOL    HW252567   4.750   7.625   6.609
17537SOL     OW52568   4.327   8.933   6.060
17537SOL    HW152569   4.383   8.884   5.999
17537SOL    HW252570   4.244   8.944   6.013
17538SOL     OW52571   5.470   7.829   6.974
17538SOL    HW152572   5.540   7.894   6.970
17538SOL    HW252573   5.496   7.760   6.914
17539SOL     OW52574   4.003   8.789   5.885
17539SOL    HW152575   3.916   8.781   5.846
17539SOL    HW252576   3.989   8.837   5.966
17540SOL     OW52577   3.844   8.494   7.321
17540SOL    HW152578   3.767   8.466   7.370
17540SOL    HW252579   3.916   8.443   7.358
17541SOL     OW52580   4.403   7.637   7.082
17541SOL    HW152581   4.486   7.611   7.043
17541SOL    HW252582   4.426   7.670   7.168
17542SOL     OW52583   3.809   7.766   5.603
17542SOL    HW152584   3.732   7.744   5.549
17542SOL    HW252585   3.837   7.852   5.570
17543SOL     OW52586   5.139   8.302   6.974
17543SOL    HW152587   5.087   8.360   6.919
17543SOL    HW252588   5.227   8.306   6.936
17544SOL     OW52589   3.768   7.597   5.858
17544SOL    HW152590   3.756   7.667   5.793
17544SOL    HW252591   3.857   7.565   5.842
17545SOL     OW52592   4.908   8.768   5.710
17545SOL    HW152593   4.820   8.733   5.710
17545SOL    HW252594   4.932   8.773   5.802
17546SOL     OW52595   4.349   8.279   7.028
17546SOL    HW152596   4.408   8.354   7.016
17546SOL    HW252597   4.407   8.203   7.027
17547SOL     OW52598   5.209   9.243   6.576
17547SOL    HW152599   5.234   9.320   6.526
17547SOL    HW252600   5.292   9.199   6.595
17548SOL     OW52601   4.449   7.995   7.273
17548SOL    HW152602   4.496   8.049   7.336
17548SOL    HW252603   4.460   7.906   7.304
17549SOL     OW52604   5.192   8.633   7.205
17549SOL    HW152605   5.186   8.654   7.298
17549SOL    HW252606   5.282   8.656   7.181
17550SOL     OW52607   4.075   9.189   7.163
17550SOL    HW152608   3.994   9.235   7.145
17550SOL    HW252609   4.048   9.106   7.202
17551SOL     OW52610   5.379   8.323   6.839
17551SOL    HW152611   5.377   8.239   6.793
17551SOL    HW252612   5.368   8.388   6.770
17552SOL     OW52613   4.945   7.771   6.041
17552SOL    HW152614   5.005   7.696   6.040
17552SOL    HW252615   4.974   7.822   6.117
17553SOL     OW52616   4.299   8.175   6.267
17553SOL    HW152617   4.343   8.259   6.252
17553SOL    HW252618   4.238   8.166   6.194
17554SOL     OW52619   5.471   7.803   7.251
17554SOL    HW152620   5.468   7.819   7.156
17554SOL    HW252621   5.394   7.750   7.269
17555SOL     OW52622   5.484   8.372   7.089
17555SOL    HW152623   5.467   8.465   7.102
17555SOL    HW252624   5.457   8.355   6.999
17556SOL     OW52625   4.590   8.806   5.646
17556SOL    HW152626   4.555   8.824   5.734
17556SOL    HW252627   4.603   8.892   5.608
17557SOL     OW52628   4.392   9.215   6.509
17557SOL    HW152629   4.373   9.309   6.501
17557SOL    HW252630   4.487   9.209   6.509
17558SOL     OW52631   4.596   8.425   6.441
17558SOL    HW152632   4.646   8.351   6.476
17558SOL    HW252633   4.550   8.461   6.518
17559SOL     OW52634   4.799   8.435   5.673
17559SOL    HW152635   4.777   8.486   5.595
17559SOL    HW252636   4.872   8.380   5.645
17560SOL     OW52637   5.556   9.004   6.425
17560SOL    HW152638   5.479   8.996   6.369
17560SOL    HW252639   5.536   8.949   6.501
17561SOL     OW52640   3.936   8.732   7.422
17561SOL    HW152641   3.904   8.652   7.379
17561SOL    HW252642   3.877   8.744   7.496
17562SOL     OW52643   3.842   8.674   6.253
17562SOL    HW152644   3.871   8.632   6.334
17562SOL    HW252645   3.901   8.640   6.186
17563SOL     OW52646   4.415   8.866   7.218
17563SOL    HW152647   4.338   8.827   7.260
17563SOL    HW252648   4.420   8.954   7.255
17564SOL     OW52649   5.535   7.618   6.821
17564SOL    HW152650   5.536   7.523   6.834
17564SOL    HW252651   5.548   7.630   6.727
17565SOL     OW52652   4.142   7.871   6.104
17565SOL    HW152653   4.176   7.800   6.049
17565SOL    HW252654   4.091   7.826   6.171
17566SOL     OW52655   5.418   8.928   6.669
17566SOL    HW152656   5.341   8.909   6.616
17566SOL    HW252657   5.418   8.860   6.736
17567SOL     OW52658   4.077   8.014   6.878
17567SOL    HW152659   4.126   7.949   6.928
17567SOL    HW252660   4.084   7.984   6.787
17568SOL     OW52661   4.560   9.024   6.259
17568SOL    HW152662   4.524   9.087   6.196
17568SOL    HW252663   4.488   8.962   6.274
17569SOL     OW52664   5.144   7.680   6.699
17569SOL    HW152665   5.151   7.590   6.729
17569SOL    HW252666   5.099   7.726   6.770
17570SOL     OW52667   4.734   7.465   6.705
17570SOL    HW152668   4.681   7.402   6.656
17570SOL    HW252669   4.821   7.425   6.710
17571SOL     OW52670   4.505   8.780   5.914
17571SOL    HW152671   4.481   8.688   5.926
17571SOL    HW252672   4.585   8.791   5.965
17572SOL     OW52673   4.339   9.015   6.873
17572SOL    HW152674   4.334   9.099   6.920
17572SOL    HW252675   4.429   9.012   6.840
17573SOL     OW52676   5.105   7.486   5.777
17573SOL    HW152677   5.146   7.413   5.729
17573SOL    HW252678   5.014   7.459   5.787
17574SOL     OW52679   5.021   7.920   6.260
17574SOL    HW152680   4.970   8.001   6.258
17574SOL    HW252681   5.015   7.890   6.351
17575SOL     OW52682   5.307   7.636   6.479
17575SOL    HW152683   5.254   7.665   6.553
17575SOL    HW252684   5.308   7.710   6.418
17576SOL     OW52685   3.761   8.499   5.894
17576SOL    HW152686   3.854   8.487   5.875
17576SOL    HW252687   3.729   8.411   5.914
17577SOL     OW52688   4.618   9.125   5.921
17577SOL    HW152689   4.539   9.110   5.868
17577SOL    HW252690   4.594   9.197   5.979
17578SOL     OW52691   3.932   8.071   7.596
17578SOL    HW152692   3.844   8.058   7.632
17578SOL    HW252693   3.921   8.056   7.502
17579SOL     OW52694   3.943   7.737   8.438
17579SOL    HW152695   3.973   7.701   8.521
17579SOL    HW252696   3.856   7.699   8.426
17580SOL     OW52697   3.711   7.844   8.094
17580SOL    HW152698   3.631   7.869   8.141
17580SOL    HW252699   3.684   7.771   8.039
17581SOL     OW52700   4.299   8.755   8.656
17581SOL    HW152701   4.216   8.757   8.608
17581SOL    HW252702   4.316   8.846   8.680
17582SOL     OW52703   5.312   8.971   8.153
17582SOL    HW152704   5.265   8.940   8.231
17582SOL    HW252705   5.245   8.973   8.085
17583SOL     OW52706   4.862   8.152   8.134
17583SOL    HW152707   4.908   8.236   8.123
17583SOL    HW252708   4.813   8.163   8.216
17584SOL     OW52709   5.524   8.029   7.668
17584SOL    HW152710   5.486   8.029   7.580
17584SOL    HW252711   5.481   7.958   7.714
17585SOL     OW52712   4.451   8.577   8.506
17585SOL    HW152713   4.392   8.617   8.570
17585SOL    HW252714   4.494   8.651   8.462
17586SOL     OW52715   4.612   8.192   9.275
17586SOL    HW152716   4.612   8.260   9.342
17586SOL    HW252717   4.628   8.239   9.193
17587SOL     OW52718   4.410   8.433   8.092
17587SOL    HW152719   4.477   8.433   8.160
17587SOL    HW252720   4.344   8.495   8.123
17588SOL     OW52721   4.436   8.599   9.273
17588SOL    HW152722   4.487   8.672   9.307
17588SOL    HW252723   4.358   8.641   9.234
17589SOL     OW52724   4.067   8.844   8.517
17589SOL    HW152725   3.991   8.802   8.477
17589SOL    HW252726   4.103   8.899   8.447
17590SOL     OW52727   5.178   8.953   8.819
17590SOL    HW152728   5.233   9.031   8.830
17590SOL    HW252729   5.106   8.965   8.882
17591SOL     OW52730   4.181   7.822   8.905
17591SOL    HW152731   4.256   7.765   8.920
17591SOL    HW252732   4.105   7.770   8.931
17592SOL     OW52733   5.309   7.880   8.203
17592SOL    HW152734   5.243   7.890   8.134
17592SOL    HW252735   5.290   7.950   8.265
17593SOL     OW52736   3.942   9.178   7.913
17593SOL    HW152737   3.969   9.249   7.971
17593SOL    HW252738   4.016   9.167   7.853
17594SOL     OW52739   4.859   8.790   9.142
17594SOL    HW152740   4.902   8.780   9.226
17594SOL    HW252741   4.806   8.710   9.132
17595SOL     OW52742   3.957   8.906   7.981
17595SOL    HW152743   3.935   9.000   7.985
17595SOL    HW252744   3.907   8.867   8.052
17596SOL     OW52745   4.010   8.537   8.327
17596SOL    HW152746   4.010   8.448   8.361
17596SOL    HW252747   3.953   8.585   8.388
17597SOL     OW52748   4.299   9.246   8.870
17597SOL    HW152749   4.221   9.229   8.922
17597SOL    HW252750   4.329   9.332   8.900
17598SOL     OW52751   4.289   8.435   7.600
17598SOL    HW152752   4.340   8.478   7.531
17598SOL    HW252753   4.330   8.465   7.682
17599SOL     OW52754   5.314   7.581   8.905
17599SOL    HW152755   5.353   7.658   8.862
17599SOL    HW252756   5.282   7.614   8.989
17600SOL     OW52757   3.843   8.107   8.015
17600SOL    HW152758   3.811   8.019   8.038
17600SOL    HW252759   3.837   8.157   8.096
17601SOL     OW52760   5.571   9.188   7.764
17601SOL    HW152761   5.642   9.173   7.827
17601SOL    HW252762   5.579   9.281   7.740
17602SOL     OW52763   3.785   9.027   7.557
17602SOL    HW152764   3.764   8.935   7.575
17602SOL    HW252765   3.753   9.075   7.633
17603SOL     OW52766   5.422   8.374   8.100
17603SOL    HW152767   5.503   8.328   8.077
17603SOL    HW252768   5.400   8.426   8.023
17604SOL     OW52769   5.381   8.552   7.880
17604SOL    HW152770   5.465   8.544   7.837
17604SOL    HW252771   5.395   8.618   7.949
17605SOL     OW52772   3.844   8.196   9.026
17605SOL    HW152773   3.930   8.240   9.029
17605SOL    HW252774   3.782   8.267   9.013
17606SOL     OW52775   4.347   8.846   8.178
17606SOL    HW152776   4.305   8.760   8.183
17606SOL    HW252777   4.331   8.875   8.088
17607SOL     OW52778   4.995   8.674   8.865
17607SOL    HW152779   5.023   8.605   8.805
17607SOL    HW252780   5.056   8.668   8.939
17608SOL     OW52781   4.555   7.460   7.967
17608SOL    HW152782   4.595   7.542   7.939
17608SOL    HW252783   4.461   7.478   7.967
17609SOL     OW52784   3.911   8.404   8.749
17609SOL    HW152785   3.998   8.369   8.733
17609SOL    HW252786   3.857   8.369   8.678
17610SOL     OW52787   5.259   8.463   7.647
17610SOL    HW152788   5.190   8.403   7.677
17610SOL    HW252789   5.301   8.493   7.728
17611SOL     OW52790   4.904   9.269   9.080
17611SOL    HW152791   4.905   9.330   9.006
17611SOL    HW252792   4.920   9.183   9.040
17612SOL     OW52793   4.084   7.702   9.323
17612SOL    HW152794   4.120   7.781   9.363
17612SOL    HW252795   3.989   7.718   9.319
17613SOL     OW52796   5.196   8.865   8.379
17613SOL    HW152797   5.132   8.884   8.448
17613SOL    HW252798   5.178   8.774   8.355
17614SOL     OW52799   5.369   9.230   8.015
17614SOL    HW152800   5.346   9.188   7.932
17614SOL    HW252801   5.363   9.160   8.080
17615SOL     OW52802   4.311   8.147   7.720
17615SOL    HW152803   4.314   8.235   7.681
17615SOL    HW252804   4.246   8.154   7.790
17616SOL     OW52805   5.006   7.842   8.389
17616SOL    HW152806   4.917   7.806   8.394
17616SOL    HW252807   5.058   7.783   8.444
17617SOL     OW52808   5.303   9.120   7.767
17617SOL    HW152809   5.397   9.135   7.756
17617SOL    HW252810   5.269   9.108   7.679
17618SOL     OW52811   4.513   8.061   8.879
17618SOL    HW152812   4.490   8.032   8.967
17618SOL    HW252813   4.489   7.988   8.822
17619SOL     OW52814   5.115   7.923   9.118
17619SOL    HW152815   5.120   7.967   9.203
17619SOL    HW252816   5.165   7.842   9.130
17620SOL     OW52817   4.669   8.328   9.040
17620SOL    HW152818   4.724   8.264   8.995
17620SOL    HW252819   4.620   8.370   8.969
17621SOL     OW52820   4.731   7.846   8.657
17621SOL    HW152821   4.639   7.858   8.679
17621SOL    HW252822   4.729   7.802   8.571
17622SOL     OW52823   4.782   8.145   7.866
17622SOL    HW152824   4.803   8.142   7.960
17622SOL    HW252825   4.698   8.101   7.859
17623SOL     OW52826   3.817   8.273   8.231
17623SOL    HW152827   3.899   8.268   8.280
17623SOL    HW252828   3.769   8.345   8.272
17624SOL     OW52829   3.830   9.318   9.037
17624SOL    HW152830   3.840   9.300   9.131
17624SOL    HW252831   3.746   9.277   9.014
17625SOL     OW52832   4.612   7.799   7.648
17625SOL    HW152833   4.664   7.852   7.587
17625SOL    HW252834   4.588   7.721   7.598
17626SOL     OW52835   5.406   8.009   9.285
17626SOL    HW152836   5.386   8.088   9.234
17626SOL    HW252837   5.435   7.945   9.219
17627SOL     OW52838   5.117   8.598   7.992
17627SOL    HW152839   5.196   8.586   7.939
17627SOL    HW252840   5.063   8.658   7.940
17628SOL     OW52841   4.275   7.608   8.363
17628SOL    HW152842   4.281   7.637   8.454
17628SOL    HW252843   4.271   7.690   8.312
17629SOL     OW52844   4.721   8.903   7.913
17629SOL    HW152845   4.696   8.978   7.860
17629SOL    HW252846   4.692   8.925   8.002
17630SOL     OW52847   4.078   9.264   8.326
17630SOL    HW152848   4.124   9.180   8.331
17630SOL    HW252849   4.145   9.329   8.347
17631SOL     OW52850   5.528   8.492   8.337
17631SOL    HW152851   5.481   8.476   8.255
17631SOL    HW252852   5.460   8.501   8.403
17632SOL     OW52853   4.941   8.991   8.963
17632SOL    HW152854   4.930   8.920   9.026
17632SOL    HW252855   4.876   8.973   8.895
17633SOL     OW52856   4.024   8.406   7.714
17633SOL    HW152857   4.107   8.427   7.670
17633SOL    HW252858   4.001   8.319   7.681
17634SOL     OW52859   5.208   8.212   8.159
17634SOL    HW152860   5.210   8.168   8.244
17634SOL    HW252861   5.288   8.265   8.157
17635SOL     OW52862   4.195   8.734   9.196
17635SOL    HW152863   4.171   8.738   9.104
17635SOL    HW252864   4.112   8.723   9.242
17636SOL     OW52865   4.858   9.223   7.672
17636SOL    HW152866   4.778   9.192   7.713
17636SOL    HW252867   4.879   9.157   7.606
17637SOL     OW52868   3.932   7.703   8.947
17637SOL    HW152869   3.858   7.763   8.960
17637SOL    HW252870   3.902   7.619   8.982
17638SOL     OW52871   5.363   8.837   7.548
17638SOL    HW152872   5.321   8.922   7.535
17638SOL    HW252873   5.296   8.773   7.521
17639SOL     OW52874   4.181   9.192   7.762
17639SOL    HW152875   4.230   9.242   7.827
17639SOL    HW252876   4.248   9.150   7.709
17640SOL     OW52877   5.121   7.553   7.907
17640SOL    HW152878   5.120   7.529   7.814
17640SOL    HW252879   5.211   7.539   7.934
17641SOL     OW52880   3.976   9.232   8.660
17641SOL    HW152881   4.025   9.157   8.694
17641SOL    HW252882   3.960   9.211   8.568
17642SOL     OW52883   4.671   9.146   8.338
17642SOL    HW152884   4.757   9.106   8.351
17642SOL    HW252885   4.631   9.094   8.268
17643SOL     OW52886   4.119   8.133   7.921
17643SOL    HW152887   4.132   8.039   7.933
17643SOL    HW252888   4.026   8.147   7.938
17644SOL     OW52889   5.232   7.669   9.163
17644SOL    HW152890   5.244   7.689   9.255
17644SOL    HW252891   5.168   7.597   9.162
17645SOL     OW52892   4.387   7.557   7.551
17645SOL    HW152893   4.435   7.478   7.576
17645SOL    HW252894   4.326   7.527   7.484
17646SOL     OW52895   4.482   7.720   9.202
17646SOL    HW152896   4.566   7.675   9.201
17646SOL    HW252897   4.435   7.682   9.276
17647SOL     OW52898   4.594   8.975   8.647
17647SOL    HW152899   4.576   8.933   8.563
17647SOL    HW252900   4.661   8.921   8.688
17648SOL     OW52901   5.054   8.040   8.879
17648SOL    HW152902   5.086   8.009   8.963
17648SOL    HW252903   5.093   8.127   8.868
17649SOL     OW52904   4.540   8.823   8.406
17649SOL    HW152905   4.628   8.819   8.367
17649SOL    HW252906   4.482   8.838   8.332
17650SOL     OW52907   4.654   7.963   8.336
17650SOL    HW152908   4.629   7.952   8.244
17650SOL    HW252909   4.682   7.876   8.364
17651SOL     OW52910   4.288   7.511   7.938
17651SOL    HW152911   4.210   7.512   7.993
17651SOL    HW252912   4.276   7.586   7.879
17652SOL     OW52913   5.159   8.661   7.480
17652SOL    HW152914   5.188   8.586   7.533
17652SOL    HW252915   5.073   8.683   7.516
17653SOL     OW52916   4.006   7.496   7.636
17653SOL    HW152917   4.059   7.563   7.593
17653SOL    HW252918   4.070   7.438   7.677
17654SOL     OW52919   4.676   7.699   7.899
17654SOL    HW152920   4.650   7.734   7.813
17654SOL    HW252921   4.770   7.716   7.904
17655SOL     OW52922   4.799   8.141   8.891
17655SOL    HW152923   4.737   8.069   8.897
17655SOL    HW252924   4.885   8.099   8.888
17656SOL     OW52925   4.930   9.036   8.252
17656SOL    HW152926   4.945   9.095   8.178
17656SOL    HW252927   5.003   9.052   8.311
17657SOL     OW52928   4.206   8.610   8.156
17657SOL    HW152929   4.144   8.585   8.225
17657SOL    HW252930   4.156   8.603   8.075
17658SOL     OW52931   4.976   9.237   8.063
17658SOL    HW152932   5.024   9.300   8.010
17658SOL    HW252933   4.903   9.287   8.100
17659SOL     OW52934   4.756   7.962   7.478
17659SOL    HW152935   4.714   8.046   7.459
17659SOL    HW252936   4.820   7.983   7.546
17660SOL     OW52937   3.824   7.998   8.839
17660SOL    HW152938   3.916   8.000   8.813
17660SOL    HW252939   3.816   8.068   8.905
17661SOL     OW52940   4.283   7.669   8.633
17661SOL    HW152941   4.320   7.604   8.692
17661SOL    HW252942   4.190   7.670   8.653
17662SOL     OW52943   4.594   7.903   8.077
17662SOL    HW152944   4.555   7.958   8.010
17662SOL    HW252945   4.619   7.823   8.031
17663SOL     OW52946   4.745   7.507   8.188
17663SOL    HW152947   4.684   7.501   8.114
17663SOL    HW252948   4.721   7.434   8.245
17664SOL     OW52949   5.158   8.601   8.302
17664SOL    HW152950   5.089   8.536   8.311
17664SOL    HW252951   5.172   8.608   8.208
17665SOL     OW52952   5.187   8.065   8.396
17665SOL    HW152953   5.123   7.994   8.407
17665SOL    HW252954   5.242   8.058   8.474
17666SOL     OW52955   5.553   8.244   7.836
17666SOL    HW152956   5.613   8.201   7.896
17666SOL    HW252957   5.539   8.181   7.766
17667SOL     OW52958   4.222   8.873   7.599
17667SOL    HW152959   4.147   8.840   7.648
17667SOL    HW252960   4.219   8.824   7.517
17668SOL     OW52961   5.432   8.719   8.081
17668SOL    HW152962   5.525   8.713   8.102
17668SOL    HW252963   5.408   8.808   8.107
17669SOL     OW52964   5.116   8.023   7.513
17669SOL    HW152965   5.060   7.996   7.586
17669SOL    HW252966   5.205   7.998   7.541
17670SOL     OW52967   4.251   7.705   7.750
17670SOL    HW152968   4.305   7.663   7.683
17670SOL    HW252969   4.219   7.785   7.708
17671SOL     OW52970   5.459   8.691   8.980
17671SOL    HW152971   5.547   8.657   8.966
17671SOL    HW252972   5.472   8.778   9.017
17672SOL     OW52973   4.766   8.804   8.784
17672SOL    HW152974   4.689   8.769   8.828
17672SOL    HW252975   4.840   8.758   8.824
17673SOL     OW52976   5.332   9.083   9.113
17673SOL    HW152977   5.323   9.119   9.024
17673SOL    HW252978   5.409   9.027   9.108
17674SOL     OW52979   4.875   8.686   8.554
17674SOL    HW152980   4.813   8.720   8.618
17674SOL    HW252981   4.842   8.718   8.470
17675SOL     OW52982   5.334   8.539   8.524
17675SOL    HW152983   5.326   8.605   8.593
17675SOL    HW252984   5.264   8.560   8.463
17676SOL     OW52985   4.642   7.530   8.831
17676SOL    HW152986   4.663   7.514   8.738
17676SOL    HW252987   4.721   7.570   8.867
17677SOL     OW52988   4.705   8.562   9.171
17677SOL    HW152989   4.614   8.580   9.197
17677SOL    HW252990   4.700   8.482   9.120
17678SOL     OW52991   4.438   8.510   7.824
17678SOL    HW152992   4.423   8.484   7.915
17678SOL    HW252993   4.513   8.457   7.796
17679SOL     OW52994   4.151   8.276   8.707
17679SOL    HW152995   4.218   8.286   8.774
17679SOL    HW252996   4.120   8.186   8.717
17680SOL     OW52997   4.988   7.815   8.740
17680SOL    HW152998   5.016   7.896   8.783
17680SOL    HW252999   4.899   7.834   8.710
17681SOL     OW53000   3.802   9.017   8.810
17681SOL    HW153001   3.772   9.088   8.753
17681SOL    HW253002   3.897   9.017   8.800
17682SOL     OW53003   4.041   8.582   7.934
17682SOL    HW153004   4.042   8.654   7.870
17682SOL    HW253005   4.039   8.503   7.881
17683SOL     OW53006   4.258   7.965   8.307
17683SOL    HW153007   4.270   8.023   8.233
17683SOL    HW253008   4.326   7.990   8.369
17684SOL     OW53009   4.971   8.802   7.846
17684SOL    HW153010   5.027   8.871   7.880
17684SOL    HW253011   4.883   8.825   7.876
17685SOL     OW53012   5.033   8.915   8.590
17685SOL    HW153013   5.081   8.922   8.673
17685SOL    HW253014   4.982   8.835   8.598
17686SOL     OW53015   5.298   8.064   7.935
17686SOL    HW153016   5.247   8.106   8.004
17686SOL    HW253017   5.346   8.136   7.894
17687SOL     OW53018   4.069   8.979   8.750
17687SOL    HW153019   4.061   8.926   8.670
17687SOL    HW253020   4.162   8.995   8.759
17688SOL     OW53021   4.153   8.196   9.065
17688SOL    HW153022   4.213   8.239   9.004
17688SOL    HW253023   4.194   8.112   9.084
17689SOL     OW53024   5.351   8.236   9.148
17689SOL    HW153025   5.263   8.274   9.138
17689SOL    HW253026   5.402   8.274   9.077
17690SOL     OW53027   4.719   7.590   9.210
17690SOL    HW153028   4.778   7.663   9.188
17690SOL    HW253029   4.770   7.512   9.186
17691SOL     OW53030   4.220   7.483   9.211
17691SOL    HW153031   4.166   7.433   9.150
17691SOL    HW253032   4.167   7.560   9.232
17692SOL     OW53033   4.316   8.322   8.487
17692SOL    HW153034   4.354   8.410   8.490
17692SOL    HW253035   4.258   8.318   8.563
17693SOL     OW53036   5.032   8.301   8.451
17693SOL    HW153037   4.944   8.274   8.426
17693SOL    HW253038   5.087   8.225   8.432
17694SOL     OW53039   4.923   7.971   7.705
17694SOL    HW153040   4.933   7.894   7.762
17694SOL    HW253041   4.881   8.036   7.761
17695SOL     OW53042   4.016   7.642   8.687
17695SOL    HW153043   3.981   7.669   8.772
17695SOL    HW253044   3.999   7.547   8.684
17696SOL     OW53045   3.775   8.759   8.713
17696SOL    HW153046   3.804   8.703   8.785
17696SOL    HW253047   3.777   8.848   8.749
17697SOL     OW53048   4.436   8.069   8.487
17697SOL    HW153049   4.513   8.062   8.431
17697SOL    HW253050   4.408   8.160   8.477
17698SOL     OW53051   5.479   8.419   9.317
17698SOL    HW153052   5.435   8.347   9.272
17698SOL    HW253053   5.421   8.441   9.390
17699SOL     OW53054   4.049   7.508   8.076
17699SOL    HW153055   4.016   7.596   8.094
17699SOL    HW253056   4.055   7.466   8.162
17700SOL     OW53057   5.356   7.838   7.792
17700SOL    HW153058   5.388   7.772   7.854
17700SOL    HW253059   5.326   7.910   7.847
17701SOL     OW53060   4.758   8.207   8.404
17701SOL    HW153061   4.736   8.221   8.496
17701SOL    HW253062   4.728   8.117   8.386
17702SOL     OW53063   4.706   9.015   9.181
17702SOL    HW153064   4.684   9.058   9.098
17702SOL    HW253065   4.744   8.931   9.155
17703SOL     OW53066   5.562   8.942   9.049
17703SOL    HW153067   5.589   8.970   8.962
17703SOL    HW253068   5.640   8.953   9.103
17704SOL     OW53069   4.074   8.364   9.267
17704SOL    HW153070   4.153   8.384   9.316
17704SOL    HW253071   4.102   8.302   9.199
17705SOL     OW53072   5.244   7.717   7.567
17705SOL    HW153073   5.192   7.646   7.604
17705SOL    HW253074   5.284   7.760   7.643
17706SOL     OW53075   5.005   8.270   7.467
17706SOL    HW153076   5.044   8.183   7.475
17706SOL    HW253077   5.042   8.306   7.387
17707SOL     OW53078   4.794   8.801   8.315
17707SOL    HW153079   4.805   8.728   8.253
17707SOL    HW253080   4.846   8.872   8.277
17708SOL     OW53081   4.042   8.264   8.392
17708SOL    HW153082   4.137   8.278   8.390
17708SOL    HW253083   4.032   8.174   8.423
17709SOL     OW53084   4.037   7.986   8.459
17709SOL    HW153085   3.998   7.899   8.449
17709SOL    HW253086   4.114   7.984   8.403
17710SOL     OW53087   4.862   7.816   9.133
17710SOL    HW153088   4.817   7.868   9.199
17710SOL    HW253089   4.947   7.858   9.123
17711SOL     OW53090   4.879   7.637   8.922
17711SOL    HW153091   4.868   7.700   8.994
17711SOL    HW253092   4.926   7.687   8.854
17712SOL     OW53093   3.748   8.750   7.627
17712SOL    HW153094   3.659   8.773   7.602
17712SOL    HW253095   3.741   8.664   7.668
17713SOL     OW53096   3.818   9.217   8.399
17713SOL    HW153097   3.784   9.143   8.348
17713SOL    HW253098   3.904   9.234   8.361
17714SOL     OW53099   4.209   9.017   8.349
17714SOL    HW153100   4.279   9.079   8.371
17714SOL    HW253101   4.249   8.956   8.287
17715SOL     OW53102   4.672   8.229   8.662
17715SOL    HW153103   4.734   8.217   8.734
17715SOL    HW253104   4.593   8.183   8.691
17716SOL     OW53105   3.763   8.020   8.569
17716SOL    HW153106   3.844   8.017   8.518
17716SOL    HW253107   3.791   8.012   8.660
17717SOL     OW53108   3.911   7.982   9.187
17717SOL    HW153109   3.978   7.946   9.130
17717SOL    HW253110   3.876   8.057   9.139
17718SOL     OW53111   5.115   8.369   9.098
17718SOL    HW153112   5.132   8.463   9.094
17718SOL    HW253113   5.108   8.341   9.007
17719SOL     OW53114   4.542   8.017   7.820
17719SOL    HW153115   4.551   7.943   7.760
17719SOL    HW253116   4.465   8.064   7.788
17720SOL     OW53117   5.359   8.050   8.611
17720SOL    HW153118   5.349   7.990   8.685
17720SOL    HW253119   5.450   8.038   8.583
17721SOL     OW53120   3.948   8.989   9.170
17721SOL    HW153121   3.929   9.043   9.247
17721SOL    HW253122   3.959   8.900   9.205
17722SOL     OW53123   4.458   7.881   8.682
17722SOL    HW153124   4.394   7.811   8.667
17722SOL    HW253125   4.440   7.945   8.613
17723SOL     OW53126   4.626   9.129   8.938
17723SOL    HW153127   4.605   9.080   8.858
17723SOL    HW253128   4.629   9.221   8.909
17724SOL     OW53129   4.166   7.929   7.612
17724SOL    HW153130   4.231   7.995   7.637
17724SOL    HW253131   4.082   7.975   7.616
17725SOL     OW53132   3.854   8.598   8.928
17725SOL    HW153133   3.858   8.559   9.015
17725SOL    HW253134   3.875   8.526   8.869
17726SOL     OW53135   5.028   8.483   8.656
17726SOL    HW153136   5.037   8.419   8.585
17726SOL    HW253137   4.975   8.553   8.619
17727SOL     OW53138   5.050   8.308   7.739
17727SOL    HW153139   4.979   8.272   7.793
17727SOL    HW253140   5.021   8.293   7.649
17728SOL     OW53141   5.513   9.170   8.618
17728SOL    HW153142   5.573   9.197   8.549
17728SOL    HW253143   5.480   9.085   8.590
17729SOL     OW53144   4.964   9.180   8.542
17729SOL    HW153145   5.048   9.210   8.506
17729SOL    HW253146   4.979   9.088   8.565
17730SOL     OW53147   3.830   8.696   8.456
17730SOL    HW153148   3.802   8.717   8.545
17730SOL    HW253149   3.759   8.642   8.421
17731SOL     OW53150   4.414   9.128   9.199
17731SOL    HW153151   4.350   9.198   9.185
17731SOL    HW253152   4.487   9.150   9.141
17732SOL     OW53153   5.469   7.632   7.944
17732SOL    HW153154   5.528   7.612   7.872
17732SOL    HW253155   5.442   7.547   7.978
17733SOL     OW53156   5.121   9.016   7.951
17733SOL    HW153157   5.175   9.051   7.881
17733SOL    HW253158   5.066   9.090   7.979
17734SOL     OW53159   3.863   9.252   9.296
17734SOL    HW153160   3.819   9.179   9.340
17734SOL    HW253161   3.914   9.295   9.365
17735SOL     OW53162   5.003   8.384   8.113
17735SOL    HW153163   5.076   8.325   8.126
17735SOL    HW253164   5.039   8.456   8.060
17736SOL     OW53165   4.507   8.728   8.861
17736SOL    HW153166   4.480   8.775   8.939
17736SOL    HW253167   4.433   8.737   8.800
17737SOL     OW53168   4.392   9.085   7.608
17737SOL    HW153169   4.409   9.098   7.515
17737SOL    HW253170   4.340   9.004   7.612
17738SOL     OW53171   5.340   9.178   8.846
17738SOL    HW153172   5.398   9.177   8.769
17738SOL    HW253173   5.323   9.270   8.863
17739SOL     OW53174   5.569   7.608   8.413
17739SOL    HW153175   5.597   7.519   8.391
17739SOL    HW253176   5.482   7.615   8.374
17740SOL     OW53177   3.967   7.754   8.156
17740SOL    HW153178   3.881   7.791   8.135
17740SOL    HW253179   3.971   7.756   8.252
17741SOL     OW53180   4.933   9.035   7.486
17741SOL    HW153181   4.924   8.944   7.514
17741SOL    HW253182   4.863   9.048   7.422
17742SOL     OW53183   4.547   8.459   8.833
17742SOL    HW153184   4.584   8.449   8.745
17742SOL    HW253185   4.536   8.553   8.844
17743SOL     OW53186   4.645   8.359   7.742
17743SOL    HW153187   4.702   8.392   7.673
17743SOL    HW253188   4.696   8.291   7.785
17744SOL     OW53189   5.206   9.093   7.506
17744SOL    HW153190   5.114   9.072   7.488
17744SOL    HW253191   5.247   9.097   7.419
17745SOL     OW53192   4.085   8.761   8.950
17745SOL    HW153193   4.078   8.834   8.888
17745SOL    HW253194   4.008   8.708   8.933
17746SOL     OW53195   5.324   8.737   8.725
17746SOL    HW153196   5.377   8.712   8.800
17746SOL    HW253197   5.264   8.804   8.759
17747SOL     OW53198   4.801   8.568   8.178
17747SOL    HW153199   4.725   8.518   8.209
17747SOL    HW253200   4.863   8.501   8.148
17748SOL     OW53201   4.757   7.697   8.408
17748SOL    HW153202   4.756   7.655   8.322
17748SOL    HW253203   4.750   7.625   8.471
17749SOL     OW53204   4.327   8.933   7.922
17749SOL    HW153205   4.383   8.885   7.861
17749SOL    HW253206   4.245   8.945   7.875
17750SOL     OW53207   5.470   7.830   8.836
17750SOL    HW153208   5.540   7.894   8.831
17750SOL    HW253209   5.496   7.761   8.775
17751SOL     OW53210   4.003   8.789   7.747
17751SOL    HW153211   3.916   8.781   7.708
17751SOL    HW253212   3.989   8.837   7.828
17752SOL     OW53213   3.847   8.496   9.184
17752SOL    HW153214   3.769   8.468   9.232
17752SOL    HW253215   3.918   8.444   9.221
17753SOL     OW53216   4.403   7.637   8.944
17753SOL    HW153217   4.486   7.612   8.905
17753SOL    HW253218   4.425   7.670   9.031
17754SOL     OW53219   3.809   7.766   7.463
17754SOL    HW153220   3.732   7.744   7.410
17754SOL    HW253221   3.837   7.852   7.432
17755SOL     OW53222   5.140   8.302   8.835
17755SOL    HW153223   5.088   8.361   8.780
17755SOL    HW253224   5.228   8.307   8.798
17756SOL     OW53225   3.768   7.597   7.720
17756SOL    HW153226   3.755   7.667   7.656
17756SOL    HW253227   3.856   7.565   7.704
17757SOL     OW53228   4.908   8.769   7.571
17757SOL    HW153229   4.818   8.736   7.571
17757SOL    HW253230   4.931   8.773   7.664
17758SOL     OW53231   4.349   8.280   8.890
17758SOL    HW153232   4.408   8.354   8.878
17758SOL    HW253233   4.407   8.203   8.889
17759SOL     OW53234   5.209   9.243   8.438
17759SOL    HW153235   5.234   9.321   8.387
17759SOL    HW253236   5.292   9.200   8.457
17760SOL     OW53237   4.449   7.995   9.135
17760SOL    HW153238   4.495   8.050   9.199
17760SOL    HW253239   4.459   7.906   9.167
17761SOL     OW53240   5.193   8.632   9.069
17761SOL    HW153241   5.187   8.652   9.162
17761SOL    HW253242   5.282   8.656   9.045
17762SOL     OW53243   4.076   9.190   9.023
17762SOL    HW153244   3.994   9.237   9.007
17762SOL    HW253245   4.049   9.107   9.061
17763SOL     OW53246   5.380   8.323   8.701
17763SOL    HW153247   5.378   8.240   8.654
17763SOL    HW253248   5.369   8.389   8.632
17764SOL     OW53249   4.945   7.771   7.904
17764SOL    HW153250   5.004   7.696   7.903
17764SOL    HW253251   4.973   7.823   7.979
17765SOL     OW53252   4.300   8.174   8.129
17765SOL    HW153253   4.343   8.258   8.114
17765SOL    HW253254   4.239   8.166   8.056
17766SOL     OW53255   5.471   7.801   9.111
17766SOL    HW153256   5.468   7.817   9.017
17766SOL    HW253257   5.394   7.747   9.128
17767SOL     OW53258   5.484   8.372   8.952
17767SOL    HW153259   5.467   8.465   8.965
17767SOL    HW253260   5.458   8.355   8.862
17768SOL     OW53261   4.592   8.806   7.509
17768SOL    HW153262   4.556   8.824   7.596
17768SOL    HW253263   4.604   8.892   7.470
17769SOL     OW53264   4.392   9.215   8.371
17769SOL    HW153265   4.373   9.309   8.363
17769SOL    HW253266   4.487   9.210   8.371
17770SOL     OW53267   4.596   8.425   8.304
17770SOL    HW153268   4.646   8.351   8.338
17770SOL    HW253269   4.551   8.461   8.380
17771SOL     OW53270   4.798   8.434   7.535
17771SOL    HW153271   4.776   8.486   7.458
17771SOL    HW253272   4.871   8.379   7.506
17772SOL     OW53273   5.555   9.004   8.288
17772SOL    HW153274   5.478   8.996   8.231
17772SOL    HW253275   5.534   8.951   8.364
17773SOL     OW53276   3.935   8.736   9.284
17773SOL    HW153277   3.904   8.656   9.241
17773SOL    HW253278   3.873   8.751   9.355
17774SOL     OW53279   3.842   8.674   8.115
17774SOL    HW153280   3.871   8.632   8.196
17774SOL    HW253281   3.900   8.640   8.048
17775SOL     OW53282   4.412   8.867   9.078
17775SOL    HW153283   4.335   8.829   9.120
17775SOL    HW253284   4.419   8.955   9.116
17776SOL     OW53285   5.536   7.619   8.683
17776SOL    HW153286   5.537   7.524   8.696
17776SOL    HW253287   5.549   7.630   8.588
17777SOL     OW53288   4.142   7.871   7.966
17777SOL    HW153289   4.176   7.800   7.911
17777SOL    HW253290   4.090   7.826   8.033
17778SOL     OW53291   5.419   8.928   8.530
17778SOL    HW153292   5.341   8.909   8.478
17778SOL    HW253293   5.419   8.860   8.598
17779SOL     OW53294   4.077   8.014   8.740
17779SOL    HW153295   4.126   7.949   8.790
17779SOL    HW253296   4.084   7.984   8.649
17780SOL     OW53297   4.560   9.025   8.120
17780SOL    HW153298   4.524   9.088   8.058
17780SOL    HW253299   4.488   8.963   8.135
17781SOL     OW53300   5.145   7.681   8.562
17781SOL    HW153301   5.153   7.591   8.594
17781SOL    HW253302   5.099   7.727   8.632
17782SOL     OW53303   4.734   7.466   8.567
17782SOL    HW153304   4.680   7.402   8.519
17782SOL    HW253305   4.821   7.425   8.571
17783SOL     OW53306   4.505   8.780   7.776
17783SOL    HW153307   4.481   8.688   7.788
17783SOL    HW253308   4.585   8.791   7.828
17784SOL     OW53309   4.339   9.016   8.735
17784SOL    HW153310   4.334   9.099   8.781
17784SOL    HW253311   4.429   9.012   8.702
17785SOL     OW53312   5.104   7.486   7.640
17785SOL    HW153313   5.145   7.414   7.592
17785SOL    HW253314   5.013   7.460   7.651
17786SOL     OW53315   5.022   7.920   8.122
17786SOL    HW153316   4.971   8.001   8.120
17786SOL    HW253317   5.015   7.890   8.213
17787SOL     OW53318   5.307   7.636   8.341
17787SOL    HW153319   5.254   7.665   8.415
17787SOL    HW253320   5.307   7.710   8.281
17788SOL     OW53321   3.761   8.499   7.756
17788SOL    HW153322   3.854   8.487   7.738
17788SOL    HW253323   3.729   8.411   7.777
17789SOL     OW53324   4.617   9.125   7.782
17789SOL    HW153325   4.539   9.110   7.730
17789SOL    HW253326   4.594   9.197   7.841
17790SOL     OW53327   3.935   8.054   9.454
17790SOL    HW153328   3.846   8.044   9.488
17790SOL    HW253329   3.926   8.047   9.359
17791SOL     OW53330   5.530   8.018   9.521
17791SOL    HW153331   5.488   8.019   9.435
17791SOL    HW253332   5.481   7.951   9.570
17792SOL     OW53333   3.935   9.204   9.767
17792SOL    HW153334   3.958   9.278   9.823
17792SOL    HW253335   4.016   9.185   9.718
17793SOL     OW53336   3.949   8.914   9.844
17793SOL    HW153337   3.924   8.997   9.884
17793SOL    HW253338   3.881   8.853   9.872
17794SOL     OW53339   4.295   8.433   9.451
17794SOL    HW153340   4.345   8.476   9.382
17794SOL    HW253341   4.335   8.463   9.533
17795SOL     OW53342   3.789   8.124   9.883
17795SOL    HW153343   3.703   8.089   9.859
17795SOL    HW253344   3.770   8.202   9.935
17796SOL     OW53345   5.555   9.195   9.642
17796SOL    HW153346   5.632   9.178   9.697
17796SOL    HW253347   5.569   9.284   9.608
17797SOL     OW53348   3.776   9.037   9.431
17797SOL    HW153349   3.760   8.944   9.446
17797SOL    HW253350   3.739   9.080   9.508
17798SOL     OW53351   5.398   8.318   9.919
17798SOL    HW153352   5.470   8.339   9.979
17798SOL    HW253353   5.391   8.395   9.862
17799SOL     OW53354   5.417   8.548   9.758
17799SOL    HW153355   5.501   8.546   9.712
17799SOL    HW253356   5.421   8.628   9.811
17800SOL     OW53357   4.364   8.790   9.992
17800SOL    HW153358   4.308   8.713   9.990
17800SOL    HW253359   4.342   8.839   9.913
17801SOL     OW53360   4.542   7.477   9.828
17801SOL    HW153361   4.587   7.556   9.798
17801SOL    HW253362   4.450   7.502   9.829
17802SOL     OW53363   5.282   8.472   9.521
17802SOL    HW153364   5.221   8.403   9.547
17802SOL    HW253365   5.320   8.502   9.603
17803SOL     OW53366   4.309   8.147   9.583
17803SOL    HW153367   4.317   8.233   9.541
17803SOL    HW253368   4.251   8.161   9.658
17804SOL     OW53369   5.286   9.122   9.627
17804SOL    HW153370   5.379   9.140   9.634
17804SOL    HW253371   5.270   9.110   9.534
17805SOL     OW53372   4.770   8.138   9.734
17805SOL    HW153373   4.798   8.114   9.823
17805SOL    HW253374   4.685   8.096   9.724
17806SOL     OW53375   3.777   8.331   0.069
17806SOL    HW153376   3.850   8.285   0.108
17806SOL    HW253377   3.754   8.399   0.133
17807SOL     OW53378   4.615   7.796   9.503
17807SOL    HW153379   4.664   7.852   9.444
17807SOL    HW253380   4.600   7.716   9.452
17808SOL     OW53381   5.037   8.544   9.797
17808SOL    HW153382   5.090   8.573   9.872
17808SOL    HW253383   5.013   8.624   9.752
17809SOL     OW53384   4.717   8.883   9.783
17809SOL    HW153385   4.687   8.969   9.751
17809SOL    HW253386   4.690   8.881   9.874
17810SOL     OW53387   4.048   9.318   0.174
17810SOL    HW153388   4.044   9.228   0.205
17810SOL    HW253389   4.142   9.339   0.175
17811SOL     OW53390   4.040   8.406   9.575
17811SOL    HW153391   4.121   8.421   9.526
17811SOL    HW253392   4.000   8.330   9.534
17812SOL     OW53393   4.861   9.223   9.543
17812SOL    HW153394   4.782   9.189   9.586
17812SOL    HW253395   4.881   9.157   9.476
17813SOL     OW53396   5.361   8.841   9.404
17813SOL    HW153397   5.317   8.925   9.391
17813SOL    HW253398   5.295   8.775   9.380
17814SOL     OW53399   4.192   9.211   9.633
17814SOL    HW153400   4.243   9.231   9.712
17814SOL    HW253401   4.253   9.163   9.577
17815SOL     OW53402   5.148   7.599   9.737
17815SOL    HW153403   5.137   7.557   9.652
17815SOL    HW253404   5.243   7.602   9.751
17816SOL     OW53405   4.120   8.136   9.800
17816SOL    HW153406   4.124   8.043   9.820
17816SOL    HW253407   4.027   8.156   9.793
17817SOL     OW53408   4.385   7.555   9.416
17817SOL    HW153409   4.431   7.475   9.443
17817SOL    HW253410   4.324   7.527   9.349
17818SOL     OW53411   4.269   7.547   9.840
17818SOL    HW153412   4.177   7.541   9.866
17818SOL    HW253413   4.270   7.604   9.764
17819SOL     OW53414   5.164   8.656   9.345
17819SOL    HW153415   5.198   8.588   9.403
17819SOL    HW253416   5.077   8.676   9.380
17820SOL     OW53417   4.008   7.502   9.500
17820SOL    HW153418   4.058   7.567   9.452
17820SOL    HW253419   4.075   7.449   9.545
17821SOL     OW53420   4.673   7.709   9.758
17821SOL    HW153421   4.648   7.739   9.670
17821SOL    HW253422   4.766   7.728   9.764
17822SOL     OW53423   4.167   8.599   0.033
17822SOL    HW153424   4.098   8.633   0.089
17822SOL    HW253425   4.125   8.583   9.949
17823SOL     OW53426   5.021   9.283   9.904
17823SOL    HW153427   5.068   9.341   9.844
17823SOL    HW253428   4.931   9.314   9.901
17824SOL     OW53429   4.756   7.965   9.338
17824SOL    HW153430   4.713   8.048   9.319
17824SOL    HW253431   4.819   7.986   9.407
17825SOL     OW53432   4.569   7.890   9.942
17825SOL    HW153433   4.531   7.953   9.881
17825SOL    HW253434   4.601   7.819   9.886
17826SOL     OW53435   5.605   8.254   9.637
17826SOL    HW153436   5.636   8.214   9.718
17826SOL    HW253437   5.570   8.180   9.587
17827SOL     OW53438   4.218   8.875   9.464
17827SOL    HW153439   4.143   8.840   9.511
17827SOL    HW253440   4.219   8.826   9.381
17828SOL     OW53441   5.113   8.024   9.370
17828SOL    HW153442   5.057   8.001   9.445
17828SOL    HW253443   5.201   7.999   9.398
17829SOL     OW53444   4.266   7.708   9.624
17829SOL    HW153445   4.313   7.663   9.554
17829SOL    HW253446   4.229   7.785   9.582
17830SOL     OW53447   4.431   8.502   9.684
17830SOL    HW153448   4.398   8.456   9.761
17830SOL    HW253449   4.511   8.456   9.660
17831SOL     OW53450   4.034   8.574   9.797
17831SOL    HW153451   4.034   8.650   9.739
17831SOL    HW253452   4.042   8.499   9.738
17832SOL     OW53453   4.962   8.803   9.691
17832SOL    HW153454   5.017   8.874   9.723
17832SOL    HW253455   4.875   8.823   9.726
17833SOL     OW53456   5.360   8.086   9.789
17833SOL    HW153457   5.363   8.160   9.850
17833SOL    HW253458   5.312   8.118   9.713
17834SOL     OW53459   4.920   7.979   9.565
17834SOL    HW153460   4.927   7.903   9.623
17834SOL    HW253461   4.881   8.048   9.619
17835SOL     OW53462   4.006   7.537   9.928
17835SOL    HW153463   3.938   7.602   9.945
17835SOL    HW253464   4.022   7.496   0.013
17836SOL     OW53465   5.355   7.843   9.655
17836SOL    HW153466   5.378   7.767   9.709
17836SOL    HW253467   5.346   7.915   9.718
17837SOL     OW53468   5.243   7.722   9.425
17837SOL    HW153469   5.191   7.649   9.460
17837SOL    HW253470   5.280   7.763   9.503
17838SOL     OW53471   5.004   8.272   9.329
17838SOL    HW153472   5.042   8.185   9.336
17838SOL    HW253473   5.040   8.308   9.248
17839SOL     OW53474   3.747   8.763   9.484
17839SOL    HW153475   3.657   8.782   9.459
17839SOL    HW253476   3.744   8.676   9.524
17840SOL     OW53477   4.531   8.007   9.682
17840SOL    HW153478   4.544   7.938   9.617
17840SOL    HW253479   4.459   8.060   9.649
17841SOL     OW53480   4.171   7.924   9.483
17841SOL    HW153481   4.232   7.994   9.506
17841SOL    HW253482   4.085   7.967   9.481
17842SOL     OW53483   5.092   8.294   9.604
17842SOL    HW153484   5.037   8.343   9.665
17842SOL    HW253485   5.039   8.285   9.525
17843SOL     OW53486   5.432   7.605   9.771
17843SOL    HW153487   5.502   7.607   9.707
17843SOL    HW253488   5.447   7.525   9.822
17844SOL     OW53489   5.087   9.038   9.795
17844SOL    HW153490   5.157   9.056   9.733
17844SOL    HW253491   5.058   9.124   9.824
17845SOL     OW53492   4.391   9.087   9.473
17845SOL    HW153493   4.408   9.099   9.380
17845SOL    HW253494   4.338   9.008   9.478
17846SOL     OW53495   4.932   9.039   9.348
17846SOL    HW153496   4.924   8.947   9.373
17846SOL    HW253497   4.863   9.053   9.284
17847SOL     OW53498   4.648   8.362   9.614
17847SOL    HW153499   4.704   8.390   9.541
17847SOL    HW253500   4.698   8.293   9.657
17848SOL     OW53501   5.207   9.094   9.358
17848SOL    HW153502   5.115   9.073   9.342
17848SOL    HW253503   5.247   9.096   9.271
17849SOL     OW53504   4.315   8.927   9.761
17849SOL    HW153505   4.376   8.883   9.702
17849SOL    HW253506   4.231   8.928   9.714
17850SOL     OW53507   4.002   8.790   9.614
17850SOL    HW153508   3.916   8.785   9.572
17850SOL    HW253509   3.987   8.843   9.693
17851SOL     OW53510   3.807   7.764   9.323
17851SOL    HW153511   3.731   7.744   9.268
17851SOL    HW253512   3.836   7.850   9.292
17852SOL     OW53513   3.766   7.603   9.577
17852SOL    HW153514   3.758   7.668   9.507
17852SOL    HW253515   3.855   7.568   9.566
17853SOL     OW53516   4.906   8.769   9.423
17853SOL    HW153517   4.815   8.738   9.423
17853SOL    HW253518   4.929   8.775   9.515
17854SOL     OW53519   4.940   7.783   9.768
17854SOL    HW153520   5.015   7.724   9.759
17854SOL    HW253521   4.960   7.837   9.844
17855SOL     OW53522   4.331   8.296   9.889
17855SOL    HW153523   4.336   8.294   9.985
17855SOL    HW253524   4.259   8.237   9.868
17856SOL     OW53525   4.593   8.806   9.363
17856SOL    HW153526   4.558   8.822   9.451
17856SOL    HW253527   4.605   8.893   9.325
17857SOL     OW53528   4.793   8.428   9.397
17857SOL    HW153529   4.774   8.483   9.321
17857SOL    HW253530   4.868   8.375   9.370
17858SOL     OW53531   3.787   8.696   9.899
17858SOL    HW153532   3.777   8.697   9.994
17858SOL    HW253533   3.856   8.631   9.883
17859SOL     OW53534   4.134   7.873   9.865
17859SOL    HW153535   4.181   7.810   9.811
17859SOL    HW253536   4.171   7.862   9.952
17860SOL     OW53537   4.506   8.777   9.628
17860SOL    HW153538   4.480   8.686   9.644
17860SOL    HW253539   4.583   8.791   9.683
17861SOL     OW53540   5.101   7.489   9.492
17861SOL    HW153541   5.144   7.413   9.453
17861SOL    HW253542   5.011   7.461   9.508
17862SOL     OW53543   3.781   8.517   9.600
17862SOL    HW153544   3.876   8.510   9.592
17862SOL    HW253545   3.750   8.427   9.603
17863SOL     OW53546   4.619   9.122   9.665
17863SOL    HW153547   4.543   9.104   9.610
17863SOL    HW253548   4.590   9.193   9.723
17864SOL     OW53549   3.935   9.601   0.997
17864SOL    HW153550   3.966   9.560   1.078
17864SOL    HW253551   3.849   9.562   0.981
17865SOL     OW53552   3.711   9.687   0.647
17865SOL    HW153553   3.632   9.706   0.697
17865SOL    HW253554   3.686   9.615   0.588
17866SOL     OW53555   5.482   9.887   0.196
17866SOL    HW153556   5.490   9.861   0.104
17866SOL    HW253557   5.433   9.816   0.237
17867SOL     OW53558   4.145   9.722   1.497
17867SOL    HW153559   4.229   9.677   1.491
17867SOL    HW253560   4.080   9.651   1.491
17868SOL     OW53561   5.322   9.721   0.755
17868SOL    HW153562   5.261   9.741   0.685
17868SOL    HW253563   5.298   9.781   0.826
17869SOL     OW53564   5.313   9.442   1.454
17869SOL    HW153565   5.357   9.517   1.416
17869SOL    HW253566   5.280   9.473   1.538
17870SOL     OW53567   3.757   9.965   0.609
17870SOL    HW153568   3.752   9.870   0.618
17870SOL    HW253569   3.851   9.984   0.606
17871SOL     OW53570   4.557   9.337   0.522
17871SOL    HW153571   4.594   9.421   0.496
17871SOL    HW253572   4.462   9.352   0.526
17872SOL     OW53573   4.069   9.548   1.837
17872SOL    HW153574   4.093   9.635   1.802
17872SOL    HW253575   3.975   9.554   1.853
17873SOL     OW53576   5.000   9.682   0.940
17873SOL    HW153577   4.911   9.646   0.941
17873SOL    HW253578   5.049   9.625   0.999
17874SOL     OW53579   4.573   9.832   1.432
17874SOL    HW153580   4.530   9.842   1.517
17874SOL    HW253581   4.501   9.822   1.370
17875SOL     OW53582   5.130   9.786   1.679
17875SOL    HW153583   5.179   9.832   1.748
17875SOL    HW253584   5.163   9.696   1.683
17876SOL     OW53585   4.734   9.762   1.227
17876SOL    HW153586   4.682   9.781   1.305
17876SOL    HW253587   4.678   9.705   1.174
17877SOL     OW53588   4.788   9.983   0.432
17877SOL    HW153589   4.774   0.059   0.489
17877SOL    HW253590   4.700   9.958   0.404
17878SOL     OW53591   4.546   9.642   0.193
17878SOL    HW153592   4.553   9.690   0.111
17878SOL    HW253593   4.564   9.551   0.170
17879SOL     OW53594   5.399   9.899   1.809
17879SOL    HW153595   5.447   9.969   1.765
17879SOL    HW253596   5.429   9.819   1.765
17880SOL     OW53597   4.273   9.469   0.911
17880SOL    HW153598   4.278   9.499   1.002
17880SOL    HW253599   4.273   9.550   0.859
17881SOL     OW53600   5.210   0.020   0.730
17881SOL    HW153601   5.201   9.971   0.812
17881SOL    HW253602   5.250   0.103   0.757
17882SOL     OW53603   3.923   9.558   1.496
17882SOL    HW153604   3.863   9.620   1.539
17882SOL    HW253605   3.894   9.472   1.526
17883SOL     OW53606   5.119   9.406   0.446
17883SOL    HW153607   5.117   9.384   0.353
17883SOL    HW253608   5.212   9.403   0.469
17884SOL     OW53609   5.225   9.523   1.711
17884SOL    HW153610   5.237   9.539   1.804
17884SOL    HW253611   5.159   9.455   1.706
17885SOL     OW53612   4.315   9.400   0.122
17885SOL    HW153613   4.408   9.379   0.134
17885SOL    HW253614   4.304   9.405   0.027
17886SOL     OW53615   4.483   9.574   1.748
17886SOL    HW153616   4.568   9.530   1.748
17886SOL    HW253617   4.438   9.537   1.824
17887SOL     OW53618   5.102   9.899   1.424
17887SOL    HW153619   5.102   9.867   1.514
17887SOL    HW253620   5.156   9.979   1.426
17888SOL     OW53621   4.663   9.798   0.897
17888SOL    HW153622   4.632   9.783   0.808
17888SOL    HW253623   4.699   9.713   0.925
17889SOL     OW53624   4.286   9.392   0.499
17889SOL    HW153625   4.209   9.387   0.556
17889SOL    HW253626   4.283   9.480   0.461
17890SOL     OW53627   4.665   9.581   0.446
17890SOL    HW153628   4.641   9.610   0.358
17890SOL    HW253629   4.759   9.594   0.450
17891SOL     OW53630   4.797   9.949   1.564
17891SOL    HW153631   4.731   9.909   1.508
17891SOL    HW253632   4.837   0.017   1.509
17892SOL     OW53633   4.829   9.879   0.030
17892SOL    HW153634   4.741   9.842   0.025
17892SOL    HW253635   4.854   9.870   0.122
17893SOL     OW53636   3.797   9.893   1.379
17893SOL    HW153637   3.892   9.896   1.368
17893SOL    HW253638   3.773   9.982   1.405
17894SOL     OW53639   4.277   9.537   1.179
17894SOL    HW153640   4.321   9.488   1.247
17894SOL    HW253641   4.184   9.529   1.199
17895SOL     OW53642   4.584   9.772   0.644
17895SOL    HW153643   4.565   9.854   0.598
17895SOL    HW253644   4.604   9.709   0.575
17896SOL     OW53645   4.749   9.355   0.734
17896SOL    HW153646   4.684   9.354   0.664
17896SOL    HW253647   4.722   9.284   0.793
17897SOL     OW53648   5.204   9.872   0.955
17897SOL    HW153649   5.127   9.818   0.974
17897SOL    HW253650   5.246   9.885   1.040
17898SOL     OW53651   4.273   9.606   0.302
17898SOL    HW153652   4.269   9.532   0.241
17898SOL    HW253653   4.361   9.641   0.291
17899SOL     OW53654   4.646   9.391   1.381
17899SOL    HW153655   4.668   9.372   1.290
17899SOL    HW253656   4.724   9.432   1.417
17900SOL     OW53657   4.991   9.688   1.294
17900SOL    HW153658   5.030   9.764   1.336
17900SOL    HW253659   4.905   9.718   1.264
17901SOL     OW53660   4.275   9.766   0.866
17901SOL    HW153661   4.278   9.761   0.771
17901SOL    HW253662   4.342   9.830   0.889
17902SOL     OW53663   5.309   9.913   0.503
17902SOL    HW153664   5.273   9.948   0.584
17902SOL    HW253665   5.393   9.958   0.492
17903SOL     OW53666   4.723   9.446   1.764
17903SOL    HW153667   4.783   9.518   1.747
17903SOL    HW253668   4.772   9.368   1.739
17904SOL     OW53669   4.218   9.333   1.759
17904SOL    HW153670   4.166   9.281   1.697
17904SOL    HW253671   4.164   9.410   1.777
17905SOL     OW53672   4.944   9.840   0.272
17905SOL    HW153673   4.959   9.758   0.319
17905SOL    HW253674   4.897   9.895   0.334
17906SOL     OW53675   4.014   9.498   1.241
17906SOL    HW153676   3.974   9.525   1.323
17906SOL    HW253677   3.998   9.404   1.237
17907SOL     OW53678   4.451   9.936   1.001
17907SOL    HW153679   4.534   9.899   0.970
17907SOL    HW253680   4.457   0.029   0.981
17908SOL     OW53681   4.042   9.374   0.631
17908SOL    HW153682   4.013   9.463   0.652
17908SOL    HW253683   4.049   9.331   0.717
17909SOL     OW53684   5.344   9.688   0.345
17909SOL    HW153685   5.387   9.624   0.403
17909SOL    HW253686   5.321   9.760   0.403
17910SOL     OW53687   5.196   9.608   0.127
17910SOL    HW153688   5.160   9.523   0.152
17910SOL    HW253689   5.247   9.636   0.204
17911SOL     OW53690   4.045   0.056   0.900
17911SOL    HW153691   4.122   0.112   0.911
17911SOL    HW253692   4.059   9.984   0.962
17912SOL     OW53693   4.081   9.821   1.046
17912SOL    HW153694   4.027   9.743   1.031
17912SOL    HW253695   4.157   9.809   0.990
17913SOL     OW53696   4.873   9.668   1.695
17913SOL    HW153697   4.817   9.726   1.746
17913SOL    HW253698   4.953   9.719   1.681
17914SOL     OW53699   4.881   9.503   1.471
17914SOL    HW153700   4.872   9.560   1.548
17914SOL    HW253701   4.926   9.557   1.406
17915SOL     OW53702   3.749   9.845   1.110
17915SOL    HW153703   3.828   9.830   1.057
17915SOL    HW253704   3.782   9.860   1.198
17916SOL     OW53705   3.993   9.810   1.725
17916SOL    HW153706   4.040   9.797   1.642
17916SOL    HW253707   4.034   9.888   1.763
17917SOL     OW53708   4.556   9.900   0.309
17917SOL    HW153709   4.544   9.812   0.273
17917SOL    HW253710   4.468   9.932   0.324
17918SOL     OW53711   5.357   9.902   1.184
17918SOL    HW153712   5.345   9.846   1.260
17918SOL    HW253713   5.441   9.875   1.147
17919SOL     OW53714   4.397   9.785   1.229
17919SOL    HW153715   4.352   9.706   1.200
17919SOL    HW253716   4.404   9.840   1.150
17920SOL     OW53717   4.599   9.383   0.102
17920SOL    HW153718   4.596   9.361   0.009
17920SOL    HW253719   4.677   9.339   0.135
17921SOL     OW53720   5.478   9.482   0.485
17921SOL    HW153721   5.542   9.458   0.418
17921SOL    HW253722   5.450   9.399   0.523
17922SOL     OW53723   5.566   9.467   0.963
17922SOL    HW153724   5.595   9.378   0.943
17922SOL    HW253725   5.477   9.471   0.928
17923SOL     OW53726   3.969   9.624   0.717
17923SOL    HW153727   3.881   9.652   0.692
17923SOL    HW253728   3.969   9.624   0.812
17924SOL     OW53729   4.761   9.541   0.948
17924SOL    HW153730   4.760   9.491   0.867
17924SOL    HW253731   4.750   9.476   1.017
17925SOL     OW53732   5.477   9.686   1.400
17925SOL    HW153733   5.540   9.758   1.390
17925SOL    HW253734   5.505   9.620   1.336
17926SOL     OW53735   4.404   9.494   1.487
17926SOL    HW153736   4.489   9.469   1.450
17926SOL    HW253737   4.425   9.528   1.574
17927SOL     OW53738   3.799   9.609   0.028
17927SOL    HW153739   3.710   9.596   9.994
17927SOL    HW253740   3.820   9.700   0.006
17928SOL     OW53741   3.805   9.443   0.266
17928SOL    HW153742   3.793   9.509   0.197
17928SOL    HW253743   3.893   9.410   0.251
17929SOL     OW53744   4.466   9.848   1.683
17929SOL    HW153745   4.521   9.896   1.746
17929SOL    HW253746   4.469   9.757   1.714
17930SOL     OW53747   4.941   9.623   0.454
17930SOL    HW153748   5.001   9.548   0.452
17930SOL    HW253749   4.970   9.673   0.530
17931SOL     OW53750   5.464   9.668   1.674
17931SOL    HW153751   5.468   9.678   1.579
17931SOL    HW253752   5.391   9.609   1.689
17932SOL     OW53753   4.854   0.241   0.067
17932SOL    HW153754   4.853   0.334   0.047
17932SOL    HW253755   4.943   0.225   0.100
17933SOL     OW53756   5.535   9.481   1.234
17933SOL    HW153757   5.537   9.386   1.246
17933SOL    HW253758   5.546   9.494   1.140
17934SOL     OW53759   4.216   9.686   0.604
17934SOL    HW153760   4.203   9.716   0.514
17934SOL    HW253761   4.127   9.673   0.638
17935SOL     OW53762   4.059   9.909   1.306
17935SOL    HW153763   4.109   9.854   1.366
17935SOL    HW253764   4.080   9.876   1.219
17936SOL     OW53765   5.144   9.540   1.124
17936SOL    HW153766   5.158   9.455   1.166
17936SOL    HW253767   5.098   9.592   1.190
17937SOL     OW53768   4.733   9.320   1.122
17937SOL    HW153769   4.679   9.257   1.074
17937SOL    HW253770   4.820   9.281   1.124
17938SOL     OW53771   5.073   9.356   0.177
17938SOL    HW153772   5.091   9.323   0.089
17938SOL    HW253773   4.983   9.328   0.195
17939SOL     OW53774   5.036   9.762   0.673
17939SOL    HW153775   5.033   9.858   0.675
17939SOL    HW253776   5.019   9.736   0.764
17940SOL     OW53777   5.301   9.487   0.900
17940SOL    HW153778   5.249   9.520   0.973
17940SOL    HW253779   5.304   9.560   0.838
17941SOL     OW53780   3.933   9.606   2.862
17941SOL    HW153781   3.964   9.563   2.941
17941SOL    HW253782   3.848   9.565   2.843
17942SOL     OW53783   3.718   9.687   2.510
17942SOL    HW153784   3.641   9.705   2.564
17942SOL    HW253785   3.690   9.615   2.453
17943SOL     OW53786   5.350   9.912   2.080
17943SOL    HW153787   5.383   9.910   1.989
17943SOL    HW253788   5.363   9.823   2.112
17944SOL     OW53789   4.144   9.722   3.360
17944SOL    HW153790   4.229   9.678   3.353
17944SOL    HW253791   4.080   9.652   3.353
17945SOL     OW53792   5.331   9.726   2.618
17945SOL    HW153793   5.309   9.767   2.535
17945SOL    HW253794   5.295   9.784   2.685
17946SOL     OW53795   5.312   9.442   3.315
17946SOL    HW153796   5.357   9.517   3.277
17946SOL    HW253797   5.280   9.473   3.400
17947SOL     OW53798   3.754   9.973   2.468
17947SOL    HW153799   3.748   9.878   2.475
17947SOL    HW253800   3.848   9.992   2.467
17948SOL     OW53801   4.559   9.333   2.376
17948SOL    HW153802   4.594   9.418   2.351
17948SOL    HW253803   4.464   9.346   2.378
17949SOL     OW53804   4.069   9.548   3.699
17949SOL    HW153805   4.091   9.634   3.664
17949SOL    HW253806   3.974   9.553   3.716
17950SOL     OW53807   5.000   9.682   2.802
17950SOL    HW153808   4.912   9.645   2.802
17950SOL    HW253809   5.050   9.625   2.860
17951SOL     OW53810   4.572   9.831   3.294
17951SOL    HW153811   4.529   9.842   3.379
17951SOL    HW253812   4.500   9.821   3.232
17952SOL     OW53813   5.131   9.785   3.541
17952SOL    HW153814   5.180   9.831   3.610
17952SOL    HW253815   5.163   9.695   3.545
17953SOL     OW53816   4.734   9.764   3.088
17953SOL    HW153817   4.682   9.782   3.166
17953SOL    HW253818   4.680   9.704   3.036
17954SOL     OW53819   4.799   9.982   2.299
17954SOL    HW153820   4.854   0.022   2.366
17954SOL    HW253821   4.709   9.996   2.329
17955SOL     OW53822   4.612   9.660   2.049
17955SOL    HW153823   4.661   9.720   1.992
17955SOL    HW253824   4.614   9.576   2.004
17956SOL     OW53825   5.398   9.899   3.670
17956SOL    HW153826   5.448   9.969   3.628
17956SOL    HW253827   5.429   9.819   3.628
17957SOL     OW53828   4.273   9.473   2.776
17957SOL    HW153829   4.279   9.498   2.868
17957SOL    HW253830   4.273   9.556   2.728
17958SOL     OW53831   5.203   0.021   2.591
17958SOL    HW153832   5.196   9.972   2.674
17958SOL    HW253833   5.244   0.104   2.615
17959SOL     OW53834   3.923   9.558   3.358
17959SOL    HW153835   3.862   9.619   3.400
17959SOL    HW253836   3.894   9.472   3.387
17960SOL     OW53837   5.117   9.412   2.317
17960SOL    HW153838   5.117   9.388   2.224
17960SOL    HW253839   5.209   9.413   2.341
17961SOL     OW53840   5.226   9.523   3.573
17961SOL    HW153841   5.236   9.539   3.666
17961SOL    HW253842   5.160   9.453   3.568
17962SOL     OW53843   4.376   9.418   1.964
17962SOL    HW153844   4.426   9.341   1.993
17962SOL    HW253845   4.319   9.384   1.895
17963SOL     OW53846   4.483   9.574   3.611
17963SOL    HW153847   4.568   9.530   3.610
17963SOL    HW253848   4.438   9.537   3.686
17964SOL     OW53849   5.097   9.901   3.288
17964SOL    HW153850   5.100   9.868   3.378
17964SOL    HW253851   5.152   9.980   3.290
17965SOL     OW53852   4.661   9.799   2.757
17965SOL    HW153853   4.631   9.781   2.668
17965SOL    HW253854   4.699   9.717   2.787
17966SOL     OW53855   4.289   9.374   2.350
17966SOL    HW153856   4.212   9.376   2.408
17966SOL    HW253857   4.281   9.454   2.298
17967SOL     OW53858   4.010   9.363   2.046
17967SOL    HW153859   4.065   9.426   1.999
17967SOL    HW253860   4.071   9.304   2.088
17968SOL     OW53861   4.666   9.582   2.308
17968SOL    HW153862   4.644   9.611   2.219
17968SOL    HW253863   4.760   9.593   2.315
17969SOL     OW53864   4.797   9.945   3.426
17969SOL    HW153865   4.730   9.905   3.370
17969SOL    HW253866   4.842   0.007   3.369
17970SOL     OW53867   4.750   9.831   1.890
17970SOL    HW153868   4.729   9.920   1.859
17970SOL    HW253869   4.817   9.844   1.956
17971SOL     OW53870   3.798   9.892   3.239
17971SOL    HW153871   3.893   9.895   3.228
17971SOL    HW253872   3.774   9.982   3.263
17972SOL     OW53873   4.278   9.536   3.044
17972SOL    HW153874   4.321   9.486   3.113
17972SOL    HW253875   4.184   9.528   3.064
17973SOL     OW53876   4.582   9.767   2.504
17973SOL    HW153877   4.561   9.844   2.452
17973SOL    HW253878   4.605   9.700   2.440
17974SOL     OW53879   4.745   9.358   2.595
17974SOL    HW153880   4.684   9.354   2.522
17974SOL    HW253881   4.718   9.286   2.652
17975SOL     OW53882   5.202   9.872   2.814
17975SOL    HW153883   5.126   9.816   2.832
17975SOL    HW253884   5.244   9.884   2.899
17976SOL     OW53885   4.273   9.583   2.170
17976SOL    HW153886   4.307   9.530   2.097
17976SOL    HW253887   4.292   9.673   2.144
17977SOL     OW53888   4.645   9.391   3.243
17977SOL    HW153889   4.667   9.371   3.152
17977SOL    HW253890   4.724   9.432   3.278
17978SOL     OW53891   4.990   9.688   3.156
17978SOL    HW153892   5.029   9.765   3.199
17978SOL    HW253893   4.905   9.718   3.125
17979SOL     OW53894   4.272   9.763   2.714
17979SOL    HW153895   4.268   9.771   2.619
17979SOL    HW253896   4.339   9.827   2.740
17980SOL     OW53897   5.300   9.878   2.382
17980SOL    HW153898   5.262   9.939   2.445
17980SOL    HW253899   5.349   9.933   2.321
17981SOL     OW53900   4.723   9.446   3.625
17981SOL    HW153901   4.784   9.518   3.609
17981SOL    HW253902   4.772   9.367   3.601
17982SOL     OW53903   4.218   9.333   3.620
17982SOL    HW153904   4.166   9.281   3.559
17982SOL    HW253905   4.164   9.410   3.639
17983SOL     OW53906   4.921   9.841   2.107
17983SOL    HW153907   4.940   9.759   2.153
17983SOL    HW253908   4.875   9.894   2.172
17984SOL     OW53909   4.013   9.498   3.103
17984SOL    HW153910   3.974   9.525   3.185
17984SOL    HW253911   3.998   9.404   3.098
17985SOL     OW53912   4.445   9.931   2.861
17985SOL    HW153913   4.528   9.896   2.831
17985SOL    HW253914   4.451   0.025   2.846
17986SOL     OW53915   4.049   9.373   2.490
17986SOL    HW153916   4.019   9.461   2.511
17986SOL    HW253917   4.055   9.329   2.575
17987SOL     OW53918   5.338   9.666   2.213
17987SOL    HW153919   5.386   9.600   2.264
17987SOL    HW253920   5.309   9.730   2.277
17988SOL     OW53921   5.238   9.568   1.974
17988SOL    HW153922   5.184   9.495   2.006
17988SOL    HW253923   5.274   9.608   2.054
17989SOL     OW53924   4.048   0.055   2.760
17989SOL    HW153925   4.125   0.111   2.771
17989SOL    HW253926   4.061   9.984   2.822
17990SOL     OW53927   4.088   9.821   2.906
17990SOL    HW153928   4.031   9.745   2.892
17990SOL    HW253929   4.161   9.807   2.846
17991SOL     OW53930   4.874   9.668   3.557
17991SOL    HW153931   4.817   9.726   3.607
17991SOL    HW253932   4.954   9.718   3.544
17992SOL     OW53933   4.880   9.503   3.333
17992SOL    HW153934   4.872   9.560   3.410
17992SOL    HW253935   4.926   9.557   3.268
17993SOL     OW53936   3.746   9.843   2.970
17993SOL    HW153937   3.821   9.815   2.917
17993SOL    HW253938   3.782   9.858   3.057
17994SOL     OW53939   3.991   9.809   3.586
17994SOL    HW153940   4.039   9.796   3.505
17994SOL    HW253941   4.031   9.887   3.625
17995SOL     OW53942   4.448   9.884   2.113
17995SOL    HW153943   4.508   9.810   2.099
17995SOL    HW253944   4.457   9.906   2.205
17996SOL     OW53945   5.355   9.902   3.044
17996SOL    HW153946   5.342   9.845   3.120
17996SOL    HW253947   5.439   9.875   3.007
17997SOL     OW53948   4.395   9.785   3.093
17997SOL    HW153949   4.351   9.704   3.066
17997SOL    HW253950   4.400   9.838   3.013
17998SOL     OW53951   5.473   9.477   2.361
17998SOL    HW153952   5.534   9.456   2.290
17998SOL    HW253953   5.447   9.391   2.395
17999SOL     OW53954   5.566   9.468   2.825
17999SOL    HW153955   5.595   9.379   2.805
17999SOL    HW253956   5.478   9.473   2.789
18000SOL     OW53957   3.973   9.619   2.578
18000SOL    HW153958   3.885   9.649   2.553
18000SOL    HW253959   3.973   9.622   2.674
18001SOL     OW53960   4.761   9.543   2.810
18001SOL    HW153961   4.759   9.493   2.728
18001SOL    HW253962   4.751   9.476   2.879
18002SOL     OW53963   5.477   9.686   3.263
18002SOL    HW153964   5.540   9.758   3.251
18002SOL    HW253965   5.504   9.620   3.199
18003SOL     OW53966   4.404   9.494   3.349
18003SOL    HW153967   4.489   9.469   3.312
18003SOL    HW253968   4.425   9.528   3.436
18004SOL     OW53969   3.809   9.639   1.864
18004SOL    HW153970   3.729   9.636   1.811
18004SOL    HW253971   3.857   9.714   1.829
18005SOL     OW53972   3.769   9.454   2.134
18005SOL    HW153973   3.752   9.525   2.072
18005SOL    HW253974   3.858   9.426   2.114
18006SOL     OW53975   4.465   9.848   3.546
18006SOL    HW153976   4.521   9.896   3.607
18006SOL    HW253977   4.468   9.757   3.576
18007SOL     OW53978   4.939   9.632   2.309
18007SOL    HW153979   4.999   9.558   2.312
18007SOL    HW253980   4.962   9.685   2.386
18008SOL     OW53981   5.464   9.668   3.536
18008SOL    HW153982   5.468   9.678   3.441
18008SOL    HW253983   5.391   9.608   3.551
18009SOL     OW53984   4.858   0.224   1.923
18009SOL    HW153985   4.860   0.320   1.917
18009SOL    HW253986   4.930   0.202   1.981
18010SOL     OW53987   5.535   9.481   3.097
18010SOL    HW153988   5.537   9.386   3.109
18010SOL    HW253989   5.545   9.493   3.002
18011SOL     OW53990   4.197   9.715   2.443
18011SOL    HW153991   4.197   9.673   2.357
18011SOL    HW253992   4.115   9.688   2.484
18012SOL     OW53993   4.059   9.909   3.166
18012SOL    HW153994   4.109   9.854   3.227
18012SOL    HW253995   4.083   9.876   3.079
18013SOL     OW53996   5.145   9.541   2.986
18013SOL    HW153997   5.159   9.455   3.026
18013SOL    HW253998   5.099   9.591   3.052
18014SOL     OW53999   4.733   9.321   2.984
18014SOL    HW154000   4.679   9.258   2.936
18014SOL    HW254001   4.820   9.282   2.986
18015SOL     OW54002   5.101   9.342   2.049
18015SOL    HW154003   5.140   9.268   2.003
18015SOL    HW254004   5.009   9.317   2.061
18016SOL     OW54005   5.012   9.774   2.534
18016SOL    HW154006   5.053   9.861   2.542
18016SOL    HW254007   5.008   9.742   2.624
18017SOL     OW54008   5.302   9.489   2.759
18017SOL    HW154009   5.250   9.523   2.832
18017SOL    HW254010   5.305   9.561   2.697
18018SOL     OW54011   3.931   9.609   4.725
18018SOL    HW154012   3.964   9.565   4.803
18018SOL    HW254013   3.848   9.565   4.706
18019SOL     OW54014   3.717   9.687   4.372
18019SOL    HW154015   3.641   9.705   4.426
18019SOL    HW254016   3.691   9.615   4.315
18020SOL     OW54017   5.349   9.913   3.941
18020SOL    HW154018   5.381   9.910   3.851
18020SOL    HW254019   5.362   9.824   3.974
18021SOL     OW54020   4.144   9.722   5.222
18021SOL    HW154021   4.228   9.677   5.215
18021SOL    HW254022   4.079   9.652   5.216
18022SOL     OW54023   5.331   9.726   4.480
18022SOL    HW154024   5.309   9.767   4.397
18022SOL    HW254025   5.295   9.784   4.547
18023SOL     OW54026   5.311   9.442   5.177
18023SOL    HW154027   5.356   9.517   5.138
18023SOL    HW254028   5.280   9.473   5.262
18024SOL     OW54029   3.754   9.973   4.329
18024SOL    HW154030   3.748   9.878   4.337
18024SOL    HW254031   3.848   9.991   4.329
18025SOL     OW54032   4.559   9.334   4.238
18025SOL    HW154033   4.594   9.420   4.213
18025SOL    HW254034   4.464   9.347   4.240
18026SOL     OW54035   4.068   9.548   5.561
18026SOL    HW154036   4.090   9.634   5.525
18026SOL    HW254037   3.974   9.552   5.579
18027SOL     OW54038   5.000   9.682   4.664
18027SOL    HW154039   4.912   9.645   4.664
18027SOL    HW254040   5.050   9.625   4.722
18028SOL     OW54041   4.572   9.832   5.156
18028SOL    HW154042   4.529   9.842   5.241
18028SOL    HW254043   4.500   9.822   5.093
18029SOL     OW54044   5.131   9.784   5.403
18029SOL    HW154045   5.181   9.830   5.471
18029SOL    HW254046   5.163   9.694   5.407
18030SOL     OW54047   4.734   9.763   4.950
18030SOL    HW154048   4.681   9.782   5.027
18030SOL    HW254049   4.681   9.702   4.899
18031SOL     OW54050   4.798   9.981   4.161
18031SOL    HW154051   4.853   0.020   4.229
18031SOL    HW254052   4.709   9.996   4.191
18032SOL     OW54053   4.612   9.661   3.911
18032SOL    HW154054   4.661   9.720   3.854
18032SOL    HW254055   4.613   9.577   3.866
18033SOL     OW54056   5.398   9.899   5.531
18033SOL    HW154057   5.449   9.968   5.490
18033SOL    HW254058   5.428   9.818   5.489
18034SOL     OW54059   4.273   9.473   4.637
18034SOL    HW154060   4.279   9.498   4.729
18034SOL    HW254061   4.273   9.556   4.589
18035SOL     OW54062   5.202   0.021   4.454
18035SOL    HW154063   5.195   9.973   4.536
18035SOL    HW254064   5.244   0.104   4.478
18036SOL     OW54065   3.922   9.558   5.220
18036SOL    HW154066   3.861   9.618   5.263
18036SOL    HW254067   3.894   9.471   5.249
18037SOL     OW54068   5.117   9.412   4.178
18037SOL    HW154069   5.117   9.388   4.086
18037SOL    HW254070   5.209   9.411   4.204
18038SOL     OW54071   5.226   9.522   5.435
18038SOL    HW154072   5.237   9.539   5.528
18038SOL    HW254073   5.162   9.451   5.430
18039SOL     OW54074   4.376   9.417   3.826
18039SOL    HW154075   4.426   9.341   3.855
18039SOL    HW254076   4.319   9.384   3.757
18040SOL     OW54077   4.483   9.574   5.473
18040SOL    HW154078   4.568   9.529   5.471
18040SOL    HW254079   4.438   9.536   5.548
18041SOL     OW54080   5.090   9.904   5.153
18041SOL    HW154081   5.098   9.868   5.242
18041SOL    HW254082   5.148   9.980   5.154
18042SOL     OW54083   4.661   9.799   4.619
18042SOL    HW154084   4.631   9.781   4.530
18042SOL    HW254085   4.700   9.717   4.649
18043SOL     OW54086   4.289   9.375   4.213
18043SOL    HW154087   4.212   9.376   4.270
18043SOL    HW254088   4.281   9.454   4.160
18044SOL     OW54089   4.010   9.363   3.908
18044SOL    HW154090   4.065   9.425   3.861
18044SOL    HW254091   4.071   9.304   3.951
18045SOL     OW54092   4.666   9.584   4.170
18045SOL    HW154093   4.644   9.612   4.081
18045SOL    HW254094   4.761   9.594   4.176
18046SOL     OW54095   4.796   9.943   5.289
18046SOL    HW154096   4.729   9.904   5.233
18046SOL    HW254097   4.850   9.995   5.229
18047SOL     OW54098   4.749   9.832   3.751
18047SOL    HW154099   4.729   9.920   3.720
18047SOL    HW254100   4.817   9.845   3.818
18048SOL     OW54101   3.798   9.891   5.100
18048SOL    HW154102   3.893   9.894   5.089
18048SOL    HW254103   3.774   9.980   5.125
18049SOL     OW54104   4.278   9.537   4.906
18049SOL    HW154105   4.322   9.485   4.974
18049SOL    HW254106   4.185   9.528   4.926
18050SOL     OW54107   4.582   9.768   4.366
18050SOL    HW154108   4.561   9.845   4.314
18050SOL    HW254109   4.605   9.700   4.302
18051SOL     OW54110   4.745   9.358   4.457
18051SOL    HW154111   4.683   9.354   4.383
18051SOL    HW254112   4.718   9.286   4.514
18052SOL     OW54113   5.201   9.873   4.677
18052SOL    HW154114   5.126   9.816   4.694
18052SOL    HW254115   5.243   9.884   4.762
18053SOL     OW54116   4.273   9.582   4.032
18053SOL    HW154117   4.307   9.529   3.960
18053SOL    HW254118   4.291   9.673   4.005
18054SOL     OW54119   4.644   9.392   5.105
18054SOL    HW154120   4.667   9.371   5.014
18054SOL    HW254121   4.724   9.432   5.140
18055SOL     OW54122   4.991   9.689   5.018
18055SOL    HW154123   5.028   9.765   5.062
18055SOL    HW254124   4.905   9.717   4.987
18056SOL     OW54125   4.271   9.764   4.575
18056SOL    HW154126   4.267   9.771   4.480
18056SOL    HW254127   4.339   9.827   4.601
18057SOL     OW54128   5.300   9.878   4.244
18057SOL    HW154129   5.262   9.940   4.307
18057SOL    HW254130   5.350   9.933   4.184
18058SOL     OW54131   4.723   9.446   5.487
18058SOL    HW154132   4.784   9.517   5.471
18058SOL    HW254133   4.771   9.367   5.463
18059SOL     OW54134   4.218   9.334   5.482
18059SOL    HW154135   4.167   9.281   5.421
18059SOL    HW254136   4.164   9.410   5.501
18060SOL     OW54137   4.921   9.841   3.968
18060SOL    HW154138   4.940   9.759   4.014
18060SOL    HW254139   4.875   9.894   4.033
18061SOL     OW54140   4.014   9.499   4.964
18061SOL    HW154141   3.974   9.525   5.047
18061SOL    HW254142   3.999   9.404   4.960
18062SOL     OW54143   4.445   9.931   4.723
18062SOL    HW154144   4.529   9.895   4.693
18062SOL    HW254145   4.452   0.025   4.706
18063SOL     OW54146   4.049   9.373   4.352
18063SOL    HW154147   4.019   9.461   4.373
18063SOL    HW254148   4.055   9.329   4.437
18064SOL     OW54149   5.338   9.666   4.074
18064SOL    HW154150   5.386   9.601   4.125
18064SOL    HW254151   5.309   9.731   4.139
18065SOL     OW54152   5.237   9.568   3.836
18065SOL    HW154153   5.184   9.496   3.868
18065SOL    HW254154   5.273   9.608   3.915
18066SOL     OW54155   4.048   0.057   4.622
18066SOL    HW154156   4.126   0.111   4.633
18066SOL    HW254157   4.060   9.985   4.683
18067SOL     OW54158   4.088   9.822   4.768
18067SOL    HW154159   4.031   9.747   4.754
18067SOL    HW254160   4.161   9.808   4.707
18068SOL     OW54161   4.874   9.667   5.420
18068SOL    HW154162   4.817   9.726   5.469
18068SOL    HW254163   4.955   9.717   5.407
18069SOL     OW54164   4.880   9.503   5.195
18069SOL    HW154165   4.872   9.559   5.272
18069SOL    HW254166   4.926   9.557   5.130
18070SOL     OW54167   3.745   9.844   4.830
18070SOL    HW154168   3.818   9.810   4.779
18070SOL    HW254169   3.782   9.858   4.918
18071SOL     OW54170   3.989   9.809   5.448
18071SOL    HW154171   4.038   9.795   5.366
18071SOL    HW254172   4.028   9.887   5.486
18072SOL     OW54173   4.448   9.885   3.975
18072SOL    HW154174   4.507   9.811   3.961
18072SOL    HW254175   4.456   9.905   4.068
18073SOL     OW54176   5.355   9.901   4.907
18073SOL    HW154177   5.345   9.842   4.982
18073SOL    HW254178   5.439   9.875   4.868
18074SOL     OW54179   4.393   9.786   4.955
18074SOL    HW154180   4.351   9.705   4.928
18074SOL    HW254181   4.399   9.838   4.875
18075SOL     OW54182   5.474   9.477   4.222
18075SOL    HW154183   5.534   9.457   4.151
18075SOL    HW254184   5.447   9.392   4.257
18076SOL     OW54185   5.566   9.467   4.687
18076SOL    HW154186   5.596   9.379   4.667
18076SOL    HW254187   5.478   9.472   4.651
18077SOL     OW54188   3.973   9.620   4.440
18077SOL    HW154189   3.885   9.649   4.415
18077SOL    HW254190   3.972   9.623   4.536
18078SOL     OW54191   4.761   9.542   4.673
18078SOL    HW154192   4.759   9.493   4.590
18078SOL    HW254193   4.751   9.476   4.741
18079SOL     OW54194   5.477   9.687   5.123
18079SOL    HW154195   5.540   9.757   5.113
18079SOL    HW254196   5.504   9.620   5.060
18080SOL     OW54197   4.404   9.495   5.211
18080SOL    HW154198   4.488   9.469   5.174
18080SOL    HW254199   4.425   9.528   5.298
18081SOL     OW54200   3.808   9.639   3.727
18081SOL    HW154201   3.728   9.635   3.674
18081SOL    HW254202   3.856   9.713   3.692
18082SOL     OW54203   3.769   9.455   3.995
18082SOL    HW154204   3.752   9.525   3.933
18082SOL    HW254205   3.858   9.426   3.976
18083SOL     OW54206   4.464   9.847   5.407
18083SOL    HW154207   4.521   9.894   5.469
18083SOL    HW254208   4.467   9.756   5.436
18084SOL     OW54209   4.939   9.633   4.171
18084SOL    HW154210   4.999   9.558   4.174
18084SOL    HW254211   4.962   9.685   4.248
18085SOL     OW54212   5.464   9.668   5.397
18085SOL    HW154213   5.467   9.678   5.302
18085SOL    HW254214   5.392   9.607   5.413
18086SOL     OW54215   4.858   0.219   3.787
18086SOL    HW154216   4.866   0.313   3.778
18086SOL    HW254217   4.932   0.194   3.843
18087SOL     OW54218   5.534   9.481   4.959
18087SOL    HW154219   5.536   9.386   4.972
18087SOL    HW254220   5.545   9.493   4.864
18088SOL     OW54221   4.197   9.716   4.305
18088SOL    HW154222   4.197   9.673   4.220
18088SOL    HW254223   4.115   9.688   4.346
18089SOL     OW54224   4.060   9.909   5.028
18089SOL    HW154225   4.110   9.854   5.088
18089SOL    HW254226   4.083   9.877   4.941
18090SOL     OW54227   5.145   9.540   4.847
18090SOL    HW154228   5.158   9.454   4.886
18090SOL    HW254229   5.099   9.591   4.914
18091SOL     OW54230   4.732   9.321   4.846
18091SOL    HW154231   4.679   9.257   4.798
18091SOL    HW254232   4.820   9.282   4.849
18092SOL     OW54233   5.101   9.342   3.911
18092SOL    HW154234   5.140   9.268   3.865
18092SOL    HW254235   5.009   9.317   3.923
18093SOL     OW54236   5.011   9.775   4.396
18093SOL    HW154237   5.053   9.861   4.404
18093SOL    HW254238   5.007   9.742   4.486
18094SOL     OW54239   5.302   9.489   4.621
18094SOL    HW154240   5.250   9.523   4.694
18094SOL    HW254241   5.306   9.561   4.558
18095SOL     OW54242   3.932   9.607   6.586
18095SOL    HW154243   3.964   9.564   6.665
18095SOL    HW254244   3.848   9.565   6.567
18096SOL     OW54245   3.717   9.687   6.233
18096SOL    HW154246   3.640   9.705   6.288
18096SOL    HW254247   3.690   9.615   6.176
18097SOL     OW54248   5.347   9.913   5.801
18097SOL    HW154249   5.380   9.910   5.712
18097SOL    HW254250   5.360   9.825   5.835
18098SOL     OW54251   4.144   9.722   7.083
18098SOL    HW154252   4.229   9.677   7.077
18098SOL    HW254253   4.079   9.652   7.077
18099SOL     OW54254   5.330   9.725   6.342
18099SOL    HW154255   5.307   9.766   6.259
18099SOL    HW254256   5.294   9.783   6.409
18100SOL     OW54257   5.312   9.442   7.040
18100SOL    HW154258   5.357   9.517   7.001
18100SOL    HW254259   5.280   9.473   7.124
18101SOL     OW54260   3.754   9.973   6.191
18101SOL    HW154261   3.748   9.878   6.199
18101SOL    HW254262   3.848   9.992   6.190
18102SOL     OW54263   4.559   9.334   6.100
18102SOL    HW154264   4.595   9.420   6.075
18102SOL    HW254265   4.465   9.347   6.102
18103SOL     OW54266   4.069   9.549   7.423
18103SOL    HW154267   4.092   9.635   7.388
18103SOL    HW254268   3.975   9.554   7.440
18104SOL     OW54269   5.000   9.682   6.526
18104SOL    HW154270   4.911   9.645   6.526
18104SOL    HW254271   5.050   9.625   6.584
18105SOL     OW54272   4.573   9.832   7.018
18105SOL    HW154273   4.531   9.842   7.103
18105SOL    HW254274   4.501   9.822   6.956
18106SOL     OW54275   5.130   9.785   7.265
18106SOL    HW154276   5.179   9.831   7.334
18106SOL    HW254277   5.163   9.695   7.268
18107SOL     OW54278   4.734   9.764   6.811
18107SOL    HW154279   4.682   9.783   6.889
18107SOL    HW254280   4.681   9.703   6.761
18108SOL     OW54281   4.800   9.981   6.025
18108SOL    HW154282   4.854   0.018   6.095
18108SOL    HW254283   4.710   9.996   6.054
18109SOL     OW54284   4.612   9.662   5.773
18109SOL    HW154285   4.661   9.720   5.715
18109SOL    HW254286   4.612   9.577   5.728
18110SOL     OW54287   5.399   9.899   7.395
18110SOL    HW154288   5.447   9.969   7.352
18110SOL    HW254289   5.429   9.819   7.352
18111SOL     OW54290   4.273   9.473   6.500
18111SOL    HW154291   4.279   9.498   6.592
18111SOL    HW254292   4.273   9.556   6.452
18112SOL     OW54293   5.204   0.022   6.315
18112SOL    HW154294   5.196   9.973   6.397
18112SOL    HW254295   5.246   0.104   6.340
18113SOL     OW54296   3.923   9.558   7.082
18113SOL    HW154297   3.862   9.619   7.124
18113SOL    HW254298   3.894   9.471   7.111
18114SOL     OW54299   5.117   9.412   6.040
18114SOL    HW154300   5.117   9.388   5.948
18114SOL    HW254301   5.209   9.410   6.066
18115SOL     OW54302   5.226   9.523   7.297
18115SOL    HW154303   5.236   9.539   7.390
18115SOL    HW254304   5.160   9.453   7.292
18116SOL     OW54305   4.376   9.417   5.688
18116SOL    HW154306   4.426   9.340   5.717
18116SOL    HW254307   4.320   9.384   5.619
18117SOL     OW54308   4.483   9.574   7.335
18117SOL    HW154309   4.568   9.529   7.334
18117SOL    HW254310   4.438   9.536   7.410
18118SOL     OW54311   5.098   9.901   7.012
18118SOL    HW154312   5.100   9.868   7.101
18118SOL    HW254313   5.153   9.980   7.014
18119SOL     OW54314   4.661   9.800   6.481
18119SOL    HW154315   4.631   9.781   6.392
18119SOL    HW254316   4.700   9.717   6.511
18120SOL     OW54317   4.289   9.374   6.075
18120SOL    HW154318   4.212   9.376   6.132
18120SOL    HW254319   4.281   9.453   6.022
18121SOL     OW54320   4.010   9.363   5.770
18121SOL    HW154321   4.066   9.425   5.724
18121SOL    HW254322   4.071   9.303   5.813
18122SOL     OW54323   4.666   9.584   6.032
18122SOL    HW154324   4.644   9.612   5.943
18122SOL    HW254325   4.761   9.594   6.038
18123SOL     OW54326   4.797   9.947   7.151
18123SOL    HW154327   4.731   9.907   7.095
18123SOL    HW254328   4.842   0.009   7.094
18124SOL     OW54329   4.749   9.833   5.613
18124SOL    HW154330   4.730   9.921   5.581
18124SOL    HW254331   4.817   9.845   5.680
18125SOL     OW54332   3.798   9.891   6.963
18125SOL    HW154333   3.893   9.894   6.952
18125SOL    HW254334   3.775   9.980   6.991
18126SOL     OW54335   4.278   9.536   6.768
18126SOL    HW154336   4.321   9.485   6.837
18126SOL    HW254337   4.184   9.528   6.788
18127SOL     OW54338   4.582   9.767   6.228
18127SOL    HW154339   4.561   9.844   6.176
18127SOL    HW254340   4.605   9.700   6.164
18128SOL     OW54341   4.745   9.358   6.319
18128SOL    HW154342   4.683   9.354   6.245
18128SOL    HW254343   4.718   9.286   6.376
18129SOL     OW54344   5.201   9.873   6.538
18129SOL    HW154345   5.126   9.816   6.556
18129SOL    HW254346   5.243   9.884   6.623
18130SOL     OW54347   4.273   9.581   5.894
18130SOL    HW154348   4.307   9.528   5.822
18130SOL    HW254349   4.292   9.672   5.868
18131SOL     OW54350   4.645   9.391   6.967
18131SOL    HW154351   4.667   9.371   6.876
18131SOL    HW254352   4.724   9.432   7.002
18132SOL     OW54353   4.991   9.688   6.880
18132SOL    HW154354   5.029   9.765   6.923
18132SOL    HW254355   4.905   9.718   6.849
18133SOL     OW54356   4.272   9.764   6.438
18133SOL    HW154357   4.268   9.773   6.342
18133SOL    HW254358   4.339   9.827   6.465
18134SOL     OW54359   5.300   9.879   6.106
18134SOL    HW154360   5.263   9.940   6.170
18134SOL    HW254361   5.352   9.934   6.048
18135SOL     OW54362   4.723   9.446   7.349
18135SOL    HW154363   4.784   9.518   7.333
18135SOL    HW254364   4.772   9.367   7.325
18136SOL     OW54365   4.218   9.333   7.344
18136SOL    HW154366   4.166   9.281   7.283
18136SOL    HW254367   4.164   9.410   7.363
18137SOL     OW54368   4.920   9.842   5.831
18137SOL    HW154369   4.940   9.760   5.876
18137SOL    HW254370   4.875   9.895   5.896
18138SOL     OW54371   4.013   9.498   6.827
18138SOL    HW154372   3.974   9.525   6.910
18138SOL    HW254373   3.998   9.404   6.822
18139SOL     OW54374   4.445   9.930   6.585
18139SOL    HW154375   4.529   9.895   6.556
18139SOL    HW254376   4.452   0.024   6.572
18140SOL     OW54377   4.049   9.373   6.214
18140SOL    HW154378   4.019   9.461   6.235
18140SOL    HW254379   4.055   9.329   6.299
18141SOL     OW54380   5.338   9.667   5.936
18141SOL    HW154381   5.385   9.602   5.987
18141SOL    HW254382   5.309   9.732   6.000
18142SOL     OW54383   5.237   9.568   5.698
18142SOL    HW154384   5.184   9.496   5.730
18142SOL    HW254385   5.273   9.608   5.777
18143SOL     OW54386   4.048   0.056   6.483
18143SOL    HW154387   4.125   0.112   6.494
18143SOL    HW254388   4.061   9.984   6.545
18144SOL     OW54389   4.088   9.821   6.630
18144SOL    HW154390   4.031   9.746   6.616
18144SOL    HW254391   4.161   9.808   6.569
18145SOL     OW54392   4.874   9.668   7.281
18145SOL    HW154393   4.817   9.726   7.332
18145SOL    HW254394   4.954   9.718   7.268
18146SOL     OW54395   4.880   9.503   7.057
18146SOL    HW154396   4.872   9.560   7.134
18146SOL    HW254397   4.926   9.557   6.992
18147SOL     OW54398   3.746   9.845   6.693
18147SOL    HW154399   3.821   9.814   6.642
18147SOL    HW254400   3.782   9.859   6.781
18148SOL     OW54401   3.993   9.810   7.311
18148SOL    HW154402   4.040   9.796   7.228
18148SOL    HW254403   4.034   9.887   7.349
18149SOL     OW54404   4.451   9.887   5.837
18149SOL    HW154405   4.508   9.812   5.823
18149SOL    HW254406   4.458   9.905   5.931
18150SOL     OW54407   5.355   9.903   6.767
18150SOL    HW154408   5.342   9.845   6.843
18150SOL    HW254409   5.439   9.875   6.730
18151SOL     OW54410   4.395   9.785   6.817
18151SOL    HW154411   4.352   9.704   6.791
18151SOL    HW254412   4.400   9.837   6.737
18152SOL     OW54413   5.473   9.478   6.084
18152SOL    HW154414   5.534   9.457   6.013
18152SOL    HW254415   5.446   9.393   6.118
18153SOL     OW54416   5.566   9.467   6.549
18153SOL    HW154417   5.596   9.379   6.529
18153SOL    HW254418   5.478   9.472   6.513
18154SOL     OW54419   3.973   9.620   6.302
18154SOL    HW154420   3.885   9.649   6.277
18154SOL    HW254421   3.973   9.623   6.397
18155SOL     OW54422   4.761   9.543   6.534
18155SOL    HW154423   4.758   9.493   6.452
18155SOL    HW254424   4.750   9.476   6.603
18156SOL     OW54425   5.477   9.686   6.986
18156SOL    HW154426   5.540   9.757   6.975
18156SOL    HW254427   5.504   9.620   6.922
18157SOL     OW54428   4.404   9.494   7.073
18157SOL    HW154429   4.488   9.469   7.036
18157SOL    HW254430   4.425   9.528   7.160
18158SOL     OW54431   3.807   9.638   5.591
18158SOL    HW154432   3.727   9.633   5.538
18158SOL    HW254433   3.855   9.712   5.554
18159SOL     OW54434   3.769   9.455   5.857
18159SOL    HW154435   3.752   9.525   5.795
18159SOL    HW254436   3.858   9.426   5.838
18160SOL     OW54437   4.466   9.847   7.270
18160SOL    HW154438   4.521   9.895   7.332
18160SOL    HW254439   4.469   9.756   7.299
18161SOL     OW54440   4.940   9.633   6.033
18161SOL    HW154441   4.999   9.558   6.035
18161SOL    HW254442   4.963   9.685   6.109
18162SOL     OW54443   5.464   9.668   7.260
18162SOL    HW154444   5.468   9.678   7.165
18162SOL    HW254445   5.391   9.608   7.275
18163SOL     OW54446   4.869   0.216   5.641
18163SOL    HW154447   4.870   0.312   5.648
18163SOL    HW254448   4.940   0.188   5.699
18164SOL     OW54449   5.535   9.481   6.820
18164SOL    HW154450   5.536   9.386   6.833
18164SOL    HW254451   5.546   9.493   6.726
18165SOL     OW54452   4.196   9.717   6.165
18165SOL    HW154453   4.196   9.672   6.081
18165SOL    HW254454   4.114   9.689   6.207
18166SOL     OW54455   4.060   9.909   6.890
18166SOL    HW154456   4.109   9.854   6.951
18166SOL    HW254457   4.083   9.877   6.803
18167SOL     OW54458   5.145   9.540   6.709
18167SOL    HW154459   5.157   9.454   6.748
18167SOL    HW254460   5.099   9.591   6.776
18168SOL     OW54461   4.733   9.321   6.708
18168SOL    HW154462   4.679   9.257   6.660
18168SOL    HW254463   4.820   9.282   6.710
18169SOL     OW54464   5.101   9.342   5.773
18169SOL    HW154465   5.140   9.268   5.727
18169SOL    HW254466   5.009   9.317   5.785
18170SOL     OW54467   5.011   9.775   6.258
18170SOL    HW154468   5.053   9.861   6.267
18170SOL    HW254469   5.007   9.741   6.348
18171SOL     OW54470   5.302   9.489   6.483
18171SOL    HW154471   5.250   9.523   6.556
18171SOL    HW254472   5.305   9.561   6.420
18172SOL     OW54473   3.932   9.607   8.448
18172SOL    HW154474   3.964   9.564   8.527
18172SOL    HW254475   3.848   9.565   8.429
18173SOL     OW54476   3.718   9.687   8.095
18173SOL    HW154477   3.641   9.705   8.150
18173SOL    HW254478   3.691   9.615   8.039
18174SOL     OW54479   5.350   9.912   7.666
18174SOL    HW154480   5.382   9.910   7.575
18174SOL    HW254481   5.363   9.823   7.698
18175SOL     OW54482   4.144   9.720   8.947
18175SOL    HW154483   4.229   9.676   8.938
18175SOL    HW254484   4.079   9.650   8.939
18176SOL     OW54485   5.331   9.726   8.204
18176SOL    HW154486   5.308   9.767   8.121
18176SOL    HW254487   5.295   9.784   8.271
18177SOL     OW54488   5.312   9.442   8.902
18177SOL    HW154489   5.357   9.518   8.864
18177SOL    HW254490   5.280   9.473   8.987
18178SOL     OW54491   3.754   9.973   8.054
18178SOL    HW154492   3.748   9.878   8.061
18178SOL    HW254493   3.848   9.992   8.053
18179SOL     OW54494   4.559   9.334   7.962
18179SOL    HW154495   4.594   9.419   7.937
18179SOL    HW254496   4.464   9.347   7.964
18180SOL     OW54497   4.068   9.548   9.286
18180SOL    HW154498   4.090   9.634   9.249
18180SOL    HW254499   3.973   9.553   9.303
18181SOL     OW54500   5.000   9.683   8.388
18181SOL    HW154501   4.912   9.646   8.388
18181SOL    HW254502   5.050   9.625   8.446
18182SOL     OW54503   4.571   9.831   8.884
18182SOL    HW154504   4.526   9.842   8.968
18182SOL    HW254505   4.500   9.821   8.821
18183SOL     OW54506   5.129   9.782   9.127
18183SOL    HW154507   5.173   9.826   9.199
18183SOL    HW254508   5.162   9.692   9.129
18184SOL     OW54509   4.733   9.764   8.676
18184SOL    HW154510   4.681   9.782   8.754
18184SOL    HW254511   4.679   9.704   8.625
18185SOL     OW54512   4.799   9.982   7.885
18185SOL    HW154513   4.854   0.022   7.953
18185SOL    HW254514   4.709   9.996   7.915
18186SOL     OW54515   4.612   9.661   7.635
18186SOL    HW154516   4.661   9.720   7.578
18186SOL    HW254517   4.613   9.577   7.590
18187SOL     OW54518   5.404   9.901   9.255
18187SOL    HW154519   5.442   9.971   9.202
18187SOL    HW254520   5.433   9.820   9.213
18188SOL     OW54521   4.273   9.473   8.361
18188SOL    HW154522   4.280   9.499   8.453
18188SOL    HW254523   4.273   9.556   8.313
18189SOL     OW54524   5.203   0.022   8.177
18189SOL    HW154525   5.196   9.973   8.259
18189SOL    HW254526   5.245   0.104   8.202
18190SOL     OW54527   3.922   9.557   8.944
18190SOL    HW154528   3.861   9.618   8.985
18190SOL    HW254529   3.894   9.471   8.974
18191SOL     OW54530   5.116   9.412   7.902
18191SOL    HW154531   5.116   9.388   7.810
18191SOL    HW254532   5.209   9.412   7.927
18192SOL     OW54533   5.227   9.522   9.162
18192SOL    HW154534   5.237   9.542   9.255
18192SOL    HW254535   5.165   9.448   9.159
18193SOL     OW54536   4.376   9.417   7.550
18193SOL    HW154537   4.426   9.341   7.579
18193SOL    HW254538   4.319   9.384   7.481
18194SOL     OW54539   4.483   9.574   9.197
18194SOL    HW154540   4.569   9.530   9.195
18194SOL    HW254541   4.438   9.536   9.272
18195SOL     OW54542   5.101   9.899   8.873
18195SOL    HW154543   5.102   9.866   8.963
18195SOL    HW254544   5.156   9.978   8.876
18196SOL     OW54545   4.660   9.799   8.343
18196SOL    HW154546   4.630   9.781   8.254
18196SOL    HW254547   4.699   9.717   8.373
18197SOL     OW54548   4.289   9.374   7.937
18197SOL    HW154549   4.212   9.376   7.993
18197SOL    HW254550   4.281   9.454   7.883
18198SOL     OW54551   4.010   9.363   7.632
18198SOL    HW154552   4.065   9.426   7.585
18198SOL    HW254553   4.071   9.304   7.674
18199SOL     OW54554   4.666   9.583   7.894
18199SOL    HW154555   4.644   9.611   7.805
18199SOL    HW254556   4.760   9.594   7.900
18200SOL     OW54557   4.795   9.950   9.014
18200SOL    HW154558   4.729   9.908   8.958
18200SOL    HW254559   4.838   0.014   8.957
18201SOL     OW54560   4.750   9.832   7.475
18201SOL    HW154561   4.730   9.920   7.445
18201SOL    HW254562   4.817   9.844   7.542
18202SOL     OW54563   3.797   9.893   8.825
18202SOL    HW154564   3.892   9.896   8.814
18202SOL    HW254565   3.772   9.983   8.845
18203SOL     OW54566   4.278   9.536   8.630
18203SOL    HW154567   4.322   9.484   8.698
18203SOL    HW254568   4.185   9.528   8.649
18204SOL     OW54569   4.582   9.767   8.090
18204SOL    HW154570   4.561   9.845   8.038
18204SOL    HW254571   4.605   9.700   8.026
18205SOL     OW54572   4.745   9.358   8.181
18205SOL    HW154573   4.683   9.354   8.107
18205SOL    HW254574   4.718   9.286   8.238
18206SOL     OW54575   5.201   9.873   8.400
18206SOL    HW154576   5.126   9.817   8.418
18206SOL    HW254577   5.243   9.885   8.485
18207SOL     OW54578   4.273   9.582   7.756
18207SOL    HW154579   4.307   9.529   7.684
18207SOL    HW254580   4.292   9.672   7.730
18208SOL     OW54581   4.644   9.392   8.828
18208SOL    HW154582   4.666   9.372   8.737
18208SOL    HW254583   4.724   9.432   8.864
18209SOL     OW54584   4.990   9.688   8.742
18209SOL    HW154585   5.030   9.764   8.784
18209SOL    HW254586   4.905   9.719   8.712
18210SOL     OW54587   4.272   9.764   8.300
18210SOL    HW154588   4.268   9.771   8.205
18210SOL    HW254589   4.339   9.827   8.326
18211SOL     OW54590   5.300   9.878   7.968
18211SOL    HW154591   5.263   9.940   8.031
18211SOL    HW254592   5.349   9.933   7.907
18212SOL     OW54593   4.724   9.447   9.214
18212SOL    HW154594   4.784   9.519   9.195
18212SOL    HW254595   4.771   9.368   9.189
18213SOL     OW54596   4.218   9.334   9.206
18213SOL    HW154597   4.167   9.282   9.145
18213SOL    HW254598   4.163   9.410   9.225
18214SOL     OW54599   4.921   9.841   7.693
18214SOL    HW154600   4.940   9.759   7.738
18214SOL    HW254601   4.875   9.894   7.758
18215SOL     OW54602   4.014   9.498   8.688
18215SOL    HW154603   3.974   9.524   8.771
18215SOL    HW254604   3.999   9.404   8.683
18216SOL     OW54605   4.445   9.931   8.448
18216SOL    HW154606   4.528   9.895   8.418
18216SOL    HW254607   4.452   0.025   8.433
18217SOL     OW54608   4.049   9.373   8.076
18217SOL    HW154609   4.019   9.461   8.097
18217SOL    HW254610   4.055   9.329   8.161
18218SOL     OW54611   5.338   9.666   7.799
18218SOL    HW154612   5.386   9.600   7.850
18218SOL    HW254613   5.309   9.730   7.863
18219SOL     OW54614   5.238   9.568   7.560
18219SOL    HW154615   5.184   9.496   7.592
18219SOL    HW254616   5.273   9.608   7.640
18220SOL     OW54617   4.048   0.055   8.346
18220SOL    HW154618   4.125   0.111   8.356
18220SOL    HW254619   4.061   9.984   8.408
18221SOL     OW54620   4.089   9.821   8.493
18221SOL    HW154621   4.031   9.746   8.479
18221SOL    HW254622   4.162   9.807   8.432
18222SOL     OW54623   4.872   9.669   9.142
18222SOL    HW154624   4.816   9.728   9.192
18222SOL    HW254625   4.953   9.717   9.128
18223SOL     OW54626   4.880   9.503   8.919
18223SOL    HW154627   4.871   9.560   8.995
18223SOL    HW254628   4.926   9.556   8.854
18224SOL     OW54629   3.745   9.841   8.556
18224SOL    HW154630   3.819   9.812   8.503
18224SOL    HW254631   3.782   9.856   8.643
18225SOL     OW54632   3.986   9.805   9.169
18225SOL    HW154633   4.037   9.792   9.088
18225SOL    HW254634   4.021   9.887   9.205
18226SOL     OW54635   4.449   9.885   7.699
18226SOL    HW154636   4.508   9.811   7.685
18226SOL    HW254637   4.457   9.906   7.792
18227SOL     OW54638   5.354   9.903   8.629
18227SOL    HW154639   5.341   9.846   8.705
18227SOL    HW254640   5.438   9.874   8.593
18228SOL     OW54641   4.395   9.785   8.680
18228SOL    HW154642   4.352   9.704   8.653
18228SOL    HW254643   4.400   9.838   8.601
18229SOL     OW54644   5.474   9.477   7.947
18229SOL    HW154645   5.534   9.456   7.875
18229SOL    HW254646   5.447   9.392   7.981
18230SOL     OW54647   5.566   9.468   8.411
18230SOL    HW154648   5.596   9.379   8.391
18230SOL    HW254649   5.478   9.473   8.375
18231SOL     OW54650   3.973   9.620   8.164
18231SOL    HW154651   3.885   9.649   8.139
18231SOL    HW254652   3.973   9.623   8.260
18232SOL     OW54653   4.761   9.542   8.396
18232SOL    HW154654   4.759   9.493   8.314
18232SOL    HW254655   4.750   9.476   8.465
18233SOL     OW54656   5.478   9.686   8.850
18233SOL    HW154657   5.540   9.758   8.838
18233SOL    HW254658   5.505   9.620   8.786
18234SOL     OW54659   4.404   9.495   8.935
18234SOL    HW154660   4.488   9.470   8.898
18234SOL    HW254661   4.425   9.528   9.022
18235SOL     OW54662   3.808   9.640   7.451
18235SOL    HW154663   3.729   9.636   7.397
18235SOL    HW254664   3.857   9.714   7.416
18236SOL     OW54665   3.769   9.455   7.720
18236SOL    HW154666   3.752   9.525   7.658
18236SOL    HW254667   3.858   9.426   7.700
18237SOL     OW54668   4.460   9.848   9.137
18237SOL    HW154669   4.520   9.893   9.196
18237SOL    HW254670   4.464   9.756   9.163
18238SOL     OW54671   4.939   9.632   7.895
18238SOL    HW154672   4.999   9.558   7.898
18238SOL    HW254673   4.962   9.685   7.972
18239SOL     OW54674   5.464   9.668   9.123
18239SOL    HW154675   5.468   9.678   9.028
18239SOL    HW254676   5.390   9.608   9.138
18240SOL     OW54677   4.861   0.224   7.507
18240SOL    HW154678   4.861   0.320   7.506
18240SOL    HW254679   4.932   0.201   7.567
18241SOL     OW54680   5.536   9.482   8.683
18241SOL    HW154681   5.538   9.387   8.695
18241SOL    HW254682   5.546   9.494   8.588
18242SOL     OW54683   4.197   9.716   8.029
18242SOL    HW154684   4.197   9.673   7.944
18242SOL    HW254685   4.115   9.688   8.070
18243SOL     OW54686   4.059   9.909   8.753
18243SOL    HW154687   4.109   9.853   8.813
18243SOL    HW254688   4.082   9.877   8.666
18244SOL     OW54689   5.145   9.540   8.571
18244SOL    HW154690   5.157   9.454   8.610
18244SOL    HW254691   5.098   9.591   8.638
18245SOL     OW54692   4.732   9.321   8.570
18245SOL    HW154693   4.679   9.257   8.521
18245SOL    HW254694   4.820   9.282   8.572
18246SOL     OW54695   5.101   9.342   7.635
18246SOL    HW154696   5.140   9.268   7.589
18246SOL    HW254697   5.009   9.317   7.647
18247SOL     OW54698   5.012   9.774   8.120
18247SOL    HW154699   5.052   9.860   8.128
18247SOL    HW254700   5.007   9.741   8.210
18248SOL     OW54701   5.302   9.489   8.345
18248SOL    HW154702   5.250   9.523   8.418
18248SOL    HW254703   5.305   9.561   8.283
18249SOL     OW54704   5.355   9.916   9.524
18249SOL    HW154705   5.385   9.915   9.433
18249SOL    HW254706   5.365   9.826   9.554
18250SOL     OW54707   3.819   9.866   9.924
18250SOL    HW154708   3.792   9.875   9.832
18250SOL    HW254709   3.876   9.941   9.939
18251SOL     OW54710   4.546   9.348   9.826
18251SOL    HW154711   4.589   9.429   9.797
18251SOL    HW254712   4.453   9.370   9.830
18252SOL     OW54713   4.802   9.961   9.764
18252SOL    HW154714   4.833   9.947   9.853
18252SOL    HW254715   4.710   9.986   9.774
18253SOL     OW54716   4.619   9.654   9.491
18253SOL    HW154717   4.667   9.715   9.435
18253SOL    HW254718   4.623   9.570   9.445
18254SOL     OW54719   5.153   9.433   9.725
18254SOL    HW154720   5.147   9.391   9.639
18254SOL    HW254721   5.247   9.440   9.742
18255SOL     OW54722   4.381   9.412   9.411
18255SOL    HW154723   4.428   9.334   9.438
18255SOL    HW254724   4.321   9.382   9.342
18256SOL     OW54725   4.270   9.409   9.844
18256SOL    HW154726   4.177   9.409   9.866
18256SOL    HW254727   4.276   9.465   9.766
18257SOL     OW54728   4.012   9.369   9.498
18257SOL    HW154729   4.064   9.431   9.446
18257SOL    HW254730   4.077   9.315   9.543
18258SOL     OW54731   4.671   9.591   9.754
18258SOL    HW154732   4.646   9.613   9.664
18258SOL    HW254733   4.767   9.596   9.754
18259SOL     OW54734   4.752   9.834   9.337
18259SOL    HW154735   4.730   9.922   9.306
18259SOL    HW254736   4.819   9.849   9.404
18260SOL     OW54737   4.583   9.768   9.953
18260SOL    HW154738   4.554   9.846   9.907
18260SOL    HW254739   4.609   9.707   9.884
18261SOL     OW54740   4.288   9.568   9.624
18261SOL    HW154741   4.320   9.518   9.549
18261SOL    HW254742   4.300   9.659   9.599
18262SOL     OW54743   5.342   9.961   9.797
18262SOL    HW154744   5.261   0.010   9.812
18262SOL    HW254745   5.351   9.958   9.702
18263SOL     OW54746   4.924   9.849   9.554
18263SOL    HW154747   4.942   9.763   9.591
18263SOL    HW254748   4.881   9.897   9.624
18264SOL     OW54749   4.004   9.423   9.928
18264SOL    HW154750   3.937   9.490   9.940
18264SOL    HW254751   4.012   9.381   0.013
18265SOL     OW54752   5.335   9.686   9.670
18265SOL    HW154753   5.371   9.609   9.715
18265SOL    HW254754   5.310   9.745   9.741
18266SOL     OW54755   5.237   9.579   9.424
18266SOL    HW154756   5.184   9.503   9.451
18266SOL    HW254757   5.266   9.618   9.507
18267SOL     OW54758   4.073   9.802   0.276
18267SOL    HW154759   3.991   9.759   0.299
18267SOL    HW254760   4.139   9.733   0.281
18268SOL     OW54761   4.468   9.887   9.555
18268SOL    HW154762   4.519   9.808   9.540
18268SOL    HW254763   4.496   9.919   9.641
18269SOL     OW54764   5.434   9.453   9.777
18269SOL    HW154765   5.506   9.457   9.714
18269SOL    HW254766   5.450   9.372   9.826
18270SOL     OW54767   3.806   9.637   9.315
18270SOL    HW154768   3.726   9.633   9.262
18270SOL    HW254769   3.855   9.711   9.279
18271SOL     OW54770   3.766   9.459   9.581
18271SOL    HW154771   3.755   9.527   9.515
18271SOL    HW254772   3.856   9.427   9.568
18272SOL     OW54773   4.948   9.622   9.730
18272SOL    HW154774   5.014   9.554   9.718
18272SOL    HW254775   4.983   9.676   9.802
18273SOL     OW54776   4.854   0.237   9.369
18273SOL    HW154777   4.845   0.332   9.359
18273SOL    HW254778   4.919   0.227   9.439
18274SOL     OW54779   4.121   9.753   9.778
18274SOL    HW154780   4.155   9.668   9.750
18274SOL    HW254781   4.109   9.744   9.872
18275SOL     OW54782   5.102   9.342   9.473
18275SOL    HW154783   5.141   9.264   9.434
18275SOL    HW254784   5.012   9.316   9.494
18276SOL     OW54785   5.059   9.752   9.939
18276SOL    HW154786   4.987   9.794   9.986
18276SOL    HW254787   5.108   9.707   0.008
18277SOL     OW54788   5.772   0.606   0.148
18277SOL    HW154789   5.693   0.594   0.202
18277SOL    HW254790   5.757   0.551   0.071
18278SOL     OW54791   5.777   0.322   1.037
18278SOL    HW154792   5.822   0.270   1.103
18278SOL    HW254793   5.710   0.264   1.003
18279SOL     OW54794   5.574   0.420   0.654
18279SOL    HW154795   5.491   0.445   0.694
18279SOL    HW254796   5.553   0.342   0.602
18280SOL     OW54797   6.161   1.309   1.210
18280SOL    HW154798   6.079   1.311   1.161
18280SOL    HW254799   6.178   1.400   1.233
18281SOL     OW54800   7.176   1.523   0.706
18281SOL    HW154801   7.129   1.491   0.783
18281SOL    HW254802   7.110   1.527   0.637
18282SOL     OW54803   6.725   0.706   0.688
18282SOL    HW154804   6.769   0.790   0.679
18282SOL    HW254805   6.673   0.714   0.768
18283SOL     OW54806   7.363   0.583   0.222
18283SOL    HW154807   7.302   0.601   0.151
18283SOL    HW254808   7.322   0.512   0.272
18284SOL     OW54809   6.314   1.131   1.059
18284SOL    HW154810   6.255   1.171   1.123
18284SOL    HW254811   6.356   1.205   1.016
18285SOL     OW54812   6.471   0.738   1.826
18285SOL    HW154813   6.456   0.805   1.893
18285SOL    HW254814   6.489   0.788   1.746
18286SOL     OW54815   6.271   0.975   0.646
18286SOL    HW154816   6.338   0.977   0.714
18286SOL    HW254817   6.204   1.037   0.676
18287SOL     OW54818   6.297   1.149   1.833
18287SOL    HW154819   6.349   1.222   1.868
18287SOL    HW254820   6.221   1.191   1.792
18288SOL     OW54821   5.928   1.397   1.071
18288SOL    HW154822   5.852   1.355   1.031
18288SOL    HW254823   5.964   1.452   1.001
18289SOL     OW54824   7.039   1.506   1.372
18289SOL    HW154825   7.094   1.584   1.385
18289SOL    HW254826   6.967   1.518   1.434
18290SOL     OW54827   6.043   0.402   1.456
18290SOL    HW154828   6.120   0.348   1.474
18290SOL    HW254829   5.969   0.345   1.478
18291SOL     OW54830   7.171   0.463   0.749
18291SOL    HW154831   7.099   0.464   0.685
18291SOL    HW254832   7.148   0.531   0.812
18292SOL     OW54833   5.813   1.722   0.469
18292SOL    HW154834   5.830   1.796   0.527
18292SOL    HW254835   5.898   1.701   0.431
18293SOL     OW54836   6.721   1.342   1.697
18293SOL    HW154837   6.766   1.331   1.781
18293SOL    HW254838   6.668   1.262   1.688
18294SOL     OW54839   5.795   1.445   0.509
18294SOL    HW154840   5.787   1.540   0.519
18294SOL    HW254841   5.756   1.409   0.589
18295SOL     OW54842   5.866   1.088   0.881
18295SOL    HW154843   5.869   0.999   0.917
18295SOL    HW254844   5.812   1.137   0.943
18296SOL     OW54845   6.158   1.805   1.419
18296SOL    HW154846   6.083   1.784   1.474
18296SOL    HW254847   6.192   1.888   1.454
18297SOL     OW54848   6.153   0.951   0.174
18297SOL    HW154849   6.127   1.021   0.114
18297SOL    HW254850   6.211   0.994   0.237
18298SOL     OW54851   7.127   0.124   1.454
18298SOL    HW154852   7.192   0.176   1.405
18298SOL    HW254853   7.118   0.170   1.537
18299SOL     OW54854   5.708   0.658   0.576
18299SOL    HW154855   5.668   0.573   0.599
18299SOL    HW254856   5.699   0.710   0.655
18300SOL     OW54857   7.447   1.737   0.307
18300SOL    HW154858   7.517   1.716   0.368
18300SOL    HW254859   7.462   1.830   0.285
18301SOL     OW54860   5.653   1.575   0.084
18301SOL    HW154861   5.627   1.488   0.113
18301SOL    HW254862   5.627   1.633   0.156
18302SOL     OW54863   7.286   0.923   0.665
18302SOL    HW154864   7.368   0.876   0.646
18302SOL    HW254865   7.267   0.970   0.584
18303SOL     OW54866   7.249   1.091   0.441
18303SOL    HW154867   7.330   1.087   0.390
18303SOL    HW254868   7.264   1.160   0.505
18304SOL     OW54869   5.693   0.752   1.570
18304SOL    HW154870   5.775   0.801   1.569
18304SOL    HW254871   5.625   0.817   1.553
18305SOL     OW54872   6.203   1.382   0.755
18305SOL    HW154873   6.161   1.296   0.752
18305SOL    HW254874   6.197   1.415   0.665
18306SOL     OW54875   6.856   1.226   1.418
18306SOL    HW154876   6.883   1.158   1.357
18306SOL    HW254877   6.918   1.221   1.491
18307SOL     OW54878   6.397   0.054   0.582
18307SOL    HW154879   6.430   0.133   0.540
18307SOL    HW254880   6.303   0.053   0.561
18308SOL     OW54881   5.772   0.957   1.303
18308SOL    HW154882   5.861   0.926   1.285
18308SOL    HW254883   5.720   0.920   1.232
18309SOL     OW54884   7.071   1.033   0.236
18309SOL    HW154885   7.018   0.961   0.268
18309SOL    HW254886   7.137   1.047   0.305
18310SOL     OW54887   6.765   1.822   1.635
18310SOL    HW154888   6.766   1.884   1.562
18310SOL    HW254889   6.781   1.737   1.595
18311SOL     OW54890   5.905   0.258   1.772
18311SOL    HW154891   5.963   0.316   1.821
18311SOL    HW254892   5.823   0.260   1.821
18312SOL     OW54893   7.058   1.417   0.930
18312SOL    HW154894   6.994   1.436   0.999
18312SOL    HW254895   7.040   1.326   0.906
18313SOL     OW54896   7.228   1.797   0.565
18313SOL    HW154897   7.213   1.751   0.482
18313SOL    HW254898   7.228   1.728   0.631
18314SOL     OW54899   6.174   0.696   0.285
18314SOL    HW154900   6.176   0.783   0.244
18314SOL    HW254901   6.107   0.704   0.353
18315SOL     OW54902   6.868   0.392   0.941
18315SOL    HW154903   6.779   0.358   0.950
18315SOL    HW254904   6.922   0.333   0.993
18316SOL     OW54905   7.176   1.677   0.324
18316SOL    HW154906   7.270   1.687   0.309
18316SOL    HW254907   7.140   1.659   0.237
18317SOL     OW54908   6.379   0.615   1.444
18317SOL    HW154909   6.353   0.580   1.529
18317SOL    HW254910   6.356   0.546   1.381
18318SOL     OW54911   6.984   0.491   1.678
18318SOL    HW154912   6.989   0.531   1.765
18318SOL    HW254913   7.030   0.408   1.686
18319SOL     OW54914   6.532   0.879   1.594
18319SOL    HW154915   6.588   0.816   1.549
18319SOL    HW254916   6.483   0.922   1.523
18320SOL     OW54917   6.600   0.422   1.214
18320SOL    HW154918   6.508   0.429   1.240
18320SOL    HW254919   6.597   0.379   1.128
18321SOL     OW54920   6.652   0.707   0.419
18321SOL    HW154921   6.674   0.701   0.512
18321SOL    HW254922   6.565   0.667   0.412
18322SOL     OW54923   5.681   0.828   0.786
18322SOL    HW154924   5.762   0.819   0.836
18322SOL    HW254925   5.634   0.900   0.830
18323SOL     OW54926   5.696   1.879   1.587
18323SOL    HW154927   5.703   1.859   1.681
18323SOL    HW254928   5.610   1.843   1.562
18324SOL     OW54929   6.426   0.371   0.213
18324SOL    HW154930   6.409   0.417   0.131
18324SOL    HW254931   6.437   0.280   0.188
18325SOL     OW54932   7.277   0.565   1.836
18325SOL    HW154933   7.252   0.643   1.787
18325SOL    HW254934   7.299   0.500   1.769
18326SOL     OW54935   6.982   1.151   0.554
18326SOL    HW154936   7.061   1.139   0.500
18326SOL    HW254937   6.928   1.211   0.504
18327SOL     OW54938   6.121   0.223   0.927
18327SOL    HW154939   6.144   0.237   1.019
18327SOL    HW254940   6.135   0.308   0.886
18328SOL     OW54941   6.586   1.454   0.472
18328SOL    HW154942   6.562   1.530   0.419
18328SOL    HW254943   6.554   1.474   0.560
18329SOL     OW54944   5.939   1.817   0.880
18329SOL    HW154945   5.984   1.732   0.884
18329SOL    HW254946   6.007   1.881   0.901
18330SOL     OW54947   7.390   1.046   0.896
18330SOL    HW154948   7.344   1.027   0.814
18330SOL    HW254949   7.321   1.055   0.961
18331SOL     OW54950   6.803   1.543   1.517
18331SOL    HW154951   6.792   1.472   1.581
18331SOL    HW254952   6.736   1.525   1.450
18332SOL     OW54953   5.895   0.935   0.285
18332SOL    HW154954   5.979   0.942   0.239
18332SOL    HW254955   5.886   0.842   0.306
18333SOL     OW54956   7.068   0.768   0.717
18333SOL    HW154957   7.067   0.729   0.804
18333SOL    HW254958   7.149   0.820   0.715
18334SOL     OW54959   6.059   1.284   1.748
18334SOL    HW154960   6.035   1.288   1.655
18334SOL    HW254961   5.976   1.272   1.794
18335SOL     OW54962   6.690   1.784   0.180
18335SOL    HW154963   6.634   1.744   0.247
18335SOL    HW254964   6.729   1.710   0.134
18336SOL     OW54965   5.805   0.265   1.509
18336SOL    HW154966   5.736   0.332   1.511
18336SOL    HW254967   5.828   0.253   1.601
18337SOL     OW54968   7.215   1.371   0.112
18337SOL    HW154969   7.174   1.457   0.105
18337SOL    HW254970   7.149   1.310   0.077
18338SOL     OW54971   6.073   1.709   0.375
18338SOL    HW154972   6.109   1.784   0.422
18338SOL    HW254973   6.139   1.687   0.310
18339SOL     OW54974   6.983   0.147   0.409
18339SOL    HW154975   6.977   0.110   0.321
18339SOL    HW254976   7.036   0.085   0.458
18340SOL     OW54977   5.838   1.788   1.215
18340SOL    HW154978   5.887   1.714   1.250
18340SOL    HW254979   5.825   1.767   1.122
18341SOL     OW54980   6.533   1.702   0.891
18341SOL    HW154981   6.617   1.659   0.906
18341SOL    HW254982   6.492   1.651   0.822
18342SOL     OW54983   5.966   0.687   0.469
18342SOL    HW154984   5.988   0.594   0.478
18342SOL    HW254985   5.876   0.694   0.503
18343SOL     OW54986   7.088   0.230   1.718
18343SOL    HW154987   7.103   0.249   1.811
18343SOL    HW254988   7.016   0.167   1.718
18344SOL     OW54989   6.211   0.107   0.112
18344SOL    HW154990   6.307   0.108   0.108
18344SOL    HW254991   6.184   0.095   0.021
18345SOL     OW54992   6.344   0.266   1.771
18345SOL    HW154993   6.419   0.208   1.760
18345SOL    HW254994   6.296   0.230   1.845
18346SOL     OW54995   6.456   1.529   1.201
18346SOL    HW154996   6.437   1.487   1.117
18346SOL    HW254997   6.523   1.474   1.241
18347SOL     OW54998   6.924   0.594   1.431
18347SOL    HW154999   6.956   0.568   1.518
18347SOL    HW255000   6.957   0.683   1.420
18348SOL     OW55001   6.403   1.378   0.962
18348SOL    HW155002   6.489   1.374   0.919
18348SOL    HW255003   6.341   1.390   0.889
18349SOL     OW55004   6.521   0.521   0.896
18349SOL    HW155005   6.494   0.510   0.805
18349SOL    HW255006   6.544   0.433   0.925
18350SOL     OW55007   6.138   0.055   0.495
18350SOL    HW155008   6.056   0.039   0.541
18350SOL    HW255009   6.116   0.121   0.429
18351SOL     OW55010   7.009   1.199   0.031
18351SOL    HW155011   7.034   1.134   0.097
18351SOL    HW255012   6.928   1.238   0.065
18352SOL     OW55013   5.891   0.059   0.178
18352SOL    HW155014   5.934   0.119   0.239
18352SOL    HW255015   5.907   9.972   0.214
18353SOL     OW55016   6.528   0.268   0.459
18353SOL    HW155017   6.491   0.305   0.379
18353SOL    HW255018   6.621   0.292   0.456
18354SOL     OW55019   6.665   0.692   1.446
18354SOL    HW155020   6.601   0.621   1.453
18354SOL    HW255021   6.749   0.648   1.441
18355SOL     OW55022   6.791   1.588   0.801
18355SOL    HW155023   6.807   1.648   0.727
18355SOL    HW255024   6.865   1.604   0.860
18356SOL     OW55025   6.066   1.149   0.711
18356SOL    HW155026   6.002   1.128   0.779
18356SOL    HW255027   6.017   1.145   0.629
18357SOL     OW55028   6.839   1.793   0.613
18357SOL    HW155029   6.887   1.857   0.561
18357SOL    HW255030   6.769   1.844   0.655
18358SOL     OW55031   6.688   0.510   9.981
18358SOL    HW155032   6.592   0.506   9.986
18358SOL    HW255033   6.715   0.538   0.068
18359SOL     OW55034   5.688   0.537   1.397
18359SOL    HW155035   5.777   0.551   1.364
18359SOL    HW255036   5.674   0.608   1.460
18360SOL     OW55037   6.153   0.237   1.202
18360SOL    HW155038   6.196   0.189   1.273
18360SOL    HW255039   6.060   0.226   1.218
18361SOL     OW55040   6.454   0.471   0.640
18361SOL    HW155041   6.419   0.528   0.572
18361SOL    HW255042   6.475   0.390   0.595
18362SOL     OW55043   6.558   0.064   0.804
18362SOL    HW155044   6.501   0.058   0.727
18362SOL    HW255045   6.568   9.973   0.833
18363SOL     OW55046   7.017   1.153   0.854
18363SOL    HW155047   6.949   1.086   0.866
18363SOL    HW255048   7.028   1.160   0.759
18364SOL     OW55049   7.042   0.622   0.954
18364SOL    HW155050   6.981   0.549   0.961
18364SOL    HW255051   7.098   0.615   1.032
18365SOL     OW55052   7.446   0.794   0.377
18365SOL    HW155053   7.492   0.746   0.446
18365SOL    HW255054   7.403   0.725   0.325
18366SOL     OW55055   6.090   1.443   0.214
18366SOL    HW155056   6.008   1.398   0.235
18366SOL    HW255057   6.131   1.387   0.148
18367SOL     OW55058   7.297   1.272   0.630
18367SOL    HW155059   7.389   1.264   0.654
18367SOL    HW255060   7.273   1.360   0.657
18368SOL     OW55061   6.997   0.563   0.096
18368SOL    HW155062   6.923   0.552   0.156
18368SOL    HW255063   7.037   0.476   0.092
18369SOL     OW55064   6.073   0.244   0.299
18369SOL    HW155065   6.126   0.195   0.237
18369SOL    HW255066   6.058   0.328   0.256
18370SOL     OW55067   7.320   1.244   1.533
18370SOL    HW155068   7.409   1.210   1.519
18370SOL    HW255069   7.334   1.332   1.570
18371SOL     OW55070   6.628   1.357   1.337
18371SOL    HW155071   6.551   1.322   1.381
18371SOL    HW255072   6.701   1.311   1.377
18372SOL     OW55073   7.193   1.634   1.672
18372SOL    HW155074   7.182   1.671   1.584
18372SOL    HW255075   7.271   1.579   1.665
18373SOL     OW55076   6.736   1.240   1.106
18373SOL    HW155077   6.674   1.274   1.170
18373SOL    HW255078   6.703   1.271   1.021
18374SOL     OW55079   7.192   1.092   1.078
18374SOL    HW155080   7.184   1.158   1.146
18374SOL    HW255081   7.123   1.113   1.015
18375SOL     OW55082   6.472   0.163   1.372
18375SOL    HW155083   6.498   0.118   1.292
18375SOL    HW255084   6.555   0.188   1.414
18376SOL     OW55085   6.565   1.115   1.724
18376SOL    HW155086   6.475   1.132   1.751
18376SOL    HW255087   6.561   1.034   1.673
18377SOL     OW55088   6.309   1.055   0.379
18377SOL    HW155089   6.295   1.026   0.469
18377SOL    HW255090   6.389   1.011   0.351
18378SOL     OW55091   6.016   0.839   1.259
18378SOL    HW155092   6.084   0.844   1.327
18378SOL    HW255093   5.982   0.750   1.266
18379SOL     OW55094   6.857   0.375   1.284
18379SOL    HW155095   6.888   0.452   1.332
18379SOL    HW255096   6.768   0.397   1.257
18380SOL     OW55097   5.664   1.570   1.363
18380SOL    HW155098   5.634   1.641   1.307
18380SOL    HW255099   5.759   1.570   1.353
18381SOL     OW55100   5.902   1.127   0.489
18381SOL    HW155101   5.900   1.197   0.424
18381SOL    HW255102   5.907   1.046   0.438
18382SOL     OW55103   6.144   0.493   0.851
18382SOL    HW155104   6.148   0.549   0.773
18382SOL    HW255105   6.204   0.534   0.913
18383SOL     OW55106   6.835   1.349   0.417
18383SOL    HW155107   6.891   1.422   0.445
18383SOL    HW255108   6.747   1.375   0.443
18384SOL     OW55109   6.895   1.469   1.142
18384SOL    HW155110   6.943   1.475   1.225
18384SOL    HW255111   6.844   1.389   1.149
18385SOL     OW55112   7.120   0.633   0.476
18385SOL    HW155113   7.098   0.673   0.560
18385SOL    HW255114   7.080   0.690   0.411
18386SOL     OW55115   5.930   1.533   1.303
18386SOL    HW155116   5.923   1.481   1.223
18386SOL    HW255117   6.024   1.550   1.312
18387SOL     OW55118   6.031   0.728   1.626
18387SOL    HW155119   6.080   0.778   1.561
18387SOL    HW255120   6.083   0.649   1.641
18388SOL     OW55121   7.211   0.788   1.698
18388SOL    HW155122   7.124   0.826   1.690
18388SOL    HW255123   7.261   0.826   1.626
18389SOL     OW55124   6.547   0.077   1.774
18389SOL    HW155125   6.615   0.131   1.816
18389SOL    HW255126   6.590   0.041   1.696
18390SOL     OW55127   6.054   0.020   1.765
18390SOL    HW155128   6.113   0.012   1.690
18390SOL    HW255129   6.007   0.102   1.751
18391SOL     OW55130   6.177   0.881   1.036
18391SOL    HW155131   6.217   0.968   1.041
18391SOL    HW255132   6.120   0.876   1.114
18392SOL     OW55133   6.892   0.858   1.003
18392SOL    HW155134   6.803   0.832   0.979
18392SOL    HW255135   6.945   0.780   0.987
18393SOL     OW55136   6.770   0.526   0.248
18393SOL    HW155137   6.782   0.453   0.309
18393SOL    HW255138   6.731   0.595   0.302
18394SOL     OW55139   5.886   0.180   1.257
18394SOL    HW155140   5.852   0.211   1.340
18394SOL    HW255141   5.897   0.085   1.269
18395SOL     OW55142   5.634   1.313   1.267
18395SOL    HW155143   5.664   1.257   1.339
18395SOL    HW255144   5.638   1.401   1.303
18396SOL     OW55145   6.295   0.628   1.034
18396SOL    HW155146   6.376   0.625   0.983
18396SOL    HW255147   6.265   0.719   1.024
18397SOL     OW55148   7.338   0.968   1.869
18397SOL    HW155149   7.297   0.896   1.821
18397SOL    HW255150   7.275   0.989   1.938
18398SOL     OW55151   5.886   0.058   0.629
18398SOL    HW155152   5.866   0.152   0.627
18398SOL    HW255153   5.898   0.039   0.722
18399SOL     OW55154   7.214   0.399   0.365
18399SOL    HW155155   7.240   0.335   0.431
18399SOL    HW255156   7.178   0.472   0.415
18400SOL     OW55157   6.622   0.764   0.961
18400SOL    HW155158   6.600   0.779   1.053
18400SOL    HW255159   6.594   0.674   0.944
18401SOL     OW55160   6.566   1.565   1.735
18401SOL    HW155161   6.545   1.609   1.653
18401SOL    HW255162   6.605   1.482   1.709
18402SOL     OW55163   7.424   1.495   1.602
18402SOL    HW155164   7.451   1.524   1.515
18402SOL    HW255165   7.502   1.506   1.656
18403SOL     OW55166   5.936   0.913   1.809
18403SOL    HW155167   6.010   0.933   1.865
18403SOL    HW255168   5.968   0.846   1.749
18404SOL     OW55169   7.081   0.306   0.140
18404SOL    HW155170   7.054   0.215   0.152
18404SOL    HW255171   7.126   0.328   0.222
18405SOL     OW55172   6.908   0.813   0.035
18405SOL    HW155173   6.942   0.723   0.041
18405SOL    HW255174   6.973   0.859   9.982
18406SOL     OW55175   6.655   1.354   0.866
18406SOL    HW155176   6.665   1.281   0.805
18406SOL    HW255177   6.708   1.425   0.828
18407SOL     OW55178   5.908   0.815   0.945
18407SOL    HW155179   6.001   0.834   0.944
18407SOL    HW255180   5.903   0.724   0.976
18408SOL     OW55181   5.934   0.543   1.015
18408SOL    HW155182   5.877   0.467   1.012
18408SOL    HW255183   6.004   0.524   0.953
18409SOL     OW55184   6.721   0.408   1.653
18409SOL    HW155185   6.675   0.445   1.728
18409SOL    HW255186   6.809   0.445   1.659
18410SOL     OW55187   6.728   0.208   1.468
18410SOL    HW155188   6.720   0.272   1.539
18410SOL    HW255189   6.783   0.252   1.403
18411SOL     OW55190   5.602   1.291   0.172
18411SOL    HW155191   5.512   1.319   0.156
18411SOL    HW255192   5.594   1.209   0.220
18412SOL     OW55193   5.678   1.770   0.951
18412SOL    HW155194   5.645   1.696   0.900
18412SOL    HW255195   5.766   1.787   0.914
18413SOL     OW55196   6.070   1.571   0.904
18413SOL    HW155197   6.141   1.633   0.925
18413SOL    HW255198   6.112   1.504   0.850
18414SOL     OW55199   6.536   0.785   1.219
18414SOL    HW155200   6.599   0.769   1.290
18414SOL    HW255201   6.458   0.737   1.245
18415SOL     OW55202   5.603   0.524   1.129
18415SOL    HW155203   5.661   0.464   1.082
18415SOL    HW255204   5.647   0.538   1.213
18416SOL     OW55205   5.772   0.556   1.748
18416SOL    HW155206   5.858   0.549   1.706
18416SOL    HW255207   5.725   0.622   1.696
18417SOL     OW55208   6.976   0.921   1.652
18417SOL    HW155209   6.994   1.015   1.647
18417SOL    HW255210   6.968   0.894   1.561
18418SOL     OW55211   6.408   0.586   0.385
18418SOL    HW155212   6.413   0.510   0.327
18418SOL    HW255213   6.329   0.632   0.358
18419SOL     OW55214   7.212   0.605   1.170
18419SOL    HW155215   7.193   0.550   1.247
18419SOL    HW255216   7.300   0.579   1.143
18420SOL     OW55217   5.812   1.540   1.723
18420SOL    HW155218   5.788   1.588   1.802
18420SOL    HW255219   5.824   1.450   1.753
18421SOL     OW55220   6.324   0.450   1.236
18421SOL    HW155221   6.262   0.378   1.225
18421SOL    HW255222   6.304   0.510   1.164
18422SOL     OW55223   6.489   1.681   1.490
18422SOL    HW155224   6.468   1.632   1.410
18422SOL    HW255225   6.492   1.772   1.462
18423SOL     OW55226   6.036   0.484   0.160
18423SOL    HW155227   6.098   0.547   0.195
18423SOL    HW255228   5.951   0.528   0.166
18424SOL     OW55229   5.715   1.151   1.481
18424SOL    HW155230   5.720   1.112   1.568
18424SOL    HW255231   5.736   1.080   1.421
18425SOL     OW55232   6.888   1.037   1.209
18425SOL    HW155233   6.897   0.973   1.138
18425SOL    HW255234   6.835   1.107   1.172
18426SOL     OW55235   6.910   0.822   0.318
18426SOL    HW155236   6.826   0.800   0.356
18426SOL    HW255237   6.896   0.815   0.223
18427SOL     OW55238   7.373   1.724   1.171
18427SOL    HW155239   7.435   1.749   1.102
18427SOL    HW255240   7.341   1.638   1.143
18428SOL     OW55241   6.827   1.734   1.091
18428SOL    HW155242   6.911   1.764   1.057
18428SOL    HW255243   6.841   1.643   1.115
18429SOL     OW55244   5.691   1.251   1.010
18429SOL    HW155245   5.662   1.271   1.099
18429SOL    HW255246   5.621   1.196   0.975
18430SOL     OW55247   6.273   1.683   1.749
18430SOL    HW155248   6.210   1.754   1.736
18430SOL    HW255249   6.347   1.705   1.691
18431SOL     OW55250   6.482   0.117   0.128
18431SOL    HW155251   6.568   0.146   0.099
18431SOL    HW255252   6.500   0.044   0.187
18432SOL     OW55253   7.357   0.194   0.523
18432SOL    HW155254   7.373   0.182   0.429
18432SOL    HW255255   7.398   0.118   0.564
18433SOL     OW55256   6.986   1.571   0.504
18433SOL    HW155257   7.044   1.606   0.435
18433SOL    HW255258   6.933   1.646   0.530
18434SOL     OW55259   5.720   1.807   1.844
18434SOL    HW155260   5.679   1.731   1.886
18434SOL    HW255261   5.770   1.848   1.914
18435SOL     OW55262   6.863   0.939   0.669
18435SOL    HW155263   6.936   0.879   0.683
18435SOL    HW255264   6.899   1.010   0.618
18436SOL     OW55265   6.369   1.280   1.413
18436SOL    HW155266   6.343   1.327   1.492
18436SOL    HW255267   6.295   1.290   1.353
18437SOL     OW55268   6.270   1.638   0.188
18437SOL    HW155269   6.276   1.651   0.094
18437SOL    HW255270   6.215   1.560   0.198
18438SOL     OW55271   7.202   1.730   1.402
18438SOL    HW155272   7.259   1.730   1.325
18438SOL    HW255273   7.186   1.823   1.420
18439SOL     OW55274   7.438   0.154   0.963
18439SOL    HW155275   7.469   0.081   0.910
18439SOL    HW255276   7.352   0.176   0.926
18440SOL     OW55277   5.831   0.321   0.700
18440SOL    HW155278   5.745   0.361   0.688
18440SOL    HW255279   5.840   0.312   0.795
18441SOL     OW55280   6.802   1.567   0.052
18441SOL    HW155281   6.790   1.478   0.083
18441SOL    HW255282   6.815   1.558   9.957
18442SOL     OW55283   6.410   1.011   1.387
18442SOL    HW155284   6.448   1.000   1.300
18442SOL    HW255285   6.399   1.105   1.397
18443SOL     OW55286   6.530   0.929   0.294
18443SOL    HW155287   6.578   0.945   0.214
18443SOL    HW255288   6.576   0.856   0.336
18444SOL     OW55289   7.075   1.613   0.074
18444SOL    HW155290   6.980   1.604   0.081
18444SOL    HW255291   7.091   1.621   9.980
18445SOL     OW55292   5.948   1.313   1.502
18445SOL    HW155293   5.941   1.386   1.441
18445SOL    HW255294   5.871   1.260   1.485
18446SOL     OW55295   7.184   1.290   1.277
18446SOL    HW155296   7.239   1.266   1.352
18446SOL    HW255297   7.125   1.357   1.311
18447SOL     OW55298   6.659   1.121   0.730
18447SOL    HW155299   6.584   1.071   0.761
18447SOL    HW255300   6.722   1.055   0.701
18448SOL     OW55301   6.613   0.260   0.984
18448SOL    HW155302   6.597   0.211   0.904
18448SOL    HW255303   6.608   0.195   1.054
18449SOL     OW55304   6.206   1.484   0.505
18449SOL    HW155305   6.248   1.430   0.438
18449SOL    HW255306   6.137   1.531   0.458
18450SOL     OW55307   7.326   0.371   1.389
18450SOL    HW155308   7.400   0.431   1.378
18450SOL    HW255309   7.341   0.304   1.322
18451SOL     OW55310   5.855   1.315   0.284
18451SOL    HW155311   5.771   1.315   0.236
18451SOL    HW255312   5.838   1.367   0.362
18452SOL     OW55313   5.708   1.047   1.736
18452SOL    HW155314   5.631   1.018   1.785
18452SOL    HW255315   5.780   0.994   1.770
18453SOL     OW55316   6.247   0.230   1.510
18453SOL    HW155317   6.326   0.204   1.461
18453SOL    HW255318   6.279   0.247   1.599
18454SOL     OW55319   5.676   0.441   9.937
18454SOL    HW155320   5.605   0.376   9.928
18454SOL    HW255321   5.751   0.400   9.894
18455SOL     OW55322   7.000   0.857   1.388
18455SOL    HW155323   6.947   0.916   1.333
18455SOL    HW255324   7.088   0.862   1.350
18456SOL     OW55325   6.781   1.312   0.144
18456SOL    HW155326   6.691   1.281   0.137
18456SOL    HW255327   6.799   1.310   0.238
18457SOL     OW55328   6.213   0.831   1.444
18457SOL    HW155329   6.271   0.906   1.432
18457SOL    HW255330   6.271   0.755   1.445
18458SOL     OW55331   7.073   1.802   0.993
18458SOL    HW155332   7.100   1.877   0.939
18458SOL    HW255333   7.155   1.757   1.014
18459SOL     OW55334   6.303   0.541   1.696
18459SOL    HW155335   6.352   0.599   1.755
18459SOL    HW255336   6.318   0.453   1.730
18460SOL     OW55337   7.054   1.184   1.619
18460SOL    HW155338   7.047   1.207   1.712
18460SOL    HW255339   7.144   1.208   1.596
18461SOL     OW55340   5.940   1.747   1.580
18461SOL    HW155341   5.858   1.793   1.562
18461SOL    HW255342   5.913   1.663   1.618
18462SOL     OW55343   7.240   0.877   1.254
18462SOL    HW155344   7.236   0.793   1.208
18462SOL    HW255345   7.228   0.942   1.185
18463SOL     OW55346   6.795   0.340   0.453
18463SOL    HW155347   6.860   0.271   0.437
18463SOL    HW255348   6.828   0.386   0.530
18464SOL     OW55349   6.159   0.716   0.678
18464SOL    HW155350   6.203   0.800   0.666
18464SOL    HW255351   6.093   0.713   0.608
18465SOL     OW55352   7.326   0.356   1.662
18465SOL    HW155353   7.327   0.368   1.567
18465SOL    HW255354   7.247   0.305   1.679
18466SOL     OW55355   7.343   0.926   1.503
18466SOL    HW155356   7.328   1.019   1.517
18466SOL    HW255357   7.316   0.910   1.413
18467SOL     OW55358   6.485   1.417   0.045
18467SOL    HW155359   6.400   1.377   0.026
18467SOL    HW255360   6.478   1.447   0.135
18468SOL     OW55361   6.254   1.768   0.928
18468SOL    HW155362   6.236   1.862   0.919
18468SOL    HW255363   6.349   1.762   0.926
18469SOL     OW55364   6.458   0.976   0.857
18469SOL    HW155365   6.510   0.905   0.893
18469SOL    HW255366   6.413   1.014   0.933
18470SOL     OW55367   6.683   0.966   0.070
18470SOL    HW155368   6.680   1.022   9.991
18470SOL    HW255369   6.759   0.910   0.056
18471SOL     OW55370   7.418   1.557   0.840
18471SOL    HW155371   7.341   1.548   0.783
18471SOL    HW255372   7.397   1.503   0.916
18472SOL     OW55373   5.798   1.286   1.836
18472SOL    HW155374   5.767   1.206   1.793
18472SOL    HW255375   5.739   1.298   1.911
18473SOL     OW55376   5.705   1.220   0.670
18473SOL    HW155377   5.734   1.180   0.752
18473SOL    HW255378   5.764   1.186   0.604
18474SOL     OW55379   6.276   1.419   1.632
18474SOL    HW155380   6.200   1.380   1.674
18474SOL    HW255381   6.281   1.507   1.669
18475SOL     OW55382   7.346   0.150   1.228
18475SOL    HW155383   7.297   0.068   1.221
18475SOL    HW255384   7.389   0.159   1.143
18476SOL     OW55385   6.009   0.426   0.512
18476SOL    HW155386   6.035   0.353   0.457
18476SOL    HW255387   5.956   0.387   0.581
18477SOL     OW55388   7.280   1.480   1.082
18477SOL    HW155389   7.203   1.461   1.030
18477SOL    HW255390   7.281   1.413   1.150
18478SOL     OW55391   5.931   0.582   1.288
18478SOL    HW155392   5.985   0.521   1.338
18478SOL    HW255393   5.946   0.557   1.196
18479SOL     OW55394   6.422   1.593   0.666
18479SOL    HW155395   6.408   1.673   0.615
18479SOL    HW255396   6.346   1.538   0.646
18480SOL     OW55397   7.020   0.238   1.112
18480SOL    HW155398   7.056   0.161   1.158
18480SOL    HW255399   6.970   0.284   1.179
18481SOL     OW55400   6.612   0.040   1.160
18481SOL    HW155401   6.583   9.949   1.158
18481SOL    HW255402   6.706   0.035   1.179
18482SOL     OW55403   6.364   1.327   0.341
18482SOL    HW155404   6.342   1.234   0.347
18482SOL    HW255405   6.448   1.335   0.386
18483SOL     OW55406   6.201   1.571   1.288
18483SOL    HW155407   6.196   1.655   1.333
18483SOL    HW255408   6.291   1.566   1.255
18484SOL     OW55409   6.959   0.045   0.154
18484SOL    HW155410   6.976   0.018   0.064
18484SOL    HW255411   6.911   9.971   0.192
18485SOL     OW55412   6.885   0.476   0.676
18485SOL    HW155413   6.834   0.556   0.675
18485SOL    HW255414   6.877   0.443   0.766
18486SOL     OW55415   7.186   0.224   0.882
18486SOL    HW155416   7.129   0.237   0.958
18486SOL    HW255417   7.183   0.308   0.835
18487SOL     OW55418   5.629   1.042   0.295
18487SOL    HW155419   5.725   1.040   0.295
18487SOL    HW255420   5.604   0.957   0.330
18488SOL     OW55421   6.492   1.681   0.345
18488SOL    HW155422   6.414   1.665   0.293
18488SOL    HW255423   6.467   1.751   0.405
18489SOL     OW55424   5.797   0.635   2.015
18489SOL    HW155425   5.710   0.619   2.051
18489SOL    HW255426   5.786   0.622   1.920
18490SOL     OW55427   5.778   0.321   2.897
18490SOL    HW155428   5.823   0.270   2.963
18490SOL    HW255429   5.709   0.263   2.864
18491SOL     OW55430   5.574   0.408   2.501
18491SOL    HW155431   5.491   0.433   2.542
18491SOL    HW255432   5.552   0.334   2.446
18492SOL     OW55433   6.161   1.308   3.071
18492SOL    HW155434   6.079   1.311   3.022
18492SOL    HW255435   6.178   1.400   3.095
18493SOL     OW55436   7.174   1.524   2.567
18493SOL    HW155437   7.127   1.493   2.644
18493SOL    HW255438   7.108   1.528   2.498
18494SOL     OW55439   6.723   0.707   2.549
18494SOL    HW155440   6.769   0.790   2.538
18494SOL    HW255441   6.673   0.717   2.630
18495SOL     OW55442   7.391   0.587   2.078
18495SOL    HW155443   7.353   0.586   1.990
18495SOL    HW255444   7.349   0.514   2.123
18496SOL     OW55445   6.313   1.132   2.919
18496SOL    HW155446   6.255   1.172   2.984
18496SOL    HW255447   6.355   1.206   2.875
18497SOL     OW55448   6.471   0.739   3.688
18497SOL    HW155449   6.457   0.805   3.755
18497SOL    HW255450   6.489   0.788   3.608
18498SOL     OW55451   6.270   0.982   2.507
18498SOL    HW155452   6.338   0.983   2.575
18498SOL    HW255453   6.204   1.044   2.538
18499SOL     OW55454   6.297   1.149   3.696
18499SOL    HW155455   6.349   1.222   3.730
18499SOL    HW255456   6.222   1.192   3.654
18500SOL     OW55457   5.929   1.397   2.932
18500SOL    HW155458   5.853   1.355   2.892
18500SOL    HW255459   5.965   1.452   2.862
18501SOL     OW55460   7.040   1.506   3.234
18501SOL    HW155461   7.095   1.583   3.247
18501SOL    HW255462   6.968   1.517   3.296
18502SOL     OW55463   6.043   0.402   3.318
18502SOL    HW155464   6.120   0.349   3.336
18502SOL    HW255465   5.969   0.345   3.340
18503SOL     OW55466   7.175   0.458   2.607
18503SOL    HW155467   7.105   0.463   2.542
18503SOL    HW255468   7.158   0.532   2.666
18504SOL     OW55469   5.804   1.728   2.327
18504SOL    HW155470   5.831   1.799   2.385
18504SOL    HW255471   5.878   1.717   2.267
18505SOL     OW55472   6.721   1.341   3.559
18505SOL    HW155473   6.767   1.330   3.642
18505SOL    HW255474   6.668   1.262   3.550
18506SOL     OW55475   5.819   1.457   2.395
18506SOL    HW155476   5.798   1.551   2.399
18506SOL    HW255477   5.769   1.419   2.467
18507SOL     OW55478   5.870   1.090   2.740
18507SOL    HW155479   5.872   1.000   2.773
18507SOL    HW255480   5.815   1.138   2.801
18508SOL     OW55481   6.160   1.804   3.282
18508SOL    HW155482   6.083   1.784   3.337
18508SOL    HW255483   6.193   1.887   3.317
18509SOL     OW55484   6.150   0.988   2.015
18509SOL    HW155485   6.201   1.030   1.946
18509SOL    HW255486   6.190   1.019   2.096
18510SOL     OW55487   7.127   0.124   3.315
18510SOL    HW155488   7.191   0.175   3.267
18510SOL    HW255489   7.118   0.170   3.399
18511SOL     OW55490   5.705   0.663   2.428
18511SOL    HW155491   5.672   0.576   2.450
18511SOL    HW255492   5.700   0.712   2.510
18512SOL     OW55493   7.432   1.743   2.180
18512SOL    HW155494   7.504   1.728   2.241
18512SOL    HW255495   7.440   1.836   2.157
18513SOL     OW55496   5.645   1.580   1.972
18513SOL    HW155497   5.625   1.489   1.991
18513SOL    HW255498   5.614   1.628   2.049
18514SOL     OW55499   7.284   0.927   2.517
18514SOL    HW155500   7.366   0.883   2.495
18514SOL    HW255501   7.264   0.979   2.439
18515SOL     OW55502   7.243   1.105   2.295
18515SOL    HW155503   7.328   1.097   2.251
18515SOL    HW255504   7.257   1.171   2.364
18516SOL     OW55505   5.694   0.751   3.432
18516SOL    HW155506   5.776   0.801   3.430
18516SOL    HW255507   5.626   0.817   3.415
18517SOL     OW55508   6.209   1.398   2.592
18517SOL    HW155509   6.167   1.312   2.597
18517SOL    HW255510   6.193   1.427   2.503
18518SOL     OW55511   6.856   1.226   3.280
18518SOL    HW155512   6.883   1.157   3.219
18518SOL    HW255513   6.918   1.221   3.352
18519SOL     OW55514   6.404   0.034   2.399
18519SOL    HW155515   6.434   0.122   2.377
18519SOL    HW255516   6.308   0.040   2.396
18520SOL     OW55517   5.772   0.957   3.165
18520SOL    HW155518   5.861   0.926   3.148
18520SOL    HW255519   5.721   0.922   3.092
18521SOL     OW55520   7.122   1.015   2.062
18521SOL    HW155521   7.053   0.955   2.091
18521SOL    HW255522   7.164   1.046   2.142
18522SOL     OW55523   6.764   1.822   3.498
18522SOL    HW155524   6.766   1.884   3.426
18522SOL    HW255525   6.782   1.737   3.458
18523SOL     OW55526   5.905   0.258   3.633
18523SOL    HW155527   5.963   0.315   3.682
18523SOL    HW255528   5.823   0.259   3.682
18524SOL     OW55529   7.058   1.418   2.792
18524SOL    HW155530   6.995   1.437   2.861
18524SOL    HW255531   7.040   1.327   2.768
18525SOL     OW55532   7.224   1.796   2.424
18525SOL    HW155533   7.207   1.749   2.343
18525SOL    HW255534   7.224   1.727   2.491
18526SOL     OW55535   6.171   0.710   2.136
18526SOL    HW155536   6.171   0.797   2.096
18526SOL    HW255537   6.106   0.716   2.206
18527SOL     OW55538   6.868   0.391   2.800
18527SOL    HW155539   6.779   0.356   2.808
18527SOL    HW255540   6.922   0.332   2.853
18528SOL     OW55541   7.165   1.673   2.181
18528SOL    HW155542   7.259   1.688   2.170
18528SOL    HW255543   7.132   1.660   2.092
18529SOL     OW55544   6.380   0.614   3.306
18529SOL    HW155545   6.353   0.580   3.391
18529SOL    HW255546   6.356   0.545   3.243
18530SOL     OW55547   6.984   0.491   3.540
18530SOL    HW155548   6.989   0.531   3.627
18530SOL    HW255549   7.030   0.408   3.548
18531SOL     OW55550   6.531   0.880   3.455
18531SOL    HW155551   6.588   0.816   3.411
18531SOL    HW255552   6.482   0.922   3.385
18532SOL     OW55553   6.600   0.418   3.071
18532SOL    HW155554   6.509   0.426   3.099
18532SOL    HW255555   6.595   0.374   2.986
18533SOL     OW55556   6.640   0.704   2.282
18533SOL    HW155557   6.663   0.699   2.375
18533SOL    HW255558   6.555   0.661   2.276
18534SOL     OW55559   5.679   0.825   2.647
18534SOL    HW155560   5.761   0.818   2.696
18534SOL    HW255561   5.633   0.897   2.689
18535SOL     OW55562   5.695   1.879   3.450
18535SOL    HW155563   5.703   1.859   3.543
18535SOL    HW255564   5.609   1.846   3.425
18536SOL     OW55565   6.473   0.361   2.067
18536SOL    HW155566   6.515   0.419   2.003
18536SOL    HW255567   6.478   0.274   2.027
18537SOL     OW55568   7.276   0.565   3.698
18537SOL    HW155569   7.252   0.643   3.649
18537SOL    HW255570   7.299   0.501   3.631
18538SOL     OW55571   6.979   1.150   2.405
18538SOL    HW155572   7.059   1.139   2.353
18538SOL    HW255573   6.926   1.212   2.354
18539SOL     OW55574   6.124   0.222   2.789
18539SOL    HW155575   6.146   0.236   2.881
18539SOL    HW255576   6.137   0.307   2.748
18540SOL     OW55577   6.583   1.456   2.327
18540SOL    HW155578   6.559   1.530   2.272
18540SOL    HW255579   6.553   1.480   2.415
18541SOL     OW55580   5.939   1.816   2.743
18541SOL    HW155581   5.985   1.732   2.747
18541SOL    HW255582   6.006   1.881   2.764
18542SOL     OW55583   7.391   1.045   2.753
18542SOL    HW155584   7.344   1.030   2.671
18542SOL    HW255585   7.322   1.054   2.819
18543SOL     OW55586   6.803   1.543   3.379
18543SOL    HW155587   6.792   1.472   3.442
18543SOL    HW255588   6.736   1.527   3.313
18544SOL     OW55589   5.884   0.956   2.126
18544SOL    HW155590   5.967   0.976   2.082
18544SOL    HW255591   5.863   0.867   2.097
18545SOL     OW55592   7.070   0.766   2.573
18545SOL    HW155593   7.068   0.729   2.661
18545SOL    HW255594   7.150   0.820   2.572
18546SOL     OW55595   6.059   1.284   3.610
18546SOL    HW155596   6.035   1.288   3.517
18546SOL    HW255597   5.975   1.273   3.656
18547SOL     OW55598   6.725   1.776   2.088
18547SOL    HW155599   6.643   1.746   2.127
18547SOL    HW255600   6.745   1.711   2.021
18548SOL     OW55601   5.805   0.265   3.370
18548SOL    HW155602   5.737   0.332   3.371
18548SOL    HW255603   5.828   0.253   3.462
18549SOL     OW55604   7.224   1.388   1.962
18549SOL    HW155605   7.183   1.474   1.949
18549SOL    HW255606   7.157   1.325   1.935
18550SOL     OW55607   6.045   1.741   2.178
18550SOL    HW155608   6.094   1.792   2.242
18550SOL    HW255609   6.112   1.701   2.123
18551SOL     OW55610   6.992   0.163   2.280
18551SOL    HW155611   6.985   0.107   2.203
18551SOL    HW255612   7.084   0.156   2.307
18552SOL     OW55613   5.837   1.788   3.077
18552SOL    HW155614   5.886   1.713   3.111
18552SOL    HW255615   5.824   1.768   2.984
18553SOL     OW55616   6.534   1.702   2.752
18553SOL    HW155617   6.619   1.661   2.767
18553SOL    HW255618   6.495   1.652   2.681
18554SOL     OW55619   5.980   0.689   2.336
18554SOL    HW155620   5.995   0.595   2.348
18554SOL    HW255621   5.886   0.700   2.354
18555SOL     OW55622   7.088   0.229   3.580
18555SOL    HW155623   7.103   0.249   3.673
18555SOL    HW255624   7.017   0.166   3.580
18556SOL     OW55625   6.226   0.104   1.968
18556SOL    HW155626   6.263   0.030   2.016
18556SOL    HW255627   6.165   0.065   1.906
18557SOL     OW55628   6.344   0.266   3.632
18557SOL    HW155629   6.419   0.208   3.622
18557SOL    HW255630   6.296   0.230   3.707
18558SOL     OW55631   6.455   1.527   3.061
18558SOL    HW155632   6.437   1.486   2.977
18558SOL    HW255633   6.522   1.472   3.101
18559SOL     OW55634   6.923   0.594   3.293
18559SOL    HW155635   6.955   0.568   3.379
18559SOL    HW255636   6.956   0.683   3.282
18560SOL     OW55637   6.402   1.377   2.818
18560SOL    HW155638   6.490   1.372   2.779
18560SOL    HW255639   6.344   1.392   2.744
18561SOL     OW55640   6.521   0.521   2.755
18561SOL    HW155641   6.493   0.511   2.664
18561SOL    HW255642   6.544   0.432   2.783
18562SOL     OW55643   6.137   0.062   2.356
18562SOL    HW155644   6.056   0.044   2.403
18562SOL    HW255645   6.115   0.130   2.293
18563SOL     OW55646   7.020   1.212   1.894
18563SOL    HW155647   7.050   1.139   1.948
18563SOL    HW255648   6.935   1.236   1.931
18564SOL     OW55649   5.882   0.069   2.086
18564SOL    HW155650   5.951   0.133   2.105
18564SOL    HW255651   5.914   9.987   2.124
18565SOL     OW55652   6.524   0.271   2.324
18565SOL    HW155653   6.498   0.304   2.238
18565SOL    HW255654   6.618   0.288   2.328
18566SOL     OW55655   6.664   0.692   3.308
18566SOL    HW155656   6.600   0.622   3.316
18566SOL    HW255657   6.749   0.648   3.303
18567SOL     OW55658   6.792   1.587   2.664
18567SOL    HW155659   6.807   1.647   2.591
18567SOL    HW255660   6.865   1.604   2.724
18568SOL     OW55661   6.068   1.161   2.569
18568SOL    HW155662   6.006   1.137   2.638
18568SOL    HW255663   6.018   1.154   2.488
18569SOL     OW55664   6.838   1.792   2.479
18569SOL    HW155665   6.887   1.855   2.426
18569SOL    HW255666   6.767   1.843   2.518
18570SOL     OW55667   6.624   0.518   1.892
18570SOL    HW155668   6.576   0.598   1.869
18570SOL    HW255669   6.682   0.544   1.963
18571SOL     OW55670   5.688   0.536   3.260
18571SOL    HW155671   5.777   0.550   3.227
18571SOL    HW255672   5.675   0.608   3.322
18572SOL     OW55673   6.154   0.236   3.064
18572SOL    HW155674   6.196   0.190   3.137
18572SOL    HW255675   6.060   0.225   3.080
18573SOL     OW55676   6.449   0.474   2.500
18573SOL    HW155677   6.406   0.530   2.435
18573SOL    HW255678   6.471   0.394   2.452
18574SOL     OW55679   6.549   0.062   2.651
18574SOL    HW155680   6.496   0.050   2.572
18574SOL    HW255681   6.561   9.974   2.686
18575SOL     OW55682   7.019   1.153   2.717
18575SOL    HW155683   6.950   1.088   2.727
18575SOL    HW255684   7.033   1.160   2.622
18576SOL     OW55685   7.043   0.624   2.813
18576SOL    HW155686   6.982   0.550   2.819
18576SOL    HW255687   7.098   0.616   2.891
18577SOL     OW55688   7.410   0.797   2.251
18577SOL    HW155689   7.472   0.755   2.310
18577SOL    HW255690   7.400   0.735   2.179
18578SOL     OW55691   6.084   1.424   2.012
18578SOL    HW155692   6.009   1.392   2.063
18578SOL    HW255693   6.081   1.375   1.930
18579SOL     OW55694   7.294   1.272   2.496
18579SOL    HW155695   7.387   1.265   2.517
18579SOL    HW255696   7.270   1.361   2.521
18580SOL     OW55697   6.980   0.578   1.936
18580SOL    HW155698   6.923   0.556   2.009
18580SOL    HW255699   7.067   0.552   1.966
18581SOL     OW55700   6.086   0.250   2.157
18581SOL    HW155701   6.150   0.213   2.096
18581SOL    HW255702   6.064   0.335   2.119
18582SOL     OW55703   7.321   1.244   3.395
18582SOL    HW155704   7.409   1.210   3.380
18582SOL    HW255705   7.334   1.331   3.432
18583SOL     OW55706   6.628   1.356   3.198
18583SOL    HW155707   6.550   1.321   3.242
18583SOL    HW255708   6.701   1.310   3.238
18584SOL     OW55709   7.193   1.634   3.534
18584SOL    HW155710   7.182   1.671   3.446
18584SOL    HW255711   7.271   1.579   3.527
18585SOL     OW55712   6.737   1.239   2.968
18585SOL    HW155713   6.674   1.273   3.032
18585SOL    HW255714   6.704   1.271   2.883
18586SOL     OW55715   7.194   1.092   2.939
18586SOL    HW155716   7.186   1.158   3.007
18586SOL    HW255717   7.125   1.113   2.876
18587SOL     OW55718   6.472   0.162   3.232
18587SOL    HW155719   6.498   0.117   3.152
18587SOL    HW255720   6.555   0.186   3.274
18588SOL     OW55721   6.565   1.115   3.586
18588SOL    HW155722   6.475   1.132   3.613
18588SOL    HW255723   6.561   1.035   3.535
18589SOL     OW55724   6.298   1.063   2.239
18589SOL    HW155725   6.283   1.035   2.330
18589SOL    HW255726   6.372   1.011   2.210
18590SOL     OW55727   6.016   0.839   3.122
18590SOL    HW155728   6.084   0.844   3.189
18590SOL    HW255729   5.982   0.750   3.128
18591SOL     OW55730   6.857   0.375   3.145
18591SOL    HW155731   6.887   0.452   3.193
18591SOL    HW255732   6.768   0.397   3.117
18592SOL     OW55733   5.664   1.569   3.224
18592SOL    HW155734   5.634   1.641   3.168
18592SOL    HW255735   5.759   1.569   3.214
18593SOL     OW55736   5.903   1.133   2.347
18593SOL    HW155737   5.904   1.205   2.283
18593SOL    HW255738   5.900   1.054   2.294
18594SOL     OW55739   6.145   0.492   2.713
18594SOL    HW155740   6.150   0.548   2.635
18594SOL    HW255741   6.205   0.534   2.775
18595SOL     OW55742   6.833   1.355   2.260
18595SOL    HW155743   6.889   1.424   2.294
18595SOL    HW255744   6.745   1.378   2.290
18596SOL     OW55745   6.896   1.469   3.004
18596SOL    HW155746   6.943   1.475   3.087
18596SOL    HW255747   6.845   1.388   3.012
18597SOL     OW55748   7.162   0.626   2.342
18597SOL    HW155749   7.111   0.667   2.412
18597SOL    HW255750   7.215   0.697   2.306
18598SOL     OW55751   5.930   1.533   3.164
18598SOL    HW155752   5.923   1.480   3.084
18598SOL    HW255753   6.024   1.549   3.174
18599SOL     OW55754   6.030   0.728   3.487
18599SOL    HW155755   6.080   0.778   3.423
18599SOL    HW255756   6.082   0.649   3.502
18600SOL     OW55757   7.211   0.788   3.560
18600SOL    HW155758   7.124   0.826   3.552
18600SOL    HW255759   7.261   0.826   3.488
18601SOL     OW55760   6.547   0.078   3.635
18601SOL    HW155761   6.615   0.131   3.677
18601SOL    HW255762   6.590   0.041   3.558
18602SOL     OW55763   6.054   0.019   3.628
18602SOL    HW155764   6.114   0.010   3.554
18602SOL    HW255765   6.008   0.101   3.612
18603SOL     OW55766   6.177   0.881   2.899
18603SOL    HW155767   6.217   0.968   2.903
18603SOL    HW255768   6.121   0.876   2.976
18604SOL     OW55769   6.892   0.859   2.863
18604SOL    HW155770   6.803   0.831   2.840
18604SOL    HW255771   6.945   0.781   2.847
18605SOL     OW55772   6.779   0.530   2.122
18605SOL    HW155773   6.788   0.457   2.182
18605SOL    HW255774   6.738   0.599   2.174
18606SOL     OW55775   5.886   0.179   3.117
18606SOL    HW155776   5.852   0.210   3.201
18606SOL    HW255777   5.897   0.085   3.129
18607SOL     OW55778   5.634   1.312   3.128
18607SOL    HW155779   5.664   1.256   3.200
18607SOL    HW255780   5.637   1.401   3.163
18608SOL     OW55781   6.296   0.629   2.896
18608SOL    HW155782   6.376   0.625   2.843
18608SOL    HW255783   6.265   0.719   2.886
18609SOL     OW55784   7.338   0.968   3.732
18609SOL    HW155785   7.297   0.896   3.683
18609SOL    HW255786   7.275   0.989   3.800
18610SOL     OW55787   5.884   0.064   2.489
18610SOL    HW155788   5.865   0.157   2.491
18610SOL    HW255789   5.897   0.039   2.580
18611SOL     OW55790   7.222   0.397   2.202
18611SOL    HW155791   7.261   0.334   2.262
18611SOL    HW255792   7.193   0.469   2.258
18612SOL     OW55793   6.622   0.763   2.821
18612SOL    HW155794   6.600   0.778   2.913
18612SOL    HW255795   6.594   0.674   2.804
18613SOL     OW55796   6.566   1.565   3.598
18613SOL    HW155797   6.545   1.609   3.515
18613SOL    HW255798   6.606   1.482   3.571
18614SOL     OW55799   7.424   1.495   3.464
18614SOL    HW155800   7.451   1.523   3.377
18614SOL    HW255801   7.502   1.506   3.518
18615SOL     OW55802   5.935   0.913   3.671
18615SOL    HW155803   6.010   0.933   3.727
18615SOL    HW255804   5.968   0.846   3.611
18616SOL     OW55805   7.103   0.279   1.981
18616SOL    HW155806   7.063   0.200   2.018
18616SOL    HW255807   7.148   0.320   2.054
18617SOL     OW55808   6.866   0.822   1.882
18617SOL    HW155809   6.909   0.736   1.891
18617SOL    HW255810   6.902   0.858   1.801
18618SOL     OW55811   6.656   1.353   2.728
18618SOL    HW155812   6.667   1.281   2.667
18618SOL    HW255813   6.708   1.424   2.691
18619SOL     OW55814   5.908   0.816   2.806
18619SOL    HW155815   6.001   0.835   2.804
18619SOL    HW255816   5.902   0.725   2.837
18620SOL     OW55817   5.935   0.544   2.877
18620SOL    HW155818   5.878   0.467   2.873
18620SOL    HW255819   6.005   0.525   2.814
18621SOL     OW55820   6.721   0.408   3.516
18621SOL    HW155821   6.675   0.445   3.591
18621SOL    HW255822   6.809   0.445   3.521
18622SOL     OW55823   6.727   0.209   3.328
18622SOL    HW155824   6.719   0.272   3.400
18622SOL    HW255825   6.783   0.254   3.264
18623SOL     OW55826   5.610   1.303   2.041
18623SOL    HW155827   5.520   1.325   2.016
18623SOL    HW255828   5.603   1.217   2.082
18624SOL     OW55829   5.678   1.770   2.813
18624SOL    HW155830   5.645   1.697   2.762
18624SOL    HW255831   5.765   1.787   2.777
18625SOL     OW55832   6.071   1.570   2.763
18625SOL    HW155833   6.141   1.630   2.785
18625SOL    HW255834   6.111   1.508   2.701
18626SOL     OW55835   6.537   0.784   3.079
18626SOL    HW155836   6.598   0.769   3.151
18626SOL    HW255837   6.458   0.737   3.105
18627SOL     OW55838   5.603   0.522   2.992
18627SOL    HW155839   5.661   0.463   2.944
18627SOL    HW255840   5.647   0.538   3.075
18628SOL     OW55841   5.772   0.557   3.610
18628SOL    HW155842   5.858   0.549   3.569
18628SOL    HW255843   5.726   0.623   3.559
18629SOL     OW55844   6.976   0.921   3.514
18629SOL    HW155845   6.994   1.015   3.509
18629SOL    HW255846   6.968   0.894   3.422
18630SOL     OW55847   6.399   0.580   2.236
18630SOL    HW155848   6.405   0.504   2.178
18630SOL    HW255849   6.322   0.628   2.206
18631SOL     OW55850   7.211   0.605   3.030
18631SOL    HW155851   7.192   0.551   3.107
18631SOL    HW255852   7.300   0.579   3.004
18632SOL     OW55853   5.812   1.540   3.583
18632SOL    HW155854   5.790   1.591   3.661
18632SOL    HW255855   5.824   1.451   3.616
18633SOL     OW55856   6.325   0.450   3.098
18633SOL    HW155857   6.262   0.378   3.087
18633SOL    HW255858   6.305   0.510   3.026
18634SOL     OW55859   6.489   1.680   3.352
18634SOL    HW155860   6.468   1.632   3.272
18634SOL    HW255861   6.493   1.772   3.325
18635SOL     OW55862   6.031   0.488   2.034
18635SOL    HW155863   6.093   0.556   2.059
18635SOL    HW255864   5.946   0.532   2.035
18636SOL     OW55865   5.715   1.151   3.343
18636SOL    HW155866   5.720   1.112   3.430
18636SOL    HW255867   5.736   1.079   3.283
18637SOL     OW55868   6.889   1.036   3.070
18637SOL    HW155869   6.898   0.973   2.999
18637SOL    HW255870   6.836   1.107   3.033
18638SOL     OW55871   6.911   0.863   2.154
18638SOL    HW155872   6.840   0.832   2.209
18638SOL    HW255873   6.881   0.848   2.064
18639SOL     OW55874   7.373   1.724   3.033
18639SOL    HW155875   7.434   1.750   2.964
18639SOL    HW255876   7.341   1.638   3.005
18640SOL     OW55877   6.826   1.733   2.952
18640SOL    HW155878   6.911   1.764   2.918
18640SOL    HW255879   6.841   1.642   2.977
18641SOL     OW55880   5.692   1.248   2.872
18641SOL    HW155881   5.663   1.269   2.960
18641SOL    HW255882   5.622   1.194   2.835
18642SOL     OW55883   6.273   1.683   3.611
18642SOL    HW155884   6.210   1.754   3.598
18642SOL    HW255885   6.346   1.706   3.553
18643SOL     OW55886   7.349   0.187   2.346
18643SOL    HW155887   7.401   0.188   2.266
18643SOL    HW255888   7.383   0.113   2.396
18644SOL     OW55889   6.983   1.570   2.365
18644SOL    HW155890   7.038   1.605   2.295
18644SOL    HW255891   6.928   1.644   2.391
18645SOL     OW55892   5.721   1.804   3.706
18645SOL    HW155893   5.680   1.729   3.748
18645SOL    HW255894   5.771   1.846   3.776
18646SOL     OW55895   6.864   0.937   2.525
18646SOL    HW155896   6.938   0.878   2.538
18646SOL    HW255897   6.900   1.010   2.473
18647SOL     OW55898   6.369   1.280   3.276
18647SOL    HW155899   6.343   1.327   3.355
18647SOL    HW255900   6.295   1.290   3.216
18648SOL     OW55901   6.254   1.636   2.021
18648SOL    HW155902   6.269   1.650   1.928
18648SOL    HW255903   6.202   1.556   2.025
18649SOL     OW55904   7.202   1.730   3.264
18649SOL    HW155905   7.259   1.730   3.187
18649SOL    HW255906   7.186   1.822   3.282
18650SOL     OW55907   7.438   0.154   2.824
18650SOL    HW155908   7.469   0.080   2.771
18650SOL    HW255909   7.352   0.175   2.787
18651SOL     OW55910   5.831   0.323   2.565
18651SOL    HW155911   5.744   0.359   2.548
18651SOL    HW255912   5.835   0.315   2.660
18652SOL     OW55913   6.796   1.588   1.900
18652SOL    HW155914   6.785   1.497   1.928
18652SOL    HW255915   6.726   1.602   1.836
18653SOL     OW55916   6.410   1.011   3.248
18653SOL    HW155917   6.448   1.000   3.161
18653SOL    HW255918   6.399   1.105   3.258
18654SOL     OW55919   6.503   0.914   2.154
18654SOL    HW155920   6.561   0.947   2.085
18654SOL    HW255921   6.555   0.847   2.199
18655SOL     OW55922   7.069   1.645   1.920
18655SOL    HW155923   6.977   1.625   1.903
18655SOL    HW255924   7.110   1.648   1.833
18656SOL     OW55925   5.949   1.313   3.363
18656SOL    HW155926   5.942   1.386   3.303
18656SOL    HW255927   5.871   1.260   3.347
18657SOL     OW55928   7.185   1.290   3.138
18657SOL    HW155929   7.239   1.266   3.213
18657SOL    HW255930   7.126   1.357   3.173
18658SOL     OW55931   6.663   1.120   2.591
18658SOL    HW155932   6.587   1.070   2.622
18658SOL    HW255933   6.725   1.054   2.561
18659SOL     OW55934   6.610   0.256   2.838
18659SOL    HW155935   6.591   0.208   2.757
18659SOL    HW255936   6.607   0.189   2.906
18660SOL     OW55937   6.190   1.486   2.337
18660SOL    HW155938   6.245   1.437   2.276
18660SOL    HW255939   6.109   1.502   2.290
18661SOL     OW55940   7.327   0.369   3.251
18661SOL    HW155941   7.400   0.430   3.240
18661SOL    HW255942   7.341   0.302   3.184
18662SOL     OW55943   5.865   1.341   2.161
18662SOL    HW155944   5.778   1.333   2.122
18662SOL    HW255945   5.851   1.389   2.242
18663SOL     OW55946   5.708   1.048   3.598
18663SOL    HW155947   5.631   1.019   3.647
18663SOL    HW255948   5.780   0.994   3.632
18664SOL     OW55949   6.248   0.230   3.370
18664SOL    HW155950   6.326   0.204   3.322
18664SOL    HW255951   6.279   0.247   3.459
18665SOL     OW55952   5.658   0.336   1.876
18665SOL    HW155953   5.577   0.326   1.827
18665SOL    HW255954   5.694   0.420   1.848
18666SOL     OW55955   7.000   0.857   3.250
18666SOL    HW155956   6.947   0.915   3.195
18666SOL    HW255957   7.088   0.862   3.212
18667SOL     OW55958   5.645   0.201   2.127
18667SOL    HW155959   5.643   0.256   2.048
18667SOL    HW255960   5.723   0.147   2.116
18668SOL     OW55961   6.769   1.322   1.985
18668SOL    HW155962   6.679   1.290   1.985
18668SOL    HW255963   6.793   1.326   2.078
18669SOL     OW55964   6.213   0.830   3.306
18669SOL    HW155965   6.272   0.905   3.293
18669SOL    HW255966   6.272   0.755   3.307
18670SOL     OW55967   7.073   1.803   2.855
18670SOL    HW155968   7.099   1.877   2.800
18670SOL    HW255969   7.155   1.759   2.876
18671SOL     OW55970   6.303   0.541   3.558
18671SOL    HW155971   6.352   0.599   3.617
18671SOL    HW255972   6.319   0.453   3.592
18672SOL     OW55973   7.054   1.184   3.481
18672SOL    HW155974   7.047   1.207   3.574
18672SOL    HW255975   7.144   1.208   3.458
18673SOL     OW55976   5.940   1.748   3.440
18673SOL    HW155977   5.858   1.794   3.423
18673SOL    HW255978   5.913   1.664   3.478
18674SOL     OW55979   7.240   0.877   3.115
18674SOL    HW155980   7.237   0.793   3.069
18674SOL    HW255981   7.229   0.942   3.046
18675SOL     OW55982   6.792   0.338   2.320
18675SOL    HW155983   6.861   0.273   2.305
18675SOL    HW255984   6.823   0.387   2.396
18676SOL     OW55985   6.168   0.718   2.541
18676SOL    HW155986   6.209   0.803   2.529
18676SOL    HW255987   6.103   0.712   2.472
18677SOL     OW55988   7.326   0.356   3.524
18677SOL    HW155989   7.328   0.367   3.429
18677SOL    HW255990   7.247   0.305   3.541
18678SOL     OW55991   7.343   0.926   3.365
18678SOL    HW155992   7.328   1.019   3.379
18678SOL    HW255993   7.316   0.910   3.275
18679SOL     OW55994   6.455   1.357   1.924
18679SOL    HW155995   6.419   1.375   2.010
18679SOL    HW255996   6.466   1.443   1.884
18680SOL     OW55997   6.254   1.766   2.787
18680SOL    HW155998   6.235   1.860   2.780
18680SOL    HW255999   6.350   1.761   2.786
18681SOL     OW56000   6.458   0.978   2.718
18681SOL    HW156001   6.509   0.905   2.754
18681SOL    HW256002   6.413   1.015   2.793
18682SOL     OW56003   6.661   0.988   1.950
18682SOL    HW156004   6.638   1.040   1.873
18682SOL    HW256005   6.733   0.932   1.920
18683SOL     OW56006   7.416   1.558   2.701
18683SOL    HW156007   7.340   1.550   2.645
18683SOL    HW256008   7.395   1.506   2.779
18684SOL     OW56009   5.798   1.286   3.699
18684SOL    HW156010   5.767   1.207   3.655
18684SOL    HW256011   5.739   1.298   3.773
18685SOL     OW56012   5.704   1.224   2.529
18685SOL    HW156013   5.735   1.183   2.610
18685SOL    HW256014   5.762   1.191   2.461
18686SOL     OW56015   6.276   1.419   3.494
18686SOL    HW156016   6.199   1.380   3.536
18686SOL    HW256017   6.282   1.507   3.531
18687SOL     OW56018   7.346   0.149   3.088
18687SOL    HW156019   7.296   0.067   3.081
18687SOL    HW256020   7.390   0.158   3.004
18688SOL     OW56021   6.015   0.428   2.383
18688SOL    HW156022   6.040   0.354   2.326
18688SOL    HW256023   5.959   0.388   2.450
18689SOL     OW56024   7.282   1.480   2.943
18689SOL    HW156025   7.203   1.461   2.891
18689SOL    HW256026   7.282   1.413   3.011
18690SOL     OW56027   5.931   0.582   3.149
18690SOL    HW156028   5.985   0.521   3.199
18690SOL    HW256029   5.946   0.558   3.058
18691SOL     OW56030   6.424   1.584   2.532
18691SOL    HW156031   6.394   1.654   2.474
18691SOL    HW256032   6.349   1.526   2.541
18692SOL     OW56033   7.020   0.238   2.973
18692SOL    HW156034   7.055   0.161   3.018
18692SOL    HW256035   6.970   0.285   3.040
18693SOL     OW56036   6.614   0.040   3.018
18693SOL    HW156037   6.588   9.947   3.018
18693SOL    HW256038   6.706   0.039   3.042
18694SOL     OW56039   6.366   1.332   2.190
18694SOL    HW156040   6.341   1.241   2.203
18694SOL    HW256041   6.446   1.343   2.242
18695SOL     OW56042   6.201   1.570   3.150
18695SOL    HW156043   6.197   1.654   3.195
18695SOL    HW256044   6.291   1.566   3.117
18696SOL     OW56045   6.974   0.032   2.041
18696SOL    HW156046   7.057   9.985   2.048
18696SOL    HW256047   6.907   9.964   2.051
18697SOL     OW56048   6.884   0.478   2.537
18697SOL    HW156049   6.832   0.558   2.538
18697SOL    HW256050   6.877   0.445   2.627
18698SOL     OW56051   7.186   0.223   2.743
18698SOL    HW156052   7.129   0.236   2.819
18698SOL    HW256053   7.183   0.307   2.697
18699SOL     OW56054   5.622   1.051   2.170
18699SOL    HW156055   5.715   1.038   2.150
18699SOL    HW256056   5.590   0.964   2.191
18700SOL     OW56057   6.481   1.675   2.191
18700SOL    HW156058   6.403   1.660   2.139
18700SOL    HW256059   6.456   1.744   2.253
18701SOL     OW56060   5.797   0.636   3.877
18701SOL    HW156061   5.709   0.619   3.913
18701SOL    HW256062   5.787   0.623   3.783
18702SOL     OW56063   5.778   0.322   4.760
18702SOL    HW156064   5.823   0.271   4.826
18702SOL    HW256065   5.710   0.264   4.727
18703SOL     OW56066   5.575   0.408   4.363
18703SOL    HW156067   5.492   0.432   4.404
18703SOL    HW256068   5.554   0.333   4.307
18704SOL     OW56069   6.161   1.309   4.932
18704SOL    HW156070   6.079   1.312   4.884
18704SOL    HW256071   6.178   1.400   4.956
18705SOL     OW56072   7.174   1.524   4.429
18705SOL    HW156073   7.127   1.493   4.506
18705SOL    HW256074   7.108   1.528   4.360
18706SOL     OW56075   6.723   0.707   4.411
18706SOL    HW156076   6.769   0.791   4.400
18706SOL    HW256077   6.673   0.718   4.493
18707SOL     OW56078   7.391   0.587   3.940
18707SOL    HW156079   7.353   0.586   3.852
18707SOL    HW256080   7.349   0.514   3.985
18708SOL     OW56081   6.313   1.132   4.781
18708SOL    HW156082   6.255   1.172   4.846
18708SOL    HW256083   6.355   1.205   4.737
18709SOL     OW56084   6.471   0.739   5.550
18709SOL    HW156085   6.458   0.806   5.617
18709SOL    HW256086   6.489   0.788   5.470
18710SOL     OW56087   6.270   0.982   4.369
18710SOL    HW156088   6.337   0.983   4.437
18710SOL    HW256089   6.204   1.044   4.400
18711SOL     OW56090   6.297   1.149   5.557
18711SOL    HW156091   6.348   1.221   5.592
18711SOL    HW256092   6.221   1.190   5.516
18712SOL     OW56093   5.927   1.398   4.794
18712SOL    HW156094   5.851   1.357   4.752
18712SOL    HW256095   5.965   1.453   4.725
18713SOL     OW56096   7.040   1.506   5.096
18713SOL    HW156097   7.095   1.583   5.109
18713SOL    HW256098   6.968   1.518   5.159
18714SOL     OW56099   6.042   0.402   5.180
18714SOL    HW156100   6.120   0.350   5.198
18714SOL    HW256101   5.969   0.345   5.202
18715SOL     OW56102   7.175   0.458   4.469
18715SOL    HW156103   7.105   0.463   4.403
18715SOL    HW256104   7.158   0.532   4.527
18716SOL     OW56105   5.805   1.728   4.189
18716SOL    HW156106   5.832   1.798   4.247
18716SOL    HW256107   5.878   1.718   4.128
18717SOL     OW56108   6.721   1.341   5.421
18717SOL    HW156109   6.767   1.330   5.504
18717SOL    HW256110   6.668   1.262   5.412
18718SOL     OW56111   5.815   1.458   4.256
18718SOL    HW156112   5.798   1.552   4.258
18718SOL    HW256113   5.767   1.423   4.331
18719SOL     OW56114   5.865   1.092   4.601
18719SOL    HW156115   5.869   1.002   4.635
18719SOL    HW256116   5.811   1.139   4.664
18720SOL     OW56117   6.158   1.806   5.141
18720SOL    HW156118   6.083   1.785   5.197
18720SOL    HW256119   6.192   1.888   5.177
18721SOL     OW56120   6.150   0.988   3.877
18721SOL    HW156121   6.200   1.030   3.808
18721SOL    HW256122   6.190   1.019   3.959
18722SOL     OW56123   7.127   0.124   5.178
18722SOL    HW156124   7.191   0.174   5.129
18722SOL    HW256125   7.118   0.170   5.261
18723SOL     OW56126   5.705   0.663   4.290
18723SOL    HW156127   5.672   0.575   4.312
18723SOL    HW256128   5.700   0.711   4.372
18724SOL     OW56129   7.432   1.743   4.042
18724SOL    HW156130   7.504   1.728   4.103
18724SOL    HW256131   7.439   1.836   4.019
18725SOL     OW56132   5.644   1.580   3.836
18725SOL    HW156133   5.624   1.488   3.855
18725SOL    HW256134   5.612   1.628   3.912
18726SOL     OW56135   7.284   0.927   4.379
18726SOL    HW156136   7.366   0.883   4.357
18726SOL    HW256137   7.264   0.978   4.301
18727SOL     OW56138   7.243   1.105   4.157
18727SOL    HW156139   7.328   1.097   4.114
18727SOL    HW256140   7.257   1.170   4.226
18728SOL     OW56141   5.697   0.750   5.295
18728SOL    HW156142   5.780   0.798   5.295
18728SOL    HW256143   5.631   0.818   5.279
18729SOL     OW56144   6.207   1.397   4.455
18729SOL    HW156145   6.166   1.311   4.459
18729SOL    HW256146   6.192   1.427   4.365
18730SOL     OW56147   6.856   1.226   5.142
18730SOL    HW156148   6.883   1.157   5.081
18730SOL    HW256149   6.918   1.221   5.214
18731SOL     OW56150   6.404   0.034   4.262
18731SOL    HW156151   6.434   0.122   4.240
18731SOL    HW256152   6.309   0.040   4.258
18732SOL     OW56153   5.772   0.958   5.023
18732SOL    HW156154   5.861   0.928   5.008
18732SOL    HW256155   5.721   0.918   4.953
18733SOL     OW56156   7.122   1.015   3.924
18733SOL    HW156157   7.053   0.956   3.953
18733SOL    HW256158   7.164   1.046   4.004
18734SOL     OW56159   6.763   1.822   5.360
18734SOL    HW156160   6.765   1.884   5.288
18734SOL    HW256161   6.781   1.737   5.319
18735SOL     OW56162   5.905   0.258   5.495
18735SOL    HW156163   5.964   0.313   5.546
18735SOL    HW256164   5.823   0.258   5.545
18736SOL     OW56165   7.058   1.418   4.654
18736SOL    HW156166   6.995   1.437   4.723
18736SOL    HW256167   7.040   1.327   4.630
18737SOL     OW56168   7.224   1.795   4.287
18737SOL    HW156169   7.207   1.749   4.205
18737SOL    HW256170   7.224   1.727   4.353
18738SOL     OW56171   6.171   0.710   3.998
18738SOL    HW156172   6.171   0.797   3.958
18738SOL    HW256173   6.106   0.716   4.068
18739SOL     OW56174   6.868   0.391   4.662
18739SOL    HW156175   6.779   0.356   4.670
18739SOL    HW256176   6.922   0.332   4.715
18740SOL     OW56177   7.165   1.673   4.043
18740SOL    HW156178   7.259   1.688   4.032
18740SOL    HW256179   7.132   1.660   3.954
18741SOL     OW56180   6.379   0.615   5.168
18741SOL    HW156181   6.353   0.580   5.253
18741SOL    HW256182   6.356   0.546   5.106
18742SOL     OW56183   6.984   0.491   5.402
18742SOL    HW156184   6.989   0.531   5.489
18742SOL    HW256185   7.030   0.408   5.410
18743SOL     OW56186   6.531   0.879   5.318
18743SOL    HW156187   6.588   0.816   5.273
18743SOL    HW256188   6.483   0.922   5.247
18744SOL     OW56189   6.600   0.418   4.933
18744SOL    HW156190   6.509   0.427   4.961
18744SOL    HW256191   6.595   0.374   4.848
18745SOL     OW56192   6.641   0.704   4.144
18745SOL    HW156193   6.663   0.699   4.237
18745SOL    HW256194   6.555   0.661   4.138
18746SOL     OW56195   5.680   0.825   4.510
18746SOL    HW156196   5.762   0.817   4.558
18746SOL    HW256197   5.634   0.898   4.553
18747SOL     OW56198   5.696   1.879   5.313
18747SOL    HW156199   5.704   1.859   5.406
18747SOL    HW256200   5.612   1.843   5.287
18748SOL     OW56201   6.474   0.361   3.929
18748SOL    HW156202   6.515   0.419   3.865
18748SOL    HW256203   6.479   0.274   3.889
18749SOL     OW56204   7.276   0.565   5.560
18749SOL    HW156205   7.252   0.643   5.511
18749SOL    HW256206   7.299   0.501   5.493
18750SOL     OW56207   6.979   1.150   4.266
18750SOL    HW156208   7.059   1.139   4.214
18750SOL    HW256209   6.926   1.211   4.215
18751SOL     OW56210   6.123   0.222   4.650
18751SOL    HW156211   6.145   0.236   4.742
18751SOL    HW256212   6.136   0.308   4.609
18752SOL     OW56213   6.583   1.456   4.189
18752SOL    HW156214   6.559   1.530   4.134
18752SOL    HW256215   6.554   1.480   4.277
18753SOL     OW56216   5.938   1.816   4.609
18753SOL    HW156217   5.985   1.732   4.611
18753SOL    HW256218   6.005   1.881   4.627
18754SOL     OW56219   7.391   1.045   4.615
18754SOL    HW156220   7.344   1.030   4.533
18754SOL    HW256221   7.322   1.054   4.681
18755SOL     OW56222   6.803   1.543   5.240
18755SOL    HW156223   6.792   1.472   5.304
18755SOL    HW256224   6.737   1.524   5.173
18756SOL     OW56225   5.884   0.956   3.987
18756SOL    HW156226   5.966   0.977   3.944
18756SOL    HW256227   5.863   0.867   3.958
18757SOL     OW56228   7.070   0.766   4.435
18757SOL    HW156229   7.068   0.729   4.523
18757SOL    HW256230   7.150   0.820   4.434
18758SOL     OW56231   6.060   1.284   5.472
18758SOL    HW156232   6.036   1.288   5.379
18758SOL    HW256233   5.976   1.273   5.517
18759SOL     OW56234   6.725   1.776   3.950
18759SOL    HW156235   6.643   1.745   3.989
18759SOL    HW256236   6.745   1.711   3.883
18760SOL     OW56237   5.805   0.263   5.233
18760SOL    HW156238   5.734   0.328   5.236
18760SOL    HW256239   5.830   0.251   5.325
18761SOL     OW56240   7.224   1.388   3.825
18761SOL    HW156241   7.184   1.474   3.811
18761SOL    HW256242   7.157   1.325   3.797
18762SOL     OW56243   6.045   1.741   4.039
18762SOL    HW156244   6.094   1.792   4.104
18762SOL    HW256245   6.113   1.701   3.984
18763SOL     OW56246   6.992   0.163   4.142
18763SOL    HW156247   6.985   0.107   4.065
18763SOL    HW256248   7.084   0.156   4.168
18764SOL     OW56249   5.837   1.787   4.940
18764SOL    HW156250   5.887   1.714   4.976
18764SOL    HW256251   5.833   1.768   4.846
18765SOL     OW56252   6.534   1.702   4.614
18765SOL    HW156253   6.619   1.661   4.628
18765SOL    HW256254   6.494   1.652   4.543
18766SOL     OW56255   5.980   0.689   4.198
18766SOL    HW156256   5.995   0.595   4.210
18766SOL    HW256257   5.886   0.700   4.215
18767SOL     OW56258   7.089   0.229   5.442
18767SOL    HW156259   7.103   0.249   5.535
18767SOL    HW256260   7.017   0.166   5.442
18768SOL     OW56261   6.227   0.105   3.830
18768SOL    HW156262   6.263   0.030   3.879
18768SOL    HW256263   6.165   0.065   3.769
18769SOL     OW56264   6.344   0.266   5.494
18769SOL    HW156265   6.419   0.208   5.483
18769SOL    HW256266   6.296   0.229   5.569
18770SOL     OW56267   6.454   1.526   4.923
18770SOL    HW156268   6.437   1.485   4.838
18770SOL    HW256269   6.522   1.472   4.963
18771SOL     OW56270   6.923   0.594   5.155
18771SOL    HW156271   6.955   0.568   5.241
18771SOL    HW256272   6.956   0.683   5.144
18772SOL     OW56273   6.402   1.377   4.679
18772SOL    HW156274   6.489   1.372   4.641
18772SOL    HW256275   6.344   1.392   4.605
18773SOL     OW56276   6.520   0.521   4.617
18773SOL    HW156277   6.492   0.511   4.526
18773SOL    HW256278   6.543   0.432   4.645
18774SOL     OW56279   6.138   0.062   4.219
18774SOL    HW156280   6.056   0.044   4.265
18774SOL    HW256281   6.115   0.130   4.156
18775SOL     OW56282   7.020   1.212   3.756
18775SOL    HW156283   7.050   1.139   3.809
18775SOL    HW256284   6.935   1.236   3.793
18776SOL     OW56285   5.882   0.070   3.947
18776SOL    HW156286   5.952   0.132   3.966
18776SOL    HW256287   5.913   9.987   3.984
18777SOL     OW56288   6.524   0.271   4.186
18777SOL    HW156289   6.498   0.304   4.100
18777SOL    HW256290   6.618   0.288   4.190
18778SOL     OW56291   6.664   0.692   5.170
18778SOL    HW156292   6.601   0.621   5.178
18778SOL    HW256293   6.749   0.648   5.165
18779SOL     OW56294   6.791   1.588   4.527
18779SOL    HW156295   6.806   1.648   4.454
18779SOL    HW256296   6.864   1.604   4.586
18780SOL     OW56297   6.066   1.160   4.432
18780SOL    HW156298   6.003   1.137   4.500
18780SOL    HW256299   6.017   1.153   4.350
18781SOL     OW56300   6.838   1.792   4.341
18781SOL    HW156301   6.887   1.855   4.289
18781SOL    HW256302   6.767   1.844   4.380
18782SOL     OW56303   6.624   0.518   3.754
18782SOL    HW156304   6.576   0.598   3.731
18782SOL    HW256305   6.682   0.544   3.825
18783SOL     OW56306   5.688   0.538   5.120
18783SOL    HW156307   5.777   0.551   5.087
18783SOL    HW256308   5.675   0.609   5.183
18784SOL     OW56309   6.154   0.236   4.926
18784SOL    HW156310   6.196   0.190   4.998
18784SOL    HW256311   6.060   0.225   4.942
18785SOL     OW56312   6.449   0.475   4.362
18785SOL    HW156313   6.406   0.530   4.296
18785SOL    HW256314   6.471   0.394   4.315
18786SOL     OW56315   6.548   0.062   4.514
18786SOL    HW156316   6.496   0.050   4.434
18786SOL    HW256317   6.560   9.974   4.548
18787SOL     OW56318   7.020   1.153   4.579
18787SOL    HW156319   6.950   1.088   4.587
18787SOL    HW256320   7.035   1.160   4.484
18788SOL     OW56321   7.043   0.624   4.675
18788SOL    HW156322   6.982   0.550   4.681
18788SOL    HW256323   7.098   0.616   4.753
18789SOL     OW56324   7.410   0.797   4.113
18789SOL    HW156325   7.472   0.755   4.172
18789SOL    HW256326   7.399   0.735   4.041
18790SOL     OW56327   6.084   1.424   3.874
18790SOL    HW156328   6.009   1.392   3.924
18790SOL    HW256329   6.080   1.375   3.792
18791SOL     OW56330   7.294   1.271   4.359
18791SOL    HW156331   7.387   1.264   4.379
18791SOL    HW256332   7.270   1.361   4.384
18792SOL     OW56333   6.980   0.578   3.798
18792SOL    HW156334   6.923   0.556   3.871
18792SOL    HW256335   7.067   0.551   3.827
18793SOL     OW56336   6.086   0.250   4.019
18793SOL    HW156337   6.150   0.213   3.959
18793SOL    HW256338   6.064   0.336   3.982
18794SOL     OW56339   7.321   1.244   5.257
18794SOL    HW156340   7.409   1.210   5.242
18794SOL    HW256341   7.334   1.331   5.294
18795SOL     OW56342   6.628   1.357   5.060
18795SOL    HW156343   6.551   1.322   5.104
18795SOL    HW256344   6.702   1.311   5.100
18796SOL     OW56345   7.193   1.634   5.396
18796SOL    HW156346   7.182   1.671   5.308
18796SOL    HW256347   7.271   1.579   5.389
18797SOL     OW56348   6.737   1.240   4.830
18797SOL    HW156349   6.674   1.274   4.894
18797SOL    HW256350   6.704   1.271   4.746
18798SOL     OW56351   7.194   1.091   4.801
18798SOL    HW156352   7.186   1.158   4.869
18798SOL    HW256353   7.125   1.113   4.738
18799SOL     OW56354   6.472   0.162   5.094
18799SOL    HW156355   6.498   0.117   5.014
18799SOL    HW256356   6.555   0.186   5.136
18800SOL     OW56357   6.565   1.115   5.448
18800SOL    HW156358   6.475   1.132   5.475
18800SOL    HW256359   6.561   1.035   5.397
18801SOL     OW56360   6.297   1.063   4.102
18801SOL    HW156361   6.283   1.035   4.192
18801SOL    HW256362   6.372   1.011   4.072
18802SOL     OW56363   6.016   0.840   4.984
18802SOL    HW156364   6.084   0.845   5.051
18802SOL    HW256365   5.982   0.751   4.990
18803SOL     OW56366   6.857   0.376   5.007
18803SOL    HW156367   6.887   0.453   5.055
18803SOL    HW256368   6.768   0.397   4.979
18804SOL     OW56369   5.664   1.567   5.085
18804SOL    HW156370   5.635   1.639   5.029
18804SOL    HW256371   5.759   1.566   5.077
18805SOL     OW56372   5.902   1.133   4.208
18805SOL    HW156373   5.904   1.205   4.145
18805SOL    HW256374   5.899   1.054   4.155
18806SOL     OW56375   6.145   0.493   4.575
18806SOL    HW156376   6.150   0.548   4.497
18806SOL    HW256377   6.205   0.534   4.637
18807SOL     OW56378   6.833   1.355   4.122
18807SOL    HW156379   6.889   1.424   4.156
18807SOL    HW256380   6.745   1.378   4.152
18808SOL     OW56381   6.896   1.469   4.866
18808SOL    HW156382   6.943   1.475   4.949
18808SOL    HW256383   6.845   1.388   4.874
18809SOL     OW56384   7.162   0.626   4.205
18809SOL    HW156385   7.111   0.667   4.274
18809SOL    HW256386   7.215   0.697   4.168
18810SOL     OW56387   5.931   1.531   5.028
18810SOL    HW156388   5.924   1.480   4.947
18810SOL    HW256389   6.024   1.548   5.037
18811SOL     OW56390   6.027   0.732   5.347
18811SOL    HW156391   6.080   0.780   5.284
18811SOL    HW256392   6.077   0.651   5.363
18812SOL     OW56393   7.211   0.788   5.422
18812SOL    HW156394   7.124   0.826   5.414
18812SOL    HW256395   7.261   0.826   5.350
18813SOL     OW56396   6.547   0.078   5.497
18813SOL    HW156397   6.615   0.131   5.539
18813SOL    HW256398   6.590   0.042   5.419
18814SOL     OW56399   6.054   0.017   5.490
18814SOL    HW156400   6.115   0.007   5.417
18814SOL    HW256401   6.009   0.100   5.472
18815SOL     OW56402   6.177   0.881   4.761
18815SOL    HW156403   6.217   0.968   4.765
18815SOL    HW256404   6.121   0.877   4.838
18816SOL     OW56405   6.892   0.858   4.725
18816SOL    HW156406   6.803   0.831   4.702
18816SOL    HW256407   6.945   0.781   4.710
18817SOL     OW56408   6.779   0.530   3.983
18817SOL    HW156409   6.788   0.457   4.044
18817SOL    HW256410   6.738   0.599   4.035
18818SOL     OW56411   5.887   0.179   4.980
18818SOL    HW156412   5.852   0.210   5.064
18818SOL    HW256413   5.897   0.085   4.991
18819SOL     OW56414   5.625   1.311   4.991
18819SOL    HW156415   5.660   1.255   5.061
18819SOL    HW256416   5.633   1.400   5.025
18820SOL     OW56417   6.296   0.629   4.758
18820SOL    HW156418   6.376   0.625   4.706
18820SOL    HW256419   6.265   0.719   4.747
18821SOL     OW56420   7.338   0.968   5.593
18821SOL    HW156421   7.297   0.896   5.545
18821SOL    HW256422   7.275   0.989   5.662
18822SOL     OW56423   5.884   0.063   4.351
18822SOL    HW156424   5.865   0.157   4.353
18822SOL    HW256425   5.897   0.039   4.443
18823SOL     OW56426   7.222   0.397   4.064
18823SOL    HW156427   7.261   0.334   4.124
18823SOL    HW256428   7.193   0.469   4.120
18824SOL     OW56429   6.621   0.764   4.683
18824SOL    HW156430   6.600   0.778   4.775
18824SOL    HW256431   6.593   0.674   4.666
18825SOL     OW56432   6.566   1.564   5.460
18825SOL    HW156433   6.545   1.609   5.378
18825SOL    HW256434   6.606   1.482   5.433
18826SOL     OW56435   7.424   1.495   5.326
18826SOL    HW156436   7.451   1.523   5.238
18826SOL    HW256437   7.502   1.506   5.380
18827SOL     OW56438   5.935   0.916   5.532
18827SOL    HW156439   6.009   0.935   5.589
18827SOL    HW256440   5.968   0.849   5.472
18828SOL     OW56441   7.102   0.279   3.843
18828SOL    HW156442   7.063   0.200   3.880
18828SOL    HW256443   7.148   0.320   3.916
18829SOL     OW56444   6.866   0.822   3.744
18829SOL    HW156445   6.909   0.736   3.753
18829SOL    HW256446   6.902   0.858   3.663
18830SOL     OW56447   6.656   1.353   4.590
18830SOL    HW156448   6.667   1.281   4.529
18830SOL    HW256449   6.708   1.425   4.553
18831SOL     OW56450   5.908   0.817   4.668
18831SOL    HW156451   6.002   0.837   4.666
18831SOL    HW256452   5.903   0.727   4.698
18832SOL     OW56453   5.934   0.545   4.738
18832SOL    HW156454   5.877   0.468   4.735
18832SOL    HW256455   6.004   0.526   4.676
18833SOL     OW56456   6.721   0.408   5.378
18833SOL    HW156457   6.675   0.445   5.453
18833SOL    HW256458   6.809   0.445   5.383
18834SOL     OW56459   6.727   0.210   5.190
18834SOL    HW156460   6.718   0.272   5.262
18834SOL    HW256461   6.782   0.254   5.126
18835SOL     OW56462   5.610   1.303   3.904
18835SOL    HW156463   5.520   1.325   3.879
18835SOL    HW256464   5.603   1.216   3.944
18836SOL     OW56465   5.675   1.772   4.672
18836SOL    HW156466   5.644   1.697   4.620
18836SOL    HW256467   5.763   1.789   4.639
18837SOL     OW56468   6.071   1.569   4.626
18837SOL    HW156469   6.142   1.630   4.648
18837SOL    HW256470   6.111   1.508   4.564
18838SOL     OW56471   6.536   0.785   4.942
18838SOL    HW156472   6.598   0.769   5.013
18838SOL    HW256473   6.458   0.737   4.967
18839SOL     OW56474   5.604   0.525   4.852
18839SOL    HW156475   5.662   0.464   4.805
18839SOL    HW256476   5.647   0.539   4.936
18840SOL     OW56477   5.771   0.554   5.473
18840SOL    HW156478   5.856   0.541   5.431
18840SOL    HW256479   5.728   0.622   5.421
18841SOL     OW56480   6.976   0.922   5.376
18841SOL    HW156481   6.994   1.016   5.371
18841SOL    HW256482   6.968   0.894   5.285
18842SOL     OW56483   6.399   0.580   4.098
18842SOL    HW156484   6.405   0.504   4.040
18842SOL    HW256485   6.322   0.628   4.068
18843SOL     OW56486   7.212   0.605   4.892
18843SOL    HW156487   7.192   0.551   4.969
18843SOL    HW256488   7.300   0.579   4.866
18844SOL     OW56489   5.809   1.540   5.444
18844SOL    HW156490   5.790   1.591   5.522
18844SOL    HW256491   5.822   1.451   5.477
18845SOL     OW56492   6.324   0.450   4.960
18845SOL    HW156493   6.263   0.378   4.949
18845SOL    HW256494   6.305   0.511   4.888
18846SOL     OW56495   6.487   1.681   5.216
18846SOL    HW156496   6.467   1.633   5.136
18846SOL    HW256497   6.492   1.773   5.188
18847SOL     OW56498   6.030   0.488   3.896
18847SOL    HW156499   6.093   0.556   3.921
18847SOL    HW256500   5.946   0.533   3.897
18848SOL     OW56501   5.714   1.151   5.203
18848SOL    HW156502   5.720   1.112   5.290
18848SOL    HW256503   5.736   1.080   5.143
18849SOL     OW56504   6.889   1.036   4.932
18849SOL    HW156505   6.898   0.973   4.861
18849SOL    HW256506   6.835   1.107   4.895
18850SOL     OW56507   6.911   0.863   4.016
18850SOL    HW156508   6.840   0.832   4.071
18850SOL    HW256509   6.881   0.848   3.926
18851SOL     OW56510   7.373   1.724   4.895
18851SOL    HW156511   7.435   1.750   4.826
18851SOL    HW256512   7.341   1.638   4.867
18852SOL     OW56513   6.827   1.734   4.815
18852SOL    HW156514   6.911   1.764   4.781
18852SOL    HW256515   6.842   1.642   4.839
18853SOL     OW56516   5.686   1.255   4.732
18853SOL    HW156517   5.656   1.272   4.821
18853SOL    HW256518   5.620   1.196   4.696
18854SOL     OW56519   6.274   1.683   5.472
18854SOL    HW156520   6.212   1.755   5.460
18854SOL    HW256521   6.347   1.705   5.415
18855SOL     OW56522   7.349   0.187   4.208
18855SOL    HW156523   7.401   0.188   4.128
18855SOL    HW256524   7.383   0.113   4.258
18856SOL     OW56525   6.983   1.570   4.227
18856SOL    HW156526   7.038   1.605   4.157
18856SOL    HW256527   6.928   1.644   4.253
18857SOL     OW56528   5.719   1.803   5.569
18857SOL    HW156529   5.679   1.728   5.611
18857SOL    HW256530   5.770   1.846   5.638
18858SOL     OW56531   6.864   0.938   4.387
18858SOL    HW156532   6.938   0.878   4.400
18858SOL    HW256533   6.900   1.010   4.335
18859SOL     OW56534   6.370   1.280   5.137
18859SOL    HW156535   6.344   1.327   5.215
18859SOL    HW256536   6.296   1.290   5.077
18860SOL     OW56537   6.254   1.635   3.883
18860SOL    HW156538   6.269   1.650   3.789
18860SOL    HW256539   6.202   1.555   3.887
18861SOL     OW56540   7.202   1.730   5.126
18861SOL    HW156541   7.259   1.730   5.049
18861SOL    HW256542   7.186   1.822   5.144
18862SOL     OW56543   7.438   0.154   4.686
18862SOL    HW156544   7.469   0.080   4.634
18862SOL    HW256545   7.352   0.175   4.649
18863SOL     OW56546   5.832   0.323   4.427
18863SOL    HW156547   5.745   0.359   4.410
18863SOL    HW256548   5.836   0.314   4.522
18864SOL     OW56549   6.796   1.588   3.762
18864SOL    HW156550   6.786   1.497   3.790
18864SOL    HW256551   6.726   1.602   3.698
18865SOL     OW56552   6.410   1.011   5.110
18865SOL    HW156553   6.450   0.999   5.024
18865SOL    HW256554   6.400   1.105   5.120
18866SOL     OW56555   6.503   0.914   4.017
18866SOL    HW156556   6.561   0.946   3.948
18866SOL    HW256557   6.555   0.847   4.062
18867SOL     OW56558   7.070   1.644   3.782
18867SOL    HW156559   6.978   1.625   3.765
18867SOL    HW256560   7.110   1.648   3.695
18868SOL     OW56561   5.948   1.312   5.226
18868SOL    HW156562   5.942   1.385   5.165
18868SOL    HW256563   5.870   1.260   5.208
18869SOL     OW56564   7.184   1.290   5.000
18869SOL    HW156565   7.239   1.266   5.074
18869SOL    HW256566   7.126   1.357   5.035
18870SOL     OW56567   6.662   1.120   4.453
18870SOL    HW156568   6.587   1.070   4.484
18870SOL    HW256569   6.725   1.054   4.423
18871SOL     OW56570   6.609   0.256   4.700
18871SOL    HW156571   6.591   0.208   4.619
18871SOL    HW256572   6.607   0.189   4.769
18872SOL     OW56573   6.191   1.487   4.200
18872SOL    HW156574   6.246   1.437   4.139
18872SOL    HW256575   6.111   1.505   4.151
18873SOL     OW56576   7.327   0.370   5.113
18873SOL    HW156577   7.400   0.430   5.102
18873SOL    HW256578   7.341   0.302   5.046
18874SOL     OW56579   5.865   1.341   4.023
18874SOL    HW156580   5.779   1.333   3.983
18874SOL    HW256581   5.851   1.389   4.104
18875SOL     OW56582   5.707   1.049   5.458
18875SOL    HW156583   5.631   1.020   5.508
18875SOL    HW256584   5.779   0.996   5.492
18876SOL     OW56585   6.248   0.231   5.232
18876SOL    HW156586   6.326   0.205   5.184
18876SOL    HW256587   6.279   0.247   5.321
18877SOL     OW56588   5.658   0.336   3.738
18877SOL    HW156589   5.578   0.327   3.686
18877SOL    HW256590   5.694   0.420   3.711
18878SOL     OW56591   7.000   0.857   5.112
18878SOL    HW156592   6.948   0.916   5.057
18878SOL    HW256593   7.088   0.862   5.074
18879SOL     OW56594   5.645   0.202   3.988
18879SOL    HW156595   5.643   0.256   3.910
18879SOL    HW256596   5.723   0.148   3.978
18880SOL     OW56597   6.769   1.322   3.847
18880SOL    HW156598   6.678   1.291   3.846
18880SOL    HW256599   6.792   1.326   3.940
18881SOL     OW56600   6.213   0.831   5.168
18881SOL    HW156601   6.272   0.905   5.156
18881SOL    HW256602   6.271   0.755   5.170
18882SOL     OW56603   7.073   1.803   4.716
18882SOL    HW156604   7.098   1.877   4.662
18882SOL    HW256605   7.155   1.759   4.737
18883SOL     OW56606   6.304   0.541   5.420
18883SOL    HW156607   6.352   0.599   5.479
18883SOL    HW256608   6.319   0.453   5.455
18884SOL     OW56609   7.055   1.184   5.343
18884SOL    HW156610   7.048   1.207   5.436
18884SOL    HW256611   7.144   1.208   5.319
18885SOL     OW56612   5.940   1.747   5.303
18885SOL    HW156613   5.859   1.794   5.286
18885SOL    HW256614   5.913   1.663   5.339
18886SOL     OW56615   7.240   0.877   4.977
18886SOL    HW156616   7.237   0.793   4.931
18886SOL    HW256617   7.229   0.942   4.908
18887SOL     OW56618   6.793   0.338   4.182
18887SOL    HW156619   6.861   0.273   4.167
18887SOL    HW256620   6.823   0.387   4.258
18888SOL     OW56621   6.167   0.718   4.404
18888SOL    HW156622   6.209   0.804   4.391
18888SOL    HW256623   6.102   0.713   4.334
18889SOL     OW56624   7.326   0.356   5.386
18889SOL    HW156625   7.328   0.367   5.291
18889SOL    HW256626   7.247   0.305   5.403
18890SOL     OW56627   7.343   0.926   5.227
18890SOL    HW156628   7.328   1.019   5.241
18890SOL    HW256629   7.316   0.910   5.137
18891SOL     OW56630   6.456   1.357   3.786
18891SOL    HW156631   6.419   1.376   3.872
18891SOL    HW256632   6.467   1.443   3.745
18892SOL     OW56633   6.254   1.766   4.650
18892SOL    HW156634   6.235   1.860   4.642
18892SOL    HW256635   6.350   1.761   4.649
18893SOL     OW56636   6.458   0.978   4.580
18893SOL    HW156637   6.509   0.905   4.616
18893SOL    HW256638   6.413   1.015   4.655
18894SOL     OW56639   6.660   0.987   3.811
18894SOL    HW156640   6.638   1.039   3.735
18894SOL    HW256641   6.733   0.932   3.782
18895SOL     OW56642   7.417   1.558   4.563
18895SOL    HW156643   7.340   1.550   4.506
18895SOL    HW256644   7.395   1.506   4.640
18896SOL     OW56645   5.799   1.287   5.560
18896SOL    HW156646   5.767   1.207   5.517
18896SOL    HW256647   5.741   1.298   5.635
18897SOL     OW56648   5.702   1.220   4.392
18897SOL    HW156649   5.738   1.179   4.470
18897SOL    HW256650   5.760   1.191   4.321
18898SOL     OW56651   6.276   1.419   5.354
18898SOL    HW156652   6.200   1.380   5.398
18898SOL    HW256653   6.282   1.507   5.392
18899SOL     OW56654   7.346   0.149   4.951
18899SOL    HW156655   7.296   0.067   4.943
18899SOL    HW256656   7.390   0.158   4.866
18900SOL     OW56657   6.015   0.428   4.244
18900SOL    HW156658   6.040   0.355   4.188
18900SOL    HW256659   5.960   0.388   4.312
18901SOL     OW56660   7.281   1.480   4.805
18901SOL    HW156661   7.203   1.461   4.753
18901SOL    HW256662   7.282   1.413   4.873
18902SOL     OW56663   5.932   0.582   5.011
18902SOL    HW156664   5.985   0.521   5.061
18902SOL    HW256665   5.947   0.558   4.920
18903SOL     OW56666   6.424   1.587   4.393
18903SOL    HW156667   6.397   1.659   4.335
18903SOL    HW256668   6.347   1.530   4.397
18904SOL     OW56669   7.020   0.238   4.835
18904SOL    HW156670   7.055   0.162   4.880
18904SOL    HW256671   6.970   0.285   4.902
18905SOL     OW56672   6.614   0.039   4.880
18905SOL    HW156673   6.589   9.947   4.880
18905SOL    HW256674   6.706   0.039   4.904
18906SOL     OW56675   6.366   1.332   4.053
18906SOL    HW156676   6.341   1.241   4.065
18906SOL    HW256677   6.446   1.343   4.104
18907SOL     OW56678   6.201   1.571   5.011
18907SOL    HW156679   6.196   1.655   5.056
18907SOL    HW256680   6.291   1.566   4.978
18908SOL     OW56681   6.974   0.032   3.903
18908SOL    HW156682   7.057   9.985   3.909
18908SOL    HW256683   6.907   9.964   3.913
18909SOL     OW56684   6.884   0.478   4.399
18909SOL    HW156685   6.832   0.559   4.400
18909SOL    HW256686   6.877   0.445   4.489
18910SOL     OW56687   7.186   0.223   4.605
18910SOL    HW156688   7.129   0.236   4.681
18910SOL    HW256689   7.183   0.307   4.559
18911SOL     OW56690   5.622   1.051   4.033
18911SOL    HW156691   5.715   1.038   4.013
18911SOL    HW256692   5.589   0.963   4.053
18912SOL     OW56693   6.481   1.675   4.053
18912SOL    HW156694   6.402   1.659   4.001
18912SOL    HW256695   6.455   1.744   4.115
18913SOL     OW56696   5.797   0.637   5.739
18913SOL    HW156697   5.710   0.620   5.775
18913SOL    HW256698   5.787   0.623   5.645
18914SOL     OW56699   5.778   0.322   6.621
18914SOL    HW156700   5.823   0.270   6.688
18914SOL    HW256701   5.710   0.263   6.588
18915SOL     OW56702   5.574   0.409   6.226
18915SOL    HW156703   5.492   0.434   6.267
18915SOL    HW256704   5.552   0.335   6.170
18916SOL     OW56705   6.161   1.309   6.795
18916SOL    HW156706   6.079   1.311   6.747
18916SOL    HW256707   6.178   1.400   6.819
18917SOL     OW56708   7.174   1.524   6.291
18917SOL    HW156709   7.127   1.493   6.368
18917SOL    HW256710   7.108   1.528   6.222
18918SOL     OW56711   6.723   0.707   6.273
18918SOL    HW156712   6.769   0.791   6.262
18918SOL    HW256713   6.673   0.717   6.354
18919SOL     OW56714   7.390   0.587   5.802
18919SOL    HW156715   7.353   0.586   5.714
18919SOL    HW256716   7.349   0.514   5.847
18920SOL     OW56717   6.313   1.131   6.643
18920SOL    HW156718   6.255   1.172   6.708
18920SOL    HW256719   6.355   1.206   6.599
18921SOL     OW56720   6.471   0.738   7.412
18921SOL    HW156721   6.456   0.805   7.479
18921SOL    HW256722   6.489   0.788   7.332
18922SOL     OW56723   6.270   0.982   6.231
18922SOL    HW156724   6.338   0.982   6.299
18922SOL    HW256725   6.204   1.044   6.262
18923SOL     OW56726   6.297   1.149   7.419
18923SOL    HW156727   6.349   1.222   7.454
18923SOL    HW256728   6.221   1.191   7.378
18924SOL     OW56729   5.929   1.398   6.656
18924SOL    HW156730   5.853   1.355   6.616
18924SOL    HW256731   5.965   1.452   6.586
18925SOL     OW56732   7.040   1.506   6.958
18925SOL    HW156733   7.095   1.583   6.971
18925SOL    HW256734   6.968   1.517   7.020
18926SOL     OW56735   6.042   0.402   7.042
18926SOL    HW156736   6.120   0.349   7.060
18926SOL    HW256737   5.969   0.345   7.064
18927SOL     OW56738   7.175   0.459   6.331
18927SOL    HW156739   7.105   0.463   6.265
18927SOL    HW256740   7.158   0.532   6.389
18928SOL     OW56741   5.804   1.728   6.051
18928SOL    HW156742   5.831   1.798   6.110
18928SOL    HW256743   5.878   1.717   5.991
18929SOL     OW56744   6.721   1.342   7.283
18929SOL    HW156745   6.767   1.331   7.367
18929SOL    HW256746   6.668   1.262   7.274
18930SOL     OW56747   5.818   1.457   6.118
18930SOL    HW156748   5.798   1.550   6.123
18930SOL    HW256749   5.769   1.418   6.192
18931SOL     OW56750   5.869   1.090   6.463
18931SOL    HW156751   5.871   1.001   6.497
18931SOL    HW256752   5.814   1.138   6.525
18932SOL     OW56753   6.158   1.805   7.006
18932SOL    HW156754   6.083   1.784   7.061
18932SOL    HW256755   6.192   1.887   7.040
18933SOL     OW56756   6.149   0.988   5.740
18933SOL    HW156757   6.200   1.030   5.670
18933SOL    HW256758   6.190   1.019   5.821
18934SOL     OW56759   7.127   0.124   7.040
18934SOL    HW156760   7.191   0.175   6.991
18934SOL    HW256761   7.118   0.170   7.123
18935SOL     OW56762   5.704   0.664   6.152
18935SOL    HW156763   5.672   0.576   6.174
18935SOL    HW256764   5.699   0.713   6.234
18936SOL     OW56765   7.432   1.743   5.904
18936SOL    HW156766   7.504   1.728   5.965
18936SOL    HW256767   7.439   1.836   5.881
18937SOL     OW56768   5.641   1.580   5.698
18937SOL    HW156769   5.623   1.488   5.718
18937SOL    HW256770   5.611   1.627   5.775
18938SOL     OW56771   7.284   0.927   6.241
18938SOL    HW156772   7.366   0.883   6.219
18938SOL    HW256773   7.264   0.978   6.163
18939SOL     OW56774   7.243   1.105   6.019
18939SOL    HW156775   7.328   1.097   5.976
18939SOL    HW256776   7.257   1.171   6.088
18940SOL     OW56777   5.694   0.751   7.156
18940SOL    HW156778   5.776   0.800   7.156
18940SOL    HW256779   5.626   0.817   7.140
18941SOL     OW56780   6.208   1.398   6.316
18941SOL    HW156781   6.167   1.312   6.321
18941SOL    HW256782   6.193   1.427   6.227
18942SOL     OW56783   6.856   1.226   7.004
18942SOL    HW156784   6.883   1.157   6.943
18942SOL    HW256785   6.918   1.221   7.076
18943SOL     OW56786   6.404   0.034   6.123
18943SOL    HW156787   6.434   0.122   6.101
18943SOL    HW256788   6.309   0.040   6.120
18944SOL     OW56789   5.772   0.957   6.888
18944SOL    HW156790   5.861   0.926   6.871
18944SOL    HW256791   5.720   0.920   6.817
18945SOL     OW56792   7.122   1.015   5.786
18945SOL    HW156793   7.053   0.955   5.815
18945SOL    HW256794   7.164   1.045   5.866
18946SOL     OW56795   6.765   1.822   7.222
18946SOL    HW156796   6.766   1.884   7.149
18946SOL    HW256797   6.782   1.737   7.181
18947SOL     OW56798   5.905   0.258   7.358
18947SOL    HW156799   5.963   0.315   7.407
18947SOL    HW256800   5.822   0.259   7.407
18948SOL     OW56801   7.058   1.418   6.516
18948SOL    HW156802   6.995   1.437   6.585
18948SOL    HW256803   7.040   1.327   6.492
18949SOL     OW56804   7.224   1.795   6.149
18949SOL    HW156805   7.207   1.749   6.067
18949SOL    HW256806   7.224   1.727   6.215
18950SOL     OW56807   6.171   0.710   5.860
18950SOL    HW156808   6.172   0.797   5.820
18950SOL    HW256809   6.106   0.716   5.930
18951SOL     OW56810   6.868   0.391   6.524
18951SOL    HW156811   6.779   0.356   6.532
18951SOL    HW256812   6.922   0.332   6.577
18952SOL     OW56813   7.165   1.673   5.905
18952SOL    HW156814   7.259   1.688   5.894
18952SOL    HW256815   7.132   1.660   5.816
18953SOL     OW56816   6.380   0.614   7.030
18953SOL    HW156817   6.353   0.580   7.115
18953SOL    HW256818   6.356   0.545   6.967
18954SOL     OW56819   6.984   0.491   7.264
18954SOL    HW156820   6.989   0.531   7.351
18954SOL    HW256821   7.030   0.408   7.272
18955SOL     OW56822   6.531   0.880   7.180
18955SOL    HW156823   6.588   0.816   7.135
18955SOL    HW256824   6.482   0.922   7.109
18956SOL     OW56825   6.600   0.418   6.795
18956SOL    HW156826   6.509   0.426   6.823
18956SOL    HW256827   6.595   0.374   6.710
18957SOL     OW56828   6.641   0.704   6.006
18957SOL    HW156829   6.663   0.700   6.099
18957SOL    HW256830   6.555   0.661   6.000
18958SOL     OW56831   5.679   0.828   6.370
18958SOL    HW156832   5.761   0.819   6.419
18958SOL    HW256833   5.633   0.900   6.414
18959SOL     OW56834   5.695   1.879   7.174
18959SOL    HW156835   5.703   1.859   7.267
18959SOL    HW256836   5.609   1.845   7.148
18960SOL     OW56837   6.474   0.361   5.791
18960SOL    HW156838   6.515   0.419   5.727
18960SOL    HW256839   6.479   0.274   5.751
18961SOL     OW56840   7.277   0.565   7.422
18961SOL    HW156841   7.252   0.643   7.373
18961SOL    HW256842   7.299   0.501   7.355
18962SOL     OW56843   6.979   1.150   6.128
18962SOL    HW156844   7.059   1.139   6.077
18962SOL    HW256845   6.926   1.212   6.077
18963SOL     OW56846   6.124   0.222   6.513
18963SOL    HW156847   6.146   0.236   6.605
18963SOL    HW256848   6.137   0.307   6.472
18964SOL     OW56849   6.583   1.456   6.051
18964SOL    HW156850   6.559   1.530   5.996
18964SOL    HW256851   6.554   1.480   6.139
18965SOL     OW56852   5.939   1.816   6.468
18965SOL    HW156853   5.985   1.732   6.471
18965SOL    HW256854   6.006   1.881   6.488
18966SOL     OW56855   7.391   1.045   6.477
18966SOL    HW156856   7.344   1.030   6.395
18966SOL    HW256857   7.322   1.054   6.543
18967SOL     OW56858   6.803   1.543   7.103
18967SOL    HW156859   6.792   1.472   7.166
18967SOL    HW256860   6.736   1.526   7.036
18968SOL     OW56861   5.884   0.955   5.850
18968SOL    HW156862   5.967   0.976   5.807
18968SOL    HW256863   5.864   0.866   5.821
18969SOL     OW56864   7.070   0.766   6.297
18969SOL    HW156865   7.068   0.729   6.385
18969SOL    HW256866   7.150   0.820   6.296
18970SOL     OW56867   6.059   1.284   7.334
18970SOL    HW156868   6.035   1.288   7.241
18970SOL    HW256869   5.976   1.272   7.380
18971SOL     OW56870   6.725   1.776   5.812
18971SOL    HW156871   6.643   1.746   5.851
18971SOL    HW256872   6.745   1.711   5.745
18972SOL     OW56873   5.805   0.264   7.095
18972SOL    HW156874   5.735   0.330   7.097
18972SOL    HW256875   5.829   0.252   7.187
18973SOL     OW56876   7.224   1.388   5.687
18973SOL    HW156877   7.184   1.474   5.673
18973SOL    HW256878   7.158   1.325   5.659
18974SOL     OW56879   6.045   1.741   5.902
18974SOL    HW156880   6.094   1.792   5.966
18974SOL    HW256881   6.112   1.701   5.847
18975SOL     OW56882   6.992   0.163   6.004
18975SOL    HW156883   6.985   0.107   5.927
18975SOL    HW256884   7.084   0.156   6.030
18976SOL     OW56885   5.837   1.788   6.801
18976SOL    HW156886   5.887   1.714   6.837
18976SOL    HW256887   5.827   1.767   6.708
18977SOL     OW56888   6.534   1.703   6.476
18977SOL    HW156889   6.619   1.661   6.491
18977SOL    HW256890   6.495   1.652   6.405
18978SOL     OW56891   5.979   0.689   6.060
18978SOL    HW156892   5.995   0.595   6.071
18978SOL    HW256893   5.886   0.700   6.078
18979SOL     OW56894   7.088   0.229   7.304
18979SOL    HW156895   7.103   0.249   7.397
18979SOL    HW256896   7.016   0.167   7.304
18980SOL     OW56897   6.226   0.104   5.692
18980SOL    HW156898   6.264   0.030   5.740
18980SOL    HW256899   6.165   0.064   5.631
18981SOL     OW56900   6.344   0.266   7.356
18981SOL    HW156901   6.419   0.208   7.345
18981SOL    HW256902   6.297   0.230   7.431
18982SOL     OW56903   6.455   1.527   6.785
18982SOL    HW156904   6.437   1.486   6.701
18982SOL    HW256905   6.522   1.472   6.825
18983SOL     OW56906   6.923   0.594   7.017
18983SOL    HW156907   6.955   0.568   7.103
18983SOL    HW256908   6.956   0.683   7.006
18984SOL     OW56909   6.402   1.377   6.542
18984SOL    HW156910   6.490   1.372   6.503
18984SOL    HW256911   6.344   1.392   6.467
18985SOL     OW56912   6.520   0.521   6.479
18985SOL    HW156913   6.493   0.511   6.388
18985SOL    HW256914   6.543   0.432   6.507
18986SOL     OW56915   6.138   0.062   6.081
18986SOL    HW156916   6.056   0.044   6.128
18986SOL    HW256917   6.115   0.130   6.018
18987SOL     OW56918   7.021   1.212   5.618
18987SOL    HW156919   7.050   1.138   5.671
18987SOL    HW256920   6.936   1.236   5.655
18988SOL     OW56921   5.882   0.071   5.811
18988SOL    HW156922   5.951   0.134   5.833
18988SOL    HW256923   5.914   9.987   5.843
18989SOL     OW56924   6.524   0.271   6.048
18989SOL    HW156925   6.498   0.304   5.962
18989SOL    HW256926   6.618   0.288   6.052
18990SOL     OW56927   6.664   0.693   7.032
18990SOL    HW156928   6.600   0.622   7.040
18990SOL    HW256929   6.749   0.648   7.028
18991SOL     OW56930   6.792   1.587   6.388
18991SOL    HW156931   6.807   1.647   6.315
18991SOL    HW256932   6.865   1.603   6.448
18992SOL     OW56933   6.068   1.161   6.293
18992SOL    HW156934   6.005   1.137   6.362
18992SOL    HW256935   6.018   1.154   6.212
18993SOL     OW56936   6.838   1.792   6.203
18993SOL    HW156937   6.887   1.855   6.151
18993SOL    HW256938   6.767   1.844   6.242
18994SOL     OW56939   6.624   0.518   5.616
18994SOL    HW156940   6.576   0.599   5.593
18994SOL    HW256941   6.682   0.544   5.687
18995SOL     OW56942   5.687   0.538   6.982
18995SOL    HW156943   5.776   0.551   6.950
18995SOL    HW256944   5.674   0.609   7.045
18996SOL     OW56945   6.153   0.237   6.788
18996SOL    HW156946   6.196   0.190   6.861
18996SOL    HW256947   6.060   0.225   6.804
18997SOL     OW56948   6.449   0.474   6.224
18997SOL    HW156949   6.406   0.530   6.159
18997SOL    HW256950   6.471   0.394   6.177
18998SOL     OW56951   6.549   0.062   6.375
18998SOL    HW156952   6.496   0.050   6.296
18998SOL    HW256953   6.561   9.974   6.410
18999SOL     OW56954   7.020   1.153   6.441
18999SOL    HW156955   6.950   1.088   6.450
18999SOL    HW256956   7.034   1.160   6.346
19000SOL     OW56957   7.043   0.624   6.537
19000SOL    HW156958   6.982   0.550   6.543
19000SOL    HW256959   7.098   0.616   6.615
19001SOL     OW56960   7.410   0.797   5.975
19001SOL    HW156961   7.472   0.755   6.034
19001SOL    HW256962   7.399   0.735   5.903
19002SOL     OW56963   6.084   1.425   5.736
19002SOL    HW156964   6.009   1.393   5.786
19002SOL    HW256965   6.082   1.374   5.655
19003SOL     OW56966   7.294   1.272   6.221
19003SOL    HW156967   7.387   1.265   6.241
19003SOL    HW256968   7.270   1.361   6.245
19004SOL     OW56969   6.980   0.578   5.660
19004SOL    HW156970   6.923   0.556   5.733
19004SOL    HW256971   7.067   0.551   5.689
19005SOL     OW56972   6.085   0.250   5.881
19005SOL    HW156973   6.149   0.213   5.820
19005SOL    HW256974   6.064   0.335   5.843
19006SOL     OW56975   7.321   1.244   7.119
19006SOL    HW156976   7.409   1.210   7.104
19006SOL    HW256977   7.334   1.331   7.156
19007SOL     OW56978   6.628   1.357   6.922
19007SOL    HW156979   6.550   1.321   6.966
19007SOL    HW256980   6.701   1.310   6.962
19008SOL     OW56981   7.193   1.634   7.258
19008SOL    HW156982   7.182   1.671   7.170
19008SOL    HW256983   7.271   1.579   7.251
19009SOL     OW56984   6.737   1.240   6.692
19009SOL    HW156985   6.674   1.273   6.756
19009SOL    HW256986   6.703   1.271   6.607
19010SOL     OW56987   7.194   1.091   6.663
19010SOL    HW156988   7.186   1.158   6.731
19010SOL    HW256989   7.125   1.113   6.600
19011SOL     OW56990   6.472   0.162   6.956
19011SOL    HW156991   6.498   0.117   6.876
19011SOL    HW256992   6.555   0.186   6.998
19012SOL     OW56993   6.565   1.115   7.310
19012SOL    HW156994   6.475   1.132   7.337
19012SOL    HW256995   6.561   1.034   7.259
19013SOL     OW56996   6.297   1.063   5.963
19013SOL    HW156997   6.283   1.035   6.054
19013SOL    HW256998   6.372   1.010   5.934
19014SOL     OW56999   6.016   0.839   6.845
19014SOL    HW157000   6.084   0.844   6.913
19014SOL    HW257001   5.982   0.750   6.852
19015SOL     OW57002   6.857   0.375   6.869
19015SOL    HW157003   6.887   0.452   6.917
19015SOL    HW257004   6.768   0.397   6.841
19016SOL     OW57005   5.664   1.569   6.948
19016SOL    HW157006   5.635   1.642   6.892
19016SOL    HW257007   5.759   1.569   6.939
19017SOL     OW57008   5.902   1.133   6.071
19017SOL    HW157009   5.904   1.204   6.007
19017SOL    HW257010   5.900   1.053   6.018
19018SOL     OW57011   6.145   0.492   6.437
19018SOL    HW157012   6.150   0.548   6.359
19018SOL    HW257013   6.205   0.534   6.499
19019SOL     OW57014   6.833   1.355   5.984
19019SOL    HW157015   6.890   1.424   6.018
19019SOL    HW257016   6.745   1.378   6.014
19020SOL     OW57017   6.896   1.469   6.728
19020SOL    HW157018   6.943   1.475   6.811
19020SOL    HW257019   6.845   1.388   6.736
19021SOL     OW57020   7.162   0.626   6.067
19021SOL    HW157021   7.111   0.667   6.136
19021SOL    HW257022   7.215   0.697   6.030
19022SOL     OW57023   5.931   1.532   6.889
19022SOL    HW157024   5.923   1.480   6.809
19022SOL    HW257025   6.024   1.549   6.898
19023SOL     OW57026   6.030   0.729   7.211
19023SOL    HW157027   6.080   0.778   7.147
19023SOL    HW257028   6.082   0.649   7.226
19024SOL     OW57029   7.211   0.788   7.284
19024SOL    HW157030   7.124   0.826   7.276
19024SOL    HW257031   7.261   0.826   7.212
19025SOL     OW57032   6.547   0.078   7.359
19025SOL    HW157033   6.615   0.131   7.401
19025SOL    HW257034   6.590   0.042   7.282
19026SOL     OW57035   6.055   0.019   7.352
19026SOL    HW157036   6.114   0.010   7.278
19026SOL    HW257037   6.008   0.101   7.337
19027SOL     OW57038   6.177   0.881   6.622
19027SOL    HW157039   6.217   0.968   6.627
19027SOL    HW257040   6.120   0.876   6.699
19028SOL     OW57041   6.892   0.858   6.587
19028SOL    HW157042   6.803   0.831   6.564
19028SOL    HW257043   6.945   0.781   6.571
19029SOL     OW57044   6.779   0.530   5.845
19029SOL    HW157045   6.788   0.457   5.906
19029SOL    HW257046   6.738   0.599   5.898
19030SOL     OW57047   5.886   0.180   6.842
19030SOL    HW157048   5.852   0.210   6.926
19030SOL    HW257049   5.897   0.085   6.853
19031SOL     OW57050   5.634   1.312   6.852
19031SOL    HW157051   5.664   1.257   6.923
19031SOL    HW257052   5.638   1.401   6.887
19032SOL     OW57053   6.296   0.629   6.620
19032SOL    HW157054   6.376   0.625   6.568
19032SOL    HW257055   6.265   0.719   6.609
19033SOL     OW57056   7.338   0.968   7.455
19033SOL    HW157057   7.297   0.896   7.407
19033SOL    HW257058   7.275   0.989   7.524
19034SOL     OW57059   5.883   0.064   6.213
19034SOL    HW157060   5.864   0.157   6.216
19034SOL    HW257061   5.897   0.039   6.305
19035SOL     OW57062   7.222   0.397   5.926
19035SOL    HW157063   7.261   0.334   5.986
19035SOL    HW257064   7.193   0.469   5.982
19036SOL     OW57065   6.622   0.764   6.545
19036SOL    HW157066   6.600   0.778   6.637
19036SOL    HW257067   6.594   0.674   6.528
19037SOL     OW57068   6.566   1.565   7.322
19037SOL    HW157069   6.545   1.609   7.239
19037SOL    HW257070   6.605   1.482   7.295
19038SOL     OW57071   7.424   1.495   7.188
19038SOL    HW157072   7.451   1.523   7.101
19038SOL    HW257073   7.502   1.506   7.242
19039SOL     OW57074   5.936   0.913   7.394
19039SOL    HW157075   6.010   0.933   7.451
19039SOL    HW257076   5.968   0.846   7.334
19040SOL     OW57077   7.102   0.279   5.705
19040SOL    HW157078   7.063   0.200   5.742
19040SOL    HW257079   7.148   0.320   5.778
19041SOL     OW57080   6.866   0.822   5.606
19041SOL    HW157081   6.909   0.736   5.615
19041SOL    HW257082   6.902   0.858   5.525
19042SOL     OW57083   6.656   1.353   6.452
19042SOL    HW157084   6.667   1.281   6.391
19042SOL    HW257085   6.708   1.424   6.415
19043SOL     OW57086   5.908   0.816   6.529
19043SOL    HW157087   6.001   0.835   6.528
19043SOL    HW257088   5.902   0.725   6.560
19044SOL     OW57089   5.934   0.544   6.600
19044SOL    HW157090   5.878   0.467   6.597
19044SOL    HW257091   6.004   0.525   6.538
19045SOL     OW57092   6.721   0.408   7.239
19045SOL    HW157093   6.675   0.445   7.314
19045SOL    HW257094   6.809   0.445   7.245
19046SOL     OW57095   6.728   0.209   7.053
19046SOL    HW157096   6.719   0.272   7.124
19046SOL    HW257097   6.783   0.254   6.988
19047SOL     OW57098   5.610   1.302   5.766
19047SOL    HW157099   5.521   1.324   5.741
19047SOL    HW257100   5.604   1.216   5.807
19048SOL     OW57101   5.677   1.771   6.535
19048SOL    HW157102   5.645   1.696   6.485
19048SOL    HW257103   5.765   1.787   6.500
19049SOL     OW57104   6.071   1.570   6.487
19049SOL    HW157105   6.142   1.630   6.509
19049SOL    HW257106   6.111   1.508   6.425
19050SOL     OW57107   6.537   0.785   6.803
19050SOL    HW157108   6.598   0.769   6.875
19050SOL    HW257109   6.458   0.737   6.829
19051SOL     OW57110   5.603   0.523   6.714
19051SOL    HW157111   5.661   0.463   6.668
19051SOL    HW257112   5.646   0.538   6.799
19052SOL     OW57113   5.771   0.556   7.334
19052SOL    HW157114   5.857   0.548   7.292
19052SOL    HW257115   5.726   0.622   7.282
19053SOL     OW57116   6.976   0.921   7.238
19053SOL    HW157117   6.994   1.015   7.233
19053SOL    HW257118   6.968   0.894   7.147
19054SOL     OW57119   6.399   0.580   5.960
19054SOL    HW157120   6.405   0.504   5.902
19054SOL    HW257121   6.322   0.628   5.929
19055SOL     OW57122   7.211   0.605   6.754
19055SOL    HW157123   7.192   0.551   6.831
19055SOL    HW257124   7.300   0.579   6.728
19056SOL     OW57125   5.812   1.540   7.309
19056SOL    HW157126   5.788   1.588   7.388
19056SOL    HW257127   5.824   1.450   7.339
19057SOL     OW57128   6.325   0.450   6.822
19057SOL    HW157129   6.262   0.378   6.811
19057SOL    HW257130   6.305   0.510   6.750
19058SOL     OW57131   6.489   1.681   7.076
19058SOL    HW157132   6.468   1.632   6.996
19058SOL    HW257133   6.493   1.772   7.049
19059SOL     OW57134   6.030   0.488   5.758
19059SOL    HW157135   6.094   0.555   5.783
19059SOL    HW257136   5.946   0.533   5.759
19060SOL     OW57137   5.715   1.151   7.066
19060SOL    HW157138   5.720   1.112   7.153
19060SOL    HW257139   5.736   1.080   7.006
19061SOL     OW57140   6.889   1.036   6.794
19061SOL    HW157141   6.898   0.973   6.723
19061SOL    HW257142   6.835   1.107   6.757
19062SOL     OW57143   6.911   0.863   5.878
19062SOL    HW157144   6.840   0.832   5.933
19062SOL    HW257145   6.881   0.848   5.788
19063SOL     OW57146   7.373   1.724   6.757
19063SOL    HW157147   7.435   1.750   6.688
19063SOL    HW257148   7.341   1.638   6.729
19064SOL     OW57149   6.826   1.734   6.677
19064SOL    HW157150   6.911   1.764   6.643
19064SOL    HW257151   6.841   1.642   6.701
19065SOL     OW57152   5.692   1.250   6.595
19065SOL    HW157153   5.664   1.271   6.684
19065SOL    HW257154   5.622   1.195   6.559
19066SOL     OW57155   6.273   1.683   7.335
19066SOL    HW157156   6.210   1.754   7.322
19066SOL    HW257157   6.347   1.706   7.277
19067SOL     OW57158   7.349   0.187   6.070
19067SOL    HW157159   7.401   0.188   5.990
19067SOL    HW257160   7.383   0.113   6.120
19068SOL     OW57161   6.983   1.570   6.089
19068SOL    HW157162   7.038   1.605   6.019
19068SOL    HW257163   6.928   1.644   6.115
19069SOL     OW57164   5.719   1.807   7.430
19069SOL    HW157165   5.679   1.730   7.472
19069SOL    HW257166   5.770   1.848   7.500
19070SOL     OW57167   6.864   0.938   6.249
19070SOL    HW157168   6.938   0.878   6.262
19070SOL    HW257169   6.900   1.010   6.197
19071SOL     OW57170   6.369   1.280   6.999
19071SOL    HW157171   6.343   1.327   7.078
19071SOL    HW257172   6.295   1.290   6.940
19072SOL     OW57173   6.254   1.636   5.745
19072SOL    HW157174   6.269   1.650   5.651
19072SOL    HW257175   6.202   1.556   5.749
19073SOL     OW57176   7.202   1.730   6.988
19073SOL    HW157177   7.259   1.730   6.911
19073SOL    HW257178   7.186   1.822   7.006
19074SOL     OW57179   7.438   0.154   6.548
19074SOL    HW157180   7.469   0.080   6.495
19074SOL    HW257181   7.352   0.175   6.511
19075SOL     OW57182   5.831   0.324   6.289
19075SOL    HW157183   5.744   0.360   6.272
19075SOL    HW257184   5.835   0.315   6.384
19076SOL     OW57185   6.796   1.588   5.624
19076SOL    HW157186   6.786   1.497   5.652
19076SOL    HW257187   6.726   1.601   5.560
19077SOL     OW57188   6.410   1.011   6.973
19077SOL    HW157189   6.449   1.000   6.886
19077SOL    HW257190   6.399   1.105   6.982
19078SOL     OW57191   6.503   0.914   5.878
19078SOL    HW157192   6.561   0.947   5.809
19078SOL    HW257193   6.555   0.847   5.923
19079SOL     OW57194   7.070   1.644   5.644
19079SOL    HW157195   6.978   1.625   5.627
19079SOL    HW257196   7.110   1.648   5.557
19080SOL     OW57197   5.948   1.313   7.088
19080SOL    HW157198   5.941   1.386   7.027
19080SOL    HW257199   5.870   1.260   7.071
19081SOL     OW57200   7.184   1.290   6.862
19081SOL    HW157201   7.239   1.266   6.937
19081SOL    HW257202   7.125   1.357   6.897
19082SOL     OW57203   6.662   1.120   6.315
19082SOL    HW157204   6.587   1.070   6.346
19082SOL    HW257205   6.724   1.054   6.285
19083SOL     OW57206   6.610   0.256   6.562
19083SOL    HW157207   6.591   0.208   6.481
19083SOL    HW257208   6.607   0.189   6.630
19084SOL     OW57209   6.191   1.487   6.061
19084SOL    HW157210   6.246   1.437   6.000
19084SOL    HW257211   6.110   1.504   6.013
19085SOL     OW57212   7.327   0.369   6.975
19085SOL    HW157213   7.400   0.430   6.964
19085SOL    HW257214   7.341   0.302   6.908
19086SOL     OW57215   5.865   1.340   5.884
19086SOL    HW157216   5.778   1.333   5.846
19086SOL    HW257217   5.851   1.388   5.966
19087SOL     OW57218   5.708   1.047   7.321
19087SOL    HW157219   5.631   1.019   7.371
19087SOL    HW257220   5.779   0.994   7.355
19088SOL     OW57221   6.248   0.230   7.094
19088SOL    HW157222   6.326   0.204   7.046
19088SOL    HW257223   6.279   0.247   7.183
19089SOL     OW57224   5.657   0.335   5.601
19089SOL    HW157225   5.576   0.326   5.550
19089SOL    HW257226   5.693   0.419   5.573
19090SOL     OW57227   7.000   0.857   6.974
19090SOL    HW157228   6.947   0.916   6.919
19090SOL    HW257229   7.088   0.862   6.936
19091SOL     OW57230   5.645   0.202   5.851
19091SOL    HW157231   5.643   0.256   5.773
19091SOL    HW257232   5.723   0.148   5.842
19092SOL     OW57233   6.770   1.321   5.710
19092SOL    HW157234   6.680   1.288   5.710
19092SOL    HW257235   6.794   1.326   5.802
19093SOL     OW57236   6.213   0.830   7.030
19093SOL    HW157237   6.272   0.905   7.017
19093SOL    HW257238   6.272   0.754   7.031
19094SOL     OW57239   7.073   1.803   6.578
19094SOL    HW157240   7.098   1.877   6.524
19094SOL    HW257241   7.155   1.759   6.599
19095SOL     OW57242   6.304   0.541   7.282
19095SOL    HW157243   6.352   0.599   7.341
19095SOL    HW257244   6.319   0.453   7.316
19096SOL     OW57245   7.054   1.184   7.205
19096SOL    HW157246   7.047   1.207   7.298
19096SOL    HW257247   7.144   1.208   7.182
19097SOL     OW57248   5.940   1.747   7.166
19097SOL    HW157249   5.858   1.793   7.148
19097SOL    HW257250   5.913   1.664   7.204
19098SOL     OW57251   7.240   0.877   6.839
19098SOL    HW157252   7.237   0.793   6.793
19098SOL    HW257253   7.229   0.942   6.770
19099SOL     OW57254   6.793   0.338   6.044
19099SOL    HW157255   6.861   0.273   6.029
19099SOL    HW257256   6.823   0.387   6.120
19100SOL     OW57257   6.168   0.718   6.265
19100SOL    HW157258   6.209   0.803   6.253
19100SOL    HW257259   6.102   0.713   6.195
19101SOL     OW57260   7.326   0.356   7.248
19101SOL    HW157261   7.328   0.367   7.153
19101SOL    HW257262   7.247   0.305   7.265
19102SOL     OW57263   7.343   0.926   7.089
19102SOL    HW157264   7.328   1.019   7.103
19102SOL    HW257265   7.316   0.910   6.999
19103SOL     OW57266   6.453   1.357   5.646
19103SOL    HW157267   6.418   1.376   5.733
19103SOL    HW257268   6.467   1.443   5.607
19104SOL     OW57269   6.254   1.766   6.511
19104SOL    HW157270   6.235   1.860   6.504
19104SOL    HW257271   6.350   1.761   6.510
19105SOL     OW57272   6.458   0.978   6.442
19105SOL    HW157273   6.509   0.905   6.478
19105SOL    HW257274   6.413   1.015   6.517
19106SOL     OW57275   6.661   0.988   5.673
19106SOL    HW157276   6.638   1.040   5.596
19106SOL    HW257277   6.733   0.932   5.644
19107SOL     OW57278   7.417   1.558   6.425
19107SOL    HW157279   7.340   1.550   6.368
19107SOL    HW257280   7.395   1.505   6.502
19108SOL     OW57281   5.798   1.286   7.422
19108SOL    HW157282   5.767   1.206   7.379
19108SOL    HW257283   5.739   1.298   7.496
19109SOL     OW57284   5.704   1.223   6.254
19109SOL    HW157285   5.736   1.182   6.334
19109SOL    HW257286   5.763   1.191   6.185
19110SOL     OW57287   6.276   1.419   7.218
19110SOL    HW157288   6.200   1.380   7.260
19110SOL    HW257289   6.282   1.507   7.255
19111SOL     OW57290   7.347   0.149   6.813
19111SOL    HW157291   7.297   0.067   6.805
19111SOL    HW257292   7.390   0.158   6.728
19112SOL     OW57293   6.013   0.428   6.106
19112SOL    HW157294   6.039   0.354   6.050
19112SOL    HW257295   5.959   0.389   6.174
19113SOL     OW57296   7.281   1.481   6.668
19113SOL    HW157297   7.203   1.461   6.615
19113SOL    HW257298   7.282   1.413   6.735
19114SOL     OW57299   5.931   0.582   6.873
19114SOL    HW157300   5.984   0.521   6.924
19114SOL    HW257301   5.946   0.557   6.782
19115SOL     OW57302   6.424   1.585   6.256
19115SOL    HW157303   6.395   1.655   6.198
19115SOL    HW257304   6.349   1.526   6.264
19116SOL     OW57305   7.020   0.238   6.697
19116SOL    HW157306   7.055   0.161   6.742
19116SOL    HW257307   6.970   0.285   6.764
19117SOL     OW57308   6.613   0.039   6.741
19117SOL    HW157309   6.588   9.947   6.742
19117SOL    HW257310   6.706   0.039   6.765
19118SOL     OW57311   6.366   1.332   5.914
19118SOL    HW157312   6.342   1.241   5.927
19118SOL    HW257313   6.446   1.343   5.966
19119SOL     OW57314   6.201   1.570   6.874
19119SOL    HW157315   6.196   1.655   6.919
19119SOL    HW257316   6.291   1.566   6.841
19120SOL     OW57317   6.974   0.032   5.765
19120SOL    HW157318   7.057   9.985   5.771
19120SOL    HW257319   6.907   9.964   5.775
19121SOL     OW57320   6.884   0.478   6.261
19121SOL    HW157321   6.832   0.558   6.262
19121SOL    HW257322   6.877   0.445   6.351
19122SOL     OW57323   7.186   0.223   6.467
19122SOL    HW157324   7.129   0.236   6.543
19122SOL    HW257325   7.183   0.307   6.421
19123SOL     OW57326   5.622   1.050   5.893
19123SOL    HW157327   5.715   1.037   5.874
19123SOL    HW257328   5.590   0.962   5.914
19124SOL     OW57329   6.481   1.675   5.916
19124SOL    HW157330   6.402   1.660   5.863
19124SOL    HW257331   6.456   1.744   5.977
19125SOL     OW57332   5.797   0.636   7.600
19125SOL    HW157333   5.710   0.619   7.637
19125SOL    HW257334   5.786   0.622   7.506
19126SOL     OW57335   5.778   0.321   8.482
19126SOL    HW157336   5.823   0.270   8.549
19126SOL    HW257337   5.710   0.263   8.449
19127SOL     OW57338   5.574   0.409   8.088
19127SOL    HW157339   5.491   0.434   8.129
19127SOL    HW257340   5.552   0.334   8.032
19128SOL     OW57341   6.162   1.309   8.657
19128SOL    HW157342   6.079   1.311   8.609
19128SOL    HW257343   6.178   1.400   8.681
19129SOL     OW57344   7.174   1.524   8.153
19129SOL    HW157345   7.127   1.493   8.230
19129SOL    HW257346   7.108   1.528   8.084
19130SOL     OW57347   6.723   0.707   8.135
19130SOL    HW157348   6.769   0.790   8.124
19130SOL    HW257349   6.673   0.717   8.216
19131SOL     OW57350   7.391   0.587   7.664
19131SOL    HW157351   7.353   0.586   7.576
19131SOL    HW257352   7.348   0.514   7.709
19132SOL     OW57353   6.313   1.132   8.505
19132SOL    HW157354   6.255   1.172   8.570
19132SOL    HW257355   6.355   1.206   8.462
19133SOL     OW57356   6.472   0.737   9.272
19133SOL    HW157357   6.463   0.804   9.340
19133SOL    HW257358   6.489   0.786   9.192
19134SOL     OW57359   6.270   0.982   8.093
19134SOL    HW157360   6.338   0.983   8.161
19134SOL    HW257361   6.204   1.044   8.124
19135SOL     OW57362   6.296   1.150   9.273
19135SOL    HW157363   6.348   1.223   9.307
19135SOL    HW257364   6.219   1.192   9.234
19136SOL     OW57365   5.929   1.397   8.517
19136SOL    HW157366   5.853   1.355   8.477
19136SOL    HW257367   5.965   1.452   8.448
19137SOL     OW57368   7.039   1.507   8.819
19137SOL    HW157369   7.094   1.584   8.831
19137SOL    HW257370   6.968   1.518   8.882
19138SOL     OW57371   6.043   0.401   8.903
19138SOL    HW157372   6.121   0.348   8.922
19138SOL    HW257373   5.969   0.345   8.926
19139SOL     OW57374   7.175   0.459   8.193
19139SOL    HW157375   7.105   0.463   8.128
19139SOL    HW257376   7.158   0.532   8.251
19140SOL     OW57377   5.804   1.728   7.912
19140SOL    HW157378   5.831   1.799   7.971
19140SOL    HW257379   5.878   1.717   7.853
19141SOL     OW57380   6.720   1.343   9.142
19141SOL    HW157381   6.764   1.333   9.227
19141SOL    HW257382   6.668   1.263   9.133
19142SOL     OW57383   5.819   1.457   7.981
19142SOL    HW157384   5.798   1.551   7.985
19142SOL    HW257385   5.770   1.418   8.052
19143SOL     OW57386   5.871   1.090   8.326
19143SOL    HW157387   5.871   1.001   8.360
19143SOL    HW257388   5.815   1.138   8.387
19144SOL     OW57389   6.158   1.807   8.865
19144SOL    HW157390   6.083   1.785   8.921
19144SOL    HW257391   6.192   1.889   8.901
19145SOL     OW57392   6.150   0.988   7.601
19145SOL    HW157393   6.200   1.030   7.532
19145SOL    HW257394   6.190   1.019   7.682
19146SOL     OW57395   7.130   0.122   8.902
19146SOL    HW157396   7.193   0.174   8.852
19146SOL    HW257397   7.121   0.168   8.985
19147SOL     OW57398   5.705   0.663   8.014
19147SOL    HW157399   5.672   0.576   8.036
19147SOL    HW257400   5.700   0.712   8.096
19148SOL     OW57401   7.432   1.743   7.766
19148SOL    HW157402   7.504   1.728   7.827
19148SOL    HW257403   7.439   1.836   7.743
19149SOL     OW57404   5.645   1.580   7.558
19149SOL    HW157405   5.625   1.488   7.577
19149SOL    HW257406   5.613   1.628   7.635
19150SOL     OW57407   7.284   0.927   8.103
19150SOL    HW157408   7.366   0.883   8.080
19150SOL    HW257409   7.263   0.979   8.025
19151SOL     OW57410   7.243   1.105   7.881
19151SOL    HW157411   7.328   1.097   7.837
19151SOL    HW257412   7.257   1.171   7.949
19152SOL     OW57413   5.691   0.751   9.018
19152SOL    HW157414   5.772   0.802   9.019
19152SOL    HW257415   5.622   0.816   9.002
19153SOL     OW57416   6.209   1.398   8.178
19153SOL    HW157417   6.168   1.312   8.183
19153SOL    HW257418   6.193   1.427   8.088
19154SOL     OW57419   6.856   1.227   8.866
19154SOL    HW157420   6.885   1.158   8.806
19154SOL    HW257421   6.917   1.222   8.939
19155SOL     OW57422   6.404   0.035   7.986
19155SOL    HW157423   6.434   0.123   7.964
19155SOL    HW257424   6.308   0.040   7.982
19156SOL     OW57425   5.772   0.957   8.750
19156SOL    HW157426   5.861   0.926   8.733
19156SOL    HW257427   5.720   0.921   8.678
19157SOL     OW57428   7.122   1.015   7.648
19157SOL    HW157429   7.053   0.955   7.677
19157SOL    HW257430   7.164   1.046   7.728
19158SOL     OW57431   6.763   1.822   9.083
19158SOL    HW157432   6.765   1.883   9.009
19158SOL    HW257433   6.780   1.737   9.043
19159SOL     OW57434   5.902   0.257   9.223
19159SOL    HW157435   5.960   0.318   9.270
19159SOL    HW257436   5.819   0.263   9.269
19160SOL     OW57437   7.058   1.418   8.378
19160SOL    HW157438   6.995   1.437   8.447
19160SOL    HW257439   7.040   1.327   8.354
19161SOL     OW57440   7.223   1.796   8.010
19161SOL    HW157441   7.207   1.749   7.928
19161SOL    HW257442   7.224   1.728   8.077
19162SOL     OW57443   6.171   0.710   7.722
19162SOL    HW157444   6.171   0.797   7.682
19162SOL    HW257445   6.106   0.716   7.792
19163SOL     OW57446   6.868   0.391   8.386
19163SOL    HW157447   6.779   0.356   8.394
19163SOL    HW257448   6.921   0.332   8.439
19164SOL     OW57449   7.165   1.673   7.767
19164SOL    HW157450   7.259   1.688   7.756
19164SOL    HW257451   7.132   1.661   7.678
19165SOL     OW57452   6.379   0.614   8.892
19165SOL    HW157453   6.352   0.579   8.977
19165SOL    HW257454   6.356   0.545   8.830
19166SOL     OW57455   6.983   0.493   9.122
19166SOL    HW157456   6.986   0.534   9.209
19166SOL    HW257457   7.034   0.413   9.133
19167SOL     OW57458   6.532   0.879   9.041
19167SOL    HW157459   6.588   0.816   8.996
19167SOL    HW257460   6.483   0.922   8.970
19168SOL     OW57461   6.600   0.416   8.657
19168SOL    HW157462   6.509   0.426   8.685
19168SOL    HW257463   6.594   0.374   8.572
19169SOL     OW57464   6.640   0.704   7.868
19169SOL    HW157465   6.663   0.700   7.961
19169SOL    HW257466   6.555   0.661   7.862
19170SOL     OW57467   5.680   0.825   8.233
19170SOL    HW157468   5.761   0.818   8.282
19170SOL    HW257469   5.633   0.898   8.275
19171SOL     OW57470   5.697   1.879   9.040
19171SOL    HW157471   5.705   1.858   9.133
19171SOL    HW257472   5.613   1.841   9.014
19172SOL     OW57473   6.473   0.361   7.653
19172SOL    HW157474   6.515   0.419   7.589
19172SOL    HW257475   6.477   0.274   7.612
19173SOL     OW57476   7.267   0.558   9.284
19173SOL    HW157477   7.247   0.639   9.237
19173SOL    HW257478   7.296   0.497   9.216
19174SOL     OW57479   6.979   1.151   7.991
19174SOL    HW157480   7.059   1.139   7.939
19174SOL    HW257481   6.926   1.212   7.940
19175SOL     OW57482   6.126   0.221   8.374
19175SOL    HW157483   6.146   0.235   8.467
19175SOL    HW257484   6.138   0.307   8.333
19176SOL     OW57485   6.583   1.456   7.913
19176SOL    HW157486   6.559   1.530   7.858
19176SOL    HW257487   6.553   1.480   8.001
19177SOL     OW57488   5.940   1.815   8.328
19177SOL    HW157489   5.985   1.731   8.332
19177SOL    HW257490   6.007   1.880   8.349
19178SOL     OW57491   7.391   1.045   8.339
19178SOL    HW157492   7.344   1.029   8.257
19178SOL    HW257493   7.322   1.054   8.405
19179SOL     OW57494   6.803   1.544   8.964
19179SOL    HW157495   6.793   1.473   9.027
19179SOL    HW257496   6.737   1.527   8.897
19180SOL     OW57497   5.884   0.956   7.712
19180SOL    HW157498   5.967   0.976   7.668
19180SOL    HW257499   5.863   0.867   7.683
19181SOL     OW57500   7.070   0.766   8.159
19181SOL    HW157501   7.068   0.729   8.247
19181SOL    HW257502   7.150   0.820   8.158
19182SOL     OW57503   6.057   1.286   9.195
19182SOL    HW157504   6.033   1.289   9.102
19182SOL    HW257505   5.974   1.276   9.241
19183SOL     OW57506   6.725   1.776   7.675
19183SOL    HW157507   6.643   1.746   7.713
19183SOL    HW257508   6.745   1.711   7.607
19184SOL     OW57509   5.804   0.266   8.956
19184SOL    HW157510   5.738   0.335   8.955
19184SOL    HW257511   5.826   0.255   9.049
19185SOL     OW57512   7.224   1.388   7.549
19185SOL    HW157513   7.184   1.474   7.535
19185SOL    HW257514   7.157   1.325   7.521
19186SOL     OW57515   6.045   1.742   7.763
19186SOL    HW157516   6.094   1.792   7.828
19186SOL    HW257517   6.112   1.701   7.709
19187SOL     OW57518   6.992   0.163   7.866
19187SOL    HW157519   6.985   0.108   7.789
19187SOL    HW257520   7.084   0.157   7.892
19188SOL     OW57521   5.839   1.789   8.662
19188SOL    HW157522   5.887   1.714   8.697
19188SOL    HW257523   5.824   1.768   8.570
19189SOL     OW57524   6.534   1.703   8.337
19189SOL    HW157525   6.619   1.661   8.353
19189SOL    HW257526   6.495   1.652   8.267
19190SOL     OW57527   5.980   0.689   7.923
19190SOL    HW157528   5.995   0.595   7.934
19190SOL    HW257529   5.886   0.700   7.940
19191SOL     OW57530   7.090   0.232   9.164
19191SOL    HW157531   7.106   0.248   9.257
19191SOL    HW257532   7.009   0.180   9.162
19192SOL     OW57533   6.228   0.105   7.554
19192SOL    HW157534   6.264   0.031   7.603
19192SOL    HW257535   6.166   0.065   7.493
19193SOL     OW57536   6.341   0.264   9.223
19193SOL    HW157537   6.416   0.205   9.213
19193SOL    HW257538   6.296   0.234   9.301
19194SOL     OW57539   6.455   1.528   8.648
19194SOL    HW157540   6.437   1.486   8.563
19194SOL    HW257541   6.522   1.473   8.688
19195SOL     OW57542   6.924   0.595   8.876
19195SOL    HW157543   6.955   0.569   8.963
19195SOL    HW257544   6.956   0.684   8.865
19196SOL     OW57545   6.402   1.377   8.404
19196SOL    HW157546   6.490   1.373   8.366
19196SOL    HW257547   6.344   1.392   8.330
19197SOL     OW57548   6.521   0.520   8.341
19197SOL    HW157549   6.493   0.511   8.250
19197SOL    HW257550   6.544   0.432   8.369
19198SOL     OW57551   6.137   0.061   7.942
19198SOL    HW157552   6.056   0.044   7.989
19198SOL    HW257553   6.115   0.130   7.879
19199SOL     OW57554   7.020   1.212   7.480
19199SOL    HW157555   7.050   1.139   7.533
19199SOL    HW257556   6.935   1.236   7.517
19200SOL     OW57557   5.882   0.070   7.671
19200SOL    HW157558   5.951   0.133   7.691
19200SOL    HW257559   5.914   9.987   7.708
19201SOL     OW57560   6.524   0.271   7.910
19201SOL    HW157561   6.498   0.304   7.824
19201SOL    HW257562   6.618   0.288   7.914
19202SOL     OW57563   6.664   0.692   8.892
19202SOL    HW157564   6.601   0.621   8.902
19202SOL    HW257565   6.749   0.648   8.888
19203SOL     OW57566   6.792   1.587   8.250
19203SOL    HW157567   6.807   1.647   8.177
19203SOL    HW257568   6.865   1.603   8.310
19204SOL     OW57569   6.068   1.161   8.155
19204SOL    HW157570   6.006   1.137   8.224
19204SOL    HW257571   6.018   1.154   8.074
19205SOL     OW57572   6.837   1.792   8.065
19205SOL    HW157573   6.887   1.855   8.013
19205SOL    HW257574   6.766   1.844   8.104
19206SOL     OW57575   6.624   0.518   7.478
19206SOL    HW157576   6.576   0.598   7.455
19206SOL    HW257577   6.682   0.544   7.549
19207SOL     OW57578   5.689   0.536   8.846
19207SOL    HW157579   5.778   0.550   8.813
19207SOL    HW257580   5.675   0.607   8.908
19208SOL     OW57581   6.153   0.236   8.650
19208SOL    HW157582   6.195   0.190   8.723
19208SOL    HW257583   6.060   0.225   8.666
19209SOL     OW57584   6.449   0.475   8.086
19209SOL    HW157585   6.406   0.530   8.021
19209SOL    HW257586   6.471   0.394   8.038
19210SOL     OW57587   6.548   0.062   8.237
19210SOL    HW157588   6.496   0.050   8.158
19210SOL    HW257589   6.560   9.974   8.272
19211SOL     OW57590   7.019   1.153   8.303
19211SOL    HW157591   6.950   1.088   8.313
19211SOL    HW257592   7.033   1.159   8.209
19212SOL     OW57593   7.042   0.624   8.399
19212SOL    HW157594   6.982   0.550   8.405
19212SOL    HW257595   7.098   0.617   8.477
19213SOL     OW57596   7.411   0.797   7.837
19213SOL    HW157597   7.473   0.755   7.896
19213SOL    HW257598   7.400   0.735   7.765
19214SOL     OW57599   6.084   1.425   7.598
19214SOL    HW157600   6.009   1.392   7.648
19214SOL    HW257601   6.081   1.375   7.516
19215SOL     OW57602   7.294   1.272   8.082
19215SOL    HW157603   7.387   1.265   8.102
19215SOL    HW257604   7.270   1.361   8.107
19216SOL     OW57605   6.980   0.578   7.522
19216SOL    HW157606   6.922   0.556   7.595
19216SOL    HW257607   7.067   0.551   7.552
19217SOL     OW57608   6.086   0.250   7.743
19217SOL    HW157609   6.150   0.213   7.682
19217SOL    HW257610   6.064   0.335   7.706
19218SOL     OW57611   7.320   1.244   8.980
19218SOL    HW157612   7.408   1.209   8.966
19218SOL    HW257613   7.334   1.331   9.017
19219SOL     OW57614   6.627   1.356   8.784
19219SOL    HW157615   6.550   1.321   8.828
19219SOL    HW257616   6.701   1.311   8.824
19220SOL     OW57617   7.193   1.635   9.112
19220SOL    HW157618   7.185   1.671   9.024
19220SOL    HW257619   7.270   1.579   9.108
19221SOL     OW57620   6.736   1.240   8.554
19221SOL    HW157621   6.674   1.273   8.618
19221SOL    HW257622   6.703   1.271   8.470
19222SOL     OW57623   7.195   1.092   8.525
19222SOL    HW157624   7.187   1.159   8.594
19222SOL    HW257625   7.125   1.114   8.463
19223SOL     OW57626   6.472   0.161   8.820
19223SOL    HW157627   6.498   0.117   8.739
19223SOL    HW257628   6.555   0.186   8.860
19224SOL     OW57629   6.566   1.115   9.171
19224SOL    HW157630   6.475   1.132   9.196
19224SOL    HW257631   6.562   1.034   9.120
19225SOL     OW57632   6.298   1.063   7.825
19225SOL    HW157633   6.283   1.035   7.916
19225SOL    HW257634   6.372   1.010   7.796
19226SOL     OW57635   6.016   0.839   8.707
19226SOL    HW157636   6.084   0.844   8.775
19226SOL    HW257637   5.982   0.750   8.714
19227SOL     OW57638   6.857   0.375   8.730
19227SOL    HW157639   6.887   0.452   8.778
19227SOL    HW257640   6.768   0.396   8.702
19228SOL     OW57641   5.664   1.570   8.810
19228SOL    HW157642   5.633   1.641   8.753
19228SOL    HW257643   5.759   1.570   8.799
19229SOL     OW57644   5.903   1.133   7.933
19229SOL    HW157645   5.904   1.204   7.869
19229SOL    HW257646   5.900   1.054   7.880
19230SOL     OW57647   6.145   0.492   8.299
19230SOL    HW157648   6.150   0.547   8.221
19230SOL    HW257649   6.205   0.534   8.361
19231SOL     OW57650   6.833   1.355   7.846
19231SOL    HW157651   6.889   1.424   7.880
19231SOL    HW257652   6.745   1.378   7.876
19232SOL     OW57653   6.895   1.469   8.590
19232SOL    HW157654   6.942   1.476   8.673
19232SOL    HW257655   6.844   1.389   8.598
19233SOL     OW57656   7.162   0.626   7.928
19233SOL    HW157657   7.111   0.667   7.998
19233SOL    HW257658   7.214   0.697   7.892
19234SOL     OW57659   5.930   1.534   8.749
19234SOL    HW157660   5.923   1.481   8.670
19234SOL    HW257661   6.024   1.550   8.759
19235SOL     OW57662   6.031   0.725   9.074
19235SOL    HW157663   6.080   0.776   9.009
19235SOL    HW257664   6.085   0.648   9.089
19236SOL     OW57665   7.211   0.787   9.150
19236SOL    HW157666   7.124   0.825   9.141
19236SOL    HW257667   7.262   0.825   9.078
19237SOL     OW57668   6.548   0.080   9.224
19237SOL    HW157669   6.615   0.136   9.264
19237SOL    HW257670   6.590   0.045   9.146
19238SOL     OW57671   6.054   0.023   9.233
19238SOL    HW157672   6.112   0.001   9.161
19238SOL    HW257673   6.010   0.103   9.205
19239SOL     OW57674   6.178   0.881   8.485
19239SOL    HW157675   6.217   0.968   8.489
19239SOL    HW257676   6.121   0.876   8.561
19240SOL     OW57677   6.891   0.859   8.448
19240SOL    HW157678   6.802   0.832   8.425
19240SOL    HW257679   6.945   0.781   8.433
19241SOL     OW57680   6.779   0.530   7.708
19241SOL    HW157681   6.788   0.457   7.768
19241SOL    HW257682   6.738   0.599   7.760
19242SOL     OW57683   5.886   0.180   8.704
19242SOL    HW157684   5.852   0.211   8.787
19242SOL    HW257685   5.897   0.085   8.716
19243SOL     OW57686   5.637   1.312   8.713
19243SOL    HW157687   5.665   1.256   8.785
19243SOL    HW257688   5.639   1.401   8.749
19244SOL     OW57689   6.296   0.629   8.482
19244SOL    HW157690   6.376   0.625   8.430
19244SOL    HW257691   6.265   0.719   8.472
19245SOL     OW57692   7.342   0.972   9.314
19245SOL    HW157693   7.297   0.899   9.272
19245SOL    HW257694   7.287   0.995   9.389
19246SOL     OW57695   5.884   0.064   8.075
19246SOL    HW157696   5.865   0.157   8.078
19246SOL    HW257697   5.898   0.039   8.167
19247SOL     OW57698   7.222   0.397   7.788
19247SOL    HW157699   7.261   0.334   7.848
19247SOL    HW257700   7.193   0.469   7.844
19248SOL     OW57701   6.622   0.763   8.407
19248SOL    HW157702   6.600   0.778   8.499
19248SOL    HW257703   6.594   0.674   8.390
19249SOL     OW57704   6.566   1.567   9.181
19249SOL    HW157705   6.546   1.610   9.098
19249SOL    HW257706   6.606   1.484   9.156
19250SOL     OW57707   7.424   1.494   9.048
19250SOL    HW157708   7.452   1.523   8.961
19250SOL    HW257709   7.502   1.505   9.103
19251SOL     OW57710   5.937   0.910   9.258
19251SOL    HW157711   6.014   0.933   9.311
19251SOL    HW257712   5.969   0.843   9.197
19252SOL     OW57713   7.103   0.279   7.567
19252SOL    HW157714   7.063   0.200   7.604
19252SOL    HW257715   7.148   0.320   7.640
19253SOL     OW57716   6.866   0.822   7.468
19253SOL    HW157717   6.909   0.736   7.477
19253SOL    HW257718   6.902   0.858   7.387
19254SOL     OW57719   6.655   1.353   8.314
19254SOL    HW157720   6.667   1.280   8.253
19254SOL    HW257721   6.707   1.424   8.277
19255SOL     OW57722   5.908   0.816   8.392
19255SOL    HW157723   6.001   0.835   8.390
19255SOL    HW257724   5.903   0.725   8.423
19256SOL     OW57725   5.935   0.544   8.463
19256SOL    HW157726   5.878   0.467   8.459
19256SOL    HW257727   6.005   0.525   8.400
19257SOL     OW57728   6.720   0.412   9.096
19257SOL    HW157729   6.674   0.449   9.171
19257SOL    HW257730   6.809   0.447   9.102
19258SOL     OW57731   6.729   0.209   8.914
19258SOL    HW157732   6.719   0.273   8.984
19258SOL    HW257733   6.783   0.252   8.849
19259SOL     OW57734   5.610   1.303   7.627
19259SOL    HW157735   5.520   1.325   7.602
19259SOL    HW257736   5.603   1.216   7.668
19260SOL     OW57737   5.679   1.770   8.398
19260SOL    HW157738   5.645   1.696   8.348
19260SOL    HW257739   5.766   1.787   8.362
19261SOL     OW57740   6.071   1.570   8.349
19261SOL    HW157741   6.142   1.630   8.371
19261SOL    HW257742   6.111   1.508   8.287
19262SOL     OW57743   6.537   0.784   8.665
19262SOL    HW157744   6.598   0.768   8.736
19262SOL    HW257745   6.457   0.738   8.691
19263SOL     OW57746   5.603   0.522   8.578
19263SOL    HW157747   5.661   0.463   8.530
19263SOL    HW257748   5.648   0.538   8.661
19264SOL     OW57749   5.770   0.553   9.192
19264SOL    HW157750   5.857   0.550   9.152
19264SOL    HW257751   5.723   0.620   9.142
19265SOL     OW57752   6.978   0.921   9.098
19265SOL    HW157753   6.995   1.015   9.094
19265SOL    HW257754   6.971   0.895   9.006
19266SOL     OW57755   6.399   0.580   7.822
19266SOL    HW157756   6.405   0.504   7.764
19266SOL    HW257757   6.322   0.628   7.792
19267SOL     OW57758   7.212   0.606   8.615
19267SOL    HW157759   7.192   0.552   8.692
19267SOL    HW257760   7.300   0.579   8.590
19268SOL     OW57761   5.811   1.543   9.170
19268SOL    HW157762   5.791   1.597   9.247
19268SOL    HW257763   5.821   1.454   9.205
19269SOL     OW57764   6.325   0.450   8.684
19269SOL    HW157765   6.262   0.378   8.673
19269SOL    HW257766   6.305   0.511   8.612
19270SOL     OW57767   6.489   1.681   8.937
19270SOL    HW157768   6.468   1.633   8.857
19270SOL    HW257769   6.492   1.773   8.909
19271SOL     OW57770   6.031   0.488   7.620
19271SOL    HW157771   6.093   0.556   7.645
19271SOL    HW257772   5.946   0.532   7.621
19272SOL     OW57773   5.715   1.151   8.928
19272SOL    HW157774   5.720   1.112   9.016
19272SOL    HW257775   5.736   1.079   8.869
19273SOL     OW57776   6.890   1.037   8.655
19273SOL    HW157777   6.898   0.974   8.584
19273SOL    HW257778   6.836   1.107   8.619
19274SOL     OW57779   6.912   0.863   7.740
19274SOL    HW157780   6.840   0.832   7.795
19274SOL    HW257781   6.881   0.848   7.650
19275SOL     OW57782   7.373   1.724   8.617
19275SOL    HW157783   7.435   1.750   8.549
19275SOL    HW257784   7.341   1.638   8.590
19276SOL     OW57785   6.826   1.734   8.538
19276SOL    HW157786   6.911   1.764   8.505
19276SOL    HW257787   6.841   1.643   8.563
19277SOL     OW57788   5.692   1.250   8.456
19277SOL    HW157789   5.664   1.271   8.545
19277SOL    HW257790   5.621   1.195   8.421
19278SOL     OW57791   6.275   1.682   9.200
19278SOL    HW157792   6.213   1.754   9.186
19278SOL    HW257793   6.350   1.704   9.145
19279SOL     OW57794   7.349   0.187   7.932
19279SOL    HW157795   7.402   0.188   7.852
19279SOL    HW257796   7.383   0.113   7.983
19280SOL     OW57797   6.983   1.570   7.951
19280SOL    HW157798   7.038   1.604   7.881
19280SOL    HW257799   6.928   1.644   7.977
19281SOL     OW57800   5.725   1.804   9.296
19281SOL    HW157801   5.680   1.732   9.340
19281SOL    HW257802   5.775   1.847   9.366
19282SOL     OW57803   6.864   0.937   8.110
19282SOL    HW157804   6.938   0.878   8.123
19282SOL    HW257805   6.900   1.010   8.059
19283SOL     OW57806   6.369   1.280   8.860
19283SOL    HW157807   6.342   1.328   8.939
19283SOL    HW257808   6.295   1.289   8.800
19284SOL     OW57809   6.254   1.636   7.607
19284SOL    HW157810   6.269   1.650   7.514
19284SOL    HW257811   6.202   1.556   7.611
19285SOL     OW57812   7.201   1.731   8.846
19285SOL    HW157813   7.259   1.731   8.769
19285SOL    HW257814   7.185   1.824   8.864
19286SOL     OW57815   7.438   0.153   8.409
19286SOL    HW157816   7.469   0.080   8.355
19286SOL    HW257817   7.352   0.175   8.373
19287SOL     OW57818   5.831   0.324   8.151
19287SOL    HW157819   5.744   0.359   8.133
19287SOL    HW257820   5.835   0.316   8.246
19288SOL     OW57821   6.796   1.588   7.486
19288SOL    HW157822   6.786   1.497   7.514
19288SOL    HW257823   6.726   1.602   7.422
19289SOL     OW57824   6.410   1.011   8.834
19289SOL    HW157825   6.449   1.001   8.747
19289SOL    HW257826   6.399   1.105   8.845
19290SOL     OW57827   6.503   0.914   7.740
19290SOL    HW157828   6.561   0.947   7.671
19290SOL    HW257829   6.555   0.847   7.785
19291SOL     OW57830   7.070   1.645   7.506
19291SOL    HW157831   6.977   1.625   7.489
19291SOL    HW257832   7.110   1.648   7.419
19292SOL     OW57833   5.948   1.313   8.949
19292SOL    HW157834   5.940   1.387   8.888
19292SOL    HW257835   5.869   1.260   8.933
19293SOL     OW57836   7.185   1.290   8.725
19293SOL    HW157837   7.238   1.265   8.801
19293SOL    HW257838   7.126   1.357   8.759
19294SOL     OW57839   6.662   1.120   8.177
19294SOL    HW157840   6.587   1.070   8.208
19294SOL    HW257841   6.724   1.053   8.147
19295SOL     OW57842   6.610   0.256   8.423
19295SOL    HW157843   6.591   0.208   8.343
19295SOL    HW257844   6.606   0.190   8.492
19296SOL     OW57845   6.190   1.486   7.923
19296SOL    HW157846   6.245   1.437   7.862
19296SOL    HW257847   6.108   1.501   7.876
19297SOL     OW57848   7.328   0.368   8.836
19297SOL    HW157849   7.401   0.429   8.824
19297SOL    HW257850   7.343   0.301   8.769
19298SOL     OW57851   5.865   1.340   7.746
19298SOL    HW157852   5.778   1.333   7.708
19298SOL    HW257853   5.851   1.388   7.828
19299SOL     OW57854   5.711   1.048   9.183
19299SOL    HW157855   5.633   1.021   9.232
19299SOL    HW257856   5.782   0.994   9.218
19300SOL     OW57857   6.248   0.230   8.958
19300SOL    HW157858   6.327   0.204   8.910
19300SOL    HW257859   6.279   0.246   9.047
19301SOL     OW57860   5.658   0.336   7.463
19301SOL    HW157861   5.576   0.326   7.414
19301SOL    HW257862   5.694   0.420   7.434
19302SOL     OW57863   7.001   0.857   8.834
19302SOL    HW157864   6.949   0.916   8.779
19302SOL    HW257865   7.089   0.863   8.797
19303SOL     OW57866   5.646   0.201   7.713
19303SOL    HW157867   5.644   0.256   7.635
19303SOL    HW257868   5.724   0.147   7.703
19304SOL     OW57869   6.769   1.322   7.571
19304SOL    HW157870   6.679   1.290   7.571
19304SOL    HW257871   6.793   1.326   7.664
19305SOL     OW57872   6.213   0.830   8.892
19305SOL    HW157873   6.271   0.905   8.880
19305SOL    HW257874   6.272   0.755   8.894
19306SOL     OW57875   7.073   1.803   8.441
19306SOL    HW157876   7.099   1.877   8.386
19306SOL    HW257877   7.155   1.759   8.463
19307SOL     OW57878   6.302   0.541   9.144
19307SOL    HW157879   6.350   0.600   9.202
19307SOL    HW257880   6.317   0.454   9.180
19308SOL     OW57881   7.054   1.184   9.069
19308SOL    HW157882   7.048   1.204   9.163
19308SOL    HW257883   7.144   1.208   9.045
19309SOL     OW57884   5.942   1.748   9.027
19309SOL    HW157885   5.860   1.794   9.011
19309SOL    HW257886   5.915   1.663   9.065
19310SOL     OW57887   7.241   0.878   8.701
19310SOL    HW157888   7.238   0.794   8.655
19310SOL    HW257889   7.230   0.943   8.632
19311SOL     OW57890   6.793   0.338   7.906
19311SOL    HW157891   6.861   0.273   7.891
19311SOL    HW257892   6.823   0.387   7.982
19312SOL     OW57893   6.168   0.718   8.127
19312SOL    HW157894   6.209   0.803   8.115
19312SOL    HW257895   6.103   0.712   8.058
19313SOL     OW57896   7.330   0.352   9.109
19313SOL    HW157897   7.332   0.365   9.014
19313SOL    HW257898   7.249   0.304   9.125
19314SOL     OW57899   7.342   0.924   8.953
19314SOL    HW157900   7.327   1.018   8.968
19314SOL    HW257901   7.315   0.910   8.862
19315SOL     OW57902   6.455   1.357   7.510
19315SOL    HW157903   6.418   1.375   7.596
19315SOL    HW257904   6.467   1.443   7.470
19316SOL     OW57905   6.255   1.766   8.374
19316SOL    HW157906   6.236   1.859   8.366
19316SOL    HW257907   6.350   1.761   8.372
19317SOL     OW57908   6.458   0.978   8.304
19317SOL    HW157909   6.509   0.905   8.340
19317SOL    HW257910   6.413   1.015   8.379
19318SOL     OW57911   6.661   0.988   7.536
19318SOL    HW157912   6.638   1.040   7.459
19318SOL    HW257913   6.733   0.932   7.506
19319SOL     OW57914   7.417   1.557   8.287
19319SOL    HW157915   7.340   1.549   8.231
19319SOL    HW257916   7.396   1.504   8.364
19320SOL     OW57917   5.797   1.289   9.284
19320SOL    HW157918   5.766   1.209   9.242
19320SOL    HW257919   5.736   1.304   9.356
19321SOL     OW57920   5.704   1.226   8.115
19321SOL    HW157921   5.734   1.184   8.196
19321SOL    HW257922   5.762   1.191   8.048
19322SOL     OW57923   6.273   1.421   9.077
19322SOL    HW157924   6.197   1.381   9.119
19322SOL    HW257925   6.280   1.508   9.116
19323SOL     OW57926   7.350   0.146   8.675
19323SOL    HW157927   7.298   0.066   8.667
19323SOL    HW257928   7.392   0.156   8.589
19324SOL     OW57929   6.015   0.428   7.969
19324SOL    HW157930   6.040   0.354   7.913
19324SOL    HW257931   5.959   0.388   8.036
19325SOL     OW57932   7.281   1.480   8.530
19325SOL    HW157933   7.203   1.461   8.478
19325SOL    HW257934   7.282   1.413   8.598
19326SOL     OW57935   5.931   0.582   8.735
19326SOL    HW157936   5.985   0.521   8.785
19326SOL    HW257937   5.947   0.557   8.644
19327SOL     OW57938   6.424   1.583   8.119
19327SOL    HW157939   6.393   1.652   8.060
19327SOL    HW257940   6.349   1.524   8.128
19328SOL     OW57941   7.020   0.237   8.559
19328SOL    HW157942   7.054   0.160   8.604
19328SOL    HW257943   6.970   0.285   8.626
19329SOL     OW57944   6.613   0.040   8.604
19329SOL    HW157945   6.586   9.948   8.605
19329SOL    HW257946   6.706   0.038   8.625
19330SOL     OW57947   6.366   1.332   7.776
19330SOL    HW157948   6.341   1.241   7.789
19330SOL    HW257949   6.446   1.343   7.828
19331SOL     OW57950   6.201   1.571   8.735
19331SOL    HW157951   6.196   1.656   8.780
19331SOL    HW257952   6.291   1.566   8.703
19332SOL     OW57953   6.975   0.032   7.628
19332SOL    HW157954   7.058   9.985   7.634
19332SOL    HW257955   6.908   9.964   7.637
19333SOL     OW57956   6.884   0.478   8.123
19333SOL    HW157957   6.832   0.558   8.123
19333SOL    HW257958   6.877   0.445   8.213
19334SOL     OW57959   7.186   0.224   8.329
19334SOL    HW157960   7.129   0.236   8.405
19334SOL    HW257961   7.183   0.307   8.283
19335SOL     OW57962   5.622   1.051   7.755
19335SOL    HW157963   5.715   1.038   7.736
19335SOL    HW257964   5.590   0.963   7.777
19336SOL     OW57965   6.481   1.675   7.778
19336SOL    HW157966   6.403   1.660   7.725
19336SOL    HW257967   6.456   1.744   7.840
19337SOL     OW57968   5.798   0.619   9.461
19337SOL    HW157969   5.710   0.607   9.497
19337SOL    HW257970   5.785   0.613   9.366
19338SOL     OW57971   7.390   0.570   9.522
19338SOL    HW157972   7.346   0.565   9.437
19338SOL    HW257973   7.347   0.503   9.575
19339SOL     OW57974   5.794   1.750   9.760
19339SOL    HW157975   5.819   1.820   9.821
19339SOL    HW257976   5.875   1.730   9.714
19340SOL     OW57977   5.813   1.464   9.847
19340SOL    HW157978   5.785   1.546   9.886
19340SOL    HW257979   5.746   1.401   9.874
19341SOL     OW57980   6.155   0.984   9.451
19341SOL    HW157981   6.205   1.028   9.382
19341SOL    HW257982   6.194   1.015   9.532
19342SOL     OW57983   5.708   0.701   9.849
19342SOL    HW157984   5.681   0.614   9.876
19342SOL    HW257985   5.677   0.759   9.919
19343SOL     OW57986   7.414   1.754   9.640
19343SOL    HW157987   7.491   1.735   9.694
19343SOL    HW257988   7.430   1.843   9.606
19344SOL     OW57989   5.636   1.590   9.431
19344SOL    HW157990   5.622   1.497   9.448
19344SOL    HW257991   5.599   1.634   9.508
19345SOL     OW57992   7.243   0.854   9.915
19345SOL    HW157993   7.323   0.861   9.967
19345SOL    HW257994   7.245   0.932   9.859
19346SOL     OW57995   7.278   1.094   9.759
19346SOL    HW157996   7.363   1.094   9.715
19346SOL    HW257997   7.281   1.171   9.816
19347SOL     OW57998   6.228   1.341   9.992
19347SOL    HW157999   6.170   1.265   9.990
19347SOL    HW258000   6.206   1.391   9.913
19348SOL     OW58001   6.389   0.010   9.804
19348SOL    HW158002   6.427   0.098   9.803
19348SOL    HW258003   6.296   0.024   9.821
19349SOL     OW58004   7.146   1.024   9.519
19349SOL    HW158005   7.083   0.957   9.545
19349SOL    HW258006   7.186   1.052   9.601
19350SOL     OW58007   6.169   0.707   9.585
19350SOL    HW158008   6.173   0.794   9.545
19350SOL    HW258009   6.110   0.717   9.659
19351SOL     OW58010   7.148   1.674   9.626
19351SOL    HW158011   7.241   1.697   9.633
19351SOL    HW258012   7.133   1.661   9.533
19352SOL     OW58013   6.632   0.688   9.735
19352SOL    HW158014   6.664   0.664   9.822
19352SOL    HW258015   6.544   0.649   9.730
19353SOL     OW58016   5.627   0.854   0.065
19353SOL    HW158017   5.682   0.791   0.112
19353SOL    HW258018   5.616   0.926   0.127
19354SOL     OW58019   6.470   0.363   9.516
19354SOL    HW158020   6.512   0.422   9.453
19354SOL    HW258021   6.476   0.277   9.475
19355SOL     OW58022   6.898   1.094   9.789
19355SOL    HW158023   6.950   1.120   9.864
19355SOL    HW258024   6.873   1.176   9.747
19356SOL     OW58025   6.578   1.434   9.783
19356SOL    HW158026   6.548   1.519   9.751
19356SOL    HW258027   6.552   1.433   9.875
19357SOL     OW58028   5.937   1.852   0.166
19357SOL    HW158029   5.941   1.771   0.215
19357SOL    HW258030   6.028   1.883   0.164
19358SOL     OW58031   5.900   0.955   9.575
19358SOL    HW158032   5.979   0.969   9.524
19358SOL    HW258033   5.863   0.874   9.540
19359SOL     OW58034   6.723   1.776   9.545
19359SOL    HW158035   6.643   1.741   9.586
19359SOL    HW258036   6.744   1.712   9.477
19360SOL     OW58037   7.224   1.392   9.403
19360SOL    HW158038   7.180   1.476   9.391
19360SOL    HW258039   7.157   1.327   9.380
19361SOL     OW58040   6.055   1.762   9.634
19361SOL    HW158041   6.104   1.784   9.713
19361SOL    HW258042   6.117   1.713   9.579
19362SOL     OW58043   7.002   0.162   9.755
19362SOL    HW158044   6.984   0.122   9.670
19362SOL    HW258045   7.064   0.232   9.735
19363SOL     OW58046   5.984   0.668   9.803
19363SOL    HW158047   5.978   0.574   9.818
19363SOL    HW258048   5.893   0.699   9.808
19364SOL     OW58049   6.226   0.109   9.432
19364SOL    HW158050   6.266   0.033   9.474
19364SOL    HW258051   6.168   0.071   9.365
19365SOL     OW58052   6.130   0.085   9.843
19365SOL    HW158053   6.039   0.060   9.860
19365SOL    HW258054   6.125   0.149   9.772
19366SOL     OW58055   7.026   1.207   9.345
19366SOL    HW158056   7.061   1.140   9.403
19366SOL    HW258057   6.940   1.227   9.381
19367SOL     OW58058   5.882   0.044   9.515
19367SOL    HW158059   5.949   0.051   9.446
19367SOL    HW258060   5.918   9.982   9.578
19368SOL     OW58061   6.508   0.257   9.770
19368SOL    HW158062   6.487   0.298   9.686
19368SOL    HW258063   6.603   0.267   9.778
19369SOL     OW58064   6.030   1.154   0.033
19369SOL    HW158065   5.958   1.185   0.089
19369SOL    HW258066   5.988   1.137   9.948
19370SOL     OW58067   6.885   1.834   9.899
19370SOL    HW158068   6.929   1.900   9.845
19370SOL    HW258069   6.793   1.861   9.898
19371SOL     OW58070   6.624   0.516   9.338
19371SOL    HW158071   6.576   0.596   9.314
19371SOL    HW258072   6.682   0.544   9.409
19372SOL     OW58073   6.418   0.455   9.947
19372SOL    HW158074   6.386   0.514   9.879
19372SOL    HW258075   6.439   0.374   9.901
19373SOL     OW58076   7.446   0.812   9.633
19373SOL    HW158077   7.493   0.778   9.710
19373SOL    HW258078   7.418   0.733   9.586
19374SOL     OW58079   6.081   1.427   9.463
19374SOL    HW158080   6.005   1.393   9.512
19374SOL    HW258081   6.081   1.378   9.381
19375SOL     OW58082   6.976   0.585   9.378
19375SOL    HW158083   6.921   0.564   9.453
19375SOL    HW258084   7.066   0.568   9.408
19376SOL     OW58085   6.121   0.272   9.641
19376SOL    HW158086   6.167   0.221   9.574
19376SOL    HW258087   6.084   0.346   9.594
19377SOL     OW58088   6.290   1.051   9.684
19377SOL    HW158089   6.255   1.003   9.759
19377SOL    HW258090   6.370   1.004   9.661
19378SOL     OW58091   5.899   1.125   9.796
19378SOL    HW158092   5.897   1.201   9.738
19378SOL    HW258093   5.905   1.050   9.738
19379SOL     OW58094   6.823   1.354   9.691
19379SOL    HW158095   6.879   1.425   9.722
19379SOL    HW258096   6.737   1.374   9.726
19380SOL     OW58097   7.191   0.620   9.766
19380SOL    HW158098   7.199   0.674   9.844
19380SOL    HW258099   7.183   0.683   9.694
19381SOL     OW58100   6.781   0.531   9.565
19381SOL    HW158101   6.785   0.457   9.625
19381SOL    HW258102   6.743   0.602   9.617
19382SOL     OW58103   5.858   0.098   9.917
19382SOL    HW158104   5.866   0.192   9.902
19382SOL    HW258105   5.866   0.088   0.012
19383SOL     OW58106   7.189   0.360   9.683
19383SOL    HW158107   7.256   0.317   9.735
19383SOL    HW258108   7.180   0.447   9.721
19384SOL     OW58109   7.107   0.271   9.429
19384SOL    HW158110   7.061   0.192   9.459
19384SOL    HW258111   7.144   0.309   9.509
19385SOL     OW58112   6.857   0.826   9.324
19385SOL    HW158113   6.901   0.742   9.338
19385SOL    HW258114   6.896   0.861   9.244
19386SOL     OW58115   5.610   1.316   9.484
19386SOL    HW158116   5.520   1.335   9.459
19386SOL    HW258117   5.607   1.230   9.525
19387SOL     OW58118   6.386   0.568   9.693
19387SOL    HW158119   6.397   0.499   9.629
19387SOL    HW258120   6.315   0.623   9.658
19388SOL     OW58121   6.033   0.484   9.493
19388SOL    HW158122   6.092   0.556   9.513
19388SOL    HW258123   5.946   0.524   9.487
19389SOL     OW58124   6.947   0.858   9.603
19389SOL    HW158125   6.905   0.914   9.667
19389SOL    HW258126   6.885   0.855   9.530
19390SOL     OW58127   7.376   0.209   9.819
19390SOL    HW158128   7.434   0.199   9.743
19390SOL    HW258129   7.341   0.121   9.834
19391SOL     OW58130   6.950   1.588   9.793
19391SOL    HW158131   7.021   1.606   9.731
19391SOL    HW258132   6.921   1.675   9.822
19392SOL     OW58133   6.253   1.639   9.474
19392SOL    HW158134   6.270   1.652   9.380
19392SOL    HW258135   6.200   1.560   9.478
19393SOL     OW58136   7.389   0.145   0.263
19393SOL    HW158137   7.384   0.052   0.241
19393SOL    HW258138   7.373   0.191   0.180
19394SOL     OW58139   6.794   1.593   9.349
19394SOL    HW158140   6.786   1.501   9.374
19394SOL    HW258141   6.724   1.607   9.285
19395SOL     OW58142   6.508   0.910   9.612
19395SOL    HW158143   6.564   0.942   9.542
19395SOL    HW258144   6.560   0.843   9.656
19396SOL     OW58145   7.071   1.646   9.360
19396SOL    HW158146   6.978   1.628   9.344
19396SOL    HW258147   7.110   1.648   9.272
19397SOL     OW58148   6.178   1.480   9.762
19397SOL    HW158149   6.237   1.435   9.701
19397SOL    HW258150   6.093   1.480   9.717
19398SOL     OW58151   5.865   1.343   9.614
19398SOL    HW158152   5.779   1.337   9.573
19398SOL    HW258153   5.850   1.395   9.694
19399SOL     OW58154   5.658   0.332   9.327
19399SOL    HW158155   5.578   0.320   9.276
19399SOL    HW258156   5.691   0.417   9.300
19400SOL     OW58157   5.666   0.201   9.590
19400SOL    HW158158   5.657   0.253   9.511
19400SOL    HW258159   5.741   0.144   9.573
19401SOL     OW58160   6.767   1.322   9.423
19401SOL    HW158161   6.677   1.290   9.423
19401SOL    HW258162   6.791   1.329   9.515
19402SOL     OW58163   6.780   0.337   9.761
19402SOL    HW158164   6.848   0.272   9.778
19402SOL    HW258165   6.779   0.392   9.840
19403SOL     OW58166   6.184   0.851   9.882
19403SOL    HW158167   6.194   0.851   9.977
19403SOL    HW258168   6.117   0.785   9.865
19404SOL     OW58169   6.454   1.357   9.363
19404SOL    HW158170   6.420   1.372   9.451
19404SOL    HW258171   6.466   1.444   9.327
19405SOL     OW58172   6.654   0.986   9.399
19405SOL    HW158173   6.633   1.040   9.323
19405SOL    HW258174   6.726   0.931   9.369
19406SOL     OW58175   5.651   1.247   9.901
19406SOL    HW158176   5.639   1.249   9.996
19406SOL    HW258177   5.717   1.179   9.887
19407SOL     OW58178   5.968   0.382   9.872
19407SOL    HW158179   6.031   0.349   9.808
19407SOL    HW258180   6.020   0.395   9.952
19408SOL     OW58181   6.367   1.326   9.628
19408SOL    HW158182   6.341   1.236   9.645
19408SOL    HW258183   6.444   1.340   9.684
19409SOL     OW58184   6.978   0.042   9.507
19409SOL    HW158185   7.060   9.992   9.507
19409SOL    HW258186   6.909   9.976   9.512
19410SOL     OW58187   5.643   1.070   9.598
19410SOL    HW158188   5.737   1.058   9.591
19410SOL    HW258189   5.607   0.982   9.601
19411SOL     OW58190   6.480   1.671   9.664
19411SOL    HW158191   6.404   1.654   9.608
19411SOL    HW258192   6.450   1.740   9.724
19412SOL     OW58193   5.783   2.477   0.130
19412SOL    HW158194   5.701   2.459   0.175
19412SOL    HW258195   5.759   2.485   0.038
19413SOL     OW58196   5.805   2.150   0.990
19413SOL    HW158197   5.835   2.115   1.073
19413SOL    HW258198   5.718   2.112   0.978
19414SOL     OW58199   5.569   2.261   0.647
19414SOL    HW158200   5.488   2.283   0.692
19414SOL    HW258201   5.547   2.185   0.593
19415SOL     OW58202   6.161   3.170   1.209
19415SOL    HW158203   6.078   3.173   1.160
19415SOL    HW258204   6.178   3.261   1.232
19416SOL     OW58205   7.175   3.385   0.706
19416SOL    HW158206   7.128   3.353   0.783
19416SOL    HW258207   7.109   3.388   0.637
19417SOL     OW58208   6.725   2.563   0.686
19417SOL    HW158209   6.771   2.647   0.676
19417SOL    HW258210   6.675   2.572   0.767
19418SOL     OW58211   7.361   2.444   0.200
19418SOL    HW158212   7.287   2.473   0.147
19418SOL    HW258213   7.326   2.372   0.252
19419SOL     OW58214   6.313   2.991   1.058
19419SOL    HW158215   6.254   3.031   1.122
19419SOL    HW258216   6.356   3.065   1.015
19420SOL     OW58217   6.473   2.603   1.828
19420SOL    HW158218   6.465   2.670   1.896
19420SOL    HW258219   6.490   2.653   1.748
19421SOL     OW58220   6.272   2.840   0.646
19421SOL    HW158221   6.339   2.841   0.714
19421SOL    HW258222   6.206   2.902   0.677
19422SOL     OW58223   6.298   3.011   1.832
19422SOL    HW158224   6.349   3.084   1.867
19422SOL    HW258225   6.221   3.053   1.792
19423SOL     OW58226   5.928   3.259   1.071
19423SOL    HW158227   5.852   3.217   1.031
19423SOL    HW258228   5.964   3.315   1.001
19424SOL     OW58229   7.039   3.369   1.372
19424SOL    HW158230   7.094   3.446   1.385
19424SOL    HW258231   6.968   3.380   1.434
19425SOL     OW58232   6.044   2.236   1.455
19425SOL    HW158233   6.119   2.178   1.471
19425SOL    HW258234   5.968   2.185   1.483
19426SOL     OW58235   7.166   2.294   0.753
19426SOL    HW158236   7.093   2.302   0.692
19426SOL    HW258237   7.152   2.364   0.817
19427SOL     OW58238   5.812   3.583   0.469
19427SOL    HW158239   5.829   3.657   0.527
19427SOL    HW258240   5.898   3.563   0.430
19428SOL     OW58241   6.720   3.204   1.697
19428SOL    HW158242   6.766   3.193   1.780
19428SOL    HW258243   6.667   3.125   1.688
19429SOL     OW58244   5.794   3.306   0.507
19429SOL    HW158245   5.787   3.401   0.517
19429SOL    HW258246   5.755   3.270   0.587
19430SOL     OW58247   5.867   2.949   0.881
19430SOL    HW158248   5.869   2.860   0.916
19430SOL    HW258249   5.813   2.998   0.943
19431SOL     OW58250   6.159   3.666   1.419
19431SOL    HW158251   6.083   3.646   1.474
19431SOL    HW258252   6.192   3.749   1.454
19432SOL     OW58253   6.158   2.810   0.176
19432SOL    HW158254   6.130   2.881   0.117
19432SOL    HW258255   6.216   2.852   0.239
19433SOL     OW58256   7.177   1.995   1.459
19433SOL    HW158257   7.216   2.071   1.416
19433SOL    HW258258   7.146   2.028   1.543
19434SOL     OW58259   5.700   2.516   0.572
19434SOL    HW158260   5.665   2.430   0.597
19434SOL    HW258261   5.693   2.569   0.652
19435SOL     OW58262   7.448   3.600   0.307
19435SOL    HW158263   7.518   3.578   0.369
19435SOL    HW258264   7.463   3.692   0.286
19436SOL     OW58265   5.662   3.432   0.079
19436SOL    HW158266   5.629   3.348   0.111
19436SOL    HW258267   5.636   3.494   0.147
19437SOL     OW58268   7.284   2.782   0.664
19437SOL    HW158269   7.368   2.739   0.648
19437SOL    HW258270   7.266   2.831   0.584
19438SOL     OW58271   7.248   2.953   0.443
19438SOL    HW158272   7.330   2.949   0.392
19438SOL    HW258273   7.263   3.022   0.507
19439SOL     OW58274   5.708   2.611   1.578
19439SOL    HW158275   5.793   2.654   1.583
19439SOL    HW258276   5.645   2.683   1.565
19440SOL     OW58277   6.205   3.246   0.753
19440SOL    HW158278   6.163   3.160   0.752
19440SOL    HW258279   6.196   3.278   0.663
19441SOL     OW58280   6.857   3.088   1.417
19441SOL    HW158281   6.884   3.019   1.357
19441SOL    HW258282   6.918   3.083   1.490
19442SOL     OW58283   6.418   1.879   0.529
19442SOL    HW158284   6.459   1.959   0.497
19442SOL    HW258285   6.324   1.898   0.529
19443SOL     OW58286   5.773   2.818   1.302
19443SOL    HW158287   5.860   2.783   1.285
19443SOL    HW258288   5.718   2.780   1.234
19444SOL     OW58289   7.075   2.892   0.236
19444SOL    HW158290   7.020   2.821   0.268
19444SOL    HW258291   7.138   2.907   0.306
19445SOL     OW58292   6.765   3.685   1.636
19445SOL    HW158293   6.767   3.746   1.563
19445SOL    HW258294   6.783   3.599   1.596
19446SOL     OW58295   5.946   2.115   1.875
19446SOL    HW158296   5.981   2.195   1.913
19446SOL    HW258297   5.851   2.130   1.873
19447SOL     OW58298   7.058   3.278   0.931
19447SOL    HW158299   6.994   3.298   1.000
19447SOL    HW258300   7.040   3.187   0.907
19448SOL     OW58301   7.230   3.658   0.566
19448SOL    HW158302   7.214   3.612   0.484
19448SOL    HW258303   7.229   3.589   0.632
19449SOL     OW58304   6.179   2.553   0.284
19449SOL    HW158305   6.185   2.639   0.243
19449SOL    HW258306   6.113   2.564   0.353
19450SOL     OW58307   6.868   2.253   0.941
19450SOL    HW158308   6.779   2.218   0.947
19450SOL    HW258309   6.920   2.195   0.996
19451SOL     OW58310   7.178   3.538   0.325
19451SOL    HW158311   7.272   3.549   0.310
19451SOL    HW258312   7.142   3.521   0.238
19452SOL     OW58313   6.375   2.476   1.430
19452SOL    HW158314   6.353   2.447   1.518
19452SOL    HW258315   6.351   2.403   1.374
19453SOL     OW58316   6.978   2.339   1.674
19453SOL    HW158317   6.983   2.382   1.759
19453SOL    HW258318   7.028   2.258   1.685
19454SOL     OW58319   6.530   2.742   1.594
19454SOL    HW158320   6.587   2.679   1.549
19454SOL    HW258321   6.482   2.785   1.523
19455SOL     OW58322   6.594   2.260   1.209
19455SOL    HW158323   6.501   2.273   1.232
19455SOL    HW258324   6.591   2.215   1.125
19456SOL     OW58325   6.652   2.560   0.416
19456SOL    HW158326   6.672   2.556   0.510
19456SOL    HW258327   6.567   2.516   0.408
19457SOL     OW58328   5.679   2.691   0.782
19457SOL    HW158329   5.761   2.683   0.830
19457SOL    HW258330   5.632   2.762   0.826
19458SOL     OW58331   5.695   3.741   1.588
19458SOL    HW158332   5.704   3.721   1.681
19458SOL    HW258333   5.609   3.707   1.564
19459SOL     OW58334   6.447   2.201   0.199
19459SOL    HW158335   6.434   2.250   0.118
19459SOL    HW258336   6.456   2.110   0.171
19460SOL     OW58337   7.272   2.424   1.840
19460SOL    HW158338   7.251   2.502   1.788
19460SOL    HW258339   7.301   2.360   1.775
19461SOL     OW58340   6.982   3.011   0.555
19461SOL    HW158341   7.060   3.001   0.502
19461SOL    HW258342   6.927   3.072   0.506
19462SOL     OW58343   6.137   2.025   0.915
19462SOL    HW158344   6.143   2.052   1.007
19462SOL    HW258345   6.133   2.107   0.866
19463SOL     OW58346   6.585   3.315   0.471
19463SOL    HW158347   6.562   3.392   0.419
19463SOL    HW258348   6.554   3.335   0.559
19464SOL     OW58349   5.939   3.679   0.879
19464SOL    HW158350   5.984   3.595   0.884
19464SOL    HW258351   6.006   3.743   0.901
19465SOL     OW58352   7.389   2.906   0.895
19465SOL    HW158353   7.340   2.889   0.815
19465SOL    HW258354   7.321   2.916   0.962
19466SOL     OW58355   6.804   3.406   1.517
19466SOL    HW158356   6.793   3.335   1.580
19466SOL    HW258357   6.734   3.393   1.453
19467SOL     OW58358   5.901   2.792   0.289
19467SOL    HW158359   5.983   2.798   0.241
19467SOL    HW258360   5.901   2.703   0.324
19468SOL     OW58361   7.070   2.620   0.713
19468SOL    HW158362   7.071   2.579   0.800
19468SOL    HW258363   7.149   2.674   0.712
19469SOL     OW58364   6.059   3.145   1.747
19469SOL    HW158365   6.035   3.150   1.655
19469SOL    HW258366   5.976   3.134   1.793
19470SOL     OW58367   6.692   3.647   0.179
19470SOL    HW158368   6.636   3.607   0.246
19470SOL    HW258369   6.731   3.572   0.134
19471SOL     OW58370   5.794   2.118   1.499
19471SOL    HW158371   5.722   2.178   1.519
19471SOL    HW258372   5.764   2.033   1.532
19472SOL     OW58373   7.217   3.235   0.112
19472SOL    HW158374   7.176   3.321   0.104
19472SOL    HW258375   7.151   3.174   0.078
19473SOL     OW58376   6.073   3.571   0.374
19473SOL    HW158377   6.108   3.646   0.422
19473SOL    HW258378   6.140   3.549   0.310
19474SOL     OW58379   6.982   1.966   0.448
19474SOL    HW158380   6.979   1.945   0.355
19474SOL    HW258381   7.073   1.952   0.474
19475SOL     OW58382   5.837   3.650   1.216
19475SOL    HW158383   5.887   3.576   1.252
19475SOL    HW258384   5.826   3.629   1.123
19476SOL     OW58385   6.533   3.564   0.893
19476SOL    HW158386   6.617   3.522   0.909
19476SOL    HW258387   6.493   3.513   0.823
19477SOL     OW58388   5.960   2.555   0.464
19477SOL    HW158389   5.982   2.463   0.475
19477SOL    HW258390   5.871   2.563   0.499
19478SOL     OW58391   7.094   2.085   1.717
19478SOL    HW158392   7.107   2.103   1.810
19478SOL    HW258393   7.029   2.015   1.715
19479SOL     OW58394   6.193   1.954   0.118
19479SOL    HW158395   6.288   1.944   0.128
19479SOL    HW258396   6.180   1.961   0.023
19480SOL     OW58397   6.345   2.136   1.752
19480SOL    HW158398   6.429   2.091   1.750
19480SOL    HW258399   6.298   2.097   1.826
19481SOL     OW58400   6.456   3.390   1.201
19481SOL    HW158401   6.437   3.348   1.117
19481SOL    HW258402   6.523   3.334   1.241
19482SOL     OW58403   6.916   2.454   1.433
19482SOL    HW158404   6.949   2.423   1.518
19482SOL    HW258405   6.955   2.540   1.422
19483SOL     OW58406   6.404   3.238   0.961
19483SOL    HW158407   6.490   3.234   0.919
19483SOL    HW258408   6.342   3.251   0.889
19484SOL     OW58409   6.517   2.377   0.890
19484SOL    HW158410   6.492   2.364   0.799
19484SOL    HW258411   6.544   2.290   0.920
19485SOL     OW58412   6.151   1.938   0.503
19485SOL    HW158413   6.071   1.936   0.556
19485SOL    HW258414   6.136   2.010   0.442
19486SOL     OW58415   7.012   3.062   0.035
19486SOL    HW158416   7.037   2.996   0.100
19486SOL    HW258417   6.931   3.100   0.069
19487SOL     OW58418   6.538   2.113   0.449
19487SOL    HW158419   6.506   2.149   0.366
19487SOL    HW258420   6.631   2.134   0.451
19488SOL     OW58421   6.662   2.556   1.445
19488SOL    HW158422   6.599   2.483   1.451
19488SOL    HW258423   6.748   2.513   1.442
19489SOL     OW58424   6.792   3.449   0.800
19489SOL    HW158425   6.808   3.509   0.727
19489SOL    HW258426   6.863   3.467   0.862
19490SOL     OW58427   6.066   3.013   0.711
19490SOL    HW158428   6.003   2.991   0.780
19490SOL    HW258429   6.016   3.008   0.630
19491SOL     OW58430   6.839   3.655   0.614
19491SOL    HW158431   6.889   3.719   0.563
19491SOL    HW258432   6.769   3.706   0.655
19492SOL     OW58433   6.677   2.429   9.980
19492SOL    HW158434   6.591   2.388   9.985
19492SOL    HW258435   6.713   2.420   0.068
19493SOL     OW58436   5.685   2.414   1.390
19493SOL    HW158437   5.777   2.415   1.365
19493SOL    HW258438   5.678   2.483   1.457
19494SOL     OW58439   6.145   2.083   1.185
19494SOL    HW158440   6.182   2.018   1.245
19494SOL    HW258441   6.052   2.084   1.206
19495SOL     OW58442   6.459   2.314   0.633
19495SOL    HW158443   6.424   2.371   0.564
19495SOL    HW258444   6.483   2.234   0.587
19496SOL     OW58445   6.610   1.919   0.742
19496SOL    HW158446   6.547   1.915   0.670
19496SOL    HW258447   6.586   1.847   0.800
19497SOL     OW58448   7.017   3.014   0.855
19497SOL    HW158449   6.950   2.947   0.867
19497SOL    HW258450   7.027   3.021   0.760
19498SOL     OW58451   7.048   2.477   0.952
19498SOL    HW158452   6.984   2.406   0.962
19498SOL    HW258453   7.104   2.470   1.029
19499SOL     OW58454   7.445   2.652   0.368
19499SOL    HW158455   7.487   2.603   0.439
19499SOL    HW258456   7.407   2.584   0.312
19500SOL     OW58457   6.089   3.303   0.214
19500SOL    HW158458   6.007   3.259   0.234
19500SOL    HW258459   6.135   3.244   0.154
19501SOL     OW58460   7.297   3.133   0.631
19501SOL    HW158461   7.389   3.125   0.655
19501SOL    HW258462   7.272   3.222   0.659
19502SOL     OW58463   7.000   2.426   0.093
19502SOL    HW158464   6.924   2.414   0.150
19502SOL    HW258465   7.039   2.338   0.086
19503SOL     OW58466   6.094   2.126   0.310
19503SOL    HW158467   6.132   2.067   0.244
19503SOL    HW258468   6.071   2.205   0.261
19504SOL     OW58469   7.321   3.106   1.532
19504SOL    HW158470   7.409   3.072   1.519
19504SOL    HW258471   7.334   3.194   1.570
19505SOL     OW58472   6.627   3.216   1.334
19505SOL    HW158473   6.551   3.182   1.380
19505SOL    HW258474   6.702   3.172   1.375
19506SOL     OW58475   7.193   3.497   1.671
19506SOL    HW158476   7.183   3.533   1.584
19506SOL    HW258477   7.271   3.441   1.665
19507SOL     OW58478   6.736   3.099   1.105
19507SOL    HW158479   6.675   3.133   1.170
19507SOL    HW258480   6.703   3.132   1.021
19508SOL     OW58481   7.193   2.954   1.079
19508SOL    HW158482   7.185   3.020   1.147
19508SOL    HW258483   7.123   2.975   1.017
19509SOL     OW58484   6.505   1.943   1.383
19509SOL    HW158485   6.526   1.928   1.291
19509SOL    HW258486   6.583   1.984   1.419
19510SOL     OW58487   6.565   2.978   1.724
19510SOL    HW158488   6.475   2.994   1.751
19510SOL    HW258489   6.560   2.897   1.673
19511SOL     OW58490   6.312   2.917   0.379
19511SOL    HW158491   6.298   2.889   0.470
19511SOL    HW258492   6.392   2.871   0.352
19512SOL     OW58493   6.012   2.689   1.259
19512SOL    HW158494   6.079   2.699   1.326
19512SOL    HW258495   5.982   2.599   1.269
19513SOL     OW58496   6.851   2.230   1.291
19513SOL    HW158497   6.878   2.310   1.336
19513SOL    HW258498   6.761   2.249   1.262
19514SOL     OW58499   5.664   3.433   1.363
19514SOL    HW158500   5.635   3.505   1.307
19514SOL    HW258501   5.759   3.432   1.354
19515SOL     OW58502   5.901   2.988   0.489
19515SOL    HW158503   5.901   3.058   0.424
19515SOL    HW258504   5.911   2.908   0.437
19516SOL     OW58505   6.119   2.375   0.857
19516SOL    HW158506   6.130   2.434   0.782
19516SOL    HW258507   6.187   2.402   0.919
19517SOL     OW58508   6.835   3.211   0.419
19517SOL    HW158509   6.891   3.284   0.446
19517SOL    HW258510   6.747   3.237   0.444
19518SOL     OW58511   6.895   3.330   1.143
19518SOL    HW158512   6.942   3.337   1.226
19518SOL    HW258513   6.844   3.250   1.151
19519SOL     OW58514   7.128   2.483   0.475
19519SOL    HW158515   7.106   2.521   0.560
19519SOL    HW258516   7.087   2.541   0.411
19520SOL     OW58517   5.931   3.395   1.303
19520SOL    HW158518   5.923   3.342   1.224
19520SOL    HW258519   6.025   3.411   1.313
19521SOL     OW58520   6.019   2.608   1.619
19521SOL    HW158521   6.077   2.651   1.557
19521SOL    HW258522   6.063   2.526   1.640
19522SOL     OW58523   7.213   2.648   1.698
19522SOL    HW158524   7.126   2.686   1.689
19522SOL    HW258525   7.264   2.686   1.626
19523SOL     OW58526   6.581   2.003   1.758
19523SOL    HW158527   6.640   2.076   1.739
19523SOL    HW258528   6.632   1.925   1.736
19524SOL     OW58529   6.081   1.897   1.762
19524SOL    HW158530   6.026   1.847   1.702
19524SOL    HW258531   6.029   1.974   1.784
19525SOL     OW58532   6.175   2.737   1.037
19525SOL    HW158533   6.214   2.824   1.041
19525SOL    HW258534   6.119   2.732   1.115
19526SOL     OW58535   6.895   2.716   1.003
19526SOL    HW158536   6.807   2.689   0.977
19526SOL    HW258537   6.950   2.639   0.986
19527SOL     OW58538   6.775   2.381   0.246
19527SOL    HW158539   6.788   2.305   0.303
19527SOL    HW258540   6.735   2.447   0.301
19528SOL     OW58541   5.877   2.056   1.239
19528SOL    HW158542   5.842   2.084   1.323
19528SOL    HW258543   5.861   1.962   1.237
19529SOL     OW58544   5.636   3.175   1.267
19529SOL    HW158545   5.665   3.119   1.339
19529SOL    HW258546   5.638   3.264   1.303
19530SOL     OW58547   6.295   2.483   1.037
19530SOL    HW158548   6.374   2.476   0.984
19530SOL    HW258549   6.267   2.574   1.028
19531SOL     OW58550   7.337   2.830   1.869
19531SOL    HW158551   7.297   2.757   1.821
19531SOL    HW258552   7.274   2.850   1.938
19532SOL     OW58553   5.905   1.926   0.631
19532SOL    HW158554   5.874   2.015   0.650
19532SOL    HW258555   5.912   1.884   0.716
19533SOL     OW58556   7.223   2.254   0.351
19533SOL    HW158557   7.256   2.190   0.413
19533SOL    HW258558   7.188   2.325   0.406
19534SOL     OW58559   6.620   2.620   0.958
19534SOL    HW158560   6.598   2.635   1.050
19534SOL    HW258561   6.591   2.531   0.940
19535SOL     OW58562   6.566   3.428   1.734
19535SOL    HW158563   6.546   3.471   1.650
19535SOL    HW258564   6.604   3.344   1.709
19536SOL     OW58565   7.424   3.357   1.602
19536SOL    HW158566   7.451   3.386   1.515
19536SOL    HW258567   7.502   3.368   1.656
19537SOL     OW58568   5.935   2.782   1.816
19537SOL    HW158569   6.012   2.799   1.871
19537SOL    HW258570   5.967   2.718   1.751
19538SOL     OW58571   7.084   2.166   0.129
19538SOL    HW158572   7.037   2.086   0.150
19538SOL    HW258573   7.133   2.188   0.208
19539SOL     OW58574   6.909   2.680   0.040
19539SOL    HW158575   6.941   2.590   0.041
19539SOL    HW258576   6.971   2.727   9.985
19540SOL     OW58577   6.656   3.215   0.865
19540SOL    HW158578   6.667   3.142   0.804
19540SOL    HW258579   6.708   3.286   0.828
19541SOL     OW58580   5.904   2.676   0.943
19541SOL    HW158581   5.998   2.691   0.945
19541SOL    HW258582   5.894   2.586   0.974
19542SOL     OW58583   5.899   2.400   1.010
19542SOL    HW158584   5.860   2.313   1.002
19542SOL    HW258585   5.976   2.397   0.954
19543SOL     OW58586   6.725   2.230   1.685
19543SOL    HW158587   6.679   2.281   1.752
19543SOL    HW258588   6.810   2.272   1.677
19544SOL     OW58589   6.742   2.052   1.473
19544SOL    HW158590   6.731   2.114   1.546
19544SOL    HW258591   6.788   2.101   1.406
19545SOL     OW58592   5.600   3.152   0.170
19545SOL    HW158593   5.511   3.181   0.154
19545SOL    HW258594   5.590   3.074   0.225
19546SOL     OW58595   5.678   3.632   0.950
19546SOL    HW158596   5.645   3.558   0.900
19546SOL    HW258597   5.765   3.649   0.914
19547SOL     OW58598   6.070   3.433   0.903
19547SOL    HW158599   6.140   3.495   0.924
19547SOL    HW258600   6.112   3.366   0.849
19548SOL     OW58601   6.534   2.642   1.216
19548SOL    HW158602   6.597   2.631   1.287
19548SOL    HW258603   6.455   2.597   1.247
19549SOL     OW58604   5.626   2.436   1.120
19549SOL    HW158605   5.708   2.431   1.071
19549SOL    HW258606   5.653   2.428   1.212
19550SOL     OW58607   5.772   2.400   1.743
19550SOL    HW158608   5.846   2.368   1.691
19550SOL    HW258609   5.736   2.473   1.693
19551SOL     OW58610   6.978   2.783   1.652
19551SOL    HW158611   6.995   2.877   1.647
19551SOL    HW258612   6.970   2.755   1.560
19552SOL     OW58613   6.414   2.426   0.374
19552SOL    HW158614   6.419   2.350   0.315
19552SOL    HW258615   6.335   2.472   0.346
19553SOL     OW58616   7.222   2.463   1.164
19553SOL    HW158617   7.213   2.404   1.239
19553SOL    HW258618   7.313   2.452   1.136
19554SOL     OW58619   5.812   3.401   1.722
19554SOL    HW158620   5.789   3.451   1.800
19554SOL    HW258621   5.824   3.312   1.753
19555SOL     OW58622   6.320   2.295   1.233
19555SOL    HW158623   6.256   2.225   1.219
19555SOL    HW258624   6.301   2.359   1.164
19556SOL     OW58625   6.495   3.540   1.485
19556SOL    HW158626   6.471   3.493   1.405
19556SOL    HW258627   6.496   3.632   1.460
19557SOL     OW58628   6.036   2.349   0.156
19557SOL    HW158629   6.096   2.414   0.192
19557SOL    HW258630   5.951   2.393   0.153
19558SOL     OW58631   5.716   3.013   1.480
19558SOL    HW158632   5.720   2.973   1.568
19558SOL    HW258633   5.737   2.941   1.421
19559SOL     OW58634   6.889   2.896   1.209
19559SOL    HW158635   6.899   2.833   1.138
19559SOL    HW258636   6.836   2.966   1.171
19560SOL     OW58637   6.910   2.684   0.319
19560SOL    HW158638   6.826   2.658   0.357
19560SOL    HW258639   6.897   2.678   0.224
19561SOL     OW58640   7.372   3.587   1.169
19561SOL    HW158641   7.434   3.612   1.101
19561SOL    HW258642   7.341   3.500   1.143
19562SOL     OW58643   6.826   3.594   1.087
19562SOL    HW158644   6.911   3.624   1.055
19562SOL    HW258645   6.841   3.503   1.113
19563SOL     OW58646   5.692   3.111   1.011
19563SOL    HW158647   5.665   3.132   1.100
19563SOL    HW258648   5.621   3.058   0.976
19564SOL     OW58649   6.273   3.545   1.750
19564SOL    HW158650   6.210   3.616   1.737
19564SOL    HW258651   6.348   3.569   1.696
19565SOL     OW58652   6.473   1.941   0.099
19565SOL    HW158653   6.466   1.913   0.007
19565SOL    HW258654   6.550   1.895   0.132
19566SOL     OW58655   7.340   2.044   0.495
19566SOL    HW158656   7.401   2.021   0.425
19566SOL    HW258657   7.310   1.960   0.530
19567SOL     OW58658   6.986   3.433   0.504
19567SOL    HW158659   7.044   3.468   0.436
19567SOL    HW258660   6.933   3.509   0.530
19568SOL     OW58661   5.722   3.668   1.844
19568SOL    HW158662   5.681   3.592   1.886
19568SOL    HW258663   5.772   3.710   1.914
19569SOL     OW58664   6.865   2.795   0.670
19569SOL    HW158665   6.938   2.735   0.682
19569SOL    HW258666   6.902   2.868   0.619
19570SOL     OW58667   6.369   3.142   1.414
19570SOL    HW158668   6.343   3.190   1.493
19570SOL    HW258669   6.295   3.152   1.354
19571SOL     OW58670   6.270   3.499   0.189
19571SOL    HW158671   6.277   3.512   0.094
19571SOL    HW258672   6.214   3.422   0.198
19572SOL     OW58673   7.202   3.593   1.401
19572SOL    HW158674   7.259   3.592   1.325
19572SOL    HW258675   7.186   3.685   1.420
19573SOL     OW58676   7.431   2.022   0.964
19573SOL    HW158677   7.460   1.933   0.944
19573SOL    HW258678   7.343   2.028   0.926
19574SOL     OW58679   5.828   2.175   0.709
19574SOL    HW158680   5.741   2.210   0.690
19574SOL    HW258681   5.833   2.174   0.805
19575SOL     OW58682   6.804   3.429   0.053
19575SOL    HW158683   6.791   3.339   0.083
19575SOL    HW258684   6.816   3.421   9.958
19576SOL     OW58685   6.409   2.873   1.386
19576SOL    HW158686   6.447   2.864   1.298
19576SOL    HW258687   6.399   2.967   1.398
19577SOL     OW58688   6.529   2.784   0.293
19577SOL    HW158689   6.578   2.804   0.213
19577SOL    HW258690   6.576   2.711   0.333
19578SOL     OW58691   7.075   3.478   0.074
19578SOL    HW158692   6.981   3.466   0.080
19578SOL    HW258693   7.093   3.487   9.981
19579SOL     OW58694   5.949   3.174   1.501
19579SOL    HW158695   5.941   3.248   1.441
19579SOL    HW258696   5.871   3.121   1.485
19580SOL     OW58697   7.184   3.152   1.277
19580SOL    HW158698   7.239   3.128   1.352
19580SOL    HW258699   7.125   3.220   1.311
19581SOL     OW58700   6.662   2.981   0.730
19581SOL    HW158701   6.586   2.931   0.761
19581SOL    HW258702   6.724   2.914   0.701
19582SOL     OW58703   6.619   2.110   0.961
19582SOL    HW158704   6.618   2.068   0.876
19582SOL    HW258705   6.612   2.038   1.024
19583SOL     OW58706   6.203   3.345   0.503
19583SOL    HW158707   6.246   3.292   0.436
19583SOL    HW258708   6.135   3.393   0.455
19584SOL     OW58709   7.331   2.245   1.387
19584SOL    HW158710   7.402   2.309   1.384
19584SOL    HW258711   7.358   2.176   1.327
19585SOL     OW58712   5.853   3.174   0.282
19585SOL    HW158713   5.770   3.177   0.234
19585SOL    HW258714   5.837   3.228   0.360
19586SOL     OW58715   5.707   2.909   1.736
19586SOL    HW158716   5.629   2.881   1.785
19586SOL    HW258717   5.779   2.858   1.772
19587SOL     OW58718   6.265   2.051   1.495
19587SOL    HW158719   6.349   2.025   1.457
19587SOL    HW258720   6.288   2.084   1.582
19588SOL     OW58721   5.671   2.136   0.019
19588SOL    HW158722   5.580   2.148   9.991
19588SOL    HW258723   5.715   2.217   9.994
19589SOL     OW58724   7.001   2.716   1.388
19589SOL    HW158725   6.948   2.775   1.333
19589SOL    HW258726   7.089   2.720   1.351
19590SOL     OW58727   5.661   2.003   0.279
19590SOL    HW158728   5.654   2.053   0.197
19590SOL    HW258729   5.754   1.990   0.291
19591SOL     OW58730   6.783   3.173   0.146
19591SOL    HW158731   6.696   3.135   0.138
19591SOL    HW258732   6.802   3.173   0.240
19592SOL     OW58733   6.211   2.694   1.441
19592SOL    HW158734   6.270   2.769   1.430
19592SOL    HW258735   6.269   2.618   1.440
19593SOL     OW58736   7.074   3.664   0.994
19593SOL    HW158737   7.100   3.738   0.939
19593SOL    HW258738   7.156   3.621   1.018
19594SOL     OW58739   6.311   2.410   1.686
19594SOL    HW158740   6.357   2.464   1.750
19594SOL    HW258741   6.321   2.321   1.718
19595SOL     OW58742   7.054   3.046   1.619
19595SOL    HW158743   7.047   3.068   1.712
19595SOL    HW258744   7.144   3.070   1.596
19596SOL     OW58745   5.940   3.609   1.579
19596SOL    HW158746   5.858   3.655   1.562
19596SOL    HW258747   5.913   3.525   1.617
19597SOL     OW58748   7.241   2.737   1.254
19597SOL    HW158749   7.239   2.654   1.207
19597SOL    HW258750   7.228   2.803   1.185
19598SOL     OW58751   6.807   2.186   0.451
19598SOL    HW158752   6.867   2.112   0.449
19598SOL    HW258753   6.835   2.238   0.526
19599SOL     OW58754   6.153   2.585   0.677
19599SOL    HW158755   6.200   2.668   0.665
19599SOL    HW258756   6.089   2.584   0.605
19600SOL     OW58757   7.333   2.217   1.664
19600SOL    HW158758   7.330   2.233   1.569
19600SOL    HW258759   7.256   2.164   1.682
19601SOL     OW58760   7.346   2.787   1.504
19601SOL    HW158761   7.329   2.880   1.517
19601SOL    HW258762   7.319   2.770   1.414
19602SOL     OW58763   6.486   3.280   0.042
19602SOL    HW158764   6.402   3.238   0.028
19602SOL    HW258765   6.483   3.310   0.133
19603SOL     OW58766   6.253   3.631   0.925
19603SOL    HW158767   6.235   3.724   0.918
19603SOL    HW258768   6.349   3.625   0.925
19604SOL     OW58769   6.458   2.837   0.857
19604SOL    HW158770   6.509   2.765   0.893
19604SOL    HW258771   6.413   2.875   0.933
19605SOL     OW58772   6.683   2.834   0.071
19605SOL    HW158773   6.681   2.885   9.990
19605SOL    HW258774   6.756   2.774   0.060
19606SOL     OW58775   7.417   3.418   0.840
19606SOL    HW158776   7.340   3.410   0.784
19606SOL    HW258777   7.395   3.368   0.918
19607SOL     OW58778   5.799   3.148   1.836
19607SOL    HW158779   5.767   3.068   1.793
19607SOL    HW258780   5.740   3.160   1.910
19608SOL     OW58781   5.704   3.081   0.671
19608SOL    HW158782   5.733   3.042   0.753
19608SOL    HW258783   5.765   3.046   0.605
19609SOL     OW58784   6.276   3.282   1.632
19609SOL    HW158785   6.200   3.242   1.674
19609SOL    HW258786   6.281   3.370   1.669
19610SOL     OW58787   7.396   2.033   1.234
19610SOL    HW158788   7.398   1.939   1.247
19610SOL    HW258789   7.410   2.045   1.140
19611SOL     OW58790   5.998   2.296   0.515
19611SOL    HW158791   6.032   2.226   0.460
19611SOL    HW258792   5.951   2.251   0.585
19612SOL     OW58793   7.282   3.341   1.081
19612SOL    HW158794   7.204   3.322   1.030
19612SOL    HW258795   7.284   3.274   1.150
19613SOL     OW58796   5.938   2.427   1.291
19613SOL    HW158797   5.987   2.362   1.343
19613SOL    HW258798   5.946   2.397   1.201
19614SOL     OW58799   6.424   3.452   0.669
19614SOL    HW158800   6.404   3.529   0.616
19614SOL    HW258801   6.348   3.395   0.658
19615SOL     OW58802   7.007   2.095   1.115
19615SOL    HW158803   7.017   2.005   1.148
19615SOL    HW258804   6.962   2.142   1.185
19616SOL     OW58805   6.596   1.879   1.120
19616SOL    HW158806   6.542   1.816   1.073
19616SOL    HW258807   6.683   1.839   1.123
19617SOL     OW58808   6.363   3.190   0.341
19617SOL    HW158809   6.344   3.096   0.347
19617SOL    HW258810   6.447   3.199   0.386
19618SOL     OW58811   6.202   3.432   1.288
19618SOL    HW158812   6.196   3.516   1.333
19618SOL    HW258813   6.292   3.427   1.255
19619SOL     OW58814   6.940   1.918   0.178
19619SOL    HW158815   6.966   1.878   0.095
19619SOL    HW258816   6.850   1.889   0.192
19620SOL     OW58817   6.885   2.330   0.675
19620SOL    HW158818   6.836   2.412   0.671
19620SOL    HW258819   6.876   2.301   0.765
19621SOL     OW58820   7.168   2.050   0.893
19621SOL    HW158821   7.116   2.079   0.968
19621SOL    HW258822   7.167   2.124   0.833
19622SOL     OW58823   5.628   2.906   0.304
19622SOL    HW158824   5.723   2.910   0.311
19622SOL    HW258825   5.605   2.818   0.332
19623SOL     OW58826   6.493   3.544   0.344
19623SOL    HW158827   6.414   3.528   0.293
19623SOL    HW258828   6.468   3.613   0.406
19624SOL     OW58829   5.794   2.483   2.009
19624SOL    HW158830   5.706   2.471   2.046
19624SOL    HW258831   5.782   2.469   1.915
19625SOL     OW58832   5.805   2.150   2.851
19625SOL    HW158833   5.836   2.115   2.935
19625SOL    HW258834   5.718   2.113   2.840
19626SOL     OW58835   5.572   2.258   2.508
19626SOL    HW158836   5.493   2.283   2.555
19626SOL    HW258837   5.545   2.184   2.453
19627SOL     OW58838   6.161   3.169   3.070
19627SOL    HW158839   6.079   3.173   3.022
19627SOL    HW258840   6.178   3.260   3.095
19628SOL     OW58841   7.173   3.386   2.567
19628SOL    HW158842   7.126   3.355   2.645
19628SOL    HW258843   7.106   3.389   2.498
19629SOL     OW58844   6.723   2.566   2.548
19629SOL    HW158845   6.770   2.649   2.536
19629SOL    HW258846   6.675   2.577   2.630
19630SOL     OW58847   7.387   2.443   2.081
19630SOL    HW158848   7.348   2.442   1.994
19630SOL    HW258849   7.343   2.371   2.128
19631SOL     OW58850   6.313   2.992   2.919
19631SOL    HW158851   6.255   3.032   2.983
19631SOL    HW258852   6.355   3.065   2.875
19632SOL     OW58853   6.473   2.604   3.689
19632SOL    HW158854   6.466   2.671   3.757
19632SOL    HW258855   6.490   2.653   3.609
19633SOL     OW58856   6.272   2.847   2.506
19633SOL    HW158857   6.339   2.847   2.574
19633SOL    HW258858   6.206   2.909   2.537
19634SOL     OW58859   6.299   3.013   3.695
19634SOL    HW158860   6.350   3.085   3.730
19634SOL    HW258861   6.223   3.055   3.655
19635SOL     OW58862   5.929   3.259   2.932
19635SOL    HW158863   5.854   3.216   2.892
19635SOL    HW258864   5.965   3.314   2.862
19636SOL     OW58865   7.040   3.368   3.234
19636SOL    HW158866   7.095   3.446   3.247
19636SOL    HW258867   6.968   3.380   3.296
19637SOL     OW58868   6.045   2.236   3.317
19637SOL    HW158869   6.119   2.178   3.333
19637SOL    HW258870   5.968   2.185   3.344
19638SOL     OW58871   7.170   2.294   2.617
19638SOL    HW158872   7.103   2.304   2.549
19638SOL    HW258873   7.152   2.364   2.679
19639SOL     OW58874   5.804   3.590   2.327
19639SOL    HW158875   5.830   3.661   2.386
19639SOL    HW258876   5.878   3.579   2.268
19640SOL     OW58877   6.720   3.204   3.558
19640SOL    HW158878   6.766   3.193   3.641
19640SOL    HW258879   6.667   3.125   3.549
19641SOL     OW58880   5.818   3.319   2.395
19641SOL    HW158881   5.797   3.412   2.400
19641SOL    HW258882   5.768   3.280   2.467
19642SOL     OW58883   5.871   2.951   2.740
19642SOL    HW158884   5.872   2.861   2.774
19642SOL    HW258885   5.816   2.999   2.801
19643SOL     OW58886   6.162   3.663   3.285
19643SOL    HW158887   6.084   3.644   3.338
19643SOL    HW258888   6.194   3.747   3.317
19644SOL     OW58889   6.151   2.850   2.014
19644SOL    HW158890   6.203   2.892   1.945
19644SOL    HW258891   6.192   2.879   2.095
19645SOL     OW58892   7.178   1.994   3.322
19645SOL    HW158893   7.216   2.070   3.278
19645SOL    HW258894   7.146   2.028   3.406
19646SOL     OW58895   5.705   2.521   2.429
19646SOL    HW158896   5.673   2.434   2.453
19646SOL    HW258897   5.699   2.572   2.510
19647SOL     OW58898   7.432   3.605   2.180
19647SOL    HW158899   7.504   3.590   2.241
19647SOL    HW258900   7.440   3.698   2.157
19648SOL     OW58901   5.645   3.442   1.972
19648SOL    HW158902   5.624   3.350   1.991
19648SOL    HW258903   5.613   3.490   2.049
19649SOL     OW58904   7.283   2.788   2.514
19649SOL    HW158905   7.365   2.744   2.492
19649SOL    HW258906   7.262   2.840   2.437
19650SOL     OW58907   7.243   2.967   2.295
19650SOL    HW158908   7.328   2.959   2.251
19650SOL    HW258909   7.257   3.033   2.363
19651SOL     OW58910   5.706   2.612   3.440
19651SOL    HW158911   5.791   2.657   3.444
19651SOL    HW258912   5.643   2.683   3.426
19652SOL     OW58913   6.210   3.260   2.592
19652SOL    HW158914   6.168   3.174   2.597
19652SOL    HW258915   6.194   3.289   2.502
19653SOL     OW58916   6.856   3.088   3.278
19653SOL    HW158917   6.884   3.019   3.218
19653SOL    HW258918   6.918   3.083   3.351
19654SOL     OW58919   6.417   1.873   2.381
19654SOL    HW158920   6.457   1.955   2.353
19654SOL    HW258921   6.323   1.891   2.381
19655SOL     OW58922   5.773   2.818   3.164
19655SOL    HW158923   5.860   2.783   3.148
19655SOL    HW258924   5.720   2.786   3.092
19656SOL     OW58925   7.121   2.877   2.061
19656SOL    HW158926   7.053   2.817   2.091
19656SOL    HW258927   7.163   2.907   2.142
19657SOL     OW58928   6.767   3.686   3.499
19657SOL    HW158929   6.768   3.747   3.426
19657SOL    HW258930   6.785   3.601   3.459
19658SOL     OW58931   5.945   2.114   3.738
19658SOL    HW158932   5.981   2.195   3.776
19658SOL    HW258933   5.851   2.130   3.734
19659SOL     OW58934   7.058   3.279   2.793
19659SOL    HW158935   6.995   3.299   2.862
19659SOL    HW258936   7.040   3.188   2.769
19660SOL     OW58937   7.224   3.657   2.425
19660SOL    HW158938   7.207   3.611   2.343
19660SOL    HW258939   7.223   3.589   2.492
19661SOL     OW58940   6.173   2.561   2.133
19661SOL    HW158941   6.177   2.648   2.096
19661SOL    HW258942   6.108   2.568   2.204
19662SOL     OW58943   6.868   2.255   2.803
19662SOL    HW158944   6.779   2.220   2.808
19662SOL    HW258945   6.920   2.197   2.858
19663SOL     OW58946   7.165   3.535   2.181
19663SOL    HW158947   7.259   3.550   2.170
19663SOL    HW258948   7.132   3.522   2.092
19664SOL     OW58949   6.377   2.475   3.293
19664SOL    HW158950   6.352   2.446   3.381
19664SOL    HW258951   6.351   2.402   3.236
19665SOL     OW58952   6.977   2.339   3.536
19665SOL    HW158953   6.982   2.382   3.621
19665SOL    HW258954   7.028   2.258   3.547
19666SOL     OW58955   6.530   2.743   3.455
19666SOL    HW158956   6.586   2.679   3.410
19666SOL    HW258957   6.481   2.786   3.384
19667SOL     OW58958   6.593   2.259   3.071
19667SOL    HW158959   6.501   2.273   3.094
19667SOL    HW258960   6.591   2.216   2.986
19668SOL     OW58961   6.644   2.559   2.280
19668SOL    HW158962   6.665   2.556   2.374
19668SOL    HW258963   6.559   2.515   2.273
19669SOL     OW58964   5.678   2.687   2.645
19669SOL    HW158965   5.760   2.682   2.694
19669SOL    HW258966   5.630   2.759   2.686
19670SOL     OW58967   5.695   3.742   3.450
19670SOL    HW158968   5.705   3.720   3.543
19670SOL    HW258969   5.607   3.713   3.428
19671SOL     OW58970   6.475   2.212   2.062
19671SOL    HW158971   6.526   2.266   2.001
19671SOL    HW258972   6.453   2.134   2.011
19672SOL     OW58973   7.272   2.424   3.702
19672SOL    HW158974   7.251   2.502   3.650
19672SOL    HW258975   7.301   2.360   3.638
19673SOL     OW58976   6.979   3.012   2.406
19673SOL    HW158977   7.059   3.001   2.354
19673SOL    HW258978   6.925   3.073   2.355
19674SOL     OW58979   6.137   2.022   2.777
19674SOL    HW158980   6.143   2.051   2.868
19674SOL    HW258981   6.133   2.104   2.727
19675SOL     OW58982   6.583   3.318   2.327
19675SOL    HW158983   6.558   3.392   2.272
19675SOL    HW258984   6.553   3.342   2.415
19676SOL     OW58985   5.939   3.678   2.742
19676SOL    HW158986   5.985   3.594   2.746
19676SOL    HW258987   6.006   3.743   2.764
19677SOL     OW58988   7.389   2.906   2.751
19677SOL    HW158989   7.342   2.891   2.670
19677SOL    HW258990   7.321   2.915   2.818
19678SOL     OW58991   6.805   3.407   3.380
19678SOL    HW158992   6.793   3.335   3.441
19678SOL    HW258993   6.732   3.400   3.319
19679SOL     OW58994   5.886   2.821   2.128
19679SOL    HW158995   5.969   2.841   2.084
19679SOL    HW258996   5.864   2.733   2.096
19680SOL     OW58997   7.070   2.625   2.572
19680SOL    HW158998   7.072   2.582   2.658
19680SOL    HW258999   7.149   2.679   2.571
19681SOL     OW59000   6.059   3.145   3.609
19681SOL    HW159001   6.035   3.149   3.517
19681SOL    HW259002   5.975   3.135   3.655
19682SOL     OW59003   6.725   3.639   2.087
19682SOL    HW159004   6.643   3.609   2.126
19682SOL    HW259005   6.745   3.573   2.020
19683SOL     OW59006   5.795   2.118   3.360
19683SOL    HW159007   5.724   2.179   3.378
19683SOL    HW259008   5.764   2.034   3.394
19684SOL     OW59009   7.224   3.250   1.962
19684SOL    HW159010   7.183   3.335   1.949
19684SOL    HW259011   7.157   3.187   1.935
19685SOL     OW59012   6.044   3.603   2.178
19685SOL    HW159013   6.093   3.654   2.243
19685SOL    HW259014   6.112   3.563   2.124
19686SOL     OW59015   6.983   1.967   2.321
19686SOL    HW159016   6.983   1.943   2.228
19686SOL    HW259017   7.074   1.956   2.348
19687SOL     OW59018   5.836   3.650   3.078
19687SOL    HW159019   5.885   3.576   3.113
19687SOL    HW259020   5.824   3.630   2.985
19688SOL     OW59021   6.534   3.565   2.752
19688SOL    HW159022   6.619   3.523   2.769
19688SOL    HW259023   6.496   3.513   2.681
19689SOL     OW59024   5.981   2.547   2.334
19689SOL    HW159025   5.993   2.453   2.347
19689SOL    HW259026   5.888   2.562   2.352
19690SOL     OW59027   7.094   2.085   3.579
19690SOL    HW159028   7.107   2.103   3.672
19690SOL    HW259029   7.028   2.016   3.577
19691SOL     OW59030   6.249   1.971   1.964
19691SOL    HW159031   6.296   1.892   1.991
19691SOL    HW259032   6.188   1.941   1.897
19692SOL     OW59033   6.345   2.136   3.614
19692SOL    HW159034   6.429   2.091   3.613
19692SOL    HW259035   6.298   2.098   3.689
19693SOL     OW59036   6.456   3.388   3.061
19693SOL    HW159037   6.437   3.347   2.976
19693SOL    HW259038   6.522   3.332   3.100
19694SOL     OW59039   6.915   2.453   3.295
19694SOL    HW159040   6.948   2.423   3.379
19694SOL    HW259041   6.954   2.540   3.283
19695SOL     OW59042   6.402   3.237   2.818
19695SOL    HW159043   6.490   3.233   2.779
19695SOL    HW259044   6.344   3.253   2.744
19696SOL     OW59045   6.516   2.377   2.750
19696SOL    HW159046   6.491   2.365   2.658
19696SOL    HW259047   6.544   2.290   2.778
19697SOL     OW59048   6.150   1.925   2.352
19697SOL    HW159049   6.072   1.926   2.408
19697SOL    HW259050   6.138   2.000   2.294
19698SOL     OW59051   7.020   3.074   1.894
19698SOL    HW159052   7.050   3.000   1.947
19698SOL    HW259053   6.935   3.098   1.931
19699SOL     OW59054   5.868   1.910   2.051
19699SOL    HW159055   5.921   1.977   2.008
19699SOL    HW259056   5.932   1.852   2.092
19700SOL     OW59057   6.538   2.112   2.313
19700SOL    HW159058   6.512   2.148   2.227
19700SOL    HW259059   6.632   2.129   2.318
19701SOL     OW59060   6.661   2.556   3.307
19701SOL    HW159061   6.598   2.485   3.311
19701SOL    HW259062   6.747   2.513   3.303
19702SOL     OW59063   6.793   3.448   2.663
19702SOL    HW159064   6.807   3.508   2.591
19702SOL    HW259065   6.863   3.467   2.725
19703SOL     OW59066   6.068   3.024   2.569
19703SOL    HW159067   6.007   2.999   2.638
19703SOL    HW259068   6.018   3.017   2.488
19704SOL     OW59069   6.838   3.654   2.479
19704SOL    HW159070   6.887   3.717   2.426
19704SOL    HW259071   6.767   3.705   2.518
19705SOL     OW59072   6.618   2.377   1.892
19705SOL    HW159073   6.575   2.460   1.873
19705SOL    HW259074   6.682   2.397   1.960
19706SOL     OW59075   5.686   2.414   3.254
19706SOL    HW159076   5.778   2.415   3.228
19706SOL    HW259077   5.678   2.483   3.320
19707SOL     OW59078   6.145   2.083   3.047
19707SOL    HW159079   6.182   2.020   3.108
19707SOL    HW259080   6.052   2.084   3.067
19708SOL     OW59081   6.456   2.316   2.492
19708SOL    HW159082   6.416   2.372   2.425
19708SOL    HW259083   6.481   2.237   2.445
19709SOL     OW59084   6.608   1.921   2.602
19709SOL    HW159085   6.547   1.915   2.528
19709SOL    HW259086   6.583   1.848   2.659
19710SOL     OW59087   7.020   3.015   2.716
19710SOL    HW159088   6.950   2.951   2.726
19710SOL    HW259089   7.034   3.022   2.622
19711SOL     OW59090   7.049   2.478   2.810
19711SOL    HW159091   6.985   2.408   2.821
19711SOL    HW259092   7.104   2.472   2.888
19712SOL     OW59093   7.414   2.658   2.249
19712SOL    HW159094   7.475   2.615   2.309
19712SOL    HW259095   7.401   2.594   2.179
19713SOL     OW59096   6.083   3.286   2.013
19713SOL    HW159097   6.008   3.255   2.063
19713SOL    HW259098   6.080   3.236   1.931
19714SOL     OW59099   7.294   3.134   2.495
19714SOL    HW159100   7.387   3.127   2.517
19714SOL    HW259101   7.269   3.223   2.522
19715SOL     OW59102   6.978   2.437   1.928
19715SOL    HW159103   6.922   2.411   2.000
19715SOL    HW259104   7.067   2.414   1.956
19716SOL     OW59105   6.113   2.119   2.164
19716SOL    HW159106   6.167   2.077   2.097
19716SOL    HW259107   6.081   2.199   2.123
19717SOL     OW59108   7.321   3.106   3.394
19717SOL    HW159109   7.409   3.072   3.380
19717SOL    HW259110   7.334   3.193   3.431
19718SOL     OW59111   6.626   3.214   3.194
19718SOL    HW159112   6.549   3.181   3.241
19718SOL    HW259113   6.701   3.171   3.236
19719SOL     OW59114   7.194   3.496   3.534
19719SOL    HW159115   7.183   3.533   3.446
19719SOL    HW259116   7.272   3.441   3.527
19720SOL     OW59117   6.737   3.098   2.966
19720SOL    HW159118   6.676   3.132   3.031
19720SOL    HW259119   6.704   3.131   2.883
19721SOL     OW59120   7.195   2.954   2.939
19721SOL    HW159121   7.188   3.020   3.007
19721SOL    HW259122   7.126   2.975   2.877
19722SOL     OW59123   6.505   1.943   3.245
19722SOL    HW159124   6.526   1.928   3.153
19722SOL    HW259125   6.584   1.984   3.281
19723SOL     OW59126   6.565   2.978   3.586
19723SOL    HW159127   6.475   2.994   3.614
19723SOL    HW259128   6.560   2.897   3.535
19724SOL     OW59129   6.300   2.924   2.238
19724SOL    HW159130   6.285   2.898   2.329
19724SOL    HW259131   6.374   2.871   2.210
19725SOL     OW59132   6.012   2.690   3.121
19725SOL    HW159133   6.080   2.700   3.188
19725SOL    HW259134   5.982   2.599   3.131
19726SOL     OW59135   6.850   2.230   3.154
19726SOL    HW159136   6.878   2.310   3.198
19726SOL    HW259137   6.761   2.248   3.124
19727SOL     OW59138   5.664   3.431   3.223
19727SOL    HW159139   5.635   3.505   3.169
19727SOL    HW259140   5.759   3.431   3.214
19728SOL     OW59141   5.903   2.997   2.348
19728SOL    HW159142   5.904   3.069   2.285
19728SOL    HW259143   5.900   2.918   2.294
19729SOL     OW59144   6.120   2.378   2.721
19729SOL    HW159145   6.132   2.437   2.646
19729SOL    HW259146   6.188   2.404   2.783
19730SOL     OW59147   6.833   3.217   2.260
19730SOL    HW159148   6.889   3.286   2.294
19730SOL    HW259149   6.745   3.240   2.290
19731SOL     OW59150   6.895   3.330   3.005
19731SOL    HW159151   6.942   3.337   3.088
19731SOL    HW259152   6.844   3.250   3.013
19732SOL     OW59153   7.161   2.480   2.347
19732SOL    HW159154   7.110   2.521   2.417
19732SOL    HW259155   7.211   2.552   2.309
19733SOL     OW59156   5.931   3.395   3.164
19733SOL    HW159157   5.924   3.342   3.085
19733SOL    HW259158   6.025   3.411   3.174
19734SOL     OW59159   6.021   2.607   3.482
19734SOL    HW159160   6.078   2.651   3.419
19734SOL    HW259161   6.067   2.525   3.503
19735SOL     OW59162   7.213   2.648   3.560
19735SOL    HW159163   7.126   2.686   3.551
19735SOL    HW259164   7.264   2.686   3.488
19736SOL     OW59165   6.581   2.003   3.622
19736SOL    HW159166   6.639   2.076   3.602
19736SOL    HW259167   6.632   1.925   3.599
19737SOL     OW59168   6.080   1.896   3.625
19737SOL    HW159169   6.026   1.847   3.563
19737SOL    HW259170   6.028   1.974   3.646
19738SOL     OW59171   6.177   2.737   2.901
19738SOL    HW159172   6.215   2.825   2.904
19738SOL    HW259173   6.119   2.733   2.977
19739SOL     OW59174   6.895   2.715   2.864
19739SOL    HW159175   6.806   2.688   2.839
19739SOL    HW259176   6.949   2.639   2.845
19740SOL     OW59177   6.784   2.385   2.119
19740SOL    HW159178   6.795   2.308   2.176
19740SOL    HW259179   6.743   2.450   2.175
19741SOL     OW59180   5.878   2.055   3.100
19741SOL    HW159181   5.843   2.084   3.185
19741SOL    HW259182   5.860   1.961   3.098
19742SOL     OW59183   5.636   3.174   3.128
19742SOL    HW159184   5.665   3.119   3.201
19742SOL    HW259185   5.638   3.263   3.163
19743SOL     OW59186   6.297   2.484   2.901
19743SOL    HW159187   6.375   2.477   2.846
19743SOL    HW259188   6.269   2.575   2.891
19744SOL     OW59189   7.337   2.829   3.732
19744SOL    HW159190   7.297   2.757   3.683
19744SOL    HW259191   7.274   2.850   3.800
19745SOL     OW59192   5.911   1.922   2.490
19745SOL    HW159193   5.877   2.009   2.508
19745SOL    HW259194   5.917   1.880   2.576
19746SOL     OW59195   7.217   2.252   2.206
19746SOL    HW159196   7.249   2.187   2.268
19746SOL    HW259197   7.188   2.325   2.260
19747SOL     OW59198   6.620   2.620   2.818
19747SOL    HW159199   6.599   2.635   2.910
19747SOL    HW259200   6.590   2.531   2.800
19748SOL     OW59201   6.566   3.428   3.595
19748SOL    HW159202   6.547   3.471   3.511
19748SOL    HW259203   6.605   3.344   3.571
19749SOL     OW59204   7.424   3.356   3.464
19749SOL    HW159205   7.451   3.385   3.376
19749SOL    HW259206   7.503   3.367   3.517
19750SOL     OW59207   5.935   2.779   3.679
19750SOL    HW159208   6.012   2.798   3.733
19750SOL    HW259209   5.967   2.716   3.614
19751SOL     OW59210   7.107   2.130   1.981
19751SOL    HW159211   7.055   2.059   2.018
19751SOL    HW259212   7.147   2.174   2.056
19752SOL     OW59213   6.866   2.683   1.881
19752SOL    HW159214   6.906   2.597   1.889
19752SOL    HW259215   6.903   2.719   1.800
19753SOL     OW59216   6.656   3.215   2.728
19753SOL    HW159217   6.667   3.142   2.666
19753SOL    HW259218   6.708   3.286   2.691
19754SOL     OW59219   5.904   2.678   2.806
19754SOL    HW159220   5.999   2.692   2.805
19754SOL    HW259221   5.894   2.588   2.837
19755SOL     OW59222   5.899   2.400   2.873
19755SOL    HW159223   5.860   2.313   2.863
19755SOL    HW259224   5.976   2.398   2.817
19756SOL     OW59225   6.724   2.229   3.548
19756SOL    HW159226   6.679   2.281   3.615
19756SOL    HW259227   6.809   2.272   3.539
19757SOL     OW59228   6.742   2.051   3.337
19757SOL    HW159229   6.731   2.114   3.408
19757SOL    HW259230   6.788   2.101   3.269
19758SOL     OW59231   5.610   3.165   2.041
19758SOL    HW159232   5.520   3.187   2.015
19758SOL    HW259233   5.602   3.079   2.082
19759SOL     OW59234   5.678   3.632   2.812
19759SOL    HW159235   5.645   3.558   2.761
19759SOL    HW259236   5.765   3.649   2.776
19760SOL     OW59237   6.071   3.431   2.762
19760SOL    HW159238   6.141   3.493   2.784
19760SOL    HW259239   6.111   3.370   2.701
19761SOL     OW59240   6.535   2.642   3.076
19761SOL    HW159241   6.597   2.631   3.148
19761SOL    HW259242   6.456   2.598   3.106
19762SOL     OW59243   5.625   2.432   2.984
19762SOL    HW159244   5.707   2.430   2.933
19762SOL    HW259245   5.653   2.426   3.075
19763SOL     OW59246   5.773   2.401   3.605
19763SOL    HW159247   5.848   2.372   3.553
19763SOL    HW259248   5.737   2.475   3.556
19764SOL     OW59249   6.978   2.782   3.513
19764SOL    HW159250   6.995   2.877   3.508
19764SOL    HW259251   6.970   2.755   3.422
19765SOL     OW59252   6.404   2.430   2.234
19765SOL    HW159253   6.413   2.356   2.174
19765SOL    HW259254   6.327   2.478   2.202
19766SOL     OW59255   7.221   2.463   3.024
19766SOL    HW159256   7.211   2.405   3.099
19766SOL    HW259257   7.312   2.452   2.997
19767SOL     OW59258   5.813   3.402   3.581
19767SOL    HW159259   5.791   3.456   3.657
19767SOL    HW259260   5.823   3.313   3.617
19768SOL     OW59261   6.320   2.295   3.096
19768SOL    HW159262   6.255   2.226   3.081
19768SOL    HW259263   6.302   2.359   3.027
19769SOL     OW59264   6.501   3.537   3.343
19769SOL    HW159265   6.473   3.492   3.264
19769SOL    HW259266   6.500   3.630   3.320
19770SOL     OW59267   6.029   2.343   2.025
19770SOL    HW159268   6.093   2.409   2.051
19770SOL    HW259269   5.945   2.389   2.029
19771SOL     OW59270   5.716   3.012   3.343
19771SOL    HW159271   5.720   2.973   3.430
19771SOL    HW259272   5.737   2.941   3.283
19772SOL     OW59273   6.890   2.895   3.070
19772SOL    HW159274   6.899   2.832   2.999
19772SOL    HW259275   6.836   2.965   3.033
19773SOL     OW59276   6.912   2.723   2.153
19773SOL    HW159277   6.842   2.688   2.208
19773SOL    HW259278   6.882   2.707   2.063
19774SOL     OW59279   7.372   3.586   3.032
19774SOL    HW159280   7.434   3.612   2.964
19774SOL    HW259281   7.341   3.500   3.005
19775SOL     OW59282   6.826   3.594   2.949
19775SOL    HW159283   6.911   3.624   2.917
19775SOL    HW259284   6.841   3.503   2.975
19776SOL     OW59285   5.694   3.107   2.872
19776SOL    HW159286   5.666   3.130   2.961
19776SOL    HW259287   5.622   3.056   2.836
19777SOL     OW59288   6.271   3.545   3.612
19777SOL    HW159289   6.207   3.615   3.600
19777SOL    HW259290   6.346   3.571   3.558
19778SOL     OW59291   7.330   2.046   2.358
19778SOL    HW159292   7.389   2.026   2.286
19778SOL    HW259293   7.303   1.960   2.392
19779SOL     OW59294   6.983   3.432   2.365
19779SOL    HW159295   7.038   3.467   2.295
19779SOL    HW259296   6.928   3.506   2.391
19780SOL     OW59297   5.726   3.663   3.705
19780SOL    HW159298   5.682   3.590   3.748
19780SOL    HW259299   5.773   3.708   3.775
19781SOL     OW59300   6.865   2.797   2.525
19781SOL    HW159301   6.938   2.738   2.539
19781SOL    HW259302   6.901   2.869   2.473
19782SOL     OW59303   6.368   3.142   3.278
19782SOL    HW159304   6.343   3.190   3.357
19782SOL    HW259305   6.294   3.152   3.218
19783SOL     OW59306   6.254   3.497   2.022
19783SOL    HW159307   6.268   3.512   1.928
19783SOL    HW259308   6.202   3.417   2.026
19784SOL     OW59309   7.202   3.592   3.264
19784SOL    HW159310   7.259   3.592   3.187
19784SOL    HW259311   7.186   3.685   3.282
19785SOL     OW59312   7.431   2.022   2.827
19785SOL    HW159313   7.459   1.933   2.806
19785SOL    HW259314   7.343   2.029   2.788
19786SOL     OW59315   5.829   2.168   2.570
19786SOL    HW159316   5.743   2.205   2.549
19786SOL    HW259317   5.833   2.170   2.665
19787SOL     OW59318   6.795   3.450   1.900
19787SOL    HW159319   6.785   3.359   1.928
19787SOL    HW259320   6.726   3.463   1.836
19788SOL     OW59321   6.409   2.874   3.247
19788SOL    HW159322   6.447   2.866   3.159
19788SOL    HW259323   6.398   2.968   3.260
19789SOL     OW59324   6.505   2.771   2.155
19789SOL    HW159325   6.562   2.805   2.086
19789SOL    HW259326   6.557   2.704   2.199
19790SOL     OW59327   7.069   3.506   1.920
19790SOL    HW159328   6.977   3.487   1.903
19790SOL    HW259329   7.109   3.510   1.833
19791SOL     OW59330   5.950   3.173   3.362
19791SOL    HW159331   5.941   3.248   3.303
19791SOL    HW259332   5.871   3.121   3.347
19792SOL     OW59333   7.185   3.152   3.139
19792SOL    HW159334   7.239   3.128   3.214
19792SOL    HW259335   7.126   3.219   3.172
19793SOL     OW59336   6.663   2.981   2.591
19793SOL    HW159337   6.587   2.932   2.622
19793SOL    HW259338   6.725   2.914   2.561
19794SOL     OW59339   6.619   2.111   2.822
19794SOL    HW159340   6.618   2.069   2.736
19794SOL    HW259341   6.612   2.039   2.885
19795SOL     OW59342   6.190   3.348   2.336
19795SOL    HW159343   6.245   3.299   2.275
19795SOL    HW259344   6.108   3.363   2.289
19796SOL     OW59345   7.332   2.244   3.251
19796SOL    HW159346   7.402   2.308   3.247
19796SOL    HW259347   7.358   2.175   3.190
19797SOL     OW59348   5.864   3.203   2.161
19797SOL    HW159349   5.777   3.196   2.122
19797SOL    HW259350   5.850   3.251   2.242
19798SOL     OW59351   5.707   2.909   3.598
19798SOL    HW159352   5.630   2.881   3.647
19798SOL    HW259353   5.779   2.858   3.635
19799SOL     OW59354   6.265   2.050   3.357
19799SOL    HW159355   6.349   2.025   3.319
19799SOL    HW259356   6.288   2.084   3.444
19800SOL     OW59357   5.672   2.179   1.877
19800SOL    HW159358   5.594   2.158   1.824
19800SOL    HW259359   5.699   2.265   1.845
19801SOL     OW59360   7.001   2.715   3.250
19801SOL    HW159361   6.948   2.774   3.195
19801SOL    HW259362   7.089   2.720   3.212
19802SOL     OW59363   5.630   2.011   2.135
19802SOL    HW159364   5.617   2.081   2.071
19802SOL    HW259365   5.718   1.979   2.118
19803SOL     OW59366   6.769   3.184   1.985
19803SOL    HW159367   6.678   3.153   1.985
19803SOL    HW259368   6.793   3.188   2.078
19804SOL     OW59369   6.212   2.694   3.303
19804SOL    HW159370   6.271   2.768   3.292
19804SOL    HW259371   6.270   2.617   3.302
19805SOL     OW59372   7.073   3.664   2.855
19805SOL    HW159373   7.099   3.739   2.800
19805SOL    HW259374   7.156   3.622   2.878
19806SOL     OW59375   6.309   2.411   3.548
19806SOL    HW159376   6.356   2.465   3.611
19806SOL    HW259377   6.320   2.321   3.580
19807SOL     OW59378   7.054   3.046   3.481
19807SOL    HW159379   7.046   3.069   3.574
19807SOL    HW259380   7.144   3.070   3.458
19808SOL     OW59381   5.939   3.610   3.439
19808SOL    HW159382   5.857   3.656   3.422
19808SOL    HW259383   5.912   3.526   3.476
19809SOL     OW59384   7.241   2.737   3.115
19809SOL    HW159385   7.239   2.654   3.068
19809SOL    HW259386   7.229   2.804   3.047
19810SOL     OW59387   6.806   2.185   2.318
19810SOL    HW159388   6.866   2.110   2.317
19810SOL    HW259389   6.835   2.237   2.393
19811SOL     OW59390   6.163   2.587   2.542
19811SOL    HW159391   6.206   2.671   2.528
19811SOL    HW259392   6.101   2.579   2.469
19812SOL     OW59393   7.333   2.217   3.527
19812SOL    HW159394   7.330   2.233   3.432
19812SOL    HW259395   7.256   2.164   3.545
19813SOL     OW59396   7.346   2.787   3.366
19813SOL    HW159397   7.329   2.880   3.379
19813SOL    HW259398   7.319   2.770   3.276
19814SOL     OW59399   6.455   3.219   1.924
19814SOL    HW159400   6.418   3.236   2.011
19814SOL    HW259401   6.465   3.306   1.885
19815SOL     OW59402   6.254   3.629   2.786
19815SOL    HW159403   6.234   3.722   2.780
19815SOL    HW259404   6.350   3.624   2.786
19816SOL     OW59405   6.458   2.839   2.717
19816SOL    HW159406   6.508   2.766   2.753
19816SOL    HW259407   6.413   2.876   2.793
19817SOL     OW59408   6.658   2.847   1.948
19817SOL    HW159409   6.638   2.900   1.872
19817SOL    HW259410   6.732   2.792   1.920
19818SOL     OW59411   7.415   3.420   2.702
19818SOL    HW159412   7.339   3.412   2.645
19818SOL    HW259413   7.392   3.370   2.780
19819SOL     OW59414   5.798   3.149   3.698
19819SOL    HW159415   5.767   3.069   3.655
19819SOL    HW259416   5.739   3.161   3.772
19820SOL     OW59417   5.703   3.086   2.530
19820SOL    HW159418   5.733   3.045   2.611
19820SOL    HW259419   5.762   3.053   2.462
19821SOL     OW59420   6.276   3.282   3.496
19821SOL    HW159421   6.199   3.243   3.537
19821SOL    HW259422   6.280   3.370   3.532
19822SOL     OW59423   7.396   2.033   3.097
19822SOL    HW159424   7.398   1.938   3.109
19822SOL    HW259425   7.410   2.045   3.003
19823SOL     OW59426   6.003   2.285   2.380
19823SOL    HW159427   6.038   2.213   2.326
19823SOL    HW259428   5.952   2.241   2.447
19824SOL     OW59429   7.282   3.341   2.943
19824SOL    HW159430   7.204   3.322   2.892
19824SOL    HW259431   7.284   3.274   3.011
19825SOL     OW59432   5.938   2.428   3.153
19825SOL    HW159433   5.987   2.363   3.204
19825SOL    HW259434   5.945   2.398   3.063
19826SOL     OW59435   6.425   3.445   2.533
19826SOL    HW159436   6.393   3.515   2.475
19826SOL    HW259437   6.350   3.387   2.543
19827SOL     OW59438   7.007   2.095   2.977
19827SOL    HW159439   7.017   2.006   3.010
19827SOL    HW259440   6.961   2.142   3.047
19828SOL     OW59441   6.596   1.880   2.981
19828SOL    HW159442   6.542   1.817   2.933
19828SOL    HW259443   6.683   1.839   2.985
19829SOL     OW59444   6.367   3.194   2.189
19829SOL    HW159445   6.343   3.102   2.202
19829SOL    HW259446   6.446   3.206   2.242
19830SOL     OW59447   6.202   3.430   3.150
19830SOL    HW159448   6.197   3.514   3.197
19830SOL    HW259449   6.292   3.426   3.117
19831SOL     OW59450   6.966   1.900   2.054
19831SOL    HW159451   7.007   1.828   2.006
19831SOL    HW259452   6.875   1.874   2.065
19832SOL     OW59453   6.883   2.333   2.536
19832SOL    HW159454   6.833   2.414   2.534
19832SOL    HW259455   6.877   2.304   2.627
19833SOL     OW59456   7.168   2.050   2.755
19833SOL    HW159457   7.116   2.080   2.830
19833SOL    HW259458   7.168   2.124   2.695
19834SOL     OW59459   5.623   2.913   2.169
19834SOL    HW159460   5.716   2.902   2.152
19834SOL    HW259461   5.591   2.825   2.190
19835SOL     OW59462   6.482   3.538   2.191
19835SOL    HW159463   6.402   3.522   2.139
19835SOL    HW259464   6.456   3.606   2.254
19836SOL     OW59465   5.793   2.481   3.872
19836SOL    HW159466   5.706   2.470   3.908
19836SOL    HW259467   5.782   2.469   3.778
19837SOL     OW59468   5.804   2.150   4.713
19837SOL    HW159469   5.835   2.115   4.797
19837SOL    HW259470   5.716   2.114   4.703
19838SOL     OW59471   5.575   2.256   4.370
19838SOL    HW159472   5.496   2.282   4.417
19838SOL    HW259473   5.547   2.183   4.314
19839SOL     OW59474   6.161   3.169   4.932
19839SOL    HW159475   6.079   3.173   4.883
19839SOL    HW259476   6.178   3.260   4.957
19840SOL     OW59477   7.173   3.386   4.429
19840SOL    HW159478   7.126   3.355   4.506
19840SOL    HW259479   7.106   3.389   4.360
19841SOL     OW59480   6.723   2.566   4.410
19841SOL    HW159481   6.770   2.649   4.398
19841SOL    HW259482   6.675   2.578   4.492
19842SOL     OW59483   7.387   2.443   3.944
19842SOL    HW159484   7.348   2.443   3.856
19842SOL    HW259485   7.342   2.371   3.990
19843SOL     OW59486   6.313   2.992   4.781
19843SOL    HW159487   6.255   3.032   4.845
19843SOL    HW259488   6.355   3.065   4.737
19844SOL     OW59489   6.472   2.604   5.550
19844SOL    HW159490   6.469   2.672   5.618
19844SOL    HW259491   6.489   2.653   5.469
19845SOL     OW59492   6.271   2.846   4.368
19845SOL    HW159493   6.339   2.847   4.436
19845SOL    HW259494   6.205   2.908   4.399
19846SOL     OW59495   6.299   3.014   5.558
19846SOL    HW159496   6.351   3.086   5.593
19846SOL    HW259497   6.224   3.056   5.517
19847SOL     OW59498   5.929   3.258   4.794
19847SOL    HW159499   5.853   3.215   4.755
19847SOL    HW259500   5.964   3.313   4.724
19848SOL     OW59501   7.040   3.368   5.096
19848SOL    HW159502   7.095   3.445   5.109
19848SOL    HW259503   6.967   3.380   5.158
19849SOL     OW59504   6.046   2.236   5.178
19849SOL    HW159505   6.120   2.178   5.195
19849SOL    HW259506   5.969   2.185   5.206
19850SOL     OW59507   7.170   2.294   4.479
19850SOL    HW159508   7.104   2.305   4.410
19850SOL    HW259509   7.152   2.364   4.541
19851SOL     OW59510   5.806   3.588   4.189
19851SOL    HW159511   5.830   3.660   4.247
19851SOL    HW259512   5.880   3.580   4.129
19852SOL     OW59513   6.721   3.203   5.419
19852SOL    HW159514   6.767   3.192   5.502
19852SOL    HW259515   6.668   3.124   5.410
19853SOL     OW59516   5.814   3.320   4.259
19853SOL    HW159517   5.798   3.414   4.257
19853SOL    HW259518   5.763   3.288   4.334
19854SOL     OW59519   5.868   2.951   4.600
19854SOL    HW159520   5.870   2.861   4.633
19854SOL    HW259521   5.814   2.999   4.662
19855SOL     OW59522   6.167   3.659   5.152
19855SOL    HW159523   6.087   3.644   5.201
19855SOL    HW259524   6.197   3.746   5.181
19856SOL     OW59525   6.152   2.850   3.876
19856SOL    HW159526   6.203   2.893   3.807
19856SOL    HW259527   6.192   2.879   3.957
19857SOL     OW59528   7.177   1.994   5.184
19857SOL    HW159529   7.217   2.070   5.140
19857SOL    HW259530   7.146   2.028   5.268
19858SOL     OW59531   5.705   2.520   4.291
19858SOL    HW159532   5.674   2.433   4.315
19858SOL    HW259533   5.699   2.571   4.372
19859SOL     OW59534   7.432   3.605   4.042
19859SOL    HW159535   7.504   3.590   4.103
19859SOL    HW259536   7.439   3.698   4.019
19860SOL     OW59537   5.644   3.440   3.833
19860SOL    HW159538   5.622   3.349   3.853
19860SOL    HW259539   5.614   3.490   3.909
19861SOL     OW59540   7.283   2.788   4.375
19861SOL    HW159541   7.364   2.743   4.352
19861SOL    HW259542   7.261   2.841   4.299
19862SOL     OW59543   7.242   2.968   4.157
19862SOL    HW159544   7.327   2.960   4.113
19862SOL    HW259545   7.256   3.033   4.225
19863SOL     OW59546   5.706   2.613   5.302
19863SOL    HW159547   5.791   2.658   5.305
19863SOL    HW259548   5.642   2.683   5.287
19864SOL     OW59549   6.208   3.260   4.455
19864SOL    HW159550   6.166   3.174   4.460
19864SOL    HW259551   6.193   3.289   4.366
19865SOL     OW59552   6.856   3.088   5.141
19865SOL    HW159553   6.884   3.018   5.081
19865SOL    HW259554   6.919   3.082   5.213
19866SOL     OW59555   6.417   1.872   4.243
19866SOL    HW159556   6.457   1.954   4.215
19866SOL    HW259557   6.323   1.891   4.243
19867SOL     OW59558   5.772   2.818   5.027
19867SOL    HW159559   5.860   2.782   5.010
19867SOL    HW259560   5.721   2.794   4.950
19868SOL     OW59561   7.121   2.877   3.923
19868SOL    HW159562   7.053   2.817   3.953
19868SOL    HW259563   7.163   2.908   4.004
19869SOL     OW59564   6.766   3.685   5.362
19869SOL    HW159565   6.767   3.748   5.290
19869SOL    HW259566   6.784   3.601   5.321
19870SOL     OW59567   5.947   2.114   5.600
19870SOL    HW159568   5.983   2.194   5.637
19870SOL    HW259569   5.852   2.130   5.595
19871SOL     OW59570   7.059   3.280   4.655
19871SOL    HW159571   6.995   3.299   4.724
19871SOL    HW259572   7.041   3.189   4.631
19872SOL     OW59573   7.225   3.656   4.287
19872SOL    HW159574   7.207   3.611   4.205
19872SOL    HW259575   7.223   3.587   4.354
19873SOL     OW59576   6.173   2.561   3.995
19873SOL    HW159577   6.177   2.649   3.957
19873SOL    HW259578   6.109   2.569   4.066
19874SOL     OW59579   6.869   2.255   4.665
19874SOL    HW159580   6.780   2.220   4.670
19874SOL    HW259581   6.920   2.197   4.721
19875SOL     OW59582   7.165   3.535   4.043
19875SOL    HW159583   7.259   3.550   4.032
19875SOL    HW259584   7.132   3.522   3.954
19876SOL     OW59585   6.376   2.475   5.156
19876SOL    HW159586   6.351   2.446   5.243
19876SOL    HW259587   6.351   2.402   5.099
19877SOL     OW59588   6.977   2.339   5.397
19877SOL    HW159589   6.982   2.382   5.483
19877SOL    HW259590   7.028   2.258   5.408
19878SOL     OW59591   6.529   2.743   5.315
19878SOL    HW159592   6.586   2.680   5.271
19878SOL    HW259593   6.482   2.786   5.245
19879SOL     OW59594   6.593   2.259   4.934
19879SOL    HW159595   6.501   2.273   4.956
19879SOL    HW259596   6.591   2.217   4.848
19880SOL     OW59597   6.644   2.558   4.143
19880SOL    HW159598   6.665   2.556   4.236
19880SOL    HW259599   6.559   2.514   4.136
19881SOL     OW59600   5.677   2.684   4.508
19881SOL    HW159601   5.760   2.681   4.557
19881SOL    HW259602   5.628   2.755   4.548
19882SOL     OW59603   5.697   3.747   5.314
19882SOL    HW159604   5.704   3.720   5.406
19882SOL    HW259605   5.607   3.726   5.290
19883SOL     OW59606   6.476   2.212   3.924
19883SOL    HW159607   6.526   2.267   3.864
19883SOL    HW259608   6.457   2.133   3.873
19884SOL     OW59609   7.271   2.425   5.564
19884SOL    HW159610   7.250   2.502   5.512
19884SOL    HW259611   7.301   2.360   5.500
19885SOL     OW59612   6.978   3.011   4.266
19885SOL    HW159613   7.058   3.001   4.214
19885SOL    HW259614   6.924   3.073   4.216
19886SOL     OW59615   6.136   2.023   4.639
19886SOL    HW159616   6.142   2.051   4.730
19886SOL    HW259617   6.133   2.104   4.588
19887SOL     OW59618   6.582   3.318   4.189
19887SOL    HW159619   6.558   3.392   4.133
19887SOL    HW259620   6.552   3.343   4.276
19888SOL     OW59621   5.939   3.679   4.602
19888SOL    HW159622   5.984   3.595   4.608
19888SOL    HW259623   6.005   3.744   4.625
19889SOL     OW59624   7.389   2.905   4.613
19889SOL    HW159625   7.342   2.890   4.531
19889SOL    HW259626   7.321   2.914   4.679
19890SOL     OW59627   6.805   3.408   5.242
19890SOL    HW159628   6.793   3.334   5.302
19890SOL    HW259629   6.731   3.402   5.182
19891SOL     OW59630   5.887   2.822   3.989
19891SOL    HW159631   5.969   2.844   3.946
19891SOL    HW259632   5.863   2.736   3.955
19892SOL     OW59633   7.070   2.625   4.434
19892SOL    HW159634   7.073   2.582   4.520
19892SOL    HW259635   7.150   2.679   4.432
19893SOL     OW59636   6.058   3.147   5.472
19893SOL    HW159637   6.035   3.150   5.379
19893SOL    HW259638   5.974   3.137   5.517
19894SOL     OW59639   6.726   3.638   3.950
19894SOL    HW159640   6.643   3.608   3.989
19894SOL    HW259641   6.746   3.573   3.883
19895SOL     OW59642   5.796   2.118   5.223
19895SOL    HW159643   5.728   2.181   5.246
19895SOL    HW259644   5.764   2.034   5.257
19896SOL     OW59645   7.224   3.250   3.824
19896SOL    HW159646   7.184   3.335   3.811
19896SOL    HW259647   7.157   3.187   3.797
19897SOL     OW59648   6.045   3.604   4.040
19897SOL    HW159649   6.093   3.655   4.104
19897SOL    HW259650   6.113   3.564   3.985
19898SOL     OW59651   6.983   1.967   4.183
19898SOL    HW159652   6.983   1.943   4.091
19898SOL    HW259653   7.074   1.957   4.210
19899SOL     OW59654   5.835   3.650   4.938
19899SOL    HW159655   5.885   3.573   4.968
19899SOL    HW259656   5.814   3.630   4.847
19900SOL     OW59657   6.534   3.565   4.614
19900SOL    HW159658   6.619   3.523   4.629
19900SOL    HW259659   6.495   3.515   4.543
19901SOL     OW59660   5.981   2.547   4.196
19901SOL    HW159661   5.993   2.453   4.209
19901SOL    HW259662   5.889   2.562   4.214
19902SOL     OW59663   7.094   2.085   5.441
19902SOL    HW159664   7.107   2.103   5.534
19902SOL    HW259665   7.028   2.016   5.439
19903SOL     OW59666   6.248   1.971   3.827
19903SOL    HW159667   6.297   1.892   3.851
19903SOL    HW259668   6.187   1.941   3.759
19904SOL     OW59669   6.344   2.136   5.476
19904SOL    HW159670   6.429   2.091   5.475
19904SOL    HW259671   6.298   2.099   5.551
19905SOL     OW59672   6.455   3.387   4.922
19905SOL    HW159673   6.437   3.347   4.837
19905SOL    HW259674   6.523   3.331   4.961
19906SOL     OW59675   6.915   2.453   5.156
19906SOL    HW159676   6.948   2.423   5.241
19906SOL    HW259677   6.954   2.540   5.145
19907SOL     OW59678   6.402   3.237   4.679
19907SOL    HW159679   6.490   3.233   4.640
19907SOL    HW259680   6.344   3.254   4.605
19908SOL     OW59681   6.516   2.376   4.612
19908SOL    HW159682   6.490   2.365   4.521
19908SOL    HW259683   6.544   2.289   4.640
19909SOL     OW59684   6.150   1.925   4.214
19909SOL    HW159685   6.072   1.925   4.270
19909SOL    HW259686   6.138   2.000   4.156
19910SOL     OW59687   7.019   3.075   3.756
19910SOL    HW159688   7.049   3.001   3.809
19910SOL    HW259689   6.934   3.098   3.792
19911SOL     OW59690   5.868   1.910   3.912
19911SOL    HW159691   5.920   1.977   3.869
19911SOL    HW259692   5.933   1.852   3.953
19912SOL     OW59693   6.537   2.111   4.175
19912SOL    HW159694   6.512   2.147   4.090
19912SOL    HW259695   6.631   2.129   4.181
19913SOL     OW59696   6.661   2.556   5.169
19913SOL    HW159697   6.598   2.484   5.173
19913SOL    HW259698   6.747   2.513   5.165
19914SOL     OW59699   6.792   3.449   4.526
19914SOL    HW159700   6.807   3.509   4.453
19914SOL    HW259701   6.863   3.470   4.588
19915SOL     OW59702   6.068   3.023   4.431
19915SOL    HW159703   6.005   2.999   4.499
19915SOL    HW259704   6.018   3.017   4.350
19916SOL     OW59705   6.838   3.654   4.341
19916SOL    HW159706   6.887   3.717   4.288
19916SOL    HW259707   6.767   3.705   4.380
19917SOL     OW59708   6.618   2.378   3.754
19917SOL    HW159709   6.575   2.461   3.735
19917SOL    HW259710   6.682   2.398   3.822
19918SOL     OW59711   5.686   2.414   5.117
19918SOL    HW159712   5.778   2.415   5.090
19918SOL    HW259713   5.678   2.483   5.182
19919SOL     OW59714   6.144   2.083   4.908
19919SOL    HW159715   6.182   2.020   4.970
19919SOL    HW259716   6.051   2.084   4.929
19920SOL     OW59717   6.455   2.315   4.354
19920SOL    HW159718   6.416   2.372   4.287
19920SOL    HW259719   6.480   2.236   4.306
19921SOL     OW59720   6.608   1.921   4.464
19921SOL    HW159721   6.547   1.916   4.391
19921SOL    HW259722   6.583   1.848   4.521
19922SOL     OW59723   7.021   3.016   4.578
19922SOL    HW159724   6.949   2.953   4.586
19922SOL    HW259725   7.036   3.023   4.484
19923SOL     OW59726   7.049   2.478   4.672
19923SOL    HW159727   6.985   2.408   4.683
19923SOL    HW259728   7.105   2.472   4.750
19924SOL     OW59729   7.415   2.658   4.111
19924SOL    HW159730   7.475   2.615   4.172
19924SOL    HW259731   7.401   2.594   4.041
19925SOL     OW59732   6.083   3.286   3.875
19925SOL    HW159733   6.008   3.255   3.926
19925SOL    HW259734   6.078   3.236   3.793
19926SOL     OW59735   7.292   3.133   4.359
19926SOL    HW159736   7.386   3.127   4.379
19926SOL    HW259737   7.269   3.222   4.384
19927SOL     OW59738   6.978   2.437   3.789
19927SOL    HW159739   6.923   2.411   3.862
19927SOL    HW259740   7.067   2.415   3.817
19928SOL     OW59741   6.113   2.119   4.026
19928SOL    HW159742   6.167   2.077   3.959
19928SOL    HW259743   6.081   2.199   3.985
19929SOL     OW59744   7.321   3.106   5.256
19929SOL    HW159745   7.409   3.072   5.242
19929SOL    HW259746   7.335   3.193   5.293
19930SOL     OW59747   6.626   3.213   5.055
19930SOL    HW159748   6.550   3.181   5.103
19930SOL    HW259749   6.701   3.171   5.098
19931SOL     OW59750   7.194   3.496   5.396
19931SOL    HW159751   7.183   3.533   5.309
19931SOL    HW259752   7.272   3.441   5.389
19932SOL     OW59753   6.737   3.098   4.828
19932SOL    HW159754   6.676   3.132   4.893
19932SOL    HW259755   6.704   3.131   4.744
19933SOL     OW59756   7.195   2.953   4.801
19933SOL    HW159757   7.187   3.020   4.869
19933SOL    HW259758   7.126   2.975   4.738
19934SOL     OW59759   6.505   1.943   5.107
19934SOL    HW159760   6.526   1.928   5.015
19934SOL    HW259761   6.584   1.984   5.143
19935SOL     OW59762   6.565   2.977   5.448
19935SOL    HW159763   6.475   2.994   5.475
19935SOL    HW259764   6.560   2.897   5.396
19936SOL     OW59765   6.300   2.924   4.100
19936SOL    HW159766   6.285   2.898   4.191
19936SOL    HW259767   6.374   2.871   4.072
19937SOL     OW59768   6.012   2.690   4.984
19937SOL    HW159769   6.080   2.700   5.050
19937SOL    HW259770   5.982   2.600   4.993
19938SOL     OW59771   6.850   2.229   5.016
19938SOL    HW159772   6.878   2.310   5.060
19938SOL    HW259773   6.761   2.248   4.986
19939SOL     OW59774   5.663   3.430   5.084
19939SOL    HW159775   5.632   3.503   5.031
19939SOL    HW259776   5.758   3.433   5.076
19940SOL     OW59777   5.904   2.997   4.209
19940SOL    HW159778   5.904   3.070   4.147
19940SOL    HW259779   5.901   2.919   4.154
19941SOL     OW59780   6.120   2.378   4.583
19941SOL    HW159781   6.132   2.436   4.508
19941SOL    HW259782   6.188   2.404   4.645
19942SOL     OW59783   6.832   3.216   4.122
19942SOL    HW159784   6.888   3.286   4.156
19942SOL    HW259785   6.744   3.240   4.152
19943SOL     OW59786   6.895   3.330   4.867
19943SOL    HW159787   6.942   3.337   4.950
19943SOL    HW259788   6.844   3.250   4.875
19944SOL     OW59789   7.161   2.479   4.210
19944SOL    HW159790   7.110   2.520   4.279
19944SOL    HW259791   7.210   2.551   4.170
19945SOL     OW59792   5.931   3.395   5.026
19945SOL    HW159793   5.924   3.342   4.946
19945SOL    HW259794   6.025   3.411   5.035
19946SOL     OW59795   6.024   2.603   5.346
19946SOL    HW159796   6.079   2.649   5.282
19946SOL    HW259797   6.074   2.524   5.367
19947SOL     OW59798   7.213   2.648   5.422
19947SOL    HW159799   7.126   2.686   5.413
19947SOL    HW259800   7.264   2.686   5.350
19948SOL     OW59801   6.581   2.003   5.484
19948SOL    HW159802   6.639   2.076   5.464
19948SOL    HW259803   6.631   1.925   5.461
19949SOL     OW59804   6.082   1.896   5.486
19949SOL    HW159805   6.027   1.847   5.425
19949SOL    HW259806   6.030   1.974   5.508
19950SOL     OW59807   6.177   2.737   4.763
19950SOL    HW159808   6.215   2.825   4.766
19950SOL    HW259809   6.119   2.734   4.839
19951SOL     OW59810   6.895   2.714   4.728
19951SOL    HW159811   6.807   2.687   4.701
19951SOL    HW259812   6.950   2.638   4.708
19952SOL     OW59813   6.785   2.385   3.981
19952SOL    HW159814   6.795   2.308   4.038
19952SOL    HW259815   6.744   2.450   4.037
19953SOL     OW59816   5.876   2.055   4.963
19953SOL    HW159817   5.843   2.084   5.048
19953SOL    HW259818   5.859   1.961   4.962
19954SOL     OW59819   5.628   3.173   4.995
19954SOL    HW159820   5.663   3.119   5.066
19954SOL    HW259821   5.635   3.263   5.026
19955SOL     OW59822   6.297   2.484   4.763
19955SOL    HW159823   6.375   2.478   4.708
19955SOL    HW259824   6.268   2.575   4.754
19956SOL     OW59825   7.337   2.829   5.594
19956SOL    HW159826   7.297   2.757   5.545
19956SOL    HW259827   7.274   2.850   5.662
19957SOL     OW59828   5.911   1.920   4.354
19957SOL    HW159829   5.878   2.008   4.371
19957SOL    HW259830   5.916   1.879   4.440
19958SOL     OW59831   7.217   2.252   4.068
19958SOL    HW159832   7.249   2.187   4.130
19958SOL    HW259833   7.188   2.325   4.122
19959SOL     OW59834   6.620   2.620   4.679
19959SOL    HW159835   6.599   2.635   4.771
19959SOL    HW259836   6.590   2.531   4.662
19960SOL     OW59837   6.566   3.427   5.458
19960SOL    HW159838   6.546   3.470   5.375
19960SOL    HW259839   6.606   3.343   5.432
19961SOL     OW59840   7.424   3.356   5.326
19961SOL    HW159841   7.451   3.385   5.238
19961SOL    HW259842   7.503   3.367   5.379
19962SOL     OW59843   5.935   2.777   5.541
19962SOL    HW159844   6.012   2.798   5.594
19962SOL    HW259845   5.968   2.714   5.476
19963SOL     OW59846   7.108   2.130   3.843
19963SOL    HW159847   7.055   2.059   3.881
19963SOL    HW259848   7.147   2.174   3.918
19964SOL     OW59849   6.867   2.683   3.743
19964SOL    HW159850   6.907   2.597   3.750
19964SOL    HW259851   6.903   2.720   3.662
19965SOL     OW59852   6.657   3.215   4.590
19965SOL    HW159853   6.668   3.143   4.528
19965SOL    HW259854   6.709   3.287   4.553
19966SOL     OW59855   5.904   2.678   4.668
19966SOL    HW159856   5.999   2.693   4.666
19966SOL    HW259857   5.895   2.588   4.699
19967SOL     OW59858   5.899   2.400   4.736
19967SOL    HW159859   5.860   2.313   4.725
19967SOL    HW259860   5.977   2.398   4.679
19968SOL     OW59861   6.724   2.229   5.410
19968SOL    HW159862   6.679   2.281   5.477
19968SOL    HW259863   6.809   2.272   5.401
19969SOL     OW59864   6.742   2.051   5.199
19969SOL    HW159865   6.730   2.114   5.271
19969SOL    HW259866   6.788   2.101   5.131
19970SOL     OW59867   5.610   3.164   3.903
19970SOL    HW159868   5.520   3.186   3.877
19970SOL    HW259869   5.603   3.078   3.944
19971SOL     OW59870   5.679   3.633   4.678
19971SOL    HW159871   5.645   3.560   4.626
19971SOL    HW259872   5.764   3.653   4.640
19972SOL     OW59873   6.071   3.432   4.626
19972SOL    HW159874   6.141   3.494   4.647
19972SOL    HW259875   6.111   3.370   4.564
19973SOL     OW59876   6.535   2.642   4.938
19973SOL    HW159877   6.597   2.631   5.010
19973SOL    HW259878   6.456   2.598   4.968
19974SOL     OW59879   5.625   2.429   4.846
19974SOL    HW159880   5.706   2.429   4.795
19974SOL    HW259881   5.654   2.425   4.937
19975SOL     OW59882   5.775   2.403   5.467
19975SOL    HW159883   5.855   2.380   5.419
19975SOL    HW259884   5.738   2.476   5.417
19976SOL     OW59885   6.978   2.783   5.375
19976SOL    HW159886   6.995   2.877   5.370
19976SOL    HW259887   6.970   2.755   5.284
19977SOL     OW59888   6.404   2.430   4.096
19977SOL    HW159889   6.412   2.356   4.036
19977SOL    HW259890   6.327   2.478   4.065
19978SOL     OW59891   7.221   2.463   4.887
19978SOL    HW159892   7.211   2.405   4.962
19978SOL    HW259893   7.312   2.452   4.859
19979SOL     OW59894   5.813   3.403   5.440
19979SOL    HW159895   5.794   3.463   5.512
19979SOL    HW259896   5.822   3.317   5.481
19980SOL     OW59897   6.319   2.295   4.958
19980SOL    HW159898   6.255   2.226   4.943
19980SOL    HW259899   6.302   2.360   4.889
19981SOL     OW59900   6.501   3.536   5.206
19981SOL    HW159901   6.473   3.491   5.126
19981SOL    HW259902   6.500   3.629   5.183
19982SOL     OW59903   6.029   2.343   3.888
19982SOL    HW159904   6.093   2.409   3.913
19982SOL    HW259905   5.945   2.388   3.892
19983SOL     OW59906   5.717   3.013   5.206
19983SOL    HW159907   5.722   2.973   5.293
19983SOL    HW259908   5.738   2.941   5.146
19984SOL     OW59909   6.890   2.895   4.932
19984SOL    HW159910   6.899   2.831   4.862
19984SOL    HW259911   6.836   2.965   4.895
19985SOL     OW59912   6.913   2.722   4.015
19985SOL    HW159913   6.842   2.688   4.069
19985SOL    HW259914   6.883   2.707   3.925
19986SOL     OW59915   7.373   3.586   4.895
19986SOL    HW159916   7.434   3.612   4.826
19986SOL    HW259917   7.341   3.500   4.867
19987SOL     OW59918   6.826   3.594   4.812
19987SOL    HW159919   6.911   3.624   4.780
19987SOL    HW259920   6.842   3.503   4.838
19988SOL     OW59921   5.694   3.103   4.740
19988SOL    HW159922   5.663   3.127   4.828
19988SOL    HW259923   5.621   3.055   4.702
19989SOL     OW59924   6.271   3.546   5.474
19989SOL    HW159925   6.206   3.615   5.463
19989SOL    HW259926   6.343   3.571   5.415
19990SOL     OW59927   7.329   2.046   4.220
19990SOL    HW159928   7.389   2.026   4.148
19990SOL    HW259929   7.303   1.960   4.254
19991SOL     OW59930   6.982   3.432   4.227
19991SOL    HW159931   7.037   3.467   4.157
19991SOL    HW259932   6.928   3.506   4.253
19992SOL     OW59933   5.726   3.656   5.566
19992SOL    HW159934   5.681   3.585   5.611
19992SOL    HW259935   5.773   3.702   5.636
19993SOL     OW59936   6.865   2.797   4.387
19993SOL    HW159937   6.939   2.738   4.400
19993SOL    HW259938   6.901   2.869   4.335
19994SOL     OW59939   6.369   3.142   5.141
19994SOL    HW159940   6.344   3.190   5.220
19994SOL    HW259941   6.295   3.154   5.081
19995SOL     OW59942   6.254   3.497   3.884
19995SOL    HW159943   6.267   3.511   3.790
19995SOL    HW259944   6.201   3.417   3.888
19996SOL     OW59945   7.202   3.592   5.126
19996SOL    HW159946   7.259   3.592   5.049
19996SOL    HW259947   7.187   3.684   5.145
19997SOL     OW59948   7.431   2.022   4.689
19997SOL    HW159949   7.459   1.933   4.667
19997SOL    HW259950   7.343   2.029   4.650
19998SOL     OW59951   5.830   2.167   4.432
19998SOL    HW159952   5.745   2.204   4.410
19998SOL    HW259953   5.834   2.170   4.528
19999SOL     OW59954   6.796   3.451   3.761
19999SOL    HW159955   6.785   3.360   3.789
19999SOL    HW259956   6.726   3.465   3.697
20000SOL     OW59957   6.409   2.874   5.108
20000SOL    HW159958   6.446   2.867   5.019
20000SOL    HW259959   6.398   2.968   5.121
20001SOL     OW59960   6.505   2.771   4.019
20001SOL    HW159961   6.561   2.804   3.949
20001SOL    HW259962   6.558   2.704   4.063
20002SOL     OW59963   7.070   3.505   3.782
20002SOL    HW159964   6.978   3.486   3.765
20002SOL    HW259965   7.110   3.509   3.695
20003SOL     OW59966   5.951   3.173   5.224
20003SOL    HW159967   5.943   3.248   5.165
20003SOL    HW259968   5.872   3.122   5.209
20004SOL     OW59969   7.185   3.152   5.000
20004SOL    HW159970   7.240   3.128   5.075
20004SOL    HW259971   7.126   3.219   5.034
20005SOL     OW59972   6.664   2.981   4.453
20005SOL    HW159973   6.588   2.932   4.484
20005SOL    HW259974   6.725   2.914   4.423
20006SOL     OW59975   6.620   2.112   4.684
20006SOL    HW159976   6.619   2.069   4.599
20006SOL    HW259977   6.613   2.040   4.747
20007SOL     OW59978   6.191   3.349   4.200
20007SOL    HW159979   6.245   3.299   4.138
20007SOL    HW259980   6.110   3.368   4.153
20008SOL     OW59981   7.332   2.243   5.113
20008SOL    HW159982   7.402   2.308   5.109
20008SOL    HW259983   7.358   2.175   5.052
20009SOL     OW59984   5.864   3.205   4.024
20009SOL    HW159985   5.777   3.197   3.984
20009SOL    HW259986   5.849   3.252   4.106
20010SOL     OW59987   5.708   2.910   5.462
20010SOL    HW159988   5.631   2.881   5.510
20010SOL    HW259989   5.780   2.858   5.498
20011SOL     OW59990   6.265   2.050   5.219
20011SOL    HW159991   6.349   2.025   5.181
20011SOL    HW259992   6.288   2.084   5.306
20012SOL     OW59993   5.672   2.180   3.736
20012SOL    HW159994   5.595   2.160   3.683
20012SOL    HW259995   5.701   2.266   3.706
20013SOL     OW59996   7.001   2.715   5.112
20013SOL    HW159997   6.948   2.774   5.057
20013SOL    HW259998   7.089   2.720   5.074
20014SOL     OW59999   5.629   2.011   3.996
20014SOL    HW160000   5.616   2.081   3.931
20014SOL    HW260001   5.718   1.979   3.979
20015SOL     OW60002   6.767   3.185   3.846
20015SOL    HW160003   6.675   3.159   3.845
20015SOL    HW260004   6.790   3.188   3.939
20016SOL     OW60005   6.212   2.694   5.165
20016SOL    HW160006   6.270   2.769   5.153
20016SOL    HW260007   6.270   2.618   5.164
20017SOL     OW60008   7.073   3.664   4.716
20017SOL    HW160009   7.098   3.739   4.662
20017SOL    HW260010   7.156   3.622   4.738
20018SOL     OW60011   6.305   2.412   5.411
20018SOL    HW160012   6.354   2.466   5.473
20018SOL    HW260013   6.318   2.322   5.443
20019SOL     OW60014   7.055   3.046   5.343
20019SOL    HW160015   7.047   3.069   5.436
20019SOL    HW260016   7.144   3.070   5.319
20020SOL     OW60017   5.939   3.611   5.299
20020SOL    HW160018   5.858   3.659   5.282
20020SOL    HW260019   5.911   3.527   5.334
20021SOL     OW60020   7.241   2.738   4.977
20021SOL    HW160021   7.239   2.654   4.930
20021SOL    HW260022   7.229   2.804   4.909
20022SOL     OW60023   6.806   2.184   4.180
20022SOL    HW160024   6.866   2.110   4.179
20022SOL    HW260025   6.834   2.236   4.255
20023SOL     OW60026   6.162   2.587   4.405
20023SOL    HW160027   6.206   2.671   4.391
20023SOL    HW260028   6.101   2.579   4.331
20024SOL     OW60029   7.334   2.216   5.389
20024SOL    HW160030   7.331   2.233   5.295
20024SOL    HW260031   7.256   2.164   5.407
20025SOL     OW60032   7.346   2.787   5.228
20025SOL    HW160033   7.329   2.880   5.241
20025SOL    HW260034   7.319   2.770   5.137
20026SOL     OW60035   6.460   3.219   3.788
20026SOL    HW160036   6.420   3.236   3.874
20026SOL    HW260037   6.467   3.305   3.747
20027SOL     OW60038   6.254   3.629   4.648
20027SOL    HW160039   6.233   3.722   4.641
20027SOL    HW260040   6.349   3.626   4.648
20028SOL     OW60041   6.459   2.840   4.579
20028SOL    HW160042   6.508   2.766   4.615
20028SOL    HW260043   6.413   2.877   4.655
20029SOL     OW60044   6.656   2.843   3.810
20029SOL    HW160045   6.637   2.899   3.735
20029SOL    HW260046   6.731   2.790   3.781
20030SOL     OW60047   7.414   3.421   4.565
20030SOL    HW160048   7.338   3.412   4.507
20030SOL    HW260049   7.390   3.371   4.643
20031SOL     OW60050   5.798   3.151   5.562
20031SOL    HW160051   5.766   3.071   5.519
20031SOL    HW260052   5.739   3.163   5.636
20032SOL     OW60053   5.699   3.078   4.392
20032SOL    HW160054   5.735   3.037   4.470
20032SOL    HW260055   5.759   3.052   4.322
20033SOL     OW60056   6.277   3.281   5.361
20033SOL    HW160057   6.198   3.243   5.400
20033SOL    HW260058   6.281   3.370   5.395
20034SOL     OW60059   7.396   2.032   4.959
20034SOL    HW160060   7.398   1.937   4.971
20034SOL    HW260061   7.410   2.045   4.865
20035SOL     OW60062   6.004   2.284   4.242
20035SOL    HW160063   6.038   2.214   4.187
20035SOL    HW260064   5.953   2.240   4.309
20036SOL     OW60065   7.283   3.342   4.805
20036SOL    HW160066   7.204   3.323   4.754
20036SOL    HW260067   7.284   3.274   4.873
20037SOL     OW60068   5.938   2.428   5.016
20037SOL    HW160069   5.988   2.363   5.066
20037SOL    HW260070   5.945   2.399   4.925
20038SOL     OW60071   6.425   3.450   4.392
20038SOL    HW160072   6.398   3.523   4.337
20038SOL    HW260073   6.348   3.394   4.398
20039SOL     OW60074   7.008   2.095   4.839
20039SOL    HW160075   7.018   2.006   4.873
20039SOL    HW260076   6.961   2.142   4.909
20040SOL     OW60077   6.596   1.879   4.843
20040SOL    HW160078   6.543   1.816   4.794
20040SOL    HW260079   6.683   1.839   4.847
20041SOL     OW60080   6.366   3.194   4.052
20041SOL    HW160081   6.342   3.102   4.065
20041SOL    HW260082   6.445   3.206   4.104
20042SOL     OW60083   6.203   3.429   5.014
20042SOL    HW160084   6.199   3.512   5.062
20042SOL    HW260085   6.292   3.425   4.979
20043SOL     OW60086   6.966   1.900   3.916
20043SOL    HW160087   7.006   1.828   3.868
20043SOL    HW260088   6.875   1.874   3.927
20044SOL     OW60089   6.883   2.333   4.398
20044SOL    HW160090   6.832   2.414   4.396
20044SOL    HW260091   6.877   2.304   4.489
20045SOL     OW60092   7.168   2.050   4.617
20045SOL    HW160093   7.116   2.080   4.692
20045SOL    HW260094   7.168   2.124   4.557
20046SOL     OW60095   5.623   2.914   4.033
20046SOL    HW160096   5.716   2.902   4.015
20046SOL    HW260097   5.591   2.826   4.053
20047SOL     OW60098   6.481   3.538   4.052
20047SOL    HW160099   6.402   3.521   4.000
20047SOL    HW260100   6.455   3.605   4.115
20048SOL     OW60101   5.794   2.482   5.735
20048SOL    HW160102   5.705   2.470   5.770
20048SOL    HW260103   5.783   2.471   5.640
20049SOL     OW60104   5.805   2.150   6.576
20049SOL    HW160105   5.835   2.115   6.659
20049SOL    HW260106   5.717   2.113   6.564
20050SOL     OW60107   5.573   2.257   6.232
20050SOL    HW160108   5.493   2.283   6.279
20050SOL    HW260109   5.545   2.183   6.177
20051SOL     OW60110   6.161   3.170   6.795
20051SOL    HW160111   6.079   3.173   6.746
20051SOL    HW260112   6.178   3.261   6.819
20052SOL     OW60113   7.174   3.386   6.290
20052SOL    HW160114   7.127   3.355   6.367
20052SOL    HW260115   7.107   3.390   6.221
20053SOL     OW60116   6.723   2.567   6.273
20053SOL    HW160117   6.770   2.649   6.261
20053SOL    HW260118   6.675   2.578   6.354
20054SOL     OW60119   7.387   2.443   5.806
20054SOL    HW160120   7.348   2.443   5.718
20054SOL    HW260121   7.342   2.371   5.851
20055SOL     OW60122   6.313   2.992   6.643
20055SOL    HW160123   6.255   3.032   6.708
20055SOL    HW260124   6.354   3.066   6.598
20056SOL     OW60125   6.474   2.604   7.413
20056SOL    HW160126   6.468   2.671   7.480
20056SOL    HW260127   6.490   2.652   7.332
20057SOL     OW60128   6.271   2.846   6.231
20057SOL    HW160129   6.338   2.847   6.299
20057SOL    HW260130   6.205   2.908   6.262
20058SOL     OW60131   6.298   3.013   7.420
20058SOL    HW160132   6.350   3.085   7.455
20058SOL    HW260133   6.223   3.055   7.379
20059SOL     OW60134   5.929   3.259   6.656
20059SOL    HW160135   5.853   3.216   6.615
20059SOL    HW260136   5.965   3.314   6.586
20060SOL     OW60137   7.040   3.368   6.958
20060SOL    HW160138   7.095   3.445   6.971
20060SOL    HW260139   6.968   3.379   7.020
20061SOL     OW60140   6.044   2.236   7.041
20061SOL    HW160141   6.119   2.178   7.057
20061SOL    HW260142   5.968   2.185   7.068
20062SOL     OW60143   7.171   2.294   6.341
20062SOL    HW160144   7.105   2.305   6.272
20062SOL    HW260145   7.152   2.364   6.403
20063SOL     OW60146   5.805   3.589   6.050
20063SOL    HW160147   5.832   3.660   6.109
20063SOL    HW260148   5.878   3.580   5.989
20064SOL     OW60149   6.721   3.203   7.282
20064SOL    HW160150   6.767   3.192   7.365
20064SOL    HW260151   6.668   3.124   7.273
20065SOL     OW60152   5.816   3.320   6.119
20065SOL    HW160153   5.799   3.414   6.120
20065SOL    HW260154   5.766   3.286   6.194
20066SOL     OW60155   5.868   2.951   6.463
20066SOL    HW160156   5.870   2.862   6.497
20066SOL    HW260157   5.813   2.999   6.524
20067SOL     OW60158   6.161   3.664   7.008
20067SOL    HW160159   6.083   3.646   7.062
20067SOL    HW260160   6.193   3.748   7.041
20068SOL     OW60161   6.151   2.851   5.738
20068SOL    HW160162   6.202   2.893   5.669
20068SOL    HW260163   6.192   2.879   5.819
20069SOL     OW60164   7.177   1.994   7.046
20069SOL    HW160165   7.217   2.070   7.003
20069SOL    HW260166   7.146   2.028   7.130
20070SOL     OW60167   5.704   2.521   6.153
20070SOL    HW160168   5.673   2.434   6.177
20070SOL    HW260169   5.698   2.572   6.234
20071SOL     OW60170   7.432   3.605   5.904
20071SOL    HW160171   7.505   3.590   5.965
20071SOL    HW260172   7.439   3.698   5.881
20072SOL     OW60173   5.638   3.441   5.701
20072SOL    HW160174   5.619   3.349   5.722
20072SOL    HW260175   5.608   3.489   5.778
20073SOL     OW60176   7.283   2.788   6.238
20073SOL    HW160177   7.365   2.743   6.214
20073SOL    HW260178   7.261   2.840   6.161
20074SOL     OW60179   7.242   2.967   6.019
20074SOL    HW160180   7.327   2.960   5.975
20074SOL    HW260181   7.256   3.032   6.088
20075SOL     OW60182   5.706   2.612   7.164
20075SOL    HW160183   5.791   2.656   7.167
20075SOL    HW260184   5.643   2.682   7.149
20076SOL     OW60185   6.206   3.259   6.319
20076SOL    HW160186   6.165   3.173   6.322
20076SOL    HW260187   6.193   3.288   6.229
20077SOL     OW60188   6.856   3.087   7.003
20077SOL    HW160189   6.883   3.018   6.943
20077SOL    HW260190   6.919   3.082   7.076
20078SOL     OW60191   6.417   1.873   6.105
20078SOL    HW160192   6.457   1.955   6.077
20078SOL    HW260193   6.323   1.891   6.105
20079SOL     OW60194   5.773   2.818   6.888
20079SOL    HW160195   5.860   2.783   6.872
20079SOL    HW260196   5.720   2.786   6.815
20080SOL     OW60197   7.121   2.877   5.785
20080SOL    HW160198   7.052   2.817   5.815
20080SOL    HW260199   7.163   2.908   5.866
20081SOL     OW60200   6.764   3.683   7.223
20081SOL    HW160201   6.765   3.746   7.150
20081SOL    HW260202   6.781   3.599   7.181
20082SOL     OW60203   5.946   2.115   7.461
20082SOL    HW160204   5.981   2.195   7.499
20082SOL    HW260205   5.851   2.130   7.458
20083SOL     OW60206   7.058   3.281   6.516
20083SOL    HW160207   6.994   3.299   6.585
20083SOL    HW260208   7.041   3.190   6.492
20084SOL     OW60209   7.225   3.656   6.149
20084SOL    HW160210   7.207   3.611   6.067
20084SOL    HW260211   7.224   3.587   6.215
20085SOL     OW60212   6.173   2.561   5.857
20085SOL    HW160213   6.178   2.648   5.819
20085SOL    HW260214   6.109   2.569   5.927
20086SOL     OW60215   6.868   2.256   6.527
20086SOL    HW160216   6.780   2.220   6.532
20086SOL    HW260217   6.920   2.197   6.582
20087SOL     OW60218   7.165   3.535   5.905
20087SOL    HW160219   7.259   3.550   5.894
20087SOL    HW260220   7.132   3.522   5.816
20088SOL     OW60221   6.376   2.475   7.017
20088SOL    HW160222   6.352   2.446   7.105
20088SOL    HW260223   6.351   2.402   6.960
20089SOL     OW60224   6.977   2.339   7.259
20089SOL    HW160225   6.982   2.382   7.345
20089SOL    HW260226   7.028   2.258   7.270
20090SOL     OW60227   6.530   2.743   7.178
20090SOL    HW160228   6.586   2.679   7.134
20090SOL    HW260229   6.482   2.785   7.107
20091SOL     OW60230   6.593   2.259   6.796
20091SOL    HW160231   6.501   2.273   6.818
20091SOL    HW260232   6.591   2.217   6.710
20092SOL     OW60233   6.644   2.558   6.005
20092SOL    HW160234   6.665   2.556   6.098
20092SOL    HW260235   6.560   2.514   5.998
20093SOL     OW60236   5.678   2.687   6.369
20093SOL    HW160237   5.760   2.682   6.417
20093SOL    HW260238   5.630   2.758   6.411
20094SOL     OW60239   5.695   3.742   7.174
20094SOL    HW160240   5.702   3.721   7.267
20094SOL    HW260241   5.609   3.709   7.148
20095SOL     OW60242   6.477   2.212   5.785
20095SOL    HW160243   6.527   2.268   5.726
20095SOL    HW260244   6.460   2.132   5.735
20096SOL     OW60245   7.271   2.425   7.426
20096SOL    HW160246   7.250   2.502   7.374
20096SOL    HW260247   7.301   2.360   7.362
20097SOL     OW60248   6.978   3.011   6.127
20097SOL    HW160249   7.057   3.000   6.075
20097SOL    HW260250   6.924   3.072   6.077
20098SOL     OW60251   6.137   2.023   6.501
20098SOL    HW160252   6.143   2.051   6.593
20098SOL    HW260253   6.133   2.104   6.451
20099SOL     OW60254   6.583   3.318   6.050
20099SOL    HW160255   6.558   3.392   5.995
20099SOL    HW260256   6.553   3.343   6.138
20100SOL     OW60257   5.939   3.678   6.468
20100SOL    HW160258   5.986   3.594   6.472
20100SOL    HW260259   6.006   3.743   6.488
20101SOL     OW60260   7.390   2.905   6.475
20101SOL    HW160261   7.342   2.890   6.394
20101SOL    HW260262   7.321   2.914   6.542
20102SOL     OW60263   6.804   3.405   7.103
20102SOL    HW160264   6.792   3.334   7.165
20102SOL    HW260265   6.736   3.390   7.036
20103SOL     OW60266   5.886   2.821   5.851
20103SOL    HW160267   5.969   2.844   5.808
20103SOL    HW260268   5.864   2.735   5.816
20104SOL     OW60269   7.070   2.625   6.297
20104SOL    HW160270   7.073   2.582   6.382
20104SOL    HW260271   7.150   2.679   6.295
20105SOL     OW60272   6.058   3.147   7.335
20105SOL    HW160273   6.034   3.151   7.242
20105SOL    HW260274   5.975   3.135   7.380
20106SOL     OW60275   6.726   3.636   5.814
20106SOL    HW160276   6.643   3.606   5.851
20106SOL    HW260277   6.746   3.572   5.746
20107SOL     OW60278   5.795   2.118   7.084
20107SOL    HW160279   5.723   2.179   7.102
20107SOL    HW260280   5.764   2.034   7.118
20108SOL     OW60281   7.224   3.250   5.687
20108SOL    HW160282   7.184   3.335   5.674
20108SOL    HW260283   7.157   3.187   5.659
20109SOL     OW60284   6.046   3.603   5.901
20109SOL    HW160285   6.094   3.656   5.965
20109SOL    HW260286   6.113   3.564   5.845
20110SOL     OW60287   6.983   1.967   6.045
20110SOL    HW160288   6.983   1.943   5.953
20110SOL    HW260289   7.074   1.957   6.072
20111SOL     OW60290   5.837   3.649   6.801
20111SOL    HW160291   5.886   3.575   6.834
20111SOL    HW260292   5.824   3.630   6.708
20112SOL     OW60293   6.534   3.565   6.476
20112SOL    HW160294   6.619   3.523   6.489
20112SOL    HW260295   6.494   3.515   6.404
20113SOL     OW60296   5.981   2.548   6.058
20113SOL    HW160297   5.993   2.453   6.071
20113SOL    HW260298   5.888   2.563   6.075
20114SOL     OW60299   7.094   2.085   7.303
20114SOL    HW160300   7.106   2.103   7.396
20114SOL    HW260301   7.028   2.015   7.301
20115SOL     OW60302   6.248   1.971   5.689
20115SOL    HW160303   6.297   1.893   5.714
20115SOL    HW260304   6.188   1.941   5.621
20116SOL     OW60305   6.345   2.135   7.338
20116SOL    HW160306   6.429   2.090   7.337
20116SOL    HW260307   6.298   2.096   7.412
20117SOL     OW60308   6.454   3.388   6.785
20117SOL    HW160309   6.437   3.347   6.700
20117SOL    HW260310   6.522   3.333   6.824
20118SOL     OW60311   6.915   2.454   7.018
20118SOL    HW160312   6.948   2.423   7.103
20118SOL    HW260313   6.954   2.540   7.007
20119SOL     OW60314   6.401   3.238   6.541
20119SOL    HW160315   6.489   3.234   6.503
20119SOL    HW260316   6.343   3.254   6.467
20120SOL     OW60317   6.516   2.377   6.474
20120SOL    HW160318   6.490   2.365   6.382
20120SOL    HW260319   6.544   2.289   6.502
20121SOL     OW60320   6.149   1.925   6.076
20121SOL    HW160321   6.072   1.925   6.132
20121SOL    HW260322   6.138   2.000   6.018
20122SOL     OW60323   7.020   3.075   5.618
20122SOL    HW160324   7.049   3.001   5.671
20122SOL    HW260325   6.934   3.098   5.654
20123SOL     OW60326   5.868   1.909   5.774
20123SOL    HW160327   5.920   1.977   5.731
20123SOL    HW260328   5.932   1.852   5.816
20124SOL     OW60329   6.537   2.112   6.037
20124SOL    HW160330   6.512   2.148   5.952
20124SOL    HW260331   6.631   2.129   6.043
20125SOL     OW60332   6.661   2.555   7.031
20125SOL    HW160333   6.599   2.483   7.035
20125SOL    HW260334   6.747   2.513   7.027
20126SOL     OW60335   6.791   3.450   6.389
20126SOL    HW160336   6.806   3.510   6.316
20126SOL    HW260337   6.864   3.467   6.449
20127SOL     OW60338   6.067   3.022   6.293
20127SOL    HW160339   6.004   2.998   6.362
20127SOL    HW260340   6.018   3.016   6.212
20128SOL     OW60341   6.837   3.654   6.204
20128SOL    HW160342   6.887   3.717   6.151
20128SOL    HW260343   6.767   3.706   6.242
20129SOL     OW60344   6.617   2.378   5.616
20129SOL    HW160345   6.575   2.462   5.596
20129SOL    HW260346   6.682   2.399   5.683
20130SOL     OW60347   5.686   2.413   6.978
20130SOL    HW160348   5.778   2.415   6.951
20130SOL    HW260349   5.678   2.482   7.043
20131SOL     OW60350   6.145   2.083   6.771
20131SOL    HW160351   6.182   2.019   6.832
20131SOL    HW260352   6.051   2.084   6.791
20132SOL     OW60353   6.455   2.316   6.216
20132SOL    HW160354   6.416   2.372   6.149
20132SOL    HW260355   6.481   2.236   6.169
20133SOL     OW60356   6.608   1.921   6.326
20133SOL    HW160357   6.547   1.915   6.252
20133SOL    HW260358   6.583   1.848   6.383
20134SOL     OW60359   7.022   3.016   6.440
20134SOL    HW160360   6.950   2.953   6.446
20134SOL    HW260361   7.039   3.023   6.346
20135SOL     OW60362   7.049   2.478   6.534
20135SOL    HW160363   6.985   2.408   6.545
20135SOL    HW260364   7.105   2.472   6.612
20136SOL     OW60365   7.414   2.658   5.974
20136SOL    HW160366   7.475   2.614   6.034
20136SOL    HW260367   7.401   2.594   5.903
20137SOL     OW60368   6.084   3.285   5.736
20137SOL    HW160369   6.009   3.254   5.787
20137SOL    HW260370   6.079   3.237   5.653
20138SOL     OW60371   7.292   3.132   6.222
20138SOL    HW160372   7.386   3.125   6.242
20138SOL    HW260373   7.269   3.222   6.246
20139SOL     OW60374   6.978   2.437   5.651
20139SOL    HW160375   6.923   2.411   5.724
20139SOL    HW260376   7.067   2.415   5.678
20140SOL     OW60377   6.113   2.119   5.888
20140SOL    HW160378   6.167   2.077   5.821
20140SOL    HW260379   6.081   2.199   5.847
20141SOL     OW60380   7.321   3.106   7.118
20141SOL    HW160381   7.409   3.072   7.105
20141SOL    HW260382   7.335   3.194   7.155
20142SOL     OW60383   6.628   3.217   6.921
20142SOL    HW160384   6.551   3.183   6.966
20142SOL    HW260385   6.702   3.171   6.962
20143SOL     OW60386   7.194   3.496   7.258
20143SOL    HW160387   7.182   3.533   7.171
20143SOL    HW260388   7.272   3.441   7.251
20144SOL     OW60389   6.737   3.100   6.691
20144SOL    HW160390   6.675   3.134   6.756
20144SOL    HW260391   6.704   3.132   6.607
20145SOL     OW60392   7.195   2.953   6.662
20145SOL    HW160393   7.187   3.020   6.731
20145SOL    HW260394   7.126   2.974   6.600
20146SOL     OW60395   6.505   1.943   6.969
20146SOL    HW160396   6.526   1.928   6.877
20146SOL    HW260397   6.583   1.984   7.005
20147SOL     OW60398   6.565   2.977   7.310
20147SOL    HW160399   6.475   2.994   7.337
20147SOL    HW260400   6.560   2.897   7.258
20148SOL     OW60401   6.299   2.923   5.963
20148SOL    HW160402   6.284   2.897   6.054
20148SOL    HW260403   6.374   2.871   5.935
20149SOL     OW60404   6.012   2.690   6.846
20149SOL    HW160405   6.080   2.700   6.912
20149SOL    HW260406   5.982   2.600   6.855
20150SOL     OW60407   6.850   2.229   6.878
20150SOL    HW160408   6.878   2.310   6.922
20150SOL    HW260409   6.761   2.248   6.848
20151SOL     OW60410   5.664   3.431   6.948
20151SOL    HW160411   5.634   3.503   6.892
20151SOL    HW260412   5.759   3.431   6.938
20152SOL     OW60413   5.903   2.997   6.071
20152SOL    HW160414   5.904   3.069   6.009
20152SOL    HW260415   5.901   2.918   6.017
20153SOL     OW60416   6.120   2.378   6.445
20153SOL    HW160417   6.132   2.437   6.370
20153SOL    HW260418   6.188   2.404   6.507
20154SOL     OW60419   6.832   3.216   5.984
20154SOL    HW160420   6.888   3.286   6.017
20154SOL    HW260421   6.744   3.240   6.014
20155SOL     OW60422   6.895   3.330   6.729
20155SOL    HW160423   6.943   3.337   6.812
20155SOL    HW260424   6.845   3.250   6.736
20156SOL     OW60425   7.161   2.479   6.073
20156SOL    HW160426   7.110   2.521   6.142
20156SOL    HW260427   7.210   2.550   6.033
20157SOL     OW60428   5.931   3.394   6.888
20157SOL    HW160429   5.924   3.342   6.808
20157SOL    HW260430   6.025   3.411   6.898
20158SOL     OW60431   6.019   2.608   7.205
20158SOL    HW160432   6.077   2.652   7.142
20158SOL    HW260433   6.063   2.525   7.225
20159SOL     OW60434   7.213   2.648   7.284
20159SOL    HW160435   7.126   2.687   7.275
20159SOL    HW260436   7.264   2.686   7.212
20160SOL     OW60437   6.581   2.002   7.344
20160SOL    HW160438   6.640   2.076   7.325
20160SOL    HW260439   6.632   1.925   7.322
20161SOL     OW60440   6.081   1.897   7.349
20161SOL    HW160441   6.026   1.847   7.288
20161SOL    HW260442   6.029   1.974   7.370
20162SOL     OW60443   6.177   2.737   6.625
20162SOL    HW160444   6.215   2.825   6.628
20162SOL    HW260445   6.119   2.733   6.701
20163SOL     OW60446   6.895   2.714   6.590
20163SOL    HW160447   6.807   2.687   6.564
20163SOL    HW260448   6.950   2.638   6.570
20164SOL     OW60449   6.785   2.384   5.843
20164SOL    HW160450   6.795   2.308   5.900
20164SOL    HW260451   6.744   2.450   5.899
20165SOL     OW60452   5.877   2.055   6.825
20165SOL    HW160453   5.843   2.084   6.909
20165SOL    HW260454   5.860   1.961   6.823
20166SOL     OW60455   5.634   3.174   6.853
20166SOL    HW160456   5.665   3.118   6.925
20166SOL    HW260457   5.638   3.263   6.888
20167SOL     OW60458   6.297   2.484   6.625
20167SOL    HW160459   6.375   2.477   6.570
20167SOL    HW260460   6.269   2.575   6.615
20168SOL     OW60461   7.337   2.829   7.456
20168SOL    HW160462   7.297   2.757   7.407
20168SOL    HW260463   7.273   2.850   7.524
20169SOL     OW60464   5.910   1.921   6.215
20169SOL    HW160465   5.877   2.009   6.233
20169SOL    HW260466   5.916   1.879   6.301
20170SOL     OW60467   7.217   2.252   5.930
20170SOL    HW160468   7.250   2.187   5.992
20170SOL    HW260469   7.188   2.325   5.985
20171SOL     OW60470   6.620   2.620   6.542
20171SOL    HW160471   6.598   2.635   6.634
20171SOL    HW260472   6.590   2.531   6.524
20172SOL     OW60473   6.566   3.426   7.321
20172SOL    HW160474   6.544   3.470   7.239
20172SOL    HW260475   6.606   3.343   7.294
20173SOL     OW60476   7.424   3.357   7.188
20173SOL    HW160477   7.451   3.385   7.101
20173SOL    HW260478   7.503   3.368   7.242
20174SOL     OW60479   5.935   2.780   7.403
20174SOL    HW160480   6.012   2.798   7.456
20174SOL    HW260481   5.966   2.717   7.337
20175SOL     OW60482   7.107   2.130   5.705
20175SOL    HW160483   7.055   2.059   5.743
20175SOL    HW260484   7.147   2.174   5.780
20176SOL     OW60485   6.867   2.684   5.605
20176SOL    HW160486   6.907   2.597   5.612
20176SOL    HW260487   6.903   2.720   5.524
20177SOL     OW60488   6.656   3.215   6.453
20177SOL    HW160489   6.667   3.143   6.391
20177SOL    HW260490   6.708   3.287   6.415
20178SOL     OW60491   5.904   2.678   6.530
20178SOL    HW160492   5.999   2.693   6.528
20178SOL    HW260493   5.894   2.588   6.561
20179SOL     OW60494   5.899   2.400   6.597
20179SOL    HW160495   5.860   2.313   6.587
20179SOL    HW260496   5.976   2.398   6.541
20180SOL     OW60497   6.724   2.229   7.272
20180SOL    HW160498   6.679   2.280   7.338
20180SOL    HW260499   6.810   2.272   7.262
20181SOL     OW60500   6.742   2.051   7.060
20181SOL    HW160501   6.731   2.113   7.132
20181SOL    HW260502   6.788   2.101   6.993
20182SOL     OW60503   5.610   3.164   5.768
20182SOL    HW160504   5.521   3.185   5.742
20182SOL    HW260505   5.603   3.077   5.808
20183SOL     OW60506   5.678   3.632   6.537
20183SOL    HW160507   5.645   3.559   6.486
20183SOL    HW260508   5.765   3.649   6.501
20184SOL     OW60509   6.071   3.432   6.488
20184SOL    HW160510   6.142   3.493   6.510
20184SOL    HW260511   6.112   3.370   6.427
20185SOL     OW60512   6.535   2.642   6.800
20185SOL    HW160513   6.597   2.631   6.872
20185SOL    HW260514   6.456   2.597   6.830
20186SOL     OW60515   5.625   2.433   6.707
20186SOL    HW160516   5.707   2.431   6.657
20186SOL    HW260517   5.653   2.426   6.799
20187SOL     OW60518   5.772   2.401   7.330
20187SOL    HW160519   5.846   2.370   7.277
20187SOL    HW260520   5.737   2.475   7.280
20188SOL     OW60521   6.978   2.783   7.237
20188SOL    HW160522   6.995   2.877   7.232
20188SOL    HW260523   6.970   2.755   7.146
20189SOL     OW60524   6.404   2.430   5.958
20189SOL    HW160525   6.413   2.356   5.897
20189SOL    HW260526   6.327   2.478   5.926
20190SOL     OW60527   7.221   2.463   6.749
20190SOL    HW160528   7.211   2.404   6.824
20190SOL    HW260529   7.312   2.452   6.722
20191SOL     OW60530   5.812   3.402   7.308
20191SOL    HW160531   5.789   3.452   7.386
20191SOL    HW260532   5.823   3.312   7.340
20192SOL     OW60533   6.319   2.295   6.820
20192SOL    HW160534   6.255   2.225   6.805
20192SOL    HW260535   6.302   2.359   6.751
20193SOL     OW60536   6.489   3.542   7.076
20193SOL    HW160537   6.468   3.494   6.996
20193SOL    HW260538   6.493   3.633   7.049
20194SOL     OW60539   6.029   2.343   5.750
20194SOL    HW160540   6.094   2.409   5.774
20194SOL    HW260541   5.945   2.388   5.754
20195SOL     OW60542   5.716   3.012   7.067
20195SOL    HW160543   5.720   2.973   7.154
20195SOL    HW260544   5.737   2.941   7.007
20196SOL     OW60545   6.889   2.896   6.795
20196SOL    HW160546   6.899   2.832   6.724
20196SOL    HW260547   6.836   2.966   6.757
20197SOL     OW60548   6.912   2.722   5.877
20197SOL    HW160549   6.841   2.687   5.931
20197SOL    HW260550   6.883   2.707   5.787
20198SOL     OW60551   7.374   3.586   6.758
20198SOL    HW160552   7.435   3.612   6.689
20198SOL    HW260553   7.341   3.500   6.729
20199SOL     OW60554   6.827   3.596   6.678
20199SOL    HW160555   6.911   3.626   6.643
20199SOL    HW260556   6.842   3.504   6.702
20200SOL     OW60557   5.693   3.108   6.597
20200SOL    HW160558   5.664   3.130   6.685
20200SOL    HW260559   5.621   3.056   6.561
20201SOL     OW60560   6.273   3.546   7.335
20201SOL    HW160561   6.209   3.616   7.322
20201SOL    HW260562   6.345   3.568   7.275
20202SOL     OW60563   7.330   2.046   6.082
20202SOL    HW160564   7.389   2.026   6.010
20202SOL    HW260565   7.303   1.960   6.116
20203SOL     OW60566   6.983   3.432   6.089
20203SOL    HW160567   7.038   3.466   6.019
20203SOL    HW260568   6.928   3.506   6.115
20204SOL     OW60569   5.720   3.667   7.430
20204SOL    HW160570   5.679   3.591   7.472
20204SOL    HW260571   5.770   3.709   7.500
20205SOL     OW60572   6.865   2.798   6.250
20205SOL    HW160573   6.939   2.739   6.263
20205SOL    HW260574   6.901   2.870   6.197
20206SOL     OW60575   6.370   3.142   7.001
20206SOL    HW160576   6.344   3.189   7.080
20206SOL    HW260577   6.296   3.153   6.941
20207SOL     OW60578   6.254   3.496   5.745
20207SOL    HW160579   6.268   3.512   5.652
20207SOL    HW260580   6.202   3.416   5.749
20208SOL     OW60581   7.202   3.591   6.988
20208SOL    HW160582   7.259   3.591   6.911
20208SOL    HW260583   7.186   3.684   7.007
20209SOL     OW60584   7.431   2.022   6.551
20209SOL    HW160585   7.459   1.933   6.530
20209SOL    HW260586   7.343   2.029   6.513
20210SOL     OW60587   5.829   2.167   6.294
20210SOL    HW160588   5.743   2.204   6.273
20210SOL    HW260589   5.833   2.170   6.390
20211SOL     OW60590   6.796   3.451   5.624
20211SOL    HW160591   6.786   3.360   5.650
20211SOL    HW260592   6.727   3.465   5.559
20212SOL     OW60593   6.409   2.874   6.971
20212SOL    HW160594   6.446   2.865   6.883
20212SOL    HW260595   6.398   2.968   6.983
20213SOL     OW60596   6.505   2.772   5.884
20213SOL    HW160597   6.560   2.803   5.812
20213SOL    HW260598   6.558   2.704   5.926
20214SOL     OW60599   7.070   3.505   5.644
20214SOL    HW160600   6.978   3.486   5.627
20214SOL    HW260601   7.111   3.509   5.557
20215SOL     OW60602   5.949   3.175   7.088
20215SOL    HW160603   5.942   3.248   7.027
20215SOL    HW260604   5.871   3.122   7.071
20216SOL     OW60605   7.185   3.152   6.862
20216SOL    HW160606   7.240   3.128   6.936
20216SOL    HW260607   7.126   3.219   6.896
20217SOL     OW60608   6.664   2.982   6.316
20217SOL    HW160609   6.588   2.932   6.347
20217SOL    HW260610   6.725   2.915   6.286
20218SOL     OW60611   6.619   2.111   6.546
20218SOL    HW160612   6.618   2.069   6.461
20218SOL    HW260613   6.612   2.040   6.609
20219SOL     OW60614   6.193   3.350   6.064
20219SOL    HW160615   6.246   3.300   6.002
20219SOL    HW260616   6.113   3.371   6.016
20220SOL     OW60617   7.332   2.243   6.975
20220SOL    HW160618   7.402   2.308   6.971
20220SOL    HW260619   7.358   2.175   6.914
20221SOL     OW60620   5.866   3.203   5.886
20221SOL    HW160621   5.779   3.196   5.846
20221SOL    HW260622   5.851   3.252   5.967
20222SOL     OW60623   5.707   2.909   7.322
20222SOL    HW160624   5.630   2.880   7.371
20222SOL    HW260625   5.779   2.857   7.359
20223SOL     OW60626   6.265   2.050   7.081
20223SOL    HW160627   6.349   2.025   7.042
20223SOL    HW260628   6.288   2.084   7.168
20224SOL     OW60629   5.674   2.181   5.597
20224SOL    HW160630   5.598   2.162   5.543
20224SOL    HW260631   5.705   2.267   5.567
20225SOL     OW60632   7.001   2.716   6.974
20225SOL    HW160633   6.948   2.774   6.919
20225SOL    HW260634   7.089   2.720   6.936
20226SOL     OW60635   5.629   2.011   5.858
20226SOL    HW160636   5.617   2.082   5.795
20226SOL    HW260637   5.718   1.979   5.841
20227SOL     OW60638   6.767   3.185   5.707
20227SOL    HW160639   6.674   3.161   5.705
20227SOL    HW260640   6.789   3.187   5.800
20228SOL     OW60641   6.212   2.694   7.027
20228SOL    HW160642   6.270   2.768   7.016
20228SOL    HW260643   6.269   2.617   7.026
20229SOL     OW60644   7.072   3.665   6.578
20229SOL    HW160645   7.097   3.740   6.523
20229SOL    HW260646   7.155   3.621   6.598
20230SOL     OW60647   6.310   2.410   7.272
20230SOL    HW160648   6.357   2.464   7.336
20230SOL    HW260649   6.321   2.320   7.304
20231SOL     OW60650   7.055   3.046   7.205
20231SOL    HW160651   7.048   3.068   7.298
20231SOL    HW260652   7.144   3.070   7.181
20232SOL     OW60653   5.939   3.610   7.165
20232SOL    HW160654   5.858   3.656   7.147
20232SOL    HW260655   5.912   3.526   7.202
20233SOL     OW60656   7.240   2.737   6.839
20233SOL    HW160657   7.239   2.654   6.792
20233SOL    HW260658   7.229   2.803   6.771
20234SOL     OW60659   6.806   2.184   6.042
20234SOL    HW160660   6.866   2.110   6.041
20234SOL    HW260661   6.834   2.237   6.117
20235SOL     OW60662   6.161   2.587   6.267
20235SOL    HW160663   6.205   2.671   6.253
20235SOL    HW260664   6.101   2.579   6.193
20236SOL     OW60665   7.333   2.217   7.251
20236SOL    HW160666   7.330   2.233   7.157
20236SOL    HW260667   7.255   2.164   7.269
20237SOL     OW60668   7.346   2.786   7.090
20237SOL    HW160669   7.329   2.880   7.102
20237SOL    HW260670   7.319   2.769   6.999
20238SOL     OW60671   6.463   3.219   5.651
20238SOL    HW160672   6.421   3.239   5.735
20238SOL    HW260673   6.469   3.304   5.607
20239SOL     OW60674   6.254   3.629   6.513
20239SOL    HW160675   6.235   3.722   6.504
20239SOL    HW260676   6.350   3.624   6.511
20240SOL     OW60677   6.458   2.839   6.442
20240SOL    HW160678   6.508   2.766   6.477
20240SOL    HW260679   6.413   2.876   6.517
20241SOL     OW60680   6.654   2.840   5.671
20241SOL    HW160681   6.635   2.898   5.597
20241SOL    HW260682   6.730   2.788   5.643
20242SOL     OW60683   7.415   3.421   6.426
20242SOL    HW160684   7.340   3.412   6.368
20242SOL    HW260685   7.392   3.370   6.504
20243SOL     OW60686   5.797   3.148   7.422
20243SOL    HW160687   5.765   3.068   7.379
20243SOL    HW260688   5.738   3.160   7.496
20244SOL     OW60689   5.701   3.082   6.254
20244SOL    HW160690   5.736   3.041   6.333
20244SOL    HW260691   5.761   3.053   6.184
20245SOL     OW60692   6.277   3.280   7.220
20245SOL    HW160693   6.199   3.243   7.261
20245SOL    HW260694   6.282   3.369   7.256
20246SOL     OW60695   7.396   2.032   6.821
20246SOL    HW160696   7.398   1.937   6.833
20246SOL    HW260697   7.410   2.045   6.727
20247SOL     OW60698   6.002   2.285   6.103
20247SOL    HW160699   6.037   2.214   6.049
20247SOL    HW260700   5.952   2.240   6.171
20248SOL     OW60701   7.282   3.342   6.667
20248SOL    HW160702   7.203   3.323   6.615
20248SOL    HW260703   7.283   3.274   6.734
20249SOL     OW60704   5.938   2.428   6.878
20249SOL    HW160705   5.987   2.363   6.928
20249SOL    HW260706   5.945   2.398   6.787
20250SOL     OW60707   6.425   3.453   6.252
20250SOL    HW160708   6.401   3.527   6.196
20250SOL    HW260709   6.347   3.397   6.253
20251SOL     OW60710   7.007   2.095   6.701
20251SOL    HW160711   7.017   2.006   6.734
20251SOL    HW260712   6.961   2.142   6.771
20252SOL     OW60713   6.596   1.880   6.705
20252SOL    HW160714   6.542   1.817   6.657
20252SOL    HW260715   6.683   1.839   6.709
20253SOL     OW60716   6.365   3.194   5.915
20253SOL    HW160717   6.341   3.102   5.927
20253SOL    HW260718   6.445   3.205   5.966
20254SOL     OW60719   6.202   3.431   6.875
20254SOL    HW160720   6.197   3.515   6.921
20254SOL    HW260721   6.291   3.427   6.841
20255SOL     OW60722   6.966   1.900   5.779
20255SOL    HW160723   7.006   1.828   5.730
20255SOL    HW260724   6.875   1.874   5.789
20256SOL     OW60725   6.883   2.333   6.260
20256SOL    HW160726   6.832   2.415   6.258
20256SOL    HW260727   6.877   2.304   6.351
20257SOL     OW60728   7.168   2.050   6.479
20257SOL    HW160729   7.116   2.080   6.553
20257SOL    HW260730   7.169   2.124   6.419
20258SOL     OW60731   5.622   2.912   5.895
20258SOL    HW160732   5.716   2.900   5.877
20258SOL    HW260733   5.591   2.824   5.915
20259SOL     OW60734   6.481   3.537   5.914
20259SOL    HW160735   6.402   3.521   5.861
20259SOL    HW260736   6.455   3.605   5.976
20260SOL     OW60737   5.793   2.484   7.596
20260SOL    HW160738   5.705   2.472   7.632
20260SOL    HW260739   5.782   2.470   7.502
20261SOL     OW60740   5.805   2.151   8.439
20261SOL    HW160741   5.835   2.115   8.522
20261SOL    HW260742   5.718   2.113   8.426
20262SOL     OW60743   5.573   2.258   8.094
20262SOL    HW160744   5.493   2.283   8.141
20262SOL    HW260745   5.546   2.184   8.039
20263SOL     OW60746   6.162   3.177   8.658
20263SOL    HW160747   6.079   3.179   8.611
20263SOL    HW260748   6.183   3.269   8.674
20264SOL     OW60749   7.175   3.386   8.152
20264SOL    HW160750   7.128   3.355   8.229
20264SOL    HW260751   7.109   3.390   8.083
20265SOL     OW60752   6.723   2.567   8.135
20265SOL    HW160753   6.770   2.650   8.124
20265SOL    HW260754   6.674   2.578   8.216
20266SOL     OW60755   7.386   2.443   7.668
20266SOL    HW160756   7.348   2.443   7.580
20266SOL    HW260757   7.342   2.371   7.713
20267SOL     OW60758   6.309   2.992   8.505
20267SOL    HW160759   6.252   3.034   8.569
20267SOL    HW260760   6.351   3.065   8.459
20268SOL     OW60761   6.477   2.605   9.278
20268SOL    HW160762   6.468   2.673   9.345
20268SOL    HW260763   6.493   2.653   9.197
20269SOL     OW60764   6.272   2.846   8.092
20269SOL    HW160765   6.339   2.847   8.160
20269SOL    HW260766   6.206   2.908   8.123
20270SOL     OW60767   6.298   3.006   9.268
20270SOL    HW160768   6.339   3.086   9.302
20270SOL    HW260769   6.220   3.036   9.223
20271SOL     OW60770   5.921   3.270   8.527
20271SOL    HW160771   5.849   3.225   8.483
20271SOL    HW260772   5.962   3.321   8.458
20272SOL     OW60773   7.039   3.368   8.819
20272SOL    HW160774   7.095   3.446   8.829
20272SOL    HW260775   6.969   3.381   8.883
20273SOL     OW60776   6.043   2.237   8.905
20273SOL    HW160777   6.118   2.179   8.920
20273SOL    HW260778   5.967   2.185   8.932
20274SOL     OW60779   7.171   2.294   8.203
20274SOL    HW160780   7.105   2.305   8.134
20274SOL    HW260781   7.152   2.364   8.265
20275SOL     OW60782   5.804   3.590   7.911
20275SOL    HW160783   5.831   3.661   7.969
20275SOL    HW260784   5.878   3.579   7.851
20276SOL     OW60785   6.723   3.201   9.146
20276SOL    HW160786   6.768   3.190   9.230
20276SOL    HW260787   6.671   3.122   9.136
20277SOL     OW60788   5.822   3.320   7.980
20277SOL    HW160789   5.800   3.413   7.982
20277SOL    HW260790   5.770   3.282   8.051
20278SOL     OW60791   5.875   2.952   8.330
20278SOL    HW160792   5.873   2.862   8.364
20278SOL    HW260793   5.815   3.000   8.387
20279SOL     OW60794   6.162   3.687   8.849
20279SOL    HW160795   6.090   3.663   8.908
20279SOL    HW260796   6.201   3.764   8.890
20280SOL     OW60797   6.151   2.850   7.600
20280SOL    HW160798   6.202   2.892   7.531
20280SOL    HW260799   6.192   2.879   7.681
20281SOL     OW60800   7.175   1.996   8.904
20281SOL    HW160801   7.215   2.072   8.862
20281SOL    HW260802   7.144   2.028   8.988
20282SOL     OW60803   5.705   2.519   8.015
20282SOL    HW160804   5.672   2.432   8.038
20282SOL    HW260805   5.699   2.570   8.097
20283SOL     OW60806   7.432   3.605   7.766
20283SOL    HW160807   7.505   3.590   7.827
20283SOL    HW260808   7.439   3.698   7.743
20284SOL     OW60809   5.645   3.442   7.559
20284SOL    HW160810   5.624   3.350   7.578
20284SOL    HW260811   5.613   3.490   7.635
20285SOL     OW60812   7.284   2.787   8.101
20285SOL    HW160813   7.366   2.743   8.079
20285SOL    HW260814   7.263   2.839   8.023
20286SOL     OW60815   7.242   2.967   7.881
20286SOL    HW160816   7.327   2.959   7.838
20286SOL    HW260817   7.257   3.031   7.950
20287SOL     OW60818   5.706   2.608   9.024
20287SOL    HW160819   5.791   2.651   9.025
20287SOL    HW260820   5.643   2.678   9.007
20288SOL     OW60821   6.202   3.259   8.185
20288SOL    HW160822   6.162   3.172   8.186
20288SOL    HW260823   6.191   3.289   8.095
20289SOL     OW60824   6.857   3.086   8.868
20289SOL    HW160825   6.884   3.018   8.806
20289SOL    HW260826   6.920   3.081   8.939
20290SOL     OW60827   6.417   1.874   7.966
20290SOL    HW160828   6.458   1.956   7.939
20290SOL    HW260829   6.323   1.892   7.967
20291SOL     OW60830   5.775   2.819   8.752
20291SOL    HW160831   5.861   2.783   8.733
20291SOL    HW260832   5.719   2.785   8.682
20292SOL     OW60833   7.120   2.877   7.648
20292SOL    HW160834   7.052   2.817   7.677
20292SOL    HW260835   7.163   2.907   7.728
20293SOL     OW60836   6.748   3.680   9.082
20293SOL    HW160837   6.758   3.746   9.013
20293SOL    HW260838   6.773   3.598   9.041
20294SOL     OW60839   5.946   2.117   9.322
20294SOL    HW160840   5.982   2.196   9.362
20294SOL    HW260841   5.851   2.131   9.320
20295SOL     OW60842   7.058   3.281   8.377
20295SOL    HW160843   6.995   3.300   8.446
20295SOL    HW260844   7.041   3.190   8.353
20296SOL     OW60845   7.224   3.658   8.010
20296SOL    HW160846   7.207   3.612   7.928
20296SOL    HW260847   7.225   3.589   8.077
20297SOL     OW60848   6.173   2.561   7.720
20297SOL    HW160849   6.176   2.649   7.681
20297SOL    HW260850   6.108   2.569   7.790
20298SOL     OW60851   6.868   2.256   8.389
20298SOL    HW160852   6.779   2.220   8.394
20298SOL    HW260853   6.920   2.197   8.444
20299SOL     OW60854   7.165   3.534   7.767
20299SOL    HW160855   7.259   3.550   7.756
20299SOL    HW260856   7.132   3.522   7.679
20300SOL     OW60857   6.372   2.476   8.879
20300SOL    HW160858   6.352   2.445   8.968
20300SOL    HW260859   6.349   2.402   8.823
20301SOL     OW60860   6.977   2.337   9.119
20301SOL    HW160861   6.982   2.381   9.203
20301SOL    HW260862   7.027   2.256   9.131
20302SOL     OW60863   6.532   2.741   9.041
20302SOL    HW160864   6.588   2.677   8.998
20302SOL    HW260865   6.483   2.782   8.971
20303SOL     OW60866   6.594   2.261   8.656
20303SOL    HW160867   6.501   2.273   8.679
20303SOL    HW260868   6.592   2.217   8.572
20304SOL     OW60869   6.645   2.559   7.867
20304SOL    HW160870   6.665   2.556   7.960
20304SOL    HW260871   6.560   2.515   7.859
20305SOL     OW60872   5.679   2.685   8.232
20305SOL    HW160873   5.761   2.680   8.282
20305SOL    HW260874   5.631   2.757   8.271
20306SOL     OW60875   5.684   3.638   9.052
20306SOL    HW160876   5.707   3.654   9.144
20306SOL    HW260877   5.631   3.714   9.027
20307SOL     OW60878   6.475   2.213   7.648
20307SOL    HW160879   6.526   2.267   7.588
20307SOL    HW260880   6.452   2.135   7.598
20308SOL     OW60881   7.265   2.422   9.285
20308SOL    HW160882   7.246   2.501   9.234
20308SOL    HW260883   7.296   2.359   9.220
20309SOL     OW60884   6.978   3.011   7.989
20309SOL    HW160885   7.058   2.999   7.937
20309SOL    HW260886   6.925   3.072   7.938
20310SOL     OW60887   6.137   2.022   8.363
20310SOL    HW160888   6.143   2.051   8.454
20310SOL    HW260889   6.133   2.103   8.312
20311SOL     OW60890   6.584   3.318   7.913
20311SOL    HW160891   6.559   3.392   7.857
20311SOL    HW260892   6.554   3.344   8.000
20312SOL     OW60893   5.943   3.678   8.325
20312SOL    HW160894   5.989   3.595   8.332
20312SOL    HW260895   6.009   3.744   8.345
20313SOL     OW60896   7.390   2.906   8.338
20313SOL    HW160897   7.343   2.891   8.256
20313SOL    HW260898   7.321   2.914   8.404
20314SOL     OW60899   6.799   3.402   8.963
20314SOL    HW160900   6.792   3.332   9.028
20314SOL    HW260901   6.743   3.372   8.891
20315SOL     OW60902   5.886   2.821   7.713
20315SOL    HW160903   5.968   2.842   7.670
20315SOL    HW260904   5.863   2.734   7.680
20316SOL     OW60905   7.070   2.626   8.159
20316SOL    HW160906   7.073   2.582   8.244
20316SOL    HW260907   7.150   2.679   8.157
20317SOL     OW60908   6.056   3.129   9.197
20317SOL    HW160909   6.013   3.159   9.118
20317SOL    HW260910   6.001   3.058   9.229
20318SOL     OW60911   6.725   3.636   7.676
20318SOL    HW160912   6.643   3.606   7.713
20318SOL    HW260913   6.746   3.572   7.607
20319SOL     OW60914   5.793   2.118   8.948
20319SOL    HW160915   5.715   2.174   8.956
20319SOL    HW260916   5.765   2.034   8.983
20320SOL     OW60917   7.224   3.250   7.549
20320SOL    HW160918   7.184   3.336   7.535
20320SOL    HW260919   7.157   3.187   7.522
20321SOL     OW60920   6.045   3.603   7.763
20321SOL    HW160921   6.095   3.655   7.827
20321SOL    HW260922   6.112   3.563   7.708
20322SOL     OW60923   6.983   1.967   7.907
20322SOL    HW160924   6.983   1.943   7.814
20322SOL    HW260925   7.074   1.955   7.935
20323SOL     OW60926   5.829   3.649   8.658
20323SOL    HW160927   5.894   3.579   8.672
20323SOL    HW260928   5.798   3.636   8.569
20324SOL     OW60929   6.534   3.564   8.337
20324SOL    HW160930   6.620   3.523   8.348
20324SOL    HW260931   6.493   3.515   8.265
20325SOL     OW60932   5.981   2.547   7.921
20325SOL    HW160933   5.994   2.453   7.934
20325SOL    HW260934   5.888   2.561   7.938
20326SOL     OW60935   7.094   2.083   9.163
20326SOL    HW160936   7.106   2.104   9.256
20326SOL    HW260937   7.032   2.010   9.163
20327SOL     OW60938   6.249   1.971   7.551
20327SOL    HW160939   6.296   1.893   7.577
20327SOL    HW260940   6.188   1.941   7.484
20328SOL     OW60941   6.344   2.134   9.203
20328SOL    HW160942   6.429   2.089   9.201
20328SOL    HW260943   6.298   2.094   9.276
20329SOL     OW60944   6.457   3.387   8.643
20329SOL    HW160945   6.442   3.344   8.558
20329SOL    HW260946   6.527   3.336   8.683
20330SOL     OW60947   6.916   2.455   8.880
20330SOL    HW160948   6.949   2.423   8.964
20330SOL    HW260949   6.956   2.541   8.869
20331SOL     OW60950   6.400   3.237   8.402
20331SOL    HW160951   6.487   3.233   8.363
20331SOL    HW260952   6.342   3.254   8.328
20332SOL     OW60953   6.516   2.377   8.336
20332SOL    HW160954   6.491   2.366   8.244
20332SOL    HW260955   6.544   2.290   8.364
20333SOL     OW60956   6.150   1.926   7.938
20333SOL    HW160957   6.072   1.926   7.994
20333SOL    HW260958   6.138   2.000   7.880
20334SOL     OW60959   7.020   3.075   7.480
20334SOL    HW160960   7.050   3.000   7.533
20334SOL    HW260961   6.935   3.098   7.516
20335SOL     OW60962   5.868   1.910   7.636
20335SOL    HW160963   5.921   1.977   7.593
20335SOL    HW260964   5.932   1.852   7.678
20336SOL     OW60965   6.538   2.113   7.899
20336SOL    HW160966   6.512   2.148   7.813
20336SOL    HW260967   6.632   2.130   7.904
20337SOL     OW60968   6.661   2.553   8.892
20337SOL    HW160969   6.601   2.479   8.898
20337SOL    HW260970   6.748   2.513   8.888
20338SOL     OW60971   6.790   3.452   8.252
20338SOL    HW160972   6.805   3.511   8.179
20338SOL    HW260973   6.865   3.465   8.310
20339SOL     OW60974   6.068   3.021   8.156
20339SOL    HW160975   6.006   2.997   8.225
20339SOL    HW260976   6.017   3.015   8.075
20340SOL     OW60977   6.837   3.655   8.066
20340SOL    HW160978   6.887   3.716   8.013
20340SOL    HW260979   6.767   3.707   8.104
20341SOL     OW60980   6.618   2.377   7.478
20341SOL    HW160981   6.576   2.461   7.459
20341SOL    HW260982   6.682   2.397   7.546
20342SOL     OW60983   5.687   2.410   8.838
20342SOL    HW160984   5.779   2.412   8.811
20342SOL    HW260985   5.678   2.479   8.903
20343SOL     OW60986   6.145   2.082   8.633
20343SOL    HW160987   6.182   2.016   8.691
20343SOL    HW260988   6.052   2.083   8.653
20344SOL     OW60989   6.456   2.317   8.077
20344SOL    HW160990   6.417   2.373   8.010
20344SOL    HW260991   6.481   2.237   8.031
20345SOL     OW60992   6.607   1.921   8.188
20345SOL    HW160993   6.547   1.915   8.114
20345SOL    HW260994   6.583   1.848   8.245
20346SOL     OW60995   7.022   3.017   8.301
20346SOL    HW160996   6.952   2.952   8.307
20346SOL    HW260997   7.041   3.023   8.208
20347SOL     OW60998   7.049   2.478   8.397
20347SOL    HW160999   6.985   2.408   8.407
20347SOL    HW261000   7.105   2.472   8.474
20348SOL     OW61001   7.414   2.658   7.836
20348SOL    HW161002   7.474   2.615   7.896
20348SOL    HW261003   7.400   2.594   7.765
20349SOL     OW61004   6.084   3.286   7.596
20349SOL    HW161005   6.010   3.253   7.647
20349SOL    HW261006   6.080   3.237   7.514
20350SOL     OW61007   7.292   3.131   8.085
20350SOL    HW161008   7.386   3.124   8.104
20350SOL    HW261009   7.270   3.222   8.108
20351SOL     OW61010   6.979   2.438   7.513
20351SOL    HW161011   6.923   2.411   7.586
20351SOL    HW261012   7.067   2.414   7.540
20352SOL     OW61013   6.113   2.119   7.750
20352SOL    HW161014   6.166   2.077   7.683
20352SOL    HW261015   6.081   2.200   7.709
20353SOL     OW61016   7.321   3.106   8.980
20353SOL    HW161017   7.409   3.071   8.966
20353SOL    HW261018   7.334   3.193   9.017
20354SOL     OW61019   6.633   3.222   8.788
20354SOL    HW161020   6.554   3.184   8.827
20354SOL    HW261021   6.705   3.171   8.825
20355SOL     OW61022   7.191   3.496   9.111
20355SOL    HW161023   7.184   3.533   9.023
20355SOL    HW261024   7.269   3.441   9.107
20356SOL     OW61025   6.738   3.101   8.554
20356SOL    HW161026   6.675   3.135   8.618
20356SOL    HW261027   6.705   3.132   8.469
20357SOL     OW61028   7.194   2.952   8.524
20357SOL    HW161029   7.186   3.019   8.593
20357SOL    HW261030   7.125   2.974   8.462
20358SOL     OW61031   6.504   1.944   8.830
20358SOL    HW161032   6.525   1.928   8.738
20358SOL    HW261033   6.583   1.984   8.867
20359SOL     OW61034   6.564   2.976   9.173
20359SOL    HW161035   6.472   2.990   9.197
20359SOL    HW261036   6.563   2.896   9.120
20360SOL     OW61037   6.300   2.924   7.824
20360SOL    HW161038   6.285   2.897   7.915
20360SOL    HW261039   6.375   2.871   7.796
20361SOL     OW61040   6.013   2.690   8.708
20361SOL    HW161041   6.081   2.699   8.775
20361SOL    HW261042   5.983   2.600   8.716
20362SOL     OW61043   6.850   2.231   8.739
20362SOL    HW161044   6.878   2.311   8.783
20362SOL    HW261045   6.761   2.249   8.709
20363SOL     OW61046   5.662   3.414   8.785
20363SOL    HW161047   5.620   3.486   8.739
20363SOL    HW261048   5.756   3.434   8.780
20364SOL     OW61049   5.902   2.996   7.935
20364SOL    HW161050   5.904   3.067   7.871
20364SOL    HW261051   5.899   2.916   7.881
20365SOL     OW61052   6.120   2.380   8.308
20365SOL    HW161053   6.132   2.438   8.233
20365SOL    HW261054   6.189   2.405   8.370
20366SOL     OW61055   6.833   3.216   7.845
20366SOL    HW161056   6.890   3.286   7.879
20366SOL    HW261057   6.745   3.240   7.875
20367SOL     OW61058   6.896   3.331   8.589
20367SOL    HW161059   6.944   3.337   8.672
20367SOL    HW261060   6.846   3.249   8.597
20368SOL     OW61061   7.161   2.479   7.935
20368SOL    HW161062   7.109   2.521   8.004
20368SOL    HW261063   7.211   2.550   7.895
20369SOL     OW61064   5.945   3.400   8.763
20369SOL    HW161065   5.926   3.349   8.684
20369SOL    HW261066   6.039   3.416   8.759
20370SOL     OW61067   6.007   2.621   9.064
20370SOL    HW161068   6.072   2.657   9.004
20370SOL    HW261069   6.039   2.533   9.084
20371SOL     OW61070   7.211   2.650   9.148
20371SOL    HW161071   7.124   2.688   9.139
20371SOL    HW261072   7.262   2.688   9.077
20372SOL     OW61073   6.581   2.003   9.207
20372SOL    HW161074   6.640   2.076   9.186
20372SOL    HW261075   6.632   1.925   9.184
20373SOL     OW61076   6.083   1.898   9.210
20373SOL    HW161077   6.029   1.847   9.150
20373SOL    HW261078   6.030   1.975   9.231
20374SOL     OW61079   6.180   2.736   8.487
20374SOL    HW161080   6.216   2.824   8.489
20374SOL    HW261081   6.120   2.732   8.562
20375SOL     OW61082   6.895   2.715   8.453
20375SOL    HW161083   6.807   2.688   8.426
20375SOL    HW261084   6.950   2.639   8.433
20376SOL     OW61085   6.785   2.384   7.705
20376SOL    HW161086   6.796   2.308   7.762
20376SOL    HW261087   6.744   2.450   7.761
20377SOL     OW61088   5.878   2.056   8.688
20377SOL    HW161089   5.843   2.083   8.772
20377SOL    HW261090   5.862   1.962   8.684
20378SOL     OW61091   5.635   3.156   8.705
20378SOL    HW161092   5.665   3.106   8.780
20378SOL    HW261093   5.639   3.247   8.733
20379SOL     OW61094   6.299   2.483   8.488
20379SOL    HW161095   6.376   2.475   8.431
20379SOL    HW261096   6.271   2.574   8.477
20380SOL     OW61097   7.341   2.833   9.316
20380SOL    HW161098   7.297   2.761   9.272
20380SOL    HW261099   7.285   2.855   9.390
20381SOL     OW61100   5.911   1.922   8.076
20381SOL    HW161101   5.877   2.010   8.095
20381SOL    HW261102   5.917   1.880   8.162
20382SOL     OW61103   7.217   2.252   7.792
20382SOL    HW161104   7.250   2.187   7.854
20382SOL    HW261105   7.188   2.324   7.847
20383SOL     OW61106   6.619   2.621   8.405
20383SOL    HW161107   6.597   2.636   8.497
20383SOL    HW261108   6.590   2.532   8.387
20384SOL     OW61109   6.566   3.420   9.193
20384SOL    HW161110   6.543   3.471   9.115
20384SOL    HW261111   6.610   3.343   9.158
20385SOL     OW61112   7.423   3.357   9.048
20385SOL    HW161113   7.451   3.385   8.961
20385SOL    HW261114   7.501   3.368   9.102
20386SOL     OW61115   5.952   2.814   9.252
20386SOL    HW161116   6.023   2.807   9.316
20386SOL    HW261117   5.969   2.744   9.190
20387SOL     OW61118   7.106   2.131   7.567
20387SOL    HW161119   7.054   2.060   7.605
20387SOL    HW261120   7.146   2.174   7.643
20388SOL     OW61121   6.867   2.684   7.467
20388SOL    HW161122   6.907   2.597   7.475
20388SOL    HW261123   6.904   2.720   7.386
20389SOL     OW61124   6.655   3.216   8.316
20389SOL    HW161125   6.667   3.143   8.254
20389SOL    HW261126   6.707   3.287   8.278
20390SOL     OW61127   5.904   2.677   8.394
20390SOL    HW161128   5.999   2.690   8.387
20390SOL    HW261129   5.894   2.587   8.425
20391SOL     OW61130   5.899   2.400   8.460
20391SOL    HW161131   5.860   2.313   8.450
20391SOL    HW261132   5.976   2.398   8.404
20392SOL     OW61133   6.724   2.230   9.132
20392SOL    HW161134   6.679   2.281   9.199
20392SOL    HW261135   6.810   2.271   9.123
20393SOL     OW61136   6.741   2.052   8.920
20393SOL    HW161137   6.730   2.113   8.993
20393SOL    HW261138   6.788   2.101   8.853
20394SOL     OW61139   5.610   3.165   7.629
20394SOL    HW161140   5.520   3.187   7.603
20394SOL    HW261141   5.603   3.078   7.669
20395SOL     OW61142   5.687   3.627   8.407
20395SOL    HW161143   5.650   3.556   8.354
20395SOL    HW261144   5.771   3.646   8.365
20396SOL     OW61145   6.073   3.431   8.359
20396SOL    HW161146   6.143   3.492   8.379
20396SOL    HW261147   6.111   3.370   8.296
20397SOL     OW61148   6.533   2.644   8.664
20397SOL    HW161149   6.595   2.630   8.736
20397SOL    HW261150   6.455   2.595   8.691
20398SOL     OW61151   5.624   2.434   8.568
20398SOL    HW161152   5.705   2.430   8.517
20398SOL    HW261153   5.653   2.425   8.659
20399SOL     OW61154   5.772   2.396   9.188
20399SOL    HW161155   5.830   2.350   9.127
20399SOL    HW261156   5.737   2.470   9.137
20400SOL     OW61157   6.975   2.784   9.100
20400SOL    HW161158   6.994   2.877   9.095
20400SOL    HW261159   6.969   2.756   9.008
20401SOL     OW61160   6.404   2.431   7.820
20401SOL    HW161161   6.413   2.357   7.760
20401SOL    HW261162   6.327   2.478   7.788
20402SOL     OW61163   7.222   2.463   8.611
20402SOL    HW161164   7.212   2.404   8.685
20402SOL    HW261165   7.313   2.452   8.583
20403SOL     OW61166   6.320   2.294   8.683
20403SOL    HW161167   6.256   2.224   8.667
20403SOL    HW261168   6.302   2.358   8.613
20404SOL     OW61169   6.465   3.552   8.960
20404SOL    HW161170   6.458   3.498   8.882
20404SOL    HW261171   6.482   3.640   8.927
20405SOL     OW61172   6.028   2.343   7.612
20405SOL    HW161173   6.093   2.409   7.637
20405SOL    HW261174   5.944   2.389   7.616
20406SOL     OW61175   5.719   3.015   8.929
20406SOL    HW161176   5.720   2.976   9.016
20406SOL    HW261177   5.740   2.943   8.870
20407SOL     OW61178   6.889   2.897   8.657
20407SOL    HW161179   6.899   2.833   8.586
20407SOL    HW261180   6.837   2.967   8.619
20408SOL     OW61181   6.911   2.722   7.739
20408SOL    HW161182   6.841   2.686   7.793
20408SOL    HW261183   6.883   2.707   7.649
20409SOL     OW61184   7.374   3.586   8.617
20409SOL    HW161185   7.435   3.612   8.549
20409SOL    HW261186   7.342   3.501   8.590
20410SOL     OW61187   6.828   3.597   8.542
20410SOL    HW161188   6.912   3.627   8.507
20410SOL    HW261189   6.843   3.505   8.565
20411SOL     OW61190   5.688   3.113   8.446
20411SOL    HW161191   5.661   3.127   8.536
20411SOL    HW261192   5.621   3.056   8.409
20412SOL     OW61193   6.278   3.542   9.188
20412SOL    HW161194   6.215   3.613   9.177
20412SOL    HW261195   6.345   3.559   9.121
20413SOL     OW61196   7.330   2.046   7.944
20413SOL    HW161197   7.389   2.026   7.872
20413SOL    HW261198   7.304   1.960   7.978
20414SOL     OW61199   6.983   3.432   7.951
20414SOL    HW161200   7.038   3.466   7.881
20414SOL    HW261201   6.928   3.506   7.977
20415SOL     OW61202   5.772   3.621   9.311
20415SOL    HW161203   5.698   3.591   9.364
20415SOL    HW261204   5.816   3.687   9.365
20416SOL     OW61205   6.865   2.799   8.114
20416SOL    HW161206   6.939   2.739   8.127
20416SOL    HW261207   6.901   2.870   8.060
20417SOL     OW61208   6.371   3.140   8.850
20417SOL    HW161209   6.340   3.188   8.927
20417SOL    HW261210   6.300   3.150   8.786
20418SOL     OW61211   6.255   3.497   7.607
20418SOL    HW161212   6.269   3.512   7.513
20418SOL    HW261213   6.202   3.417   7.610
20419SOL     OW61214   7.201   3.593   8.845
20419SOL    HW161215   7.259   3.593   8.769
20419SOL    HW261216   7.185   3.685   8.863
20420SOL     OW61217   7.431   2.022   8.413
20420SOL    HW161218   7.459   1.933   8.391
20420SOL    HW261219   7.344   2.029   8.374
20421SOL     OW61220   5.829   2.168   8.157
20421SOL    HW161221   5.743   2.205   8.135
20421SOL    HW261222   5.832   2.170   8.252
20422SOL     OW61223   6.796   3.451   7.486
20422SOL    HW161224   6.786   3.359   7.513
20422SOL    HW261225   6.726   3.464   7.421
20423SOL     OW61226   6.410   2.869   8.833
20423SOL    HW161227   6.450   2.854   8.748
20423SOL    HW261228   6.401   2.965   8.838
20424SOL     OW61229   6.507   2.773   7.745
20424SOL    HW161230   6.562   2.805   7.674
20424SOL    HW261231   6.559   2.705   7.787
20425SOL     OW61232   7.070   3.507   7.506
20425SOL    HW161233   6.978   3.487   7.489
20425SOL    HW261234   7.110   3.510   7.419
20426SOL     OW61235   5.918   3.208   8.978
20426SOL    HW161236   5.933   3.260   8.899
20426SOL    HW261237   5.851   3.144   8.952
20427SOL     OW61238   7.184   3.151   8.724
20427SOL    HW161239   7.240   3.127   8.797
20427SOL    HW261240   7.126   3.219   8.759
20428SOL     OW61241   6.663   2.982   8.179
20428SOL    HW161242   6.587   2.932   8.209
20428SOL    HW261243   6.725   2.916   8.149
20429SOL     OW61244   6.619   2.111   8.409
20429SOL    HW161245   6.618   2.069   8.323
20429SOL    HW261246   6.612   2.039   8.471
20430SOL     OW61247   6.195   3.350   7.930
20430SOL    HW161248   6.248   3.301   7.868
20430SOL    HW261249   6.113   3.368   7.883
20431SOL     OW61250   7.331   2.244   8.836
20431SOL    HW161251   7.402   2.309   8.832
20431SOL    HW261252   7.358   2.176   8.775
20432SOL     OW61253   5.867   3.202   7.746
20432SOL    HW161254   5.779   3.195   7.707
20432SOL    HW261255   5.853   3.251   7.827
20433SOL     OW61256   5.709   2.926   9.186
20433SOL    HW161257   5.632   2.895   9.234
20433SOL    HW261258   5.782   2.876   9.221
20434SOL     OW61259   6.264   2.052   8.944
20434SOL    HW161260   6.348   2.026   8.905
20434SOL    HW261261   6.287   2.084   9.031
20435SOL     OW61262   5.672   2.180   7.462
20435SOL    HW161263   5.595   2.160   7.409
20435SOL    HW261264   5.700   2.266   7.430
20436SOL     OW61265   7.002   2.717   8.837
20436SOL    HW161266   6.950   2.775   8.781
20436SOL    HW261267   7.090   2.721   8.799
20437SOL     OW61268   5.630   2.011   7.720
20437SOL    HW161269   5.617   2.081   7.656
20437SOL    HW261270   5.718   1.979   7.703
20438SOL     OW61271   6.768   3.184   7.570
20438SOL    HW161272   6.676   3.157   7.569
20438SOL    HW261273   6.791   3.187   7.663
20439SOL     OW61274   6.210   2.694   8.893
20439SOL    HW161275   6.270   2.767   8.880
20439SOL    HW261276   6.265   2.616   8.891
20440SOL     OW61277   7.073   3.665   8.440
20440SOL    HW161278   7.098   3.740   8.386
20440SOL    HW261279   7.156   3.621   8.460
20441SOL     OW61280   6.316   2.408   9.136
20441SOL    HW161281   6.362   2.461   9.201
20441SOL    HW261282   6.324   2.318   9.168
20442SOL     OW61283   7.056   3.046   9.068
20442SOL    HW161284   7.052   3.064   9.162
20442SOL    HW261285   7.145   3.069   9.043
20443SOL     OW61286   5.948   3.584   9.000
20443SOL    HW161287   5.855   3.605   9.005
20443SOL    HW261288   5.953   3.508   8.943
20444SOL     OW61289   7.241   2.737   8.701
20444SOL    HW161290   7.240   2.653   8.655
20444SOL    HW261291   7.230   2.803   8.632
20445SOL     OW61292   6.807   2.184   7.904
20445SOL    HW161293   6.867   2.110   7.903
20445SOL    HW261294   6.835   2.237   7.979
20446SOL     OW61295   6.160   2.589   8.131
20446SOL    HW161296   6.205   2.672   8.115
20446SOL    HW261297   6.100   2.580   8.057
20447SOL     OW61298   7.333   2.215   9.111
20447SOL    HW161299   7.330   2.232   9.017
20447SOL    HW261300   7.256   2.161   9.128
20448SOL     OW61301   7.345   2.786   8.953
20448SOL    HW161302   7.329   2.880   8.965
20448SOL    HW261303   7.319   2.769   8.862
20449SOL     OW61304   6.459   3.220   7.511
20449SOL    HW161305   6.419   3.241   7.596
20449SOL    HW261306   6.469   3.304   7.468
20450SOL     OW61307   6.255   3.629   8.380
20450SOL    HW161308   6.237   3.722   8.368
20450SOL    HW261309   6.351   3.622   8.374
20451SOL     OW61310   6.458   2.839   8.304
20451SOL    HW161311   6.508   2.765   8.338
20451SOL    HW261312   6.412   2.875   8.380
20452SOL     OW61313   6.656   2.843   7.534
20452SOL    HW161314   6.637   2.899   7.458
20452SOL    HW261315   6.731   2.791   7.505
20453SOL     OW61316   7.419   3.419   8.286
20453SOL    HW161317   7.341   3.411   8.229
20453SOL    HW261318   7.398   3.365   8.362
20454SOL     OW61319   5.760   3.181   9.286
20454SOL    HW161320   5.749   3.103   9.231
20454SOL    HW261321   5.698   3.168   9.358
20455SOL     OW61322   5.702   3.091   8.114
20455SOL    HW161323   5.731   3.049   8.195
20455SOL    HW261324   5.761   3.056   8.047
20456SOL     OW61325   6.263   3.279   9.060
20456SOL    HW161326   6.200   3.233   9.116
20456SOL    HW261327   6.282   3.360   9.107
20457SOL     OW61328   7.397   2.033   8.682
20457SOL    HW161329   7.399   1.939   8.696
20457SOL    HW261330   7.411   2.045   8.588
20458SOL     OW61331   6.005   2.284   7.967
20458SOL    HW161332   6.038   2.214   7.912
20458SOL    HW261333   5.952   2.240   8.034
20459SOL     OW61334   7.281   3.343   8.529
20459SOL    HW161335   7.203   3.324   8.477
20459SOL    HW261336   7.282   3.275   8.596
20460SOL     OW61337   5.940   2.428   8.740
20460SOL    HW161338   5.988   2.363   8.790
20460SOL    HW261339   5.946   2.398   8.649
20461SOL     OW61340   6.424   3.458   8.111
20461SOL    HW161341   6.406   3.534   8.057
20461SOL    HW261342   6.345   3.403   8.104
20462SOL     OW61343   7.007   2.095   8.563
20462SOL    HW161344   7.017   2.006   8.595
20462SOL    HW261345   6.961   2.142   8.632
20463SOL     OW61346   6.596   1.880   8.567
20463SOL    HW161347   6.542   1.816   8.520
20463SOL    HW261348   6.682   1.839   8.571
20464SOL     OW61349   6.365   3.195   7.779
20464SOL    HW161350   6.341   3.103   7.789
20464SOL    HW261351   6.446   3.204   7.828
20465SOL     OW61352   6.208   3.444   8.728
20465SOL    HW161353   6.206   3.533   8.766
20465SOL    HW261354   6.297   3.434   8.696
20466SOL     OW61355   6.966   1.900   7.640
20466SOL    HW161356   7.006   1.828   7.592
20466SOL    HW261357   6.875   1.874   7.651
20467SOL     OW61358   6.883   2.334   8.122
20467SOL    HW161359   6.833   2.415   8.120
20467SOL    HW261360   6.877   2.304   8.213
20468SOL     OW61361   7.168   2.050   8.341
20468SOL    HW161362   7.116   2.080   8.415
20468SOL    HW261363   7.169   2.124   8.281
20469SOL     OW61364   5.623   2.913   7.758
20469SOL    HW161365   5.716   2.902   7.738
20469SOL    HW261366   5.591   2.825   7.778
20470SOL     OW61367   6.480   3.537   7.776
20470SOL    HW161368   6.402   3.521   7.723
20470SOL    HW261369   6.454   3.605   7.837
20471SOL     OW61370   5.799   2.478   9.450
20471SOL    HW161371   5.712   2.464   9.486
20471SOL    HW261372   5.789   2.463   9.356
20472SOL     OW61373   7.391   2.431   9.520
20472SOL    HW161374   7.348   2.433   9.434
20472SOL    HW261375   7.343   2.365   9.569
20473SOL     OW61376   5.793   3.619   9.753
20473SOL    HW161377   5.813   3.685   9.818
20473SOL    HW261378   5.879   3.589   9.721
20474SOL     OW61379   5.801   3.323   9.845
20474SOL    HW161380   5.776   3.396   9.903
20474SOL    HW261381   5.742   3.252   9.869
20475SOL     OW61382   6.158   2.845   9.452
20475SOL    HW161383   6.212   2.885   9.384
20475SOL    HW261384   6.197   2.874   9.534
20476SOL     OW61385   5.654   2.537   9.885
20476SOL    HW161386   5.568   2.500   9.866
20476SOL    HW261387   5.635   2.616   9.937
20477SOL     OW61388   7.416   3.615   9.644
20477SOL    HW161389   7.493   3.595   9.697
20477SOL    HW261390   7.432   3.703   9.610
20478SOL     OW61391   5.651   3.424   9.455
20478SOL    HW161392   5.612   3.338   9.472
20478SOL    HW261393   5.610   3.481   9.519
20479SOL     OW61394   7.258   2.734   9.920
20479SOL    HW161395   7.331   2.753   9.978
20479SOL    HW261396   7.253   2.810   9.862
20480SOL     OW61397   7.281   2.962   9.756
20480SOL    HW161398   7.363   2.956   9.707
20480SOL    HW261399   7.295   3.035   9.817
20481SOL     OW61400   6.232   3.195   9.999
20481SOL    HW161401   6.172   3.121   9.995
20481SOL    HW261402   6.209   3.248   9.922
20482SOL     OW61403   6.404   1.890   9.828
20482SOL    HW161404   6.450   1.968   9.798
20482SOL    HW261405   6.312   1.916   9.830
20483SOL     OW61406   7.145   2.886   9.521
20483SOL    HW161407   7.085   2.817   9.548
20483SOL    HW261408   7.184   2.917   9.603
20484SOL     OW61409   6.171   2.558   9.585
20484SOL    HW161410   6.183   2.645   9.546
20484SOL    HW261411   6.112   2.572   9.659
20485SOL     OW61412   7.148   3.535   9.627
20485SOL    HW161413   7.241   3.558   9.635
20485SOL    HW261414   7.135   3.521   9.534
20486SOL     OW61415   6.630   2.556   9.733
20486SOL    HW161416   6.659   2.534   9.822
20486SOL    HW261417   6.546   2.511   9.723
20487SOL     OW61418   5.641   2.746   0.070
20487SOL    HW161419   5.711   2.695   0.112
20487SOL    HW261420   5.619   2.813   0.134
20488SOL     OW61421   6.475   2.210   9.505
20488SOL    HW161422   6.526   2.265   9.445
20488SOL    HW261423   6.455   2.131   9.455
20489SOL     OW61424   6.896   2.960   9.797
20489SOL    HW161425   6.950   2.987   9.871
20489SOL    HW261426   6.874   3.042   9.752
20490SOL     OW61427   6.573   3.296   9.778
20490SOL    HW161428   6.546   3.383   9.749
20490SOL    HW261429   6.549   3.294   9.871
20491SOL     OW61430   5.944   3.707   0.158
20491SOL    HW161431   5.948   3.631   0.215
20491SOL    HW261432   6.034   3.741   0.157
20492SOL     OW61433   5.902   2.819   9.575
20492SOL    HW161434   5.984   2.828   9.526
20492SOL    HW261435   5.866   2.735   9.545
20493SOL     OW61436   6.721   3.640   9.538
20493SOL    HW161437   6.643   3.605   9.582
20493SOL    HW261438   6.744   3.572   9.474
20494SOL     OW61439   7.225   3.255   9.404
20494SOL    HW161440   7.181   3.339   9.391
20494SOL    HW261441   7.160   3.189   9.379
20495SOL     OW61442   6.059   3.618   9.643
20495SOL    HW161443   6.105   3.660   9.715
20495SOL    HW261444   6.128   3.584   9.586
20496SOL     OW61445   7.010   2.012   9.737
20496SOL    HW161446   7.000   1.970   9.652
20496SOL    HW261447   7.105   2.015   9.751
20497SOL     OW61448   5.980   2.553   9.799
20497SOL    HW161449   5.990   2.460   9.820
20497SOL    HW261450   5.886   2.569   9.801
20498SOL     OW61451   6.247   1.969   9.417
20498SOL    HW161452   6.290   1.889   9.446
20498SOL    HW261453   6.186   1.941   9.349
20499SOL     OW61454   6.133   1.963   9.842
20499SOL    HW161455   6.040   1.956   9.867
20499SOL    HW261456   6.132   2.019   9.764
20500SOL     OW61457   7.032   3.067   9.343
20500SOL    HW161458   7.067   3.000   9.402
20500SOL    HW261459   6.947   3.090   9.381
20501SOL     OW61460   5.871   1.916   9.499
20501SOL    HW161461   5.923   1.981   9.452
20501SOL    HW261462   5.936   1.863   9.546
20502SOL     OW61463   6.538   2.120   9.757
20502SOL    HW161464   6.513   2.150   9.670
20502SOL    HW261465   6.631   2.139   9.763
20503SOL     OW61466   6.029   3.012   0.039
20503SOL    HW161467   5.957   3.044   0.094
20503SOL    HW261468   5.989   2.996   9.954
20504SOL     OW61469   6.883   3.695   9.898
20504SOL    HW161470   6.927   3.761   9.845
20504SOL    HW261471   6.795   3.730   9.912
20505SOL     OW61472   6.619   2.377   9.339
20505SOL    HW161473   6.577   2.461   9.320
20505SOL    HW261474   6.682   2.397   9.408
20506SOL     OW61475   6.433   2.300   9.940
20506SOL    HW161476   6.396   2.362   9.876
20506SOL    HW261477   6.466   2.228   9.887
20507SOL     OW61478   7.465   2.667   9.636
20507SOL    HW161479   7.499   2.629   9.717
20507SOL    HW261480   7.431   2.593   9.587
20508SOL     OW61481   6.025   3.313   9.418
20508SOL    HW161482   5.985   3.266   9.491
20508SOL    HW261483   6.063   3.245   9.363
20509SOL     OW61484   6.974   2.440   9.371
20509SOL    HW161485   6.920   2.416   9.446
20509SOL    HW261486   7.063   2.416   9.396
20510SOL     OW61487   6.127   2.123   9.623
20510SOL    HW161488   6.174   2.077   9.554
20510SOL    HW261489   6.089   2.199   9.581
20511SOL     OW61490   6.291   2.913   9.683
20511SOL    HW161491   6.255   2.864   9.757
20511SOL    HW261492   6.371   2.866   9.660
20512SOL     OW61493   5.904   2.986   9.798
20512SOL    HW161494   5.902   3.063   9.741
20512SOL    HW261495   5.911   2.912   9.738
20513SOL     OW61496   6.823   3.219   9.693
20513SOL    HW161497   6.877   3.291   9.725
20513SOL    HW261498   6.735   3.238   9.726
20514SOL     OW61499   7.225   2.500   9.790
20514SOL    HW161500   7.226   2.574   9.851
20514SOL    HW261501   7.181   2.533   9.712
20515SOL     OW61502   6.781   2.394   9.566
20515SOL    HW161503   6.790   2.318   9.624
20515SOL    HW261504   6.743   2.462   9.621
20516SOL     OW61505   5.869   1.954   9.928
20516SOL    HW161506   5.799   2.017   9.946
20516SOL    HW261507   5.885   1.911   0.012
20517SOL     OW61508   7.216   2.257   9.656
20517SOL    HW161509   7.240   2.181   9.708
20517SOL    HW261510   7.208   2.328   9.719
20518SOL     OW61511   7.104   2.137   9.425
20518SOL    HW161512   7.052   2.064   9.460
20518SOL    HW261513   7.141   2.178   9.503
20519SOL     OW61514   6.860   2.688   9.331
20519SOL    HW161515   6.898   2.600   9.339
20519SOL    HW261516   6.897   2.723   9.250
20520SOL     OW61517   5.591   3.161   9.495
20520SOL    HW161518   5.500   3.177   9.469
20520SOL    HW261519   5.589   3.074   9.533
20521SOL     OW61520   6.394   2.420   9.683
20521SOL    HW161521   6.408   2.350   9.619
20521SOL    HW261522   6.320   2.469   9.649
20522SOL     OW61523   6.030   2.339   9.482
20522SOL    HW161524   6.093   2.407   9.507
20522SOL    HW261525   5.946   2.385   9.479
20523SOL     OW61526   6.955   2.708   9.604
20523SOL    HW161527   6.901   2.756   9.667
20523SOL    HW261528   6.901   2.699   9.526
20524SOL     OW61529   7.294   2.019   9.771
20524SOL    HW161530   7.364   2.021   9.706
20524SOL    HW261531   7.310   1.940   9.822
20525SOL     OW61532   6.947   3.451   9.793
20525SOL    HW161533   7.019   3.468   9.732
20525SOL    HW261534   6.919   3.538   9.821
20526SOL     OW61535   6.242   3.503   9.465
20526SOL    HW161536   6.274   3.515   9.375
20526SOL    HW261537   6.181   3.430   9.458
20527SOL     OW61538   6.795   3.446   9.354
20527SOL    HW161539   6.787   3.354   9.379
20527SOL    HW261540   6.724   3.460   9.291
20528SOL     OW61541   6.508   2.774   9.600
20528SOL    HW161542   6.572   2.812   9.539
20528SOL    HW261543   6.558   2.708   9.648
20529SOL     OW61544   7.072   3.505   9.360
20529SOL    HW161545   6.979   3.486   9.345
20529SOL    HW261546   7.110   3.508   9.272
20530SOL     OW61547   6.184   3.347   9.778
20530SOL    HW161548   6.237   3.302   9.712
20530SOL    HW261549   6.104   3.373   9.731
20531SOL     OW61550   5.857   3.208   9.610
20531SOL    HW161551   5.768   3.185   9.582
20531SOL    HW261552   5.844   3.259   9.690
20532SOL     OW61553   5.669   2.177   9.326
20532SOL    HW161554   5.593   2.155   9.273
20532SOL    HW261555   5.696   2.264   9.294
20533SOL     OW61556   5.629   2.018   9.577
20533SOL    HW161557   5.622   2.083   9.508
20533SOL    HW261558   5.717   1.981   9.568
20534SOL     OW61559   6.778   3.167   9.428
20534SOL    HW161560   6.718   3.093   9.434
20534SOL    HW261561   6.800   3.188   9.519
20535SOL     OW61562   6.804   2.197   9.768
20535SOL    HW161563   6.878   2.137   9.758
20535SOL    HW261564   6.826   2.250   9.845
20536SOL     OW61565   6.183   2.732   9.874
20536SOL    HW161566   6.200   2.724   9.968
20536SOL    HW261567   6.112   2.670   9.858
20537SOL     OW61568   6.398   3.242   9.347
20537SOL    HW161569   6.401   3.252   9.443
20537SOL    HW261570   6.453   3.313   9.314
20538SOL     OW61571   6.674   2.873   9.403
20538SOL    HW161572   6.640   2.908   9.321
20538SOL    HW261573   6.738   2.808   9.377
20539SOL     OW61574   5.654   3.101   9.903
20539SOL    HW161575   5.638   3.108   9.998
20539SOL    HW261576   5.718   3.030   9.895
20540SOL     OW61577   6.002   2.291   9.862
20540SOL    HW161578   6.044   2.223   9.810
20540SOL    HW261579   6.034   2.276   9.951
20541SOL     OW61580   6.358   3.192   9.627
20541SOL    HW161581   6.337   3.100   9.644
20541SOL    HW261582   6.437   3.208   9.679
20542SOL     OW61583   6.963   1.903   9.491
20542SOL    HW161584   7.006   1.826   9.453
20542SOL    HW261585   6.873   1.875   9.507
20543SOL     OW61586   5.644   2.922   9.610
20543SOL    HW161587   5.738   2.913   9.598
20543SOL    HW261588   5.611   2.833   9.613
20544SOL     OW61589   6.479   3.535   9.661
20544SOL    HW161590   6.403   3.519   9.605
20544SOL    HW261591   6.452   3.605   9.720
20545SOL     OW61592   5.781   4.316   0.120
20545SOL    HW161593   5.699   4.314   0.169
20545SOL    HW261594   5.756   4.342   0.031
20546SOL     OW61595   5.805   4.012   0.989
20546SOL    HW161596   5.836   3.977   1.073
20546SOL    HW261597   5.718   3.974   0.977
20547SOL     OW61598   5.568   4.122   0.647
20547SOL    HW161599   5.487   4.145   0.693
20547SOL    HW261600   5.545   4.046   0.594
20548SOL     OW61601   6.161   5.032   1.209
20548SOL    HW161602   6.078   5.035   1.160
20548SOL    HW261603   6.178   5.123   1.232
20549SOL     OW61604   7.175   5.247   0.706
20549SOL    HW161605   7.128   5.215   0.783
20549SOL    HW261606   7.109   5.250   0.637
20550SOL     OW61607   6.724   4.425   0.686
20550SOL    HW161608   6.771   4.509   0.676
20550SOL    HW261609   6.675   4.435   0.767
20551SOL     OW61610   7.362   4.306   0.200
20551SOL    HW161611   7.288   4.337   0.147
20551SOL    HW261612   7.326   4.234   0.252
20552SOL     OW61613   6.313   4.853   1.057
20552SOL    HW161614   6.254   4.893   1.122
20552SOL    HW261615   6.356   4.927   1.015
20553SOL     OW61616   6.473   4.465   1.828
20553SOL    HW161617   6.465   4.532   1.897
20553SOL    HW261618   6.490   4.515   1.748
20554SOL     OW61619   6.271   4.700   0.646
20554SOL    HW161620   6.339   4.702   0.713
20554SOL    HW261621   6.205   4.763   0.676
20555SOL     OW61622   6.298   4.873   1.832
20555SOL    HW161623   6.349   4.946   1.867
20555SOL    HW261624   6.221   4.915   1.792
20556SOL     OW61625   5.928   5.121   1.071
20556SOL    HW161626   5.852   5.079   1.031
20556SOL    HW261627   5.964   5.177   1.001
20557SOL     OW61628   7.039   5.231   1.372
20557SOL    HW161629   7.094   5.308   1.385
20557SOL    HW261630   6.968   5.242   1.434
20558SOL     OW61631   6.044   4.097   1.454
20558SOL    HW161632   6.119   4.040   1.471
20558SOL    HW261633   5.968   4.047   1.482
20559SOL     OW61634   7.166   4.156   0.753
20559SOL    HW161635   7.093   4.164   0.692
20559SOL    HW261636   7.152   4.226   0.817
20560SOL     OW61637   5.814   5.444   0.469
20560SOL    HW161638   5.830   5.518   0.527
20560SOL    HW261639   5.899   5.424   0.431
20561SOL     OW61640   6.720   5.066   1.697
20561SOL    HW161641   6.766   5.055   1.780
20561SOL    HW261642   6.667   4.987   1.689
20562SOL     OW61643   5.796   5.167   0.507
20562SOL    HW161644   5.788   5.262   0.516
20562SOL    HW261645   5.756   5.133   0.587
20563SOL     OW61646   5.865   4.811   0.880
20563SOL    HW161647   5.868   4.722   0.916
20563SOL    HW261648   5.812   4.860   0.942
20564SOL     OW61649   6.159   5.528   1.420
20564SOL    HW161650   6.083   5.507   1.475
20564SOL    HW261651   6.192   5.611   1.454
20565SOL     OW61652   6.154   4.670   0.173
20565SOL    HW161653   6.126   4.740   0.114
20565SOL    HW261654   6.212   4.712   0.235
20566SOL     OW61655   7.177   3.858   1.459
20566SOL    HW161656   7.216   3.934   1.416
20566SOL    HW261657   7.146   3.890   1.543
20567SOL     OW61658   5.700   4.378   0.573
20567SOL    HW161659   5.664   4.292   0.598
20567SOL    HW261660   5.692   4.431   0.653
20568SOL     OW61661   7.448   5.462   0.307
20568SOL    HW161662   7.518   5.440   0.369
20568SOL    HW261663   7.463   5.554   0.285
20569SOL     OW61664   5.644   5.287   0.085
20569SOL    HW161665   5.619   5.204   0.126
20569SOL    HW261666   5.623   5.353   0.151
20570SOL     OW61667   7.283   4.644   0.664
20570SOL    HW161668   7.367   4.601   0.647
20570SOL    HW261669   7.265   4.693   0.584
20571SOL     OW61670   7.248   4.815   0.443
20571SOL    HW161671   7.329   4.811   0.392
20571SOL    HW261672   7.262   4.884   0.507
20572SOL     OW61673   5.707   4.474   1.578
20572SOL    HW161674   5.792   4.518   1.584
20572SOL    HW261675   5.644   4.545   1.566
20573SOL     OW61676   6.202   5.105   0.757
20573SOL    HW161677   6.160   5.019   0.752
20573SOL    HW261678   6.198   5.139   0.668
20574SOL     OW61679   6.857   4.950   1.417
20574SOL    HW161680   6.884   4.881   1.357
20574SOL    HW261681   6.918   4.945   1.490
20575SOL     OW61682   6.418   3.741   0.528
20575SOL    HW161683   6.458   3.822   0.497
20575SOL    HW261684   6.324   3.760   0.529
20576SOL     OW61685   5.773   4.680   1.302
20576SOL    HW161686   5.860   4.645   1.285
20576SOL    HW261687   5.718   4.643   1.233
20577SOL     OW61688   7.075   4.754   0.236
20577SOL    HW161689   7.021   4.682   0.268
20577SOL    HW261690   7.138   4.770   0.306
20578SOL     OW61691   6.766   5.547   1.636
20578SOL    HW161692   6.767   5.608   1.562
20578SOL    HW261693   6.783   5.462   1.596
20579SOL     OW61694   5.946   3.977   1.874
20579SOL    HW161695   5.982   4.057   1.913
20579SOL    HW261696   5.852   3.992   1.872
20580SOL     OW61697   7.058   5.140   0.931
20580SOL    HW161698   6.994   5.160   1.000
20580SOL    HW261699   7.040   5.050   0.907
20581SOL     OW61700   7.230   5.520   0.565
20581SOL    HW161701   7.214   5.474   0.483
20581SOL    HW261702   7.228   5.451   0.631
20582SOL     OW61703   6.177   4.412   0.282
20582SOL    HW161704   6.185   4.499   0.241
20582SOL    HW261705   6.112   4.424   0.351
20583SOL     OW61706   6.868   4.115   0.941
20583SOL    HW161707   6.779   4.080   0.947
20583SOL    HW261708   6.920   4.057   0.997
20584SOL     OW61709   7.177   5.400   0.324
20584SOL    HW161710   7.271   5.411   0.309
20584SOL    HW261711   7.141   5.382   0.237
20585SOL     OW61712   6.375   4.338   1.430
20585SOL    HW161713   6.353   4.309   1.518
20585SOL    HW261714   6.351   4.265   1.374
20586SOL     OW61715   6.978   4.200   1.674
20586SOL    HW161716   6.983   4.244   1.760
20586SOL    HW261717   7.028   4.120   1.686
20587SOL     OW61718   6.530   4.604   1.593
20587SOL    HW161719   6.586   4.541   1.549
20587SOL    HW261720   6.482   4.647   1.523
20588SOL     OW61721   6.593   4.122   1.210
20588SOL    HW161722   6.501   4.135   1.232
20588SOL    HW261723   6.591   4.077   1.125
20589SOL     OW61724   6.652   4.421   0.417
20589SOL    HW161725   6.672   4.418   0.510
20589SOL    HW261726   6.567   4.378   0.409
20590SOL     OW61727   5.678   4.552   0.783
20590SOL    HW161728   5.761   4.545   0.831
20590SOL    HW261729   5.631   4.623   0.827
20591SOL     OW61730   5.695   5.603   1.588
20591SOL    HW161731   5.703   5.583   1.681
20591SOL    HW261732   5.609   5.568   1.563
20592SOL     OW61733   6.446   4.064   0.199
20592SOL    HW161734   6.431   4.113   0.119
20592SOL    HW261735   6.457   3.973   0.171
20593SOL     OW61736   7.273   4.286   1.840
20593SOL    HW161737   7.251   4.364   1.788
20593SOL    HW261738   7.302   4.222   1.775
20594SOL     OW61739   6.981   4.873   0.555
20594SOL    HW161740   7.060   4.863   0.501
20594SOL    HW261741   6.926   4.934   0.506
20595SOL     OW61742   6.137   3.887   0.916
20595SOL    HW161743   6.142   3.914   1.008
20595SOL    HW261744   6.133   3.970   0.867
20596SOL     OW61745   6.584   5.176   0.471
20596SOL    HW161746   6.561   5.253   0.418
20596SOL    HW261747   6.553   5.196   0.559
20597SOL     OW61748   5.939   5.541   0.880
20597SOL    HW161749   5.984   5.457   0.884
20597SOL    HW261750   6.006   5.605   0.902
20598SOL     OW61751   7.389   4.768   0.895
20598SOL    HW161752   7.340   4.751   0.815
20598SOL    HW261753   7.321   4.778   0.962
20599SOL     OW61754   6.805   5.268   1.518
20599SOL    HW161755   6.793   5.197   1.580
20599SOL    HW261756   6.734   5.256   1.454
20600SOL     OW61757   5.900   4.648   0.290
20600SOL    HW161758   5.981   4.655   0.240
20600SOL    HW261759   5.906   4.563   0.334
20601SOL     OW61760   7.070   4.481   0.713
20601SOL    HW161761   7.071   4.441   0.800
20601SOL    HW261762   7.149   4.536   0.712
20602SOL     OW61763   6.060   5.007   1.747
20602SOL    HW161764   6.036   5.011   1.655
20602SOL    HW261765   5.977   4.996   1.793
20603SOL     OW61766   6.690   5.508   0.180
20603SOL    HW161767   6.634   5.467   0.246
20603SOL    HW261768   6.730   5.434   0.133
20604SOL     OW61769   5.794   3.980   1.499
20604SOL    HW161770   5.724   4.041   1.522
20604SOL    HW261771   5.764   3.896   1.533
20605SOL     OW61772   7.216   5.093   0.111
20605SOL    HW161773   7.175   5.179   0.104
20605SOL    HW261774   7.150   5.033   0.076
20606SOL     OW61775   6.074   5.433   0.375
20606SOL    HW161776   6.109   5.508   0.421
20606SOL    HW261777   6.140   5.411   0.310
20607SOL     OW61778   6.983   3.830   0.452
20607SOL    HW161779   6.981   3.808   0.358
20607SOL    HW261780   7.074   3.819   0.477
20608SOL     OW61781   5.837   5.512   1.215
20608SOL    HW161782   5.887   5.438   1.251
20608SOL    HW261783   5.826   5.491   1.123
20609SOL     OW61784   6.532   5.426   0.891
20609SOL    HW161785   6.616   5.382   0.906
20609SOL    HW261786   6.491   5.375   0.821
20610SOL     OW61787   5.956   4.419   0.461
20610SOL    HW161788   5.980   4.327   0.472
20610SOL    HW261789   5.868   4.426   0.497
20611SOL     OW61790   7.095   3.946   1.717
20611SOL    HW161791   7.108   3.965   1.810
20611SOL    HW261792   7.029   3.877   1.715
20612SOL     OW61793   6.196   3.817   0.116
20612SOL    HW161794   6.291   3.808   0.126
20612SOL    HW261795   6.182   3.824   0.022
20613SOL     OW61796   6.344   3.998   1.751
20613SOL    HW161797   6.429   3.953   1.750
20613SOL    HW261798   6.298   3.960   1.826
20614SOL     OW61799   6.456   5.252   1.201
20614SOL    HW161800   6.437   5.210   1.117
20614SOL    HW261801   6.523   5.196   1.240
20615SOL     OW61802   6.916   4.316   1.434
20615SOL    HW161803   6.949   4.285   1.518
20615SOL    HW261804   6.955   4.402   1.423
20616SOL     OW61805   6.403   5.101   0.961
20616SOL    HW161806   6.489   5.097   0.918
20616SOL    HW261807   6.341   5.113   0.889
20617SOL     OW61808   6.517   4.238   0.891
20617SOL    HW161809   6.492   4.226   0.799
20617SOL    HW261810   6.544   4.152   0.920
20618SOL     OW61811   6.149   3.800   0.503
20618SOL    HW161812   6.070   3.798   0.557
20618SOL    HW261813   6.136   3.872   0.442
20619SOL     OW61814   7.009   4.921   0.033
20619SOL    HW161815   7.035   4.857   0.098
20619SOL    HW261816   6.929   4.960   0.067
20620SOL     OW61817   6.537   3.975   0.449
20620SOL    HW161818   6.506   4.012   0.367
20620SOL    HW261819   6.631   3.996   0.451
20621SOL     OW61820   6.662   4.418   1.446
20621SOL    HW161821   6.600   4.345   1.451
20621SOL    HW261822   6.748   4.375   1.443
20622SOL     OW61823   6.792   5.311   0.800
20622SOL    HW161824   6.808   5.371   0.727
20622SOL    HW261825   6.862   5.329   0.862
20623SOL     OW61826   6.065   4.872   0.709
20623SOL    HW161827   6.001   4.851   0.778
20623SOL    HW261828   6.015   4.868   0.628
20624SOL     OW61829   6.839   5.517   0.613
20624SOL    HW161830   6.888   5.581   0.561
20624SOL    HW261831   6.770   5.568   0.655
20625SOL     OW61832   6.677   4.285   9.981
20625SOL    HW161833   6.589   4.248   9.989
20625SOL    HW261834   6.714   4.278   0.069
20626SOL     OW61835   5.684   4.277   1.390
20626SOL    HW161836   5.777   4.277   1.365
20626SOL    HW261837   5.678   4.346   1.457
20627SOL     OW61838   6.145   3.945   1.186
20627SOL    HW161839   6.182   3.882   1.248
20627SOL    HW261840   6.051   3.946   1.206
20628SOL     OW61841   6.458   4.176   0.633
20628SOL    HW161842   6.423   4.233   0.565
20628SOL    HW261843   6.483   4.096   0.587
20629SOL     OW61844   6.611   3.781   0.742
20629SOL    HW161845   6.547   3.776   0.670
20629SOL    HW261846   6.586   3.709   0.800
20630SOL     OW61847   7.017   4.877   0.855
20630SOL    HW161848   6.949   4.810   0.867
20630SOL    HW261849   7.028   4.883   0.760
20631SOL     OW61850   7.048   4.339   0.952
20631SOL    HW161851   6.984   4.268   0.962
20631SOL    HW261852   7.104   4.332   1.029
20632SOL     OW61853   7.445   4.514   0.369
20632SOL    HW161854   7.487   4.465   0.440
20632SOL    HW261855   7.408   4.446   0.312
20633SOL     OW61856   6.090   5.167   0.212
20633SOL    HW161857   6.009   5.122   0.233
20633SOL    HW261858   6.133   5.111   0.147
20634SOL     OW61859   7.296   4.995   0.632
20634SOL    HW161860   7.389   4.987   0.656
20634SOL    HW261861   7.272   5.083   0.659
20635SOL     OW61862   7.001   4.288   0.093
20635SOL    HW161863   6.925   4.276   0.150
20635SOL    HW261864   7.039   4.200   0.085
20636SOL     OW61865   6.094   3.987   0.309
20636SOL    HW161866   6.133   3.928   0.244
20636SOL    HW261867   6.072   4.066   0.259
20637SOL     OW61868   7.320   4.968   1.532
20637SOL    HW161869   7.409   4.934   1.519
20637SOL    HW261870   7.334   5.055   1.570
20638SOL     OW61871   6.627   5.078   1.334
20638SOL    HW161872   6.550   5.044   1.380
20638SOL    HW261873   6.701   5.034   1.375
20639SOL     OW61874   7.193   5.359   1.671
20639SOL    HW161875   7.183   5.395   1.584
20639SOL    HW261876   7.271   5.303   1.665
20640SOL     OW61877   6.736   4.961   1.104
20640SOL    HW161878   6.675   4.995   1.169
20640SOL    HW261879   6.703   4.994   1.021
20641SOL     OW61880   7.193   4.816   1.079
20641SOL    HW161881   7.185   4.883   1.147
20641SOL    HW261882   7.123   4.837   1.017
20642SOL     OW61883   6.505   3.805   1.383
20642SOL    HW161884   6.527   3.790   1.291
20642SOL    HW261885   6.584   3.846   1.420
20643SOL     OW61886   6.565   4.840   1.724
20643SOL    HW161887   6.475   4.856   1.752
20643SOL    HW261888   6.560   4.759   1.673
20644SOL     OW61889   6.308   4.775   0.377
20644SOL    HW161890   6.295   4.748   0.468
20644SOL    HW261891   6.389   4.730   0.351
20645SOL     OW61892   6.012   4.551   1.259
20645SOL    HW161893   6.079   4.561   1.326
20645SOL    HW261894   5.982   4.461   1.269
20646SOL     OW61895   6.851   4.093   1.291
20646SOL    HW161896   6.878   4.173   1.336
20646SOL    HW261897   6.761   4.111   1.262
20647SOL     OW61898   5.664   5.295   1.363
20647SOL    HW161899   5.635   5.367   1.307
20647SOL    HW261900   5.759   5.294   1.354
20648SOL     OW61901   5.901   4.848   0.486
20648SOL    HW161902   5.901   4.919   0.422
20648SOL    HW261903   5.910   4.768   0.434
20649SOL     OW61904   6.119   4.236   0.856
20649SOL    HW161905   6.129   4.295   0.781
20649SOL    HW261906   6.186   4.264   0.917
20650SOL     OW61907   6.835   5.072   0.418
20650SOL    HW161908   6.890   5.145   0.445
20650SOL    HW261909   6.746   5.098   0.443
20651SOL     OW61910   6.895   5.192   1.143
20651SOL    HW161911   6.942   5.199   1.226
20651SOL    HW261912   6.844   5.112   1.152
20652SOL     OW61913   7.128   4.345   0.475
20652SOL    HW161914   7.106   4.383   0.559
20652SOL    HW261915   7.088   4.404   0.411
20653SOL     OW61916   5.931   5.257   1.303
20653SOL    HW161917   5.923   5.204   1.223
20653SOL    HW261918   6.025   5.273   1.313
20654SOL     OW61919   6.020   4.469   1.620
20654SOL    HW161920   6.078   4.513   1.557
20654SOL    HW261921   6.067   4.388   1.642
20655SOL     OW61922   7.213   4.509   1.698
20655SOL    HW161923   7.126   4.548   1.689
20655SOL    HW261924   7.263   4.548   1.626
20656SOL     OW61925   6.581   3.865   1.757
20656SOL    HW161926   6.639   3.939   1.739
20656SOL    HW261927   6.632   3.787   1.736
20657SOL     OW61928   6.081   3.759   1.761
20657SOL    HW161929   6.026   3.709   1.701
20657SOL    HW261930   6.029   3.836   1.784
20658SOL     OW61931   6.174   4.599   1.037
20658SOL    HW161932   6.214   4.686   1.041
20658SOL    HW261933   6.119   4.595   1.115
20659SOL     OW61934   6.895   4.577   1.003
20659SOL    HW161935   6.807   4.550   0.977
20659SOL    HW261936   6.950   4.501   0.986
20660SOL     OW61937   6.776   4.242   0.246
20660SOL    HW161938   6.789   4.167   0.304
20660SOL    HW261939   6.736   4.309   0.302
20661SOL     OW61940   5.876   3.918   1.239
20661SOL    HW161941   5.842   3.947   1.323
20661SOL    HW261942   5.860   3.824   1.237
20662SOL     OW61943   5.635   5.037   1.267
20662SOL    HW161944   5.665   4.981   1.339
20662SOL    HW261945   5.638   5.126   1.303
20663SOL     OW61946   6.293   4.345   1.036
20663SOL    HW161947   6.374   4.338   0.985
20663SOL    HW261948   6.266   4.436   1.028
20664SOL     OW61949   7.337   4.692   1.869
20664SOL    HW161950   7.297   4.619   1.821
20664SOL    HW261951   7.274   4.712   1.938
20665SOL     OW61952   5.903   3.788   0.630
20665SOL    HW161953   5.873   3.877   0.649
20665SOL    HW261954   5.911   3.746   0.716
20666SOL     OW61955   7.222   4.117   0.351
20666SOL    HW161956   7.256   4.052   0.413
20666SOL    HW261957   7.188   4.187   0.405
20667SOL     OW61958   6.620   4.482   0.958
20667SOL    HW161959   6.598   4.497   1.050
20667SOL    HW261960   6.590   4.393   0.940
20668SOL     OW61961   6.566   5.291   1.733
20668SOL    HW161962   6.546   5.333   1.650
20668SOL    HW261963   6.604   5.207   1.709
20669SOL     OW61964   7.424   5.219   1.602
20669SOL    HW161965   7.451   5.248   1.515
20669SOL    HW261966   7.502   5.229   1.656
20670SOL     OW61967   5.936   4.644   1.815
20670SOL    HW161968   6.011   4.661   1.871
20670SOL    HW261969   5.967   4.580   1.751
20671SOL     OW61970   7.084   4.028   0.128
20671SOL    HW161971   7.037   3.947   0.151
20671SOL    HW261972   7.133   4.050   0.207
20672SOL     OW61973   6.908   4.541   0.039
20672SOL    HW161974   6.941   4.452   0.040
20672SOL    HW261975   6.967   4.589   9.980
20673SOL     OW61976   6.656   5.077   0.865
20673SOL    HW161977   6.667   5.004   0.804
20673SOL    HW261978   6.708   5.148   0.827
20674SOL     OW61979   5.904   4.538   0.944
20674SOL    HW161980   5.998   4.554   0.946
20674SOL    HW261981   5.894   4.448   0.975
20675SOL     OW61982   5.899   4.261   1.010
20675SOL    HW161983   5.860   4.175   1.001
20675SOL    HW261984   5.976   4.259   0.953
20676SOL     OW61985   6.725   4.092   1.685
20676SOL    HW161986   6.679   4.143   1.752
20676SOL    HW261987   6.810   4.134   1.677
20677SOL     OW61988   6.742   3.914   1.473
20677SOL    HW161989   6.731   3.976   1.546
20677SOL    HW261990   6.789   3.964   1.406
20678SOL     OW61991   5.603   5.018   0.173
20678SOL    HW161992   5.513   5.043   0.153
20678SOL    HW261993   5.595   4.936   0.222
20679SOL     OW61994   5.678   5.494   0.950
20679SOL    HW161995   5.645   5.420   0.900
20679SOL    HW261996   5.765   5.511   0.914
20680SOL     OW61997   6.070   5.296   0.904
20680SOL    HW161998   6.140   5.357   0.925
20680SOL    HW261999   6.112   5.228   0.851
20681SOL     OW62000   6.534   4.503   1.216
20681SOL    HW162001   6.598   4.493   1.287
20681SOL    HW262002   6.455   4.459   1.248
20682SOL     OW62003   5.627   4.297   1.120
20682SOL    HW162004   5.709   4.293   1.071
20682SOL    HW262005   5.653   4.290   1.212
20683SOL     OW62006   5.772   4.262   1.743
20683SOL    HW162007   5.848   4.234   1.692
20683SOL    HW262008   5.736   4.336   1.693
20684SOL     OW62009   6.978   4.644   1.651
20684SOL    HW162010   6.995   4.739   1.647
20684SOL    HW262011   6.970   4.617   1.560
20685SOL     OW62012   6.413   4.287   0.374
20685SOL    HW162013   6.419   4.212   0.315
20685SOL    HW262014   6.334   4.334   0.346
20686SOL     OW62015   7.222   4.325   1.164
20686SOL    HW162016   7.214   4.266   1.239
20686SOL    HW262017   7.313   4.314   1.136
20687SOL     OW62018   5.812   5.263   1.723
20687SOL    HW162019   5.788   5.313   1.801
20687SOL    HW262020   5.824   5.174   1.753
20688SOL     OW62021   6.319   4.157   1.233
20688SOL    HW162022   6.255   4.087   1.219
20688SOL    HW262023   6.300   4.221   1.164
20689SOL     OW62024   6.496   5.401   1.484
20689SOL    HW162025   6.472   5.355   1.404
20689SOL    HW262026   6.497   5.494   1.459
20690SOL     OW62027   6.038   4.207   0.151
20690SOL    HW162028   6.095   4.274   0.188
20690SOL    HW262029   5.952   4.248   0.148
20691SOL     OW62030   5.715   4.875   1.481
20691SOL    HW162031   5.720   4.836   1.568
20691SOL    HW262032   5.737   4.803   1.421
20692SOL     OW62033   6.889   4.758   1.209
20692SOL    HW162034   6.899   4.694   1.138
20692SOL    HW262035   6.836   4.828   1.171
20693SOL     OW62036   6.911   4.545   0.318
20693SOL    HW162037   6.826   4.521   0.356
20693SOL    HW262038   6.897   4.541   0.223
20694SOL     OW62039   7.372   5.449   1.169
20694SOL    HW162040   7.434   5.474   1.101
20694SOL    HW262041   7.341   5.362   1.143
20695SOL     OW62042   6.826   5.456   1.088
20695SOL    HW162043   6.911   5.487   1.056
20695SOL    HW262044   6.841   5.366   1.114
20696SOL     OW62045   5.692   4.972   1.011
20696SOL    HW162046   5.664   4.994   1.100
20696SOL    HW262047   5.620   4.920   0.976
20697SOL     OW62048   6.273   5.407   1.751
20697SOL    HW162049   6.210   5.478   1.737
20697SOL    HW262050   6.349   5.431   1.697
20698SOL     OW62051   6.474   3.803   0.096
20698SOL    HW162052   6.470   3.776   0.005
20698SOL    HW262053   6.551   3.758   0.131
20699SOL     OW62054   7.338   3.906   0.495
20699SOL    HW162055   7.399   3.883   0.424
20699SOL    HW262056   7.309   3.822   0.530
20700SOL     OW62057   6.986   5.295   0.503
20700SOL    HW162058   7.044   5.329   0.435
20700SOL    HW262059   6.933   5.370   0.530
20701SOL     OW62060   5.721   5.530   1.844
20701SOL    HW162061   5.680   5.454   1.886
20701SOL    HW262062   5.771   5.572   1.914
20702SOL     OW62063   6.865   4.657   0.669
20702SOL    HW162064   6.939   4.597   0.681
20702SOL    HW262065   6.902   4.729   0.618
20703SOL     OW62066   6.369   5.004   1.414
20703SOL    HW162067   6.343   5.052   1.493
20703SOL    HW262068   6.295   5.014   1.355
20704SOL     OW62069   6.271   5.363   0.188
20704SOL    HW162070   6.274   5.380   0.094
20704SOL    HW262071   6.215   5.285   0.197
20705SOL     OW62072   7.202   5.455   1.401
20705SOL    HW162073   7.259   5.454   1.325
20705SOL    HW262074   7.186   5.547   1.420
20706SOL     OW62075   7.431   3.884   0.963
20706SOL    HW162076   7.459   3.795   0.943
20706SOL    HW262077   7.343   3.890   0.926
20707SOL     OW62078   5.828   4.037   0.708
20707SOL    HW162079   5.741   4.072   0.689
20707SOL    HW262080   5.833   4.037   0.804
20708SOL     OW62081   6.803   5.291   0.051
20708SOL    HW162082   6.791   5.202   0.082
20708SOL    HW262083   6.818   5.283   9.957
20709SOL     OW62084   6.410   4.735   1.385
20709SOL    HW162085   6.447   4.727   1.298
20709SOL    HW262086   6.398   4.830   1.398
20710SOL     OW62087   6.527   4.644   0.295
20710SOL    HW162088   6.576   4.665   0.215
20710SOL    HW262089   6.575   4.571   0.334
20711SOL     OW62090   7.076   5.335   0.075
20711SOL    HW162091   6.981   5.327   0.081
20711SOL    HW262092   7.093   5.345   9.981
20712SOL     OW62093   5.949   5.036   1.501
20712SOL    HW162094   5.941   5.110   1.441
20712SOL    HW262095   5.871   4.983   1.485
20713SOL     OW62096   7.184   5.015   1.277
20713SOL    HW162097   7.239   4.990   1.352
20713SOL    HW262098   7.126   5.082   1.311
20714SOL     OW62099   6.662   4.842   0.730
20714SOL    HW162100   6.587   4.793   0.761
20714SOL    HW262101   6.724   4.775   0.701
20715SOL     OW62102   6.619   3.973   0.961
20715SOL    HW162103   6.619   3.930   0.876
20715SOL    HW262104   6.612   3.901   1.024
20716SOL     OW62105   6.207   5.209   0.507
20716SOL    HW162106   6.248   5.154   0.440
20716SOL    HW262107   6.139   5.257   0.460
20717SOL     OW62108   7.331   4.107   1.387
20717SOL    HW162109   7.402   4.171   1.384
20717SOL    HW262110   7.357   4.038   1.326
20718SOL     OW62111   5.856   5.036   0.282
20718SOL    HW162112   5.773   5.039   0.234
20718SOL    HW262113   5.840   5.089   0.360
20719SOL     OW62114   5.706   4.771   1.735
20719SOL    HW162115   5.629   4.743   1.785
20719SOL    HW262116   5.779   4.720   1.772
20720SOL     OW62117   6.265   3.912   1.494
20720SOL    HW162118   6.349   3.886   1.456
20720SOL    HW262119   6.287   3.946   1.581
20721SOL     OW62120   5.680   4.006   0.028
20721SOL    HW162121   5.591   4.036   0.007
20721SOL    HW262122   5.734   4.084   0.017
20722SOL     OW62123   7.001   4.578   1.388
20722SOL    HW162124   6.948   4.637   1.333
20722SOL    HW262125   7.089   4.582   1.351
20723SOL     OW62126   5.657   3.867   0.282
20723SOL    HW162127   5.655   3.915   0.199
20723SOL    HW262128   5.750   3.864   0.305
20724SOL     OW62129   6.781   5.036   0.144
20724SOL    HW162130   6.691   5.006   0.136
20724SOL    HW262131   6.799   5.034   0.238
20725SOL     OW62132   6.211   4.556   1.441
20725SOL    HW162133   6.270   4.631   1.430
20725SOL    HW262134   6.269   4.480   1.440
20726SOL     OW62135   7.074   5.526   0.993
20726SOL    HW162136   7.100   5.600   0.939
20726SOL    HW262137   7.156   5.483   1.017
20727SOL     OW62138   6.310   4.273   1.685
20727SOL    HW162139   6.357   4.327   1.749
20727SOL    HW262140   6.320   4.183   1.717
20728SOL     OW62141   7.054   4.908   1.619
20728SOL    HW162142   7.046   4.930   1.712
20728SOL    HW262143   7.144   4.932   1.596
20729SOL     OW62144   5.940   5.471   1.579
20729SOL    HW162145   5.858   5.517   1.562
20729SOL    HW262146   5.913   5.387   1.618
20730SOL     OW62147   7.241   4.599   1.254
20730SOL    HW162148   7.240   4.516   1.206
20730SOL    HW262149   7.228   4.666   1.185
20731SOL     OW62150   6.806   4.048   0.452
20731SOL    HW162151   6.866   3.974   0.451
20731SOL    HW262152   6.834   4.100   0.527
20732SOL     OW62153   6.151   4.446   0.675
20732SOL    HW162154   6.199   4.528   0.665
20732SOL    HW262155   6.087   4.447   0.605
20733SOL     OW62156   7.334   4.079   1.663
20733SOL    HW162157   7.330   4.095   1.569
20733SOL    HW262158   7.256   4.026   1.682
20734SOL     OW62159   7.346   4.649   1.504
20734SOL    HW162160   7.328   4.742   1.517
20734SOL    HW262161   7.319   4.632   1.414
20735SOL     OW62162   6.485   5.140   0.045
20735SOL    HW162163   6.400   5.099   0.027
20735SOL    HW262164   6.477   5.176   0.133
20736SOL     OW62165   6.253   5.493   0.927
20736SOL    HW162166   6.235   5.586   0.919
20736SOL    HW262167   6.349   5.486   0.925
20737SOL     OW62168   6.458   4.699   0.856
20737SOL    HW162169   6.509   4.627   0.893
20737SOL    HW262170   6.413   4.737   0.932
20738SOL     OW62171   6.681   4.694   0.074
20738SOL    HW162172   6.678   4.747   9.994
20738SOL    HW262173   6.755   4.635   0.060
20739SOL     OW62174   7.416   5.281   0.841
20739SOL    HW162175   7.339   5.272   0.784
20739SOL    HW262176   7.393   5.231   0.919
20740SOL     OW62177   5.799   5.010   1.836
20740SOL    HW162178   5.767   4.930   1.793
20740SOL    HW262179   5.740   5.022   1.911
20741SOL     OW62180   5.704   4.942   0.670
20741SOL    HW162181   5.734   4.902   0.751
20741SOL    HW262182   5.764   4.908   0.603
20742SOL     OW62183   6.276   5.144   1.632
20742SOL    HW162184   6.200   5.104   1.674
20742SOL    HW262185   6.281   5.232   1.669
20743SOL     OW62186   7.395   3.896   1.233
20743SOL    HW162187   7.398   3.801   1.247
20743SOL    HW262188   7.410   3.907   1.139
20744SOL     OW62189   5.997   4.160   0.513
20744SOL    HW162190   6.033   4.089   0.459
20744SOL    HW262191   5.951   4.115   0.584
20745SOL     OW62192   7.282   5.203   1.081
20745SOL    HW162193   7.204   5.184   1.030
20745SOL    HW262194   7.284   5.136   1.149
20746SOL     OW62195   5.938   4.289   1.291
20746SOL    HW162196   5.987   4.224   1.343
20746SOL    HW262197   5.946   4.259   1.201
20747SOL     OW62198   6.421   5.321   0.662
20747SOL    HW162199   6.412   5.404   0.616
20747SOL    HW262200   6.345   5.270   0.636
20748SOL     OW62201   7.008   3.957   1.116
20748SOL    HW162202   7.020   3.869   1.151
20748SOL    HW262203   6.962   4.005   1.185
20749SOL     OW62204   6.597   3.742   1.120
20749SOL    HW162205   6.542   3.678   1.073
20749SOL    HW262206   6.683   3.701   1.122
20750SOL     OW62207   6.360   5.049   0.343
20750SOL    HW162208   6.341   4.955   0.348
20750SOL    HW262209   6.446   5.057   0.386
20751SOL     OW62210   6.202   5.293   1.288
20751SOL    HW162211   6.197   5.377   1.333
20751SOL    HW262212   6.292   5.289   1.255
20752SOL     OW62213   6.945   3.778   0.183
20752SOL    HW162214   6.977   3.731   0.106
20752SOL    HW262215   6.854   3.750   0.192
20753SOL     OW62216   6.885   4.192   0.675
20753SOL    HW162217   6.836   4.274   0.672
20753SOL    HW262218   6.876   4.163   0.766
20754SOL     OW62219   7.168   3.912   0.894
20754SOL    HW162220   7.116   3.941   0.968
20754SOL    HW262221   7.167   3.986   0.833
20755SOL     OW62222   5.627   4.771   0.304
20755SOL    HW162223   5.722   4.773   0.312
20755SOL    HW262224   5.603   4.682   0.331
20756SOL     OW62225   6.492   5.404   0.344
20756SOL    HW162226   6.414   5.390   0.292
20756SOL    HW262227   6.468   5.474   0.405
20757SOL     OW62228   5.794   4.345   2.009
20757SOL    HW162229   5.707   4.333   2.047
20757SOL    HW262230   5.782   4.331   1.915
20758SOL     OW62231   5.806   4.011   2.851
20758SOL    HW162232   5.835   3.977   2.935
20758SOL    HW262233   5.718   3.975   2.840
20759SOL     OW62234   5.571   4.120   2.508
20759SOL    HW162235   5.492   4.145   2.555
20759SOL    HW262236   5.544   4.046   2.453
20760SOL     OW62237   6.162   5.031   3.070
20760SOL    HW162238   6.078   5.034   3.023
20760SOL    HW262239   6.178   5.122   3.094
20761SOL     OW62240   7.173   5.248   2.568
20761SOL    HW162241   7.126   5.217   2.645
20761SOL    HW262242   7.106   5.251   2.499
20762SOL     OW62243   6.723   4.427   2.548
20762SOL    HW162244   6.769   4.510   2.536
20762SOL    HW262245   6.675   4.438   2.630
20763SOL     OW62246   7.387   4.305   2.081
20763SOL    HW162247   7.349   4.304   1.994
20763SOL    HW262248   7.343   4.234   2.128
20764SOL     OW62249   6.313   4.854   2.919
20764SOL    HW162250   6.255   4.893   2.983
20764SOL    HW262251   6.356   4.928   2.876
20765SOL     OW62252   6.471   4.465   3.690
20765SOL    HW162253   6.461   4.531   3.759
20765SOL    HW262254   6.489   4.515   3.611
20766SOL     OW62255   6.272   4.709   2.506
20766SOL    HW162256   6.339   4.708   2.574
20766SOL    HW262257   6.206   4.770   2.537
20767SOL     OW62258   6.299   4.874   3.694
20767SOL    HW162259   6.349   4.947   3.730
20767SOL    HW262260   6.222   4.916   3.654
20768SOL     OW62261   5.929   5.121   2.932
20768SOL    HW162262   5.853   5.079   2.892
20768SOL    HW262263   5.965   5.176   2.862
20769SOL     OW62264   7.039   5.231   3.234
20769SOL    HW162265   7.094   5.308   3.247
20769SOL    HW262266   6.967   5.241   3.295
20770SOL     OW62267   6.044   4.097   3.315
20770SOL    HW162268   6.118   4.039   3.333
20770SOL    HW262269   5.967   4.048   3.344
20771SOL     OW62270   7.169   4.156   2.617
20771SOL    HW162271   7.101   4.166   2.550
20771SOL    HW262272   7.152   4.226   2.680
20772SOL     OW62273   5.803   5.453   2.327
20772SOL    HW162274   5.830   5.523   2.386
20772SOL    HW262275   5.877   5.441   2.268
20773SOL     OW62276   6.719   5.067   3.559
20773SOL    HW162277   6.764   5.057   3.642
20773SOL    HW262278   6.666   4.988   3.550
20774SOL     OW62279   5.818   5.181   2.395
20774SOL    HW162280   5.796   5.274   2.401
20774SOL    HW262281   5.769   5.140   2.467
20775SOL     OW62282   5.872   4.813   2.741
20775SOL    HW162283   5.873   4.724   2.775
20775SOL    HW262284   5.816   4.861   2.802
20776SOL     OW62285   6.162   5.525   3.284
20776SOL    HW162286   6.085   5.506   3.338
20776SOL    HW262287   6.194   5.609   3.318
20777SOL     OW62288   6.151   4.712   2.014
20777SOL    HW162289   6.202   4.754   1.945
20777SOL    HW262290   6.192   4.741   2.095
20778SOL     OW62291   7.178   3.857   3.322
20778SOL    HW162292   7.216   3.934   3.279
20778SOL    HW262293   7.146   3.889   3.406
20779SOL     OW62294   5.704   4.384   2.429
20779SOL    HW162295   5.672   4.297   2.453
20779SOL    HW262296   5.698   4.435   2.509
20780SOL     OW62297   7.432   5.467   2.179
20780SOL    HW162298   7.504   5.451   2.241
20780SOL    HW262299   7.439   5.560   2.157
20781SOL     OW62300   5.645   5.304   1.972
20781SOL    HW162301   5.624   5.212   1.991
20781SOL    HW262302   5.613   5.352   2.049
20782SOL     OW62303   7.283   4.650   2.514
20782SOL    HW162304   7.365   4.606   2.492
20782SOL    HW262305   7.262   4.702   2.437
20783SOL     OW62306   7.243   4.829   2.294
20783SOL    HW162307   7.328   4.821   2.251
20783SOL    HW262308   7.257   4.895   2.362
20784SOL     OW62309   5.706   4.475   3.440
20784SOL    HW162310   5.790   4.520   3.447
20784SOL    HW262311   5.642   4.545   3.429
20785SOL     OW62312   6.210   5.122   2.591
20785SOL    HW162313   6.169   5.036   2.597
20785SOL    HW262314   6.194   5.151   2.502
20786SOL     OW62315   6.857   4.951   3.278
20786SOL    HW162316   6.885   4.881   3.218
20786SOL    HW262317   6.918   4.945   3.351
20787SOL     OW62318   6.417   3.735   2.380
20787SOL    HW162319   6.457   3.817   2.353
20787SOL    HW262320   6.323   3.753   2.381
20788SOL     OW62321   5.773   4.680   3.163
20788SOL    HW162322   5.861   4.645   3.146
20788SOL    HW262323   5.718   4.642   3.095
20789SOL     OW62324   7.121   4.739   2.061
20789SOL    HW162325   7.053   4.679   2.091
20789SOL    HW262326   7.163   4.769   2.142
20790SOL     OW62327   6.770   5.550   3.499
20790SOL    HW162328   6.770   5.610   3.425
20790SOL    HW262329   6.788   5.464   3.460
20791SOL     OW62330   5.948   3.977   3.737
20791SOL    HW162331   5.983   4.057   3.775
20791SOL    HW262332   5.853   3.992   3.734
20792SOL     OW62333   7.058   5.141   2.794
20792SOL    HW162334   6.994   5.160   2.863
20792SOL    HW262335   7.040   5.050   2.770
20793SOL     OW62336   7.223   5.520   2.425
20793SOL    HW162337   7.206   5.473   2.343
20793SOL    HW262338   7.223   5.452   2.492
20794SOL     OW62339   6.173   4.422   2.133
20794SOL    HW162340   6.177   4.510   2.096
20794SOL    HW262341   6.108   4.429   2.204
20795SOL     OW62342   6.869   4.117   2.803
20795SOL    HW162343   6.779   4.082   2.808
20795SOL    HW262344   6.920   4.059   2.858
20796SOL     OW62345   7.165   5.397   2.181
20796SOL    HW162346   7.259   5.412   2.170
20796SOL    HW262347   7.132   5.384   2.092
20797SOL     OW62348   6.378   4.337   3.293
20797SOL    HW162349   6.354   4.308   3.381
20797SOL    HW262350   6.353   4.264   3.236
20798SOL     OW62351   6.978   4.201   3.536
20798SOL    HW162352   6.982   4.244   3.622
20798SOL    HW262353   7.028   4.120   3.547
20799SOL     OW62354   6.529   4.605   3.456
20799SOL    HW162355   6.586   4.542   3.411
20799SOL    HW262356   6.481   4.648   3.385
20800SOL     OW62357   6.594   4.121   3.071
20800SOL    HW162358   6.502   4.135   3.094
20800SOL    HW262359   6.591   4.078   2.985
20801SOL     OW62360   6.644   4.421   2.280
20801SOL    HW162361   6.665   4.418   2.374
20801SOL    HW262362   6.559   4.377   2.273
20802SOL     OW62363   5.679   4.552   2.643
20802SOL    HW162364   5.761   4.545   2.692
20802SOL    HW262365   5.631   4.623   2.686
20803SOL     OW62366   5.696   5.602   3.450
20803SOL    HW162367   5.706   5.580   3.543
20803SOL    HW262368   5.608   5.570   3.428
20804SOL     OW62369   6.475   4.074   2.061
20804SOL    HW162370   6.526   4.128   2.001
20804SOL    HW262371   6.455   3.995   2.011
20805SOL     OW62372   7.274   4.287   3.702
20805SOL    HW162373   7.252   4.364   3.650
20805SOL    HW262374   7.302   4.222   3.637
20806SOL     OW62375   6.979   4.874   2.407
20806SOL    HW162376   7.059   4.863   2.355
20806SOL    HW262377   6.925   4.935   2.356
20807SOL     OW62378   6.137   3.885   2.779
20807SOL    HW162379   6.142   3.912   2.870
20807SOL    HW262380   6.132   3.966   2.729
20808SOL     OW62381   6.582   5.179   2.327
20808SOL    HW162382   6.558   5.254   2.272
20808SOL    HW262383   6.553   5.203   2.415
20809SOL     OW62384   5.939   5.539   2.742
20809SOL    HW162385   5.985   5.455   2.746
20809SOL    HW262386   6.006   5.604   2.765
20810SOL     OW62387   7.389   4.768   2.751
20810SOL    HW162388   7.341   4.753   2.670
20810SOL    HW262389   7.322   4.777   2.818
20811SOL     OW62390   6.806   5.271   3.381
20811SOL    HW162391   6.793   5.197   3.441
20811SOL    HW262392   6.728   5.270   3.325
20812SOL     OW62393   5.887   4.683   2.128
20812SOL    HW162394   5.969   4.703   2.084
20812SOL    HW262395   5.865   4.595   2.098
20813SOL     OW62396   7.070   4.487   2.572
20813SOL    HW162397   7.072   4.444   2.658
20813SOL    HW262398   7.149   4.541   2.571
20814SOL     OW62399   6.059   5.006   3.608
20814SOL    HW162400   6.036   5.010   3.515
20814SOL    HW262401   5.976   4.996   3.654
20815SOL     OW62402   6.725   5.501   2.087
20815SOL    HW162403   6.644   5.471   2.127
20815SOL    HW262404   6.745   5.436   2.020
20816SOL     OW62405   5.793   3.982   3.362
20816SOL    HW162406   5.725   4.043   3.387
20816SOL    HW262407   5.763   3.897   3.396
20817SOL     OW62408   7.224   5.112   1.961
20817SOL    HW162409   7.183   5.198   1.949
20817SOL    HW262410   7.157   5.049   1.935
20818SOL     OW62411   6.044   5.465   2.178
20818SOL    HW162412   6.093   5.516   2.243
20818SOL    HW262413   6.112   5.424   2.124
20819SOL     OW62414   6.983   3.830   2.321
20819SOL    HW162415   6.983   3.805   2.228
20819SOL    HW262416   7.074   3.819   2.349
20820SOL     OW62417   5.836   5.513   3.078
20820SOL    HW162418   5.886   5.440   3.115
20820SOL    HW262419   5.827   5.492   2.985
20821SOL     OW62420   6.534   5.427   2.752
20821SOL    HW162421   6.618   5.385   2.771
20821SOL    HW262422   6.496   5.375   2.681
20822SOL     OW62423   5.980   4.409   2.334
20822SOL    HW162424   5.992   4.315   2.347
20822SOL    HW262425   5.888   4.424   2.352
20823SOL     OW62426   7.094   3.947   3.579
20823SOL    HW162427   7.108   3.965   3.672
20823SOL    HW262428   7.026   3.879   3.577
20824SOL     OW62429   6.249   3.833   1.964
20824SOL    HW162430   6.295   3.754   1.992
20824SOL    HW262431   6.188   3.803   1.897
20825SOL     OW62432   6.344   3.997   3.612
20825SOL    HW162433   6.429   3.953   3.612
20825SOL    HW262434   6.298   3.960   3.687
20826SOL     OW62435   6.457   5.251   3.061
20826SOL    HW162436   6.437   5.210   2.977
20826SOL    HW262437   6.522   5.194   3.100
20827SOL     OW62438   6.915   4.315   3.295
20827SOL    HW162439   6.948   4.285   3.380
20827SOL    HW262440   6.954   4.402   3.284
20828SOL     OW62441   6.403   5.100   2.818
20828SOL    HW162442   6.490   5.095   2.780
20828SOL    HW262443   6.344   5.115   2.744
20829SOL     OW62444   6.517   4.239   2.750
20829SOL    HW162445   6.491   4.227   2.658
20829SOL    HW262446   6.544   4.152   2.779
20830SOL     OW62447   6.150   3.787   2.352
20830SOL    HW162448   6.072   3.788   2.408
20830SOL    HW262449   6.138   3.862   2.294
20831SOL     OW62450   7.020   4.936   1.894
20831SOL    HW162451   7.050   4.862   1.947
20831SOL    HW262452   6.935   4.960   1.931
20832SOL     OW62453   5.869   3.772   2.051
20832SOL    HW162454   5.922   3.840   2.009
20832SOL    HW262455   5.932   3.714   2.093
20833SOL     OW62456   6.537   3.974   2.312
20833SOL    HW162457   6.512   4.010   2.227
20833SOL    HW262458   6.631   3.992   2.319
20834SOL     OW62459   6.661   4.419   3.307
20834SOL    HW162460   6.597   4.349   3.312
20834SOL    HW262461   6.746   4.375   3.304
20835SOL     OW62462   6.793   5.309   2.663
20835SOL    HW162463   6.808   5.370   2.590
20835SOL    HW262464   6.863   5.329   2.725
20836SOL     OW62465   6.069   4.886   2.570
20836SOL    HW162466   6.007   4.862   2.639
20836SOL    HW262467   6.018   4.879   2.489
20837SOL     OW62468   6.838   5.515   2.479
20837SOL    HW162469   6.887   5.579   2.426
20837SOL    HW262470   6.767   5.566   2.518
20838SOL     OW62471   6.618   4.239   1.891
20838SOL    HW162472   6.575   4.322   1.873
20838SOL    HW262473   6.681   4.259   1.960
20839SOL     OW62474   5.683   4.278   3.252
20839SOL    HW162475   5.776   4.278   3.227
20839SOL    HW262476   5.676   4.346   3.318
20840SOL     OW62477   6.144   3.946   3.048
20840SOL    HW162478   6.182   3.886   3.112
20840SOL    HW262479   6.050   3.947   3.069
20841SOL     OW62480   6.456   4.178   2.492
20841SOL    HW162481   6.416   4.234   2.426
20841SOL    HW262482   6.481   4.099   2.444
20842SOL     OW62483   6.609   3.782   2.601
20842SOL    HW162484   6.547   3.776   2.528
20842SOL    HW262485   6.584   3.710   2.659
20843SOL     OW62486   7.019   4.877   2.717
20843SOL    HW162487   6.950   4.812   2.729
20843SOL    HW262488   7.031   4.883   2.622
20844SOL     OW62489   7.048   4.340   2.810
20844SOL    HW162490   6.985   4.270   2.821
20844SOL    HW262491   7.104   4.334   2.888
20845SOL     OW62492   7.415   4.520   2.248
20845SOL    HW162493   7.475   4.477   2.309
20845SOL    HW262494   7.401   4.456   2.179
20846SOL     OW62495   6.083   5.148   2.013
20846SOL    HW162496   6.008   5.117   2.063
20846SOL    HW262497   6.080   5.098   1.932
20847SOL     OW62498   7.294   4.997   2.493
20847SOL    HW162499   7.387   4.991   2.516
20847SOL    HW262500   7.269   5.086   2.521
20848SOL     OW62501   6.978   4.299   1.928
20848SOL    HW162502   6.922   4.273   2.001
20848SOL    HW262503   7.067   4.277   1.956
20849SOL     OW62504   6.113   3.981   2.164
20849SOL    HW162505   6.167   3.939   2.096
20849SOL    HW262506   6.081   4.061   2.123
20850SOL     OW62507   7.321   4.968   3.394
20850SOL    HW162508   7.409   4.933   3.380
20850SOL    HW262509   7.334   5.055   3.431
20851SOL     OW62510   6.625   5.073   3.191
20851SOL    HW162511   6.548   5.041   3.240
20851SOL    HW262512   6.699   5.033   3.236
20852SOL     OW62513   7.194   5.359   3.534
20852SOL    HW162514   7.183   5.395   3.446
20852SOL    HW262515   7.272   5.303   3.527
20853SOL     OW62516   6.737   4.959   2.965
20853SOL    HW162517   6.677   4.993   3.031
20853SOL    HW262518   6.703   4.993   2.882
20854SOL     OW62519   7.196   4.816   2.939
20854SOL    HW162520   7.189   4.883   3.008
20854SOL    HW262521   7.126   4.837   2.878
20855SOL     OW62522   6.506   3.804   3.245
20855SOL    HW162523   6.528   3.790   3.153
20855SOL    HW262524   6.584   3.846   3.282
20856SOL     OW62525   6.565   4.840   3.587
20856SOL    HW162526   6.476   4.856   3.615
20856SOL    HW262527   6.560   4.759   3.536
20857SOL     OW62528   6.300   4.786   2.238
20857SOL    HW162529   6.285   4.760   2.329
20857SOL    HW262530   6.374   4.732   2.210
20858SOL     OW62531   6.012   4.551   3.121
20858SOL    HW162532   6.080   4.561   3.188
20858SOL    HW262533   5.981   4.461   3.131
20859SOL     OW62534   6.850   4.092   3.154
20859SOL    HW162535   6.878   4.172   3.198
20859SOL    HW262536   6.761   4.110   3.124
20860SOL     OW62537   5.664   5.295   3.222
20860SOL    HW162538   5.637   5.369   3.169
20860SOL    HW262539   5.760   5.293   3.214
20861SOL     OW62540   5.903   4.859   2.348
20861SOL    HW162541   5.904   4.931   2.285
20861SOL    HW262542   5.900   4.780   2.295
20862SOL     OW62543   6.120   4.239   2.720
20862SOL    HW162544   6.133   4.298   2.645
20862SOL    HW262545   6.188   4.265   2.782
20863SOL     OW62546   6.833   5.078   2.260
20863SOL    HW162547   6.889   5.148   2.295
20863SOL    HW262548   6.745   5.101   2.291
20864SOL     OW62549   6.894   5.192   3.005
20864SOL    HW162550   6.941   5.200   3.088
20864SOL    HW262551   6.843   5.112   3.014
20865SOL     OW62552   7.161   4.342   2.346
20865SOL    HW162553   7.110   4.382   2.417
20865SOL    HW262554   7.211   4.415   2.308
20866SOL     OW62555   5.931   5.258   3.164
20866SOL    HW162556   5.924   5.205   3.085
20866SOL    HW262557   6.025   5.273   3.174
20867SOL     OW62558   6.022   4.468   3.483
20867SOL    HW162559   6.079   4.512   3.419
20867SOL    HW262560   6.069   4.387   3.505
20868SOL     OW62561   7.213   4.509   3.560
20868SOL    HW162562   7.126   4.548   3.551
20868SOL    HW262563   7.264   4.548   3.488
20869SOL     OW62564   6.581   3.865   3.620
20869SOL    HW162565   6.639   3.939   3.602
20869SOL    HW262566   6.633   3.788   3.599
20870SOL     OW62567   6.080   3.758   3.624
20870SOL    HW162568   6.025   3.710   3.563
20870SOL    HW262569   6.029   3.836   3.647
20871SOL     OW62570   6.176   4.599   2.900
20871SOL    HW162571   6.214   4.686   2.904
20871SOL    HW262572   6.119   4.594   2.977
20872SOL     OW62573   6.894   4.578   2.863
20872SOL    HW162574   6.806   4.550   2.839
20872SOL    HW262575   6.949   4.501   2.845
20873SOL     OW62576   6.784   4.247   2.119
20873SOL    HW162577   6.795   4.171   2.176
20873SOL    HW262578   6.743   4.313   2.175
20874SOL     OW62579   5.876   3.918   3.102
20874SOL    HW162580   5.841   3.948   3.186
20874SOL    HW262581   5.858   3.824   3.100
20875SOL     OW62582   5.638   5.037   3.127
20875SOL    HW162583   5.666   4.981   3.199
20875SOL    HW262584   5.639   5.125   3.163
20876SOL     OW62585   6.296   4.346   2.900
20876SOL    HW162586   6.375   4.340   2.845
20876SOL    HW262587   6.268   4.437   2.891
20877SOL     OW62588   7.337   4.691   3.731
20877SOL    HW162589   7.297   4.619   3.683
20877SOL    HW262590   7.274   4.713   3.800
20878SOL     OW62591   5.911   3.784   2.490
20878SOL    HW162592   5.877   3.872   2.508
20878SOL    HW262593   5.916   3.742   2.576
20879SOL     OW62594   7.218   4.115   2.206
20879SOL    HW162595   7.249   4.049   2.268
20879SOL    HW262596   7.188   4.188   2.260
20880SOL     OW62597   6.621   4.482   2.818
20880SOL    HW162598   6.599   4.497   2.910
20880SOL    HW262599   6.591   4.393   2.800
20881SOL     OW62600   6.566   5.294   3.593
20881SOL    HW162601   6.549   5.334   3.507
20881SOL    HW262602   6.603   5.208   3.572
20882SOL     OW62603   7.424   5.218   3.464
20882SOL    HW162604   7.451   5.247   3.377
20882SOL    HW262605   7.502   5.229   3.518
20883SOL     OW62606   5.936   4.644   3.676
20883SOL    HW162607   6.011   4.662   3.732
20883SOL    HW262608   5.968   4.579   3.612
20884SOL     OW62609   7.108   3.992   1.981
20884SOL    HW162610   7.056   3.921   2.018
20884SOL    HW262611   7.147   4.036   2.056
20885SOL     OW62612   6.866   4.545   1.881
20885SOL    HW162613   6.906   4.459   1.889
20885SOL    HW262614   6.903   4.581   1.800
20886SOL     OW62615   6.656   5.076   2.727
20886SOL    HW162616   6.667   5.004   2.666
20886SOL    HW262617   6.708   5.147   2.690
20887SOL     OW62618   5.904   4.539   2.805
20887SOL    HW162619   5.999   4.554   2.806
20887SOL    HW262620   5.894   4.449   2.836
20888SOL     OW62621   5.899   4.261   2.872
20888SOL    HW162622   5.860   4.174   2.863
20888SOL    HW262623   5.976   4.259   2.816
20889SOL     OW62624   6.725   4.092   3.548
20889SOL    HW162625   6.679   4.143   3.615
20889SOL    HW262626   6.810   4.135   3.539
20890SOL     OW62627   6.743   3.914   3.336
20890SOL    HW162628   6.731   3.976   3.408
20890SOL    HW262629   6.789   3.964   3.269
20891SOL     OW62630   5.610   5.027   2.040
20891SOL    HW162631   5.520   5.049   2.015
20891SOL    HW262632   5.602   4.940   2.081
20892SOL     OW62633   5.677   5.495   2.809
20892SOL    HW162634   5.645   5.420   2.759
20892SOL    HW262635   5.765   5.510   2.775
20893SOL     OW62636   6.071   5.293   2.761
20893SOL    HW162637   6.141   5.354   2.784
20893SOL    HW262638   6.111   5.232   2.700
20894SOL     OW62639   6.535   4.504   3.076
20894SOL    HW162640   6.597   4.494   3.148
20894SOL    HW262641   6.456   4.460   3.106
20895SOL     OW62642   5.626   4.296   2.982
20895SOL    HW162643   5.708   4.293   2.933
20895SOL    HW262644   5.652   4.290   3.073
20896SOL     OW62645   5.771   4.262   3.603
20896SOL    HW162646   5.848   4.236   3.552
20896SOL    HW262647   5.734   4.335   3.555
20897SOL     OW62648   6.979   4.644   3.513
20897SOL    HW162649   6.995   4.738   3.508
20897SOL    HW262650   6.970   4.616   3.422
20898SOL     OW62651   6.404   4.292   2.233
20898SOL    HW162652   6.412   4.218   2.173
20898SOL    HW262653   6.327   4.339   2.202
20899SOL     OW62654   7.221   4.326   3.024
20899SOL    HW162655   7.211   4.267   3.099
20899SOL    HW262656   7.312   4.314   2.997
20900SOL     OW62657   5.812   5.264   3.581
20900SOL    HW162658   5.791   5.321   3.655
20900SOL    HW262659   5.822   5.177   3.620
20901SOL     OW62660   6.320   4.157   3.095
20901SOL    HW162661   6.255   4.088   3.081
20901SOL    HW262662   6.302   4.222   3.026
20902SOL     OW62663   6.510   5.397   3.337
20902SOL    HW162664   6.478   5.353   3.258
20902SOL    HW262665   6.504   5.490   3.317
20903SOL     OW62666   6.029   4.205   2.025
20903SOL    HW162667   6.093   4.271   2.050
20903SOL    HW262668   5.945   4.250   2.029
20904SOL     OW62669   5.716   4.875   3.342
20904SOL    HW162670   5.720   4.836   3.429
20904SOL    HW262671   5.737   4.803   3.283
20905SOL     OW62672   6.891   4.757   3.069
20905SOL    HW162673   6.900   4.694   2.998
20905SOL    HW262674   6.837   4.827   3.032
20906SOL     OW62675   6.912   4.585   2.153
20906SOL    HW162676   6.842   4.550   2.208
20906SOL    HW262677   6.882   4.569   2.063
20907SOL     OW62678   7.372   5.448   3.032
20907SOL    HW162679   7.434   5.474   2.964
20907SOL    HW262680   7.340   5.362   3.005
20908SOL     OW62681   6.825   5.455   2.947
20908SOL    HW162682   6.910   5.486   2.917
20908SOL    HW262683   6.840   5.365   2.975
20909SOL     OW62684   5.694   4.971   2.870
20909SOL    HW162685   5.667   4.993   2.960
20909SOL    HW262686   5.622   4.919   2.836
20910SOL     OW62687   6.271   5.406   3.614
20910SOL    HW162688   6.209   5.478   3.600
20910SOL    HW262689   6.349   5.433   3.566
20911SOL     OW62690   7.329   3.908   2.358
20911SOL    HW162691   7.389   3.888   2.286
20911SOL    HW262692   7.303   3.822   2.392
20912SOL     OW62693   6.983   5.294   2.365
20912SOL    HW162694   7.038   5.329   2.295
20912SOL    HW262695   6.928   5.368   2.392
20913SOL     OW62696   5.728   5.522   3.704
20913SOL    HW162697   5.682   5.453   3.751
20913SOL    HW262698   5.779   5.567   3.771
20914SOL     OW62699   6.864   4.659   2.524
20914SOL    HW162700   6.938   4.600   2.538
20914SOL    HW262701   6.901   4.731   2.473
20915SOL     OW62702   6.367   5.004   3.278
20915SOL    HW162703   6.342   5.052   3.356
20915SOL    HW262704   6.293   5.014   3.219
20916SOL     OW62705   6.254   5.360   2.022
20916SOL    HW162706   6.268   5.374   1.929
20916SOL    HW262707   6.202   5.279   2.027
20917SOL     OW62708   7.202   5.454   3.264
20917SOL    HW162709   7.258   5.454   3.187
20917SOL    HW262710   7.186   5.547   3.282
20918SOL     OW62711   7.431   3.884   2.826
20918SOL    HW162712   7.459   3.795   2.805
20918SOL    HW262713   7.343   3.891   2.788
20919SOL     OW62714   5.828   4.030   2.570
20919SOL    HW162715   5.742   4.067   2.549
20919SOL    HW262716   5.832   4.032   2.665
20920SOL     OW62717   6.795   5.312   1.900
20920SOL    HW162718   6.785   5.221   1.928
20920SOL    HW262719   6.725   5.325   1.836
20921SOL     OW62720   6.409   4.736   3.247
20921SOL    HW162721   6.447   4.729   3.160
20921SOL    HW262722   6.398   4.830   3.261
20922SOL     OW62723   6.504   4.633   2.155
20922SOL    HW162724   6.562   4.667   2.086
20922SOL    HW262725   6.557   4.566   2.199
20923SOL     OW62726   7.069   5.369   1.920
20923SOL    HW162727   6.977   5.349   1.903
20923SOL    HW262728   7.109   5.372   1.833
20924SOL     OW62729   5.951   5.034   3.360
20924SOL    HW162730   5.941   5.109   3.303
20924SOL    HW262731   5.872   4.982   3.347
20925SOL     OW62732   7.186   5.015   3.140
20925SOL    HW162733   7.239   4.990   3.216
20925SOL    HW262734   7.126   5.082   3.173
20926SOL     OW62735   6.663   4.843   2.590
20926SOL    HW162736   6.587   4.794   2.622
20926SOL    HW262737   6.725   4.776   2.561
20927SOL     OW62738   6.620   3.973   2.822
20927SOL    HW162739   6.618   3.930   2.736
20927SOL    HW262740   6.613   3.901   2.885
20928SOL     OW62741   6.190   5.209   2.336
20928SOL    HW162742   6.244   5.160   2.274
20928SOL    HW262743   6.108   5.224   2.289
20929SOL     OW62744   7.331   4.106   3.250
20929SOL    HW162745   7.402   4.170   3.246
20929SOL    HW262746   7.358   4.037   3.189
20930SOL     OW62747   5.864   5.065   2.161
20930SOL    HW162748   5.777   5.058   2.122
20930SOL    HW262749   5.850   5.113   2.242
20931SOL     OW62750   5.706   4.772   3.597
20931SOL    HW162751   5.629   4.744   3.646
20931SOL    HW262752   5.778   4.721   3.635
20932SOL     OW62753   6.266   3.911   3.355
20932SOL    HW162754   6.350   3.886   3.318
20932SOL    HW262755   6.287   3.945   3.442
20933SOL     OW62756   5.673   4.041   1.876
20933SOL    HW162757   5.595   4.020   1.825
20933SOL    HW262758   5.700   4.127   1.844
20934SOL     OW62759   7.001   4.577   3.249
20934SOL    HW162760   6.949   4.636   3.195
20934SOL    HW262761   7.089   4.582   3.212
20935SOL     OW62762   5.630   3.873   2.136
20935SOL    HW162763   5.618   3.944   2.072
20935SOL    HW262764   5.718   3.841   2.118
20936SOL     OW62765   6.769   5.046   1.986
20936SOL    HW162766   6.678   5.015   1.985
20936SOL    HW262767   6.793   5.050   2.078
20937SOL     OW62768   6.212   4.555   3.302
20937SOL    HW162769   6.271   4.630   3.292
20937SOL    HW262770   6.271   4.479   3.302
20938SOL     OW62771   7.073   5.527   2.856
20938SOL    HW162772   7.099   5.601   2.801
20938SOL    HW262773   7.156   5.484   2.880
20939SOL     OW62774   6.309   4.273   3.547
20939SOL    HW162775   6.356   4.327   3.611
20939SOL    HW262776   6.319   4.183   3.579
20940SOL     OW62777   7.053   4.908   3.481
20940SOL    HW162778   7.045   4.930   3.574
20940SOL    HW262779   7.143   4.932   3.459
20941SOL     OW62780   5.940   5.471   3.439
20941SOL    HW162781   5.858   5.517   3.423
20941SOL    HW262782   5.914   5.387   3.477
20942SOL     OW62783   7.241   4.600   3.115
20942SOL    HW162784   7.239   4.516   3.068
20942SOL    HW262785   7.230   4.666   3.047
20943SOL     OW62786   6.806   4.047   2.318
20943SOL    HW162787   6.866   3.972   2.317
20943SOL    HW262788   6.835   4.099   2.393
20944SOL     OW62789   6.164   4.448   2.541
20944SOL    HW162790   6.207   4.533   2.527
20944SOL    HW262791   6.102   4.441   2.468
20945SOL     OW62792   7.333   4.078   3.526
20945SOL    HW162793   7.330   4.095   3.432
20945SOL    HW262794   7.255   4.026   3.544
20946SOL     OW62795   7.346   4.649   3.366
20946SOL    HW162796   7.328   4.742   3.379
20946SOL    HW262797   7.319   4.632   3.276
20947SOL     OW62798   6.455   5.081   1.924
20947SOL    HW162799   6.419   5.097   2.011
20947SOL    HW262800   6.465   5.168   1.886
20948SOL     OW62801   6.254   5.490   2.785
20948SOL    HW162802   6.235   5.584   2.780
20948SOL    HW262803   6.350   5.486   2.785
20949SOL     OW62804   6.459   4.701   2.718
20949SOL    HW162805   6.508   4.628   2.753
20949SOL    HW262806   6.413   4.739   2.793
20950SOL     OW62807   6.658   4.709   1.948
20950SOL    HW162808   6.638   4.763   1.872
20950SOL    HW262809   6.732   4.654   1.920
20951SOL     OW62810   7.414   5.282   2.703
20951SOL    HW162811   7.338   5.274   2.646
20951SOL    HW262812   7.392   5.232   2.781
20952SOL     OW62813   5.799   5.012   3.698
20952SOL    HW162814   5.766   4.932   3.655
20952SOL    HW262815   5.741   5.025   3.772
20953SOL     OW62816   5.704   4.950   2.530
20953SOL    HW162817   5.732   4.909   2.612
20953SOL    HW262818   5.763   4.915   2.464
20954SOL     OW62819   6.275   5.145   3.495
20954SOL    HW162820   6.199   5.104   3.536
20954SOL    HW262821   6.279   5.233   3.533
20955SOL     OW62822   7.397   3.895   3.096
20955SOL    HW162823   7.398   3.800   3.109
20955SOL    HW262824   7.410   3.907   3.002
20956SOL     OW62825   6.002   4.147   2.379
20956SOL    HW162826   6.037   4.075   2.326
20956SOL    HW262827   5.951   4.103   2.447
20957SOL     OW62828   7.282   5.203   2.943
20957SOL    HW162829   7.204   5.184   2.892
20957SOL    HW262830   7.284   5.136   3.012
20958SOL     OW62831   5.937   4.289   3.153
20958SOL    HW162832   5.986   4.224   3.204
20958SOL    HW262833   5.944   4.259   3.062
20959SOL     OW62834   6.424   5.305   2.534
20959SOL    HW162835   6.391   5.374   2.476
20959SOL    HW262836   6.350   5.246   2.546
20960SOL     OW62837   7.008   3.957   2.977
20960SOL    HW162838   7.018   3.868   3.012
20960SOL    HW262839   6.961   4.005   3.047
20961SOL     OW62840   6.597   3.742   2.981
20961SOL    HW162841   6.542   3.679   2.934
20961SOL    HW262842   6.683   3.701   2.984
20962SOL     OW62843   6.367   5.055   2.189
20962SOL    HW162844   6.343   4.964   2.203
20962SOL    HW262845   6.446   5.068   2.242
20963SOL     OW62846   6.202   5.293   3.149
20963SOL    HW162847   6.197   5.376   3.196
20963SOL    HW262848   6.292   5.288   3.117
20964SOL     OW62849   6.967   3.763   2.054
20964SOL    HW162850   7.007   3.690   2.007
20964SOL    HW262851   6.875   3.737   2.065
20965SOL     OW62852   6.884   4.195   2.537
20965SOL    HW162853   6.833   4.276   2.534
20965SOL    HW262854   6.877   4.165   2.627
20966SOL     OW62855   7.168   3.912   2.756
20966SOL    HW162856   7.116   3.941   2.830
20966SOL    HW262857   7.168   3.986   2.695
20967SOL     OW62858   5.623   4.775   2.169
20967SOL    HW162859   5.716   4.763   2.151
20967SOL    HW262860   5.591   4.687   2.189
20968SOL     OW62861   6.482   5.400   2.191
20968SOL    HW162862   6.403   5.384   2.140
20968SOL    HW262863   6.456   5.468   2.254
20969SOL     OW62864   5.797   4.343   3.870
20969SOL    HW162865   5.710   4.334   3.909
20969SOL    HW262866   5.783   4.330   3.776
20970SOL     OW62867   5.805   4.011   4.711
20970SOL    HW162868   5.835   3.976   4.795
20970SOL    HW262869   5.715   3.978   4.702
20971SOL     OW62870   5.562   4.115   4.371
20971SOL    HW162871   5.483   4.145   4.414
20971SOL    HW262872   5.534   4.040   4.318
20972SOL     OW62873   6.163   5.028   4.922
20972SOL    HW162874   6.078   5.034   4.878
20972SOL    HW262875   6.183   5.118   4.947
20973SOL     OW62876   7.170   5.248   4.430
20973SOL    HW162877   7.124   5.217   4.508
20973SOL    HW262878   7.104   5.252   4.362
20974SOL     OW62879   6.724   4.426   4.410
20974SOL    HW162880   6.770   4.509   4.397
20974SOL    HW262881   6.675   4.437   4.491
20975SOL     OW62882   7.388   4.305   3.944
20975SOL    HW162883   7.349   4.305   3.856
20975SOL    HW262884   7.343   4.234   3.990
20976SOL     OW62885   6.318   4.852   4.780
20976SOL    HW162886   6.257   4.893   4.841
20976SOL    HW262887   6.362   4.925   4.737
20977SOL     OW62888   6.473   4.467   5.549
20977SOL    HW162889   6.465   4.534   5.616
20977SOL    HW262890   6.488   4.515   5.468
20978SOL     OW62891   6.270   4.710   4.369
20978SOL    HW162892   6.338   4.710   4.437
20978SOL    HW262893   6.204   4.772   4.400
20979SOL     OW62894   6.301   4.880   5.561
20979SOL    HW162895   6.353   4.952   5.595
20979SOL    HW262896   6.224   4.922   5.523
20980SOL     OW62897   5.926   5.121   4.790
20980SOL    HW162898   5.841   5.092   4.757
20980SOL    HW262899   5.956   5.185   4.725
20981SOL     OW62900   7.037   5.230   5.097
20981SOL    HW162901   7.091   5.308   5.111
20981SOL    HW262902   6.962   5.243   5.155
20982SOL     OW62903   6.048   4.100   5.177
20982SOL    HW162904   6.121   4.041   5.194
20982SOL    HW262905   5.970   4.050   5.203
20983SOL     OW62906   7.168   4.156   4.479
20983SOL    HW162907   7.100   4.165   4.413
20983SOL    HW262908   7.152   4.226   4.541
20984SOL     OW62909   5.812   5.459   4.198
20984SOL    HW162910   5.834   5.538   4.247
20984SOL    HW262911   5.883   5.448   4.136
20985SOL     OW62912   6.719   5.065   5.414
20985SOL    HW162913   6.765   5.055   5.498
20985SOL    HW262914   6.666   4.985   5.407
20986SOL     OW62915   5.835   5.186   4.255
20986SOL    HW162916   5.808   5.277   4.263
20986SOL    HW262917   5.786   5.140   4.324
20987SOL     OW62918   5.860   4.817   4.604
20987SOL    HW162919   5.871   4.725   4.628
20987SOL    HW262920   5.802   4.853   4.672
20988SOL     OW62921   6.221   5.504   5.188
20988SOL    HW162922   6.130   5.495   5.219
20988SOL    HW262923   6.234   5.598   5.177
20989SOL     OW62924   6.153   4.710   3.875
20989SOL    HW162925   6.204   4.753   3.806
20989SOL    HW262926   6.192   4.741   3.956
20990SOL     OW62927   7.179   3.856   5.185
20990SOL    HW162928   7.217   3.933   5.142
20990SOL    HW262929   7.146   3.889   5.269
20991SOL     OW62930   5.707   4.380   4.294
20991SOL    HW162931   5.670   4.295   4.315
20991SOL    HW262932   5.696   4.431   4.374
20992SOL     OW62933   7.433   5.467   4.040
20992SOL    HW162934   7.504   5.451   4.102
20992SOL    HW262935   7.439   5.560   4.019
20993SOL     OW62936   5.641   5.308   3.842
20993SOL    HW162937   5.620   5.217   3.863
20993SOL    HW262938   5.614   5.357   3.921
20994SOL     OW62939   7.283   4.651   4.374
20994SOL    HW162940   7.362   4.605   4.346
20994SOL    HW262941   7.259   4.705   4.299
20995SOL     OW62942   7.242   4.830   4.155
20995SOL    HW162943   7.327   4.822   4.112
20995SOL    HW262944   7.256   4.897   4.223
20996SOL     OW62945   5.709   4.468   5.307
20996SOL    HW162946   5.792   4.515   5.315
20996SOL    HW262947   5.643   4.536   5.300
20997SOL     OW62948   6.206   5.125   4.460
20997SOL    HW162949   6.164   5.040   4.467
20997SOL    HW262950   6.190   5.153   4.370
20998SOL     OW62951   6.858   4.951   5.139
20998SOL    HW162952   6.886   4.881   5.080
20998SOL    HW262953   6.918   4.945   5.213
20999SOL     OW62954   6.416   3.733   4.243
20999SOL    HW162955   6.457   3.815   4.215
20999SOL    HW262956   6.322   3.752   4.243
21000SOL     OW62957   5.741   4.701   4.995
21000SOL    HW162958   5.821   4.652   4.977
21000SOL    HW262959   5.670   4.639   4.976
21001SOL     OW62960   7.122   4.739   3.922
21001SOL    HW162961   7.053   4.679   3.952
21001SOL    HW262962   7.162   4.770   4.003
21002SOL     OW62963   6.781   5.554   5.366
21002SOL    HW162964   6.775   5.615   5.292
21002SOL    HW262965   6.797   5.469   5.326
21003SOL     OW62966   5.946   3.975   5.600
21003SOL    HW162967   5.981   4.056   5.636
21003SOL    HW262968   5.851   3.991   5.594
21004SOL     OW62969   7.061   5.139   4.659
21004SOL    HW162970   6.995   5.160   4.724
21004SOL    HW262971   7.042   5.049   4.632
21005SOL     OW62972   7.225   5.518   4.287
21005SOL    HW162973   7.206   5.473   4.205
21005SOL    HW262974   7.221   5.450   4.354
21006SOL     OW62975   6.173   4.423   3.996
21006SOL    HW162976   6.176   4.511   3.959
21006SOL    HW262977   6.108   4.429   4.067
21007SOL     OW62978   6.869   4.117   4.665
21007SOL    HW162979   6.780   4.083   4.670
21007SOL    HW262980   6.920   4.058   4.721
21008SOL     OW62981   7.165   5.398   4.043
21008SOL    HW162982   7.259   5.413   4.032
21008SOL    HW262983   7.132   5.385   3.954
21009SOL     OW62984   6.374   4.342   5.152
21009SOL    HW162985   6.352   4.313   5.240
21009SOL    HW262986   6.350   4.268   5.096
21010SOL     OW62987   6.977   4.202   5.397
21010SOL    HW162988   6.982   4.245   5.483
21010SOL    HW262989   7.027   4.121   5.408
21011SOL     OW62990   6.526   4.607   5.314
21011SOL    HW162991   6.583   4.544   5.269
21011SOL    HW262992   6.477   4.649   5.244
21012SOL     OW62993   6.593   4.118   4.935
21012SOL    HW162994   6.501   4.134   4.956
21012SOL    HW262995   6.591   4.079   4.847
21013SOL     OW62996   6.644   4.420   4.142
21013SOL    HW162997   6.664   4.417   4.236
21013SOL    HW262998   6.559   4.377   4.135
21014SOL     OW62999   5.671   4.540   4.512
21014SOL    HW163000   5.754   4.544   4.559
21014SOL    HW263001   5.613   4.598   4.561
21015SOL     OW63002   6.475   4.073   3.924
21015SOL    HW163003   6.526   4.128   3.863
21015SOL    HW263004   6.454   3.995   3.873
21016SOL     OW63005   7.273   4.287   5.565
21016SOL    HW163006   7.252   4.365   5.512
21016SOL    HW263007   7.301   4.222   5.500
21017SOL     OW63008   6.978   4.874   4.269
21017SOL    HW163009   7.058   4.865   4.217
21017SOL    HW263010   6.924   4.936   4.220
21018SOL     OW63011   6.138   3.885   4.639
21018SOL    HW163012   6.143   3.914   4.731
21018SOL    HW263013   6.132   3.967   4.589
21019SOL     OW63014   6.581   5.179   4.188
21019SOL    HW163015   6.558   5.254   4.134
21019SOL    HW263016   6.551   5.203   4.276
21020SOL     OW63017   5.937   5.569   4.589
21020SOL    HW163018   5.937   5.473   4.594
21020SOL    HW263019   6.024   5.594   4.619
21021SOL     OW63020   7.390   4.767   4.611
21021SOL    HW163021   7.341   4.751   4.529
21021SOL    HW263022   7.322   4.777   4.677
21022SOL     OW63023   6.803   5.279   5.242
21022SOL    HW163024   6.787   5.199   5.292
21022SOL    HW263025   6.717   5.304   5.209
21023SOL     OW63026   5.890   4.682   3.990
21023SOL    HW163027   5.972   4.701   3.945
21023SOL    HW263028   5.866   4.595   3.960
21024SOL     OW63029   7.071   4.486   4.433
21024SOL    HW163030   7.073   4.444   4.519
21024SOL    HW263031   7.150   4.541   4.432
21025SOL     OW63032   6.054   5.007   5.481
21025SOL    HW163033   6.037   5.010   5.387
21025SOL    HW263034   5.967   5.001   5.521
21026SOL     OW63035   6.726   5.502   3.948
21026SOL    HW163036   6.644   5.472   3.988
21026SOL    HW263037   6.745   5.436   3.882
21027SOL     OW63038   5.799   3.984   5.222
21027SOL    HW163039   5.727   4.046   5.234
21027SOL    HW263040   5.766   3.901   5.257
21028SOL     OW63041   7.224   5.112   3.823
21028SOL    HW163042   7.183   5.197   3.811
21028SOL    HW263043   7.157   5.049   3.797
21029SOL     OW63044   6.048   5.468   4.042
21029SOL    HW163045   6.096   5.519   4.107
21029SOL    HW263046   6.116   5.424   3.991
21030SOL     OW63047   6.983   3.830   4.183
21030SOL    HW163048   6.983   3.805   4.090
21030SOL    HW263049   7.074   3.821   4.210
21031SOL     OW63050   5.883   5.502   5.033
21031SOL    HW163051   5.889   5.407   5.021
21031SOL    HW263052   5.809   5.529   4.977
21032SOL     OW63053   6.520   5.427   4.619
21032SOL    HW163054   6.598   5.380   4.649
21032SOL    HW263055   6.488   5.376   4.545
21033SOL     OW63056   5.982   4.407   4.198
21033SOL    HW163057   5.994   4.313   4.211
21033SOL    HW263058   5.890   4.423   4.217
21034SOL     OW63059   7.092   3.947   5.441
21034SOL    HW163060   7.106   3.965   5.534
21034SOL    HW263061   7.024   3.881   5.439
21035SOL     OW63062   6.249   3.833   3.825
21035SOL    HW163063   6.296   3.754   3.852
21035SOL    HW263064   6.188   3.803   3.758
21036SOL     OW63065   6.345   3.997   5.475
21036SOL    HW163066   6.429   3.952   5.475
21036SOL    HW263067   6.298   3.959   5.550
21037SOL     OW63068   6.469   5.248   4.914
21037SOL    HW163069   6.444   5.207   4.832
21037SOL    HW263070   6.531   5.187   4.955
21038SOL     OW63071   6.914   4.315   5.156
21038SOL    HW163072   6.947   4.286   5.241
21038SOL    HW263073   6.952   4.402   5.144
21039SOL     OW63074   6.404   5.100   4.678
21039SOL    HW163075   6.490   5.095   4.636
21039SOL    HW263076   6.343   5.115   4.606
21040SOL     OW63077   6.519   4.239   4.612
21040SOL    HW163078   6.492   4.227   4.520
21040SOL    HW263079   6.544   4.151   4.640
21041SOL     OW63080   6.150   3.787   4.214
21041SOL    HW163081   6.072   3.788   4.270
21041SOL    HW263082   6.138   3.862   4.156
21042SOL     OW63083   7.019   4.937   3.756
21042SOL    HW163084   7.048   4.863   3.809
21042SOL    HW263085   6.933   4.960   3.793
21043SOL     OW63086   5.868   3.773   3.912
21043SOL    HW163087   5.921   3.841   3.870
21043SOL    HW263088   5.933   3.715   3.954
21044SOL     OW63089   6.537   3.973   4.174
21044SOL    HW163090   6.511   4.009   4.090
21044SOL    HW263091   6.631   3.991   4.181
21045SOL     OW63092   6.660   4.419   5.170
21045SOL    HW163093   6.595   4.349   5.172
21045SOL    HW263094   6.745   4.374   5.165
21046SOL     OW63095   6.797   5.305   4.521
21046SOL    HW163096   6.810   5.367   4.450
21046SOL    HW263097   6.851   5.339   4.593
21047SOL     OW63098   6.066   4.886   4.436
21047SOL    HW163099   6.001   4.865   4.504
21047SOL    HW263100   6.017   4.879   4.354
21048SOL     OW63101   6.838   5.514   4.340
21048SOL    HW163102   6.885   5.579   4.288
21048SOL    HW263103   6.765   5.562   4.379
21049SOL     OW63104   6.617   4.239   3.754
21049SOL    HW163105   6.574   4.322   3.735
21049SOL    HW263106   6.680   4.259   3.823
21050SOL     OW63107   5.689   4.267   5.121
21050SOL    HW163108   5.779   4.274   5.091
21050SOL    HW263109   5.680   4.338   5.185
21051SOL     OW63110   6.146   3.946   4.909
21051SOL    HW163111   6.183   3.885   4.973
21051SOL    HW263112   6.052   3.946   4.927
21052SOL     OW63113   6.456   4.178   4.354
21052SOL    HW163114   6.415   4.234   4.289
21052SOL    HW263115   6.480   4.099   4.305
21053SOL     OW63116   6.610   3.782   4.464
21053SOL    HW163117   6.548   3.778   4.391
21053SOL    HW263118   6.584   3.710   4.521
21054SOL     OW63119   7.019   4.877   4.578
21054SOL    HW163120   6.947   4.816   4.591
21054SOL    HW263121   7.029   4.883   4.483
21055SOL     OW63122   7.049   4.340   4.671
21055SOL    HW163123   6.985   4.269   4.682
21055SOL    HW263124   7.104   4.334   4.750
21056SOL     OW63125   7.417   4.521   4.111
21056SOL    HW163126   7.477   4.477   4.172
21056SOL    HW263127   7.402   4.457   4.042
21057SOL     OW63128   6.084   5.147   3.873
21057SOL    HW163129   6.009   5.117   3.924
21057SOL    HW263130   6.079   5.098   3.791
21058SOL     OW63131   7.293   4.999   4.354
21058SOL    HW163132   7.386   4.994   4.377
21058SOL    HW263133   7.267   5.087   4.383
21059SOL     OW63134   6.978   4.299   3.790
21059SOL    HW163135   6.921   4.273   3.863
21059SOL    HW263136   7.066   4.277   3.820
21060SOL     OW63137   6.112   3.979   4.025
21060SOL    HW163138   6.166   3.939   3.957
21060SOL    HW263139   6.081   4.061   3.985
21061SOL     OW63140   7.321   4.968   5.256
21061SOL    HW163141   7.409   4.933   5.242
21061SOL    HW263142   7.335   5.055   5.293
21062SOL     OW63143   6.620   5.059   5.045
21062SOL    HW163144   6.545   5.035   5.099
21062SOL    HW263145   6.696   5.028   5.094
21063SOL     OW63146   7.197   5.358   5.398
21063SOL    HW163147   7.183   5.394   5.310
21063SOL    HW263148   7.274   5.302   5.389
21064SOL     OW63149   6.740   4.956   4.822
21064SOL    HW163150   6.679   4.985   4.889
21064SOL    HW263151   6.705   4.991   4.740
21065SOL     OW63152   7.197   4.817   4.800
21065SOL    HW163153   7.189   4.884   4.869
21065SOL    HW263154   7.127   4.837   4.739
21066SOL     OW63155   6.507   3.803   5.108
21066SOL    HW163156   6.527   3.790   5.015
21066SOL    HW263157   6.585   3.845   5.144
21067SOL     OW63158   6.564   4.839   5.450
21067SOL    HW163159   6.474   4.856   5.477
21067SOL    HW263160   6.558   4.759   5.397
21068SOL     OW63161   6.300   4.786   4.100
21068SOL    HW163162   6.284   4.760   4.191
21068SOL    HW263163   6.374   4.732   4.072
21069SOL     OW63164   5.990   4.558   4.982
21069SOL    HW163165   6.059   4.571   5.047
21069SOL    HW263166   5.965   4.466   4.992
21070SOL     OW63167   6.850   4.090   5.016
21070SOL    HW163168   6.877   4.171   5.060
21070SOL    HW263169   6.760   4.108   4.987
21071SOL     OW63170   5.907   4.859   4.208
21071SOL    HW163171   5.906   4.931   4.145
21071SOL    HW263172   5.903   4.780   4.155
21072SOL     OW63173   6.124   4.237   4.582
21072SOL    HW163174   6.136   4.296   4.507
21072SOL    HW263175   6.190   4.266   4.645
21073SOL     OW63176   6.831   5.078   4.123
21073SOL    HW163177   6.887   5.148   4.157
21073SOL    HW263178   6.744   5.101   4.153
21074SOL     OW63179   6.893   5.191   4.867
21074SOL    HW163180   6.938   5.199   4.951
21074SOL    HW263181   6.841   5.112   4.875
21075SOL     OW63182   7.160   4.342   4.207
21075SOL    HW163183   7.110   4.381   4.279
21075SOL    HW263184   7.206   4.416   4.167
21076SOL     OW63185   5.952   5.236   5.034
21076SOL    HW163186   5.935   5.190   4.951
21076SOL    HW263187   6.045   5.257   5.031
21077SOL     OW63188   6.018   4.473   5.342
21077SOL    HW163189   6.073   4.517   5.277
21077SOL    HW263190   6.062   4.390   5.358
21078SOL     OW63191   7.214   4.510   5.422
21078SOL    HW163192   7.126   4.548   5.413
21078SOL    HW263193   7.264   4.548   5.350
21079SOL     OW63194   6.582   3.865   5.486
21079SOL    HW163195   6.639   3.939   5.466
21079SOL    HW263196   6.633   3.787   5.463
21080SOL     OW63197   6.079   3.756   5.488
21080SOL    HW163198   6.024   3.709   5.424
21080SOL    HW263199   6.027   3.834   5.509
21081SOL     OW63200   6.173   4.599   4.769
21081SOL    HW163201   6.213   4.686   4.770
21081SOL    HW263202   6.111   4.600   4.841
21082SOL     OW63203   6.895   4.575   4.726
21082SOL    HW163204   6.806   4.549   4.702
21082SOL    HW263205   6.948   4.499   4.706
21083SOL     OW63206   6.784   4.247   3.981
21083SOL    HW163207   6.794   4.170   4.038
21083SOL    HW263208   6.743   4.313   4.037
21084SOL     OW63209   5.879   3.917   4.961
21084SOL    HW163210   5.844   3.947   5.045
21084SOL    HW263211   5.860   3.823   4.959
21085SOL     OW63212   6.296   4.348   4.764
21085SOL    HW163213   6.374   4.346   4.709
21085SOL    HW263214   6.264   4.438   4.758
21086SOL     OW63215   7.338   4.691   5.594
21086SOL    HW163216   7.297   4.619   5.545
21086SOL    HW263217   7.273   4.712   5.662
21087SOL     OW63218   5.910   3.785   4.351
21087SOL    HW163219   5.874   3.872   4.368
21087SOL    HW263220   5.915   3.744   4.437
21088SOL     OW63221   7.218   4.115   4.068
21088SOL    HW163222   7.249   4.049   4.130
21088SOL    HW263223   7.188   4.188   4.122
21089SOL     OW63224   6.622   4.481   4.679
21089SOL    HW163225   6.600   4.497   4.771
21089SOL    HW263226   6.592   4.392   4.662
21090SOL     OW63227   6.571   5.289   5.461
21090SOL    HW163228   6.547   5.333   5.379
21090SOL    HW263229   6.607   5.205   5.433
21091SOL     OW63230   7.426   5.217   5.326
21091SOL    HW163231   7.451   5.247   5.239
21091SOL    HW263232   7.504   5.229   5.380
21092SOL     OW63233   5.938   4.628   5.554
21092SOL    HW163234   6.018   4.653   5.600
21092SOL    HW263235   5.968   4.572   5.483
21093SOL     OW63236   7.110   3.991   3.843
21093SOL    HW163237   7.056   3.921   3.881
21093SOL    HW263238   7.148   4.035   3.918
21094SOL     OW63239   6.866   4.545   3.742
21094SOL    HW163240   6.906   4.459   3.750
21094SOL    HW263241   6.903   4.581   3.662
21095SOL     OW63242   6.657   5.077   4.586
21095SOL    HW163243   6.669   5.004   4.525
21095SOL    HW263244   6.711   5.147   4.550
21096SOL     OW63245   5.906   4.542   4.660
21096SOL    HW163246   6.001   4.556   4.664
21096SOL    HW263247   5.894   4.453   4.694
21097SOL     OW63248   5.902   4.261   4.735
21097SOL    HW163249   5.862   4.174   4.724
21097SOL    HW263250   5.979   4.258   4.678
21098SOL     OW63251   6.724   4.091   5.412
21098SOL    HW163252   6.678   4.143   5.477
21098SOL    HW263253   6.809   4.135   5.402
21099SOL     OW63254   6.743   3.913   5.200
21099SOL    HW163255   6.731   3.976   5.272
21099SOL    HW263256   6.788   3.963   5.132
21100SOL     OW63257   5.610   5.029   3.901
21100SOL    HW163258   5.521   5.049   3.871
21100SOL    HW263259   5.602   4.943   3.943
21101SOL     OW63260   6.058   5.306   4.620
21101SOL    HW163261   6.123   5.375   4.636
21101SOL    HW263262   6.103   5.243   4.564
21102SOL     OW63263   6.536   4.503   4.936
21102SOL    HW163264   6.597   4.494   5.009
21102SOL    HW263265   6.455   4.463   4.968
21103SOL     OW63266   5.621   4.272   4.847
21103SOL    HW163267   5.699   4.282   4.792
21103SOL    HW263268   5.654   4.276   4.937
21104SOL     OW63269   5.778   4.256   5.468
21104SOL    HW163270   5.848   4.223   5.411
21104SOL    HW263271   5.741   4.330   5.420
21105SOL     OW63272   6.979   4.643   5.375
21105SOL    HW163273   6.995   4.738   5.370
21105SOL    HW263274   6.970   4.616   5.283
21106SOL     OW63275   6.404   4.292   4.095
21106SOL    HW163276   6.411   4.218   4.035
21106SOL    HW263277   6.327   4.340   4.065
21107SOL     OW63278   7.220   4.326   4.886
21107SOL    HW163279   7.209   4.268   4.962
21107SOL    HW263280   7.312   4.313   4.860
21108SOL     OW63281   5.861   5.274   5.428
21108SOL    HW163282   5.849   5.339   5.496
21108SOL    HW263283   5.837   5.191   5.469
21109SOL     OW63284   6.320   4.158   4.957
21109SOL    HW163285   6.255   4.089   4.942
21109SOL    HW263286   6.302   4.223   4.889
21110SOL     OW63287   6.543   5.385   5.187
21110SOL    HW163288   6.504   5.344   5.110
21110SOL    HW263289   6.522   5.478   5.178
21111SOL     OW63290   6.031   4.204   3.888
21111SOL    HW163291   6.095   4.271   3.914
21111SOL    HW263292   5.947   4.249   3.890
21112SOL     OW63293   5.756   4.872   5.211
21112SOL    HW163294   5.747   4.819   5.291
21112SOL    HW263295   5.755   4.808   5.140
21113SOL     OW63296   6.892   4.756   4.931
21113SOL    HW163297   6.900   4.692   4.861
21113SOL    HW263298   6.839   4.826   4.894
21114SOL     OW63299   6.914   4.583   4.015
21114SOL    HW163300   6.843   4.552   4.071
21114SOL    HW263301   6.883   4.569   3.925
21115SOL     OW63302   7.373   5.447   4.896
21115SOL    HW163303   7.434   5.473   4.827
21115SOL    HW263304   7.340   5.362   4.869
21116SOL     OW63305   6.821   5.451   4.801
21116SOL    HW163306   6.907   5.483   4.775
21116SOL    HW263307   6.837   5.362   4.833
21117SOL     OW63308   5.665   4.905   4.773
21117SOL    HW163309   5.670   4.863   4.859
21117SOL    HW263310   5.595   4.858   4.728
21118SOL     OW63311   6.258   5.415   5.467
21118SOL    HW163312   6.182   5.473   5.477
21118SOL    HW263313   6.294   5.437   5.381
21119SOL     OW63314   7.329   3.907   4.221
21119SOL    HW163315   7.388   3.887   4.148
21119SOL    HW263316   7.303   3.821   4.255
21120SOL     OW63317   6.982   5.294   4.226
21120SOL    HW163318   7.037   5.330   4.156
21120SOL    HW263319   6.927   5.367   4.253
21121SOL     OW63320   5.818   5.467   5.614
21121SOL    HW163321   5.758   5.407   5.658
21121SOL    HW263322   5.831   5.539   5.676
21122SOL     OW63323   6.864   4.657   4.384
21122SOL    HW163324   6.939   4.599   4.398
21122SOL    HW263325   6.901   4.730   4.334
21123SOL     OW63326   6.365   5.007   5.150
21123SOL    HW163327   6.343   5.054   5.230
21123SOL    HW263328   6.290   5.019   5.093
21124SOL     OW63329   6.255   5.358   3.885
21124SOL    HW163330   6.267   5.373   3.792
21124SOL    HW263331   6.202   5.278   3.890
21125SOL     OW63332   7.202   5.453   5.128
21125SOL    HW163333   7.258   5.453   5.050
21125SOL    HW263334   7.187   5.546   5.147
21126SOL     OW63335   7.431   3.884   4.689
21126SOL    HW163336   7.459   3.795   4.667
21126SOL    HW263337   7.343   3.891   4.651
21127SOL     OW63338   5.823   4.030   4.429
21127SOL    HW163339   5.736   4.065   4.409
21127SOL    HW263340   5.827   4.032   4.525
21128SOL     OW63341   6.796   5.313   3.761
21128SOL    HW163342   6.785   5.222   3.790
21128SOL    HW263343   6.726   5.326   3.697
21129SOL     OW63344   6.404   4.739   5.107
21129SOL    HW163345   6.438   4.737   5.018
21129SOL    HW263346   6.392   4.832   5.126
21130SOL     OW63347   6.504   4.632   4.016
21130SOL    HW163348   6.562   4.667   3.948
21130SOL    HW263349   6.556   4.565   4.061
21131SOL     OW63350   7.070   5.368   3.782
21131SOL    HW163351   6.978   5.349   3.765
21131SOL    HW263352   7.110   5.371   3.695
21132SOL     OW63353   5.978   5.031   5.225
21132SOL    HW163354   5.963   5.108   5.171
21132SOL    HW263355   5.899   4.978   5.214
21133SOL     OW63356   7.187   5.015   5.002
21133SOL    HW163357   7.238   4.991   5.079
21133SOL    HW263358   7.125   5.081   5.035
21134SOL     OW63359   6.664   4.841   4.452
21134SOL    HW163360   6.588   4.793   4.484
21134SOL    HW263361   6.725   4.773   4.422
21135SOL     OW63362   6.621   3.973   4.684
21135SOL    HW163363   6.619   3.931   4.598
21135SOL    HW263364   6.613   3.902   4.747
21136SOL     OW63365   6.188   5.208   4.203
21136SOL    HW163366   6.239   5.161   4.137
21136SOL    HW263367   6.102   5.220   4.163
21137SOL     OW63368   7.332   4.104   5.114
21137SOL    HW163369   7.402   4.169   5.109
21137SOL    HW263370   7.359   4.036   5.052
21138SOL     OW63371   5.865   5.065   4.020
21138SOL    HW163372   5.777   5.059   3.984
21138SOL    HW263373   5.854   5.116   4.101
21139SOL     OW63374   5.714   4.763   5.467
21139SOL    HW163375   5.634   4.733   5.512
21139SOL    HW263376   5.784   4.712   5.508
21140SOL     OW63377   6.266   3.910   5.218
21140SOL    HW163378   6.350   3.886   5.180
21140SOL    HW263379   6.288   3.946   5.304
21141SOL     OW63380   5.675   4.040   3.737
21141SOL    HW163381   5.594   4.020   3.691
21141SOL    HW263382   5.701   4.126   3.703
21142SOL     OW63383   7.001   4.576   5.111
21142SOL    HW163384   6.948   4.635   5.057
21142SOL    HW263385   7.089   4.582   5.074
21143SOL     OW63386   5.630   3.872   4.002
21143SOL    HW163387   5.616   3.946   3.942
21143SOL    HW263388   5.718   3.841   3.981
21144SOL     OW63389   6.767   5.048   3.847
21144SOL    HW163390   6.675   5.020   3.846
21144SOL    HW263391   6.790   5.050   3.940
21145SOL     OW63392   6.203   4.558   5.155
21145SOL    HW163393   6.262   4.633   5.145
21145SOL    HW263394   6.262   4.482   5.154
21146SOL     OW63395   7.071   5.528   4.719
21146SOL    HW163396   7.097   5.602   4.664
21146SOL    HW263397   7.153   5.482   4.738
21147SOL     OW63398   6.312   4.272   5.407
21147SOL    HW163399   6.358   4.327   5.471
21147SOL    HW263400   6.322   4.183   5.440
21148SOL     OW63401   7.055   4.907   5.344
21148SOL    HW163402   7.046   4.931   5.436
21148SOL    HW263403   7.144   4.932   5.320
21149SOL     OW63404   5.968   5.483   5.287
21149SOL    HW163405   5.926   5.496   5.202
21149SOL    HW263406   5.927   5.404   5.323
21150SOL     OW63407   7.241   4.600   4.976
21150SOL    HW163408   7.239   4.517   4.929
21150SOL    HW263409   7.229   4.667   4.909
21151SOL     OW63410   6.806   4.046   4.180
21151SOL    HW163411   6.865   3.972   4.179
21151SOL    HW263412   6.834   4.099   4.255
21152SOL     OW63413   6.167   4.448   4.403
21152SOL    HW163414   6.208   4.533   4.390
21152SOL    HW263415   6.103   4.440   4.332
21153SOL     OW63416   7.333   4.078   5.390
21153SOL    HW163417   7.330   4.094   5.296
21153SOL    HW263418   7.255   4.026   5.407
21154SOL     OW63419   7.347   4.648   5.227
21154SOL    HW163420   7.328   4.741   5.241
21154SOL    HW263421   7.319   4.632   5.137
21155SOL     OW63422   6.459   5.081   3.789
21155SOL    HW163423   6.420   5.093   3.876
21155SOL    HW263424   6.463   5.168   3.752
21156SOL     OW63425   6.238   5.521   4.631
21156SOL    HW163426   6.240   5.616   4.627
21156SOL    HW263427   6.330   5.495   4.640
21157SOL     OW63428   6.459   4.701   4.579
21157SOL    HW163429   6.509   4.628   4.615
21157SOL    HW263430   6.414   4.739   4.654
21158SOL     OW63431   6.660   4.709   3.812
21158SOL    HW163432   6.638   4.764   3.736
21158SOL    HW263433   6.733   4.655   3.782
21159SOL     OW63434   7.411   5.285   4.567
21159SOL    HW163435   7.336   5.276   4.509
21159SOL    HW263436   7.387   5.235   4.645
21160SOL     OW63437   5.788   5.017   5.557
21160SOL    HW163438   5.759   4.937   5.514
21160SOL    HW263439   5.728   5.028   5.631
21161SOL     OW63440   5.723   4.967   4.399
21161SOL    HW163441   5.752   4.921   4.478
21161SOL    HW263442   5.769   4.924   4.328
21162SOL     OW63443   6.278   5.145   5.374
21162SOL    HW163444   6.194   5.110   5.401
21162SOL    HW263445   6.278   5.235   5.405
21163SOL     OW63446   7.398   3.894   4.959
21163SOL    HW163447   7.399   3.799   4.971
21163SOL    HW263448   7.411   3.907   4.865
21164SOL     OW63449   6.004   4.144   4.244
21164SOL    HW163450   6.035   4.072   4.189
21164SOL    HW263451   5.949   4.103   4.310
21165SOL     OW63452   7.283   5.203   4.807
21165SOL    HW163453   7.205   5.184   4.756
21165SOL    HW263454   7.284   5.136   4.875
21166SOL     OW63455   5.936   4.290   5.014
21166SOL    HW163456   5.988   4.226   5.062
21166SOL    HW263457   5.944   4.263   4.922
21167SOL     OW63458   6.423   5.307   4.394
21167SOL    HW163459   6.391   5.377   4.338
21167SOL    HW263460   6.348   5.249   4.404
21168SOL     OW63461   7.007   3.956   4.840
21168SOL    HW163462   7.015   3.867   4.873
21168SOL    HW263463   6.961   4.004   4.909
21169SOL     OW63464   6.597   3.741   4.843
21169SOL    HW163465   6.543   3.679   4.794
21169SOL    HW263466   6.683   3.700   4.846
21170SOL     OW63467   6.365   5.056   4.050
21170SOL    HW163468   6.341   4.964   4.065
21170SOL    HW263469   6.443   5.069   4.105
21171SOL     OW63470   6.220   5.286   5.016
21171SOL    HW163471   6.221   5.361   5.075
21171SOL    HW263472   6.307   5.283   4.977
21172SOL     OW63473   6.966   3.763   3.916
21172SOL    HW163474   7.006   3.691   3.868
21172SOL    HW263475   6.875   3.737   3.927
21173SOL     OW63476   6.885   4.194   4.399
21173SOL    HW163477   6.834   4.275   4.395
21173SOL    HW263478   6.878   4.165   4.489
21174SOL     OW63479   7.168   3.912   4.618
21174SOL    HW163480   7.116   3.942   4.692
21174SOL    HW263481   7.168   3.986   4.557
21175SOL     OW63482   5.627   4.777   4.026
21175SOL    HW163483   5.720   4.766   4.009
21175SOL    HW263484   5.596   4.689   4.050
21176SOL     OW63485   6.483   5.400   4.052
21176SOL    HW163486   6.403   5.383   4.001
21176SOL    HW263487   6.457   5.468   4.115
21177SOL     OW63488   5.794   4.335   5.737
21177SOL    HW163489   5.706   4.327   5.775
21177SOL    HW263490   5.780   4.326   5.642
21178SOL     OW63491   5.805   4.013   6.576
21178SOL    HW163492   5.835   3.977   6.659
21178SOL    HW263493   5.717   3.976   6.564
21179SOL     OW63494   5.574   4.118   6.233
21179SOL    HW163495   5.495   4.144   6.280
21179SOL    HW263496   5.547   4.045   6.178
21180SOL     OW63497   6.161   5.032   6.795
21180SOL    HW163498   6.079   5.035   6.746
21180SOL    HW263499   6.178   5.123   6.819
21181SOL     OW63500   7.174   5.249   6.290
21181SOL    HW163501   7.127   5.218   6.367
21181SOL    HW263502   7.108   5.252   6.221
21182SOL     OW63503   6.724   4.427   6.273
21182SOL    HW163504   6.770   4.510   6.260
21182SOL    HW263505   6.675   4.439   6.354
21183SOL     OW63506   7.387   4.306   5.807
21183SOL    HW163507   7.349   4.306   5.719
21183SOL    HW263508   7.342   4.234   5.852
21184SOL     OW63509   6.314   4.855   6.644
21184SOL    HW163510   6.255   4.896   6.708
21184SOL    HW263511   6.354   4.928   6.598
21185SOL     OW63512   6.473   4.466   7.412
21185SOL    HW163513   6.467   4.534   7.479
21185SOL    HW263514   6.490   4.514   7.331
21186SOL     OW63515   6.272   4.707   6.232
21186SOL    HW163516   6.339   4.709   6.300
21186SOL    HW263517   6.205   4.769   6.262
21187SOL     OW63518   6.299   4.875   7.420
21187SOL    HW163519   6.351   4.948   7.455
21187SOL    HW263520   6.224   4.918   7.379
21188SOL     OW63521   5.929   5.120   6.655
21188SOL    HW163522   5.853   5.077   6.615
21188SOL    HW263523   5.965   5.175   6.586
21189SOL     OW63524   7.040   5.229   6.958
21189SOL    HW163525   7.094   5.307   6.971
21189SOL    HW263526   6.967   5.241   7.020
21190SOL     OW63527   6.045   4.099   7.042
21190SOL    HW163528   6.119   4.040   7.057
21190SOL    HW263529   5.968   4.048   7.068
21191SOL     OW63530   7.170   4.156   6.341
21191SOL    HW163531   7.104   4.166   6.273
21191SOL    HW263532   7.152   4.227   6.402
21192SOL     OW63533   5.809   5.452   6.054
21192SOL    HW163534   5.837   5.524   6.110
21192SOL    HW263535   5.880   5.441   5.991
21193SOL     OW63536   6.721   5.065   7.282
21193SOL    HW163537   6.767   5.054   7.366
21193SOL    HW263538   6.668   4.986   7.273
21194SOL     OW63539   5.813   5.183   6.117
21194SOL    HW163540   5.799   5.277   6.116
21194SOL    HW263541   5.763   5.152   6.193
21195SOL     OW63542   5.867   4.813   6.463
21195SOL    HW163543   5.869   4.724   6.498
21195SOL    HW263544   5.812   4.862   6.524
21196SOL     OW63545   6.162   5.526   7.010
21196SOL    HW163546   6.084   5.507   7.063
21196SOL    HW263547   6.193   5.611   7.042
21197SOL     OW63548   6.156   4.712   5.738
21197SOL    HW163549   6.204   4.758   5.670
21197SOL    HW263550   6.196   4.741   5.820
21198SOL     OW63551   7.178   3.856   7.047
21198SOL    HW163552   7.217   3.932   7.003
21198SOL    HW263553   7.146   3.890   7.130
21199SOL     OW63554   5.709   4.381   6.157
21199SOL    HW163555   5.676   4.293   6.179
21199SOL    HW263556   5.701   4.430   6.238
21200SOL     OW63557   7.433   5.467   5.903
21200SOL    HW163558   7.505   5.452   5.964
21200SOL    HW263559   7.439   5.560   5.880
21201SOL     OW63560   5.656   5.299   5.740
21201SOL    HW163561   5.635   5.209   5.764
21201SOL    HW263562   5.613   5.352   5.806
21202SOL     OW63563   7.284   4.650   6.236
21202SOL    HW163564   7.362   4.604   6.207
21202SOL    HW263565   7.259   4.705   6.161
21203SOL     OW63566   7.242   4.830   6.018
21203SOL    HW163567   7.327   4.822   5.975
21203SOL    HW263568   7.256   4.896   6.087
21204SOL     OW63569   5.705   4.474   7.164
21204SOL    HW163570   5.790   4.519   7.166
21204SOL    HW263571   5.641   4.544   7.148
21205SOL     OW63572   6.204   5.119   6.321
21205SOL    HW163573   6.163   5.033   6.322
21205SOL    HW263574   6.192   5.150   6.231
21206SOL     OW63575   6.856   4.949   7.004
21206SOL    HW163576   6.883   4.880   6.943
21206SOL    HW263577   6.918   4.943   7.076
21207SOL     OW63578   6.416   3.733   6.106
21207SOL    HW163579   6.457   3.815   6.077
21207SOL    HW263580   6.323   3.752   6.105
21208SOL     OW63581   5.772   4.680   6.889
21208SOL    HW163582   5.860   4.645   6.872
21208SOL    HW263583   5.720   4.652   6.813
21209SOL     OW63584   7.121   4.739   5.785
21209SOL    HW163585   7.053   4.679   5.814
21209SOL    HW263586   7.162   4.770   5.865
21210SOL     OW63587   6.765   5.546   7.222
21210SOL    HW163588   6.766   5.608   7.149
21210SOL    HW263589   6.782   5.461   7.181
21211SOL     OW63590   5.945   3.976   7.462
21211SOL    HW163591   5.981   4.057   7.500
21211SOL    HW263592   5.851   3.992   7.458
21212SOL     OW63593   7.058   5.143   6.516
21212SOL    HW163594   6.994   5.162   6.585
21212SOL    HW263595   7.041   5.052   6.491
21213SOL     OW63596   7.224   5.519   6.148
21213SOL    HW163597   7.206   5.474   6.065
21213SOL    HW263598   7.223   5.450   6.214
21214SOL     OW63599   6.174   4.426   5.858
21214SOL    HW163600   6.176   4.513   5.818
21214SOL    HW263601   6.109   4.433   5.928
21215SOL     OW63602   6.869   4.118   6.528
21215SOL    HW163603   6.780   4.083   6.532
21215SOL    HW263604   6.920   4.059   6.583
21216SOL     OW63605   7.165   5.397   5.905
21216SOL    HW163606   7.259   5.412   5.893
21216SOL    HW263607   7.131   5.385   5.817
21217SOL     OW63608   6.377   4.337   7.018
21217SOL    HW163609   6.352   4.308   7.105
21217SOL    HW263610   6.351   4.264   6.960
21218SOL     OW63611   6.977   4.201   7.259
21218SOL    HW163612   6.982   4.244   7.344
21218SOL    HW263613   7.027   4.121   7.270
21219SOL     OW63614   6.529   4.605   7.178
21219SOL    HW163615   6.586   4.542   7.133
21219SOL    HW263616   6.481   4.648   7.107
21220SOL     OW63617   6.593   4.120   6.796
21220SOL    HW163618   6.501   4.134   6.818
21220SOL    HW263619   6.591   4.080   6.709
21221SOL     OW63620   6.645   4.419   6.005
21221SOL    HW163621   6.665   4.416   6.099
21221SOL    HW263622   6.560   4.376   5.998
21222SOL     OW63623   5.677   4.543   6.374
21222SOL    HW163624   5.760   4.541   6.422
21222SOL    HW263625   5.629   4.616   6.413
21223SOL     OW63626   5.695   5.604   7.173
21223SOL    HW163627   5.702   5.583   7.266
21223SOL    HW263628   5.610   5.569   7.147
21224SOL     OW63629   6.477   4.074   5.786
21224SOL    HW163630   6.526   4.130   5.727
21224SOL    HW263631   6.456   3.996   5.734
21225SOL     OW63632   7.271   4.287   7.427
21225SOL    HW163633   7.250   4.364   7.374
21225SOL    HW263634   7.300   4.222   7.363
21226SOL     OW63635   6.978   4.874   6.128
21226SOL    HW163636   7.056   4.863   6.075
21226SOL    HW263637   6.923   4.934   6.078
21227SOL     OW63638   6.137   3.885   6.500
21227SOL    HW163639   6.143   3.914   6.591
21227SOL    HW263640   6.133   3.966   6.449
21228SOL     OW63641   6.584   5.181   6.051
21228SOL    HW163642   6.558   5.253   5.994
21228SOL    HW263643   6.553   5.206   6.138
21229SOL     OW63644   5.940   5.540   6.467
21229SOL    HW163645   5.985   5.456   6.471
21229SOL    HW263646   6.007   5.605   6.487
21230SOL     OW63647   7.390   4.766   6.474
21230SOL    HW163648   7.343   4.751   6.392
21230SOL    HW263649   7.321   4.776   6.539
21231SOL     OW63650   6.803   5.267   7.102
21231SOL    HW163651   6.792   5.195   7.165
21231SOL    HW263652   6.736   5.251   7.036
21232SOL     OW63653   5.887   4.686   5.848
21232SOL    HW163654   5.970   4.712   5.808
21232SOL    HW263655   5.862   4.606   5.802
21233SOL     OW63656   7.071   4.487   6.296
21233SOL    HW163657   7.073   4.444   6.382
21233SOL    HW263658   7.150   4.541   6.294
21234SOL     OW63659   6.058   5.009   7.335
21234SOL    HW163660   6.034   5.013   7.242
21234SOL    HW263661   5.974   4.997   7.380
21235SOL     OW63662   6.729   5.496   5.818
21235SOL    HW163663   6.644   5.467   5.853
21235SOL    HW263664   6.748   5.433   5.748
21236SOL     OW63665   5.796   3.980   7.083
21236SOL    HW163666   5.724   4.042   7.098
21236SOL    HW263667   5.764   3.897   7.118
21237SOL     OW63668   7.224   5.112   5.687
21237SOL    HW163669   7.184   5.198   5.674
21237SOL    HW263670   7.157   5.050   5.660
21238SOL     OW63671   6.053   5.461   5.908
21238SOL    HW163672   6.105   5.513   5.969
21238SOL    HW263673   6.116   5.426   5.846
21239SOL     OW63674   6.983   3.829   6.045
21239SOL    HW163675   6.982   3.805   5.953
21239SOL    HW263676   7.075   3.820   6.072
21240SOL     OW63677   5.838   5.512   6.800
21240SOL    HW163678   5.886   5.436   6.832
21240SOL    HW263679   5.822   5.493   6.707
21241SOL     OW63680   6.534   5.426   6.474
21241SOL    HW163681   6.619   5.384   6.485
21241SOL    HW263682   6.492   5.378   6.403
21242SOL     OW63683   5.984   4.408   6.061
21242SOL    HW163684   5.996   4.314   6.073
21242SOL    HW263685   5.891   4.423   6.076
21243SOL     OW63686   7.093   3.947   7.303
21243SOL    HW163687   7.106   3.965   7.396
21243SOL    HW263688   7.026   3.879   7.301
21244SOL     OW63689   6.248   3.832   5.688
21244SOL    HW163690   6.299   3.754   5.711
21244SOL    HW263691   6.186   3.803   5.622
21245SOL     OW63692   6.345   3.998   7.338
21245SOL    HW163693   6.429   3.952   7.337
21245SOL    HW263694   6.298   3.959   7.412
21246SOL     OW63695   6.454   5.250   6.785
21246SOL    HW163696   6.437   5.210   6.700
21246SOL    HW263697   6.522   5.195   6.824
21247SOL     OW63698   6.915   4.315   7.018
21247SOL    HW163699   6.948   4.286   7.103
21247SOL    HW263700   6.953   4.402   7.006
21248SOL     OW63701   6.400   5.100   6.540
21248SOL    HW163702   6.488   5.097   6.502
21248SOL    HW263703   6.342   5.117   6.466
21249SOL     OW63704   6.516   4.239   6.474
21249SOL    HW163705   6.491   4.228   6.382
21249SOL    HW263706   6.544   4.151   6.502
21250SOL     OW63707   6.150   3.786   6.076
21250SOL    HW163708   6.072   3.787   6.132
21250SOL    HW263709   6.139   3.862   6.018
21251SOL     OW63710   7.018   4.938   5.619
21251SOL    HW163711   7.047   4.864   5.672
21251SOL    HW263712   6.932   4.961   5.653
21252SOL     OW63713   5.866   3.771   5.774
21252SOL    HW163714   5.916   3.839   5.729
21252SOL    HW263715   5.932   3.715   5.814
21253SOL     OW63716   6.537   3.972   6.037
21253SOL    HW163717   6.511   4.009   5.952
21253SOL    HW263718   6.631   3.990   6.043
21254SOL     OW63719   6.661   4.418   7.031
21254SOL    HW163720   6.597   4.347   7.034
21254SOL    HW263721   6.746   4.374   7.027
21255SOL     OW63722   6.790   5.314   6.390
21255SOL    HW163723   6.805   5.373   6.316
21255SOL    HW263724   6.865   5.329   6.448
21256SOL     OW63725   6.067   4.882   6.294
21256SOL    HW163726   6.004   4.859   6.362
21256SOL    HW263727   6.018   4.876   6.212
21257SOL     OW63728   6.836   5.517   6.204
21257SOL    HW163729   6.886   5.578   6.150
21257SOL    HW263730   6.765   5.569   6.241
21258SOL     OW63731   6.617   4.241   5.616
21258SOL    HW163732   6.574   4.324   5.596
21258SOL    HW263733   6.681   4.263   5.683
21259SOL     OW63734   5.687   4.273   6.979
21259SOL    HW163735   5.778   4.276   6.952
21259SOL    HW263736   5.678   4.343   7.044
21260SOL     OW63737   6.145   3.946   6.770
21260SOL    HW163738   6.182   3.882   6.830
21260SOL    HW263739   6.052   3.946   6.790
21261SOL     OW63740   6.456   4.178   6.215
21261SOL    HW163741   6.416   4.234   6.149
21261SOL    HW263742   6.480   4.098   6.168
21262SOL     OW63743   6.609   3.784   6.327
21262SOL    HW163744   6.548   3.780   6.253
21262SOL    HW263745   6.583   3.711   6.383
21263SOL     OW63746   7.021   4.879   6.438
21263SOL    HW163747   6.948   4.818   6.446
21263SOL    HW263748   7.038   4.886   6.344
21264SOL     OW63749   7.049   4.340   6.534
21264SOL    HW163750   6.985   4.270   6.544
21264SOL    HW263751   7.105   4.334   6.612
21265SOL     OW63752   7.416   4.521   5.975
21265SOL    HW163753   7.477   4.476   6.035
21265SOL    HW263754   7.402   4.458   5.905
21266SOL     OW63755   6.090   5.147   5.733
21266SOL    HW163756   6.017   5.116   5.786
21266SOL    HW263757   6.079   5.104   5.649
21267SOL     OW63758   7.292   4.995   6.221
21267SOL    HW163759   7.385   4.989   6.241
21267SOL    HW263760   7.268   5.085   6.245
21268SOL     OW63761   6.979   4.299   5.651
21268SOL    HW163762   6.922   4.273   5.724
21268SOL    HW263763   7.067   4.276   5.680
21269SOL     OW63764   6.114   3.980   5.889
21269SOL    HW163765   6.166   3.938   5.821
21269SOL    HW263766   6.083   4.061   5.848
21270SOL     OW63767   7.321   4.968   7.118
21270SOL    HW163768   7.409   4.934   7.105
21270SOL    HW263769   7.335   5.055   7.155
21271SOL     OW63770   6.628   5.080   6.922
21271SOL    HW163771   6.550   5.045   6.966
21271SOL    HW263772   6.701   5.033   6.962
21272SOL     OW63773   7.194   5.358   7.259
21272SOL    HW163774   7.182   5.394   7.171
21272SOL    HW263775   7.272   5.303   7.251
21273SOL     OW63776   6.738   4.963   6.692
21273SOL    HW163777   6.675   4.996   6.756
21273SOL    HW263778   6.704   4.994   6.607
21274SOL     OW63779   7.195   4.815   6.661
21274SOL    HW163780   7.187   4.882   6.729
21274SOL    HW263781   7.126   4.836   6.599
21275SOL     OW63782   6.505   3.804   6.969
21275SOL    HW163783   6.526   3.790   6.877
21275SOL    HW263784   6.584   3.845   7.005
21276SOL     OW63785   6.566   4.839   7.310
21276SOL    HW163786   6.475   4.856   7.337
21276SOL    HW263787   6.561   4.759   7.258
21277SOL     OW63788   6.300   4.786   5.964
21277SOL    HW163789   6.284   4.759   6.055
21277SOL    HW263790   6.376   4.733   5.937
21278SOL     OW63791   6.012   4.553   6.846
21278SOL    HW163792   6.080   4.562   6.913
21278SOL    HW263793   5.982   4.462   6.855
21279SOL     OW63794   6.850   4.090   6.879
21279SOL    HW163795   6.877   4.171   6.922
21279SOL    HW263796   6.761   4.109   6.848
21280SOL     OW63797   5.664   5.292   6.948
21280SOL    HW163798   5.632   5.363   6.892
21280SOL    HW263799   5.759   5.294   6.937
21281SOL     OW63800   5.905   4.856   6.073
21281SOL    HW163801   5.908   4.929   6.010
21281SOL    HW263802   5.901   4.778   6.018
21282SOL     OW63803   6.121   4.240   6.447
21282SOL    HW163804   6.132   4.298   6.372
21282SOL    HW263805   6.189   4.266   6.509
21283SOL     OW63806   6.832   5.076   5.985
21283SOL    HW163807   6.888   5.147   6.017
21283SOL    HW263808   6.744   5.101   6.014
21284SOL     OW63809   6.896   5.193   6.728
21284SOL    HW163810   6.943   5.199   6.811
21284SOL    HW263811   6.844   5.112   6.735
21285SOL     OW63812   7.159   4.340   6.072
21285SOL    HW163813   7.109   4.382   6.142
21285SOL    HW263814   7.205   4.413   6.029
21286SOL     OW63815   5.931   5.257   6.887
21286SOL    HW163816   5.924   5.204   6.807
21286SOL    HW263817   6.024   5.273   6.897
21287SOL     OW63818   6.020   4.470   7.205
21287SOL    HW163819   6.077   4.514   7.142
21287SOL    HW263820   6.064   4.387   7.224
21288SOL     OW63821   7.213   4.510   7.284
21288SOL    HW163822   7.126   4.549   7.275
21288SOL    HW263823   7.264   4.548   7.212
21289SOL     OW63824   6.581   3.865   7.347
21289SOL    HW163825   6.640   3.938   7.327
21289SOL    HW263826   6.632   3.787   7.324
21290SOL     OW63827   6.080   3.758   7.349
21290SOL    HW163828   6.025   3.709   7.288
21290SOL    HW263829   6.028   3.836   7.371
21291SOL     OW63830   6.180   4.599   6.627
21291SOL    HW163831   6.217   4.687   6.629
21291SOL    HW263832   6.120   4.596   6.701
21292SOL     OW63833   6.894   4.576   6.591
21292SOL    HW163834   6.806   4.549   6.564
21292SOL    HW263835   6.949   4.500   6.570
21293SOL     OW63836   6.786   4.246   5.843
21293SOL    HW163837   6.795   4.170   5.900
21293SOL    HW263838   6.744   4.312   5.899
21294SOL     OW63839   5.878   3.917   6.824
21294SOL    HW163840   5.844   3.945   6.909
21294SOL    HW263841   5.861   3.823   6.822
21295SOL     OW63842   5.632   5.035   6.854
21295SOL    HW163843   5.664   4.980   6.926
21295SOL    HW263844   5.637   5.124   6.888
21296SOL     OW63845   6.299   4.347   6.626
21296SOL    HW163846   6.376   4.340   6.569
21296SOL    HW263847   6.270   4.437   6.617
21297SOL     OW63848   7.337   4.691   7.456
21297SOL    HW163849   7.297   4.619   7.407
21297SOL    HW263850   7.273   4.712   7.524
21298SOL     OW63851   5.911   3.782   6.215
21298SOL    HW163852   5.878   3.870   6.232
21298SOL    HW263853   5.916   3.741   6.301
21299SOL     OW63854   7.218   4.114   5.930
21299SOL    HW163855   7.250   4.049   5.992
21299SOL    HW263856   7.188   4.186   5.984
21300SOL     OW63857   6.620   4.482   6.541
21300SOL    HW163858   6.599   4.497   6.633
21300SOL    HW263859   6.590   4.393   6.524
21301SOL     OW63860   6.566   5.288   7.321
21301SOL    HW163861   6.545   5.333   7.239
21301SOL    HW263862   6.606   5.206   7.294
21302SOL     OW63863   7.425   5.218   7.188
21302SOL    HW163864   7.451   5.247   7.101
21302SOL    HW263865   7.503   5.230   7.242
21303SOL     OW63866   5.935   4.640   7.404
21303SOL    HW163867   6.013   4.659   7.456
21303SOL    HW263868   5.966   4.578   7.337
21304SOL     OW63869   7.109   3.991   5.705
21304SOL    HW163870   7.056   3.921   5.743
21304SOL    HW263871   7.148   4.035   5.780
21305SOL     OW63872   6.869   4.546   5.605
21305SOL    HW163873   6.908   4.459   5.612
21305SOL    HW263874   6.904   4.582   5.524
21306SOL     OW63875   6.656   5.078   6.453
21306SOL    HW163876   6.667   5.005   6.392
21306SOL    HW263877   6.707   5.149   6.415
21307SOL     OW63878   5.905   4.540   6.531
21307SOL    HW163879   5.999   4.554   6.525
21307SOL    HW263880   5.896   4.450   6.563
21308SOL     OW63881   5.900   4.262   6.599
21308SOL    HW163882   5.860   4.175   6.588
21308SOL    HW263883   5.977   4.260   6.542
21309SOL     OW63884   6.724   4.091   7.273
21309SOL    HW163885   6.678   4.143   7.339
21309SOL    HW263886   6.809   4.134   7.263
21310SOL     OW63887   6.742   3.913   7.061
21310SOL    HW163888   6.730   3.975   7.133
21310SOL    HW263889   6.788   3.962   6.993
21311SOL     OW63890   5.610   5.027   5.782
21311SOL    HW163891   5.519   5.055   5.773
21311SOL    HW263892   5.605   4.938   5.817
21312SOL     OW63893   5.680   5.494   6.539
21312SOL    HW163894   5.646   5.420   6.487
21312SOL    HW263895   5.766   5.511   6.501
21313SOL     OW63896   6.071   5.294   6.489
21313SOL    HW163897   6.142   5.354   6.512
21313SOL    HW263898   6.111   5.232   6.428
21314SOL     OW63899   6.535   4.504   6.799
21314SOL    HW163900   6.597   4.493   6.872
21314SOL    HW263901   6.456   4.459   6.828
21315SOL     OW63902   5.624   4.292   6.709
21315SOL    HW163903   5.705   4.292   6.657
21315SOL    HW263904   5.654   4.286   6.799
21316SOL     OW63905   5.773   4.264   7.329
21316SOL    HW163906   5.846   4.232   7.275
21316SOL    HW263907   5.737   4.337   7.280
21317SOL     OW63908   6.978   4.645   7.237
21317SOL    HW163909   6.995   4.739   7.232
21317SOL    HW263910   6.970   4.617   7.146
21318SOL     OW63911   6.403   4.293   5.959
21318SOL    HW163912   6.411   4.220   5.898
21318SOL    HW263913   6.327   4.342   5.927
21319SOL     OW63914   7.221   4.325   6.749
21319SOL    HW163915   7.210   4.266   6.824
21319SOL    HW263916   7.312   4.313   6.722
21320SOL     OW63917   5.812   5.264   7.309
21320SOL    HW163918   5.789   5.314   7.387
21320SOL    HW263919   5.824   5.174   7.340
21321SOL     OW63920   6.319   4.157   6.820
21321SOL    HW163921   6.255   4.088   6.804
21321SOL    HW263922   6.303   4.222   6.751
21322SOL     OW63923   6.489   5.404   7.076
21322SOL    HW163924   6.468   5.355   6.996
21322SOL    HW263925   6.492   5.495   7.048
21323SOL     OW63926   6.032   4.205   5.752
21323SOL    HW163927   6.095   4.273   5.776
21323SOL    HW263928   5.947   4.248   5.754
21324SOL     OW63929   5.716   4.874   7.068
21324SOL    HW163930   5.720   4.835   7.155
21324SOL    HW263931   5.737   4.803   7.008
21325SOL     OW63932   6.889   4.758   6.795
21325SOL    HW163933   6.899   4.694   6.724
21325SOL    HW263934   6.837   4.828   6.757
21326SOL     OW63935   6.914   4.583   5.877
21326SOL    HW163936   6.841   4.551   5.931
21326SOL    HW263937   6.884   4.569   5.787
21327SOL     OW63938   7.374   5.447   6.759
21327SOL    HW163939   7.435   5.473   6.690
21327SOL    HW263940   7.341   5.362   6.730
21328SOL     OW63941   6.828   5.460   6.682
21328SOL    HW163942   6.911   5.488   6.645
21328SOL    HW263943   6.842   5.367   6.704
21329SOL     OW63944   5.692   4.970   6.598
21329SOL    HW163945   5.662   4.992   6.686
21329SOL    HW263946   5.621   4.917   6.561
21330SOL     OW63947   6.273   5.408   7.334
21330SOL    HW163948   6.209   5.478   7.322
21330SOL    HW263949   6.344   5.430   7.273
21331SOL     OW63950   7.329   3.907   6.083
21331SOL    HW163951   7.388   3.887   6.010
21331SOL    HW263952   7.304   3.821   6.116
21332SOL     OW63953   6.983   5.294   6.089
21332SOL    HW163954   7.037   5.328   6.018
21332SOL    HW263955   6.926   5.367   6.114
21333SOL     OW63956   5.719   5.530   7.430
21333SOL    HW163957   5.678   5.454   7.471
21333SOL    HW263958   5.769   5.572   7.500
21334SOL     OW63959   6.865   4.659   6.249
21334SOL    HW163960   6.939   4.600   6.262
21334SOL    HW263961   6.901   4.731   6.197
21335SOL     OW63962   6.370   5.004   7.002
21335SOL    HW163963   6.344   5.052   7.081
21335SOL    HW263964   6.296   5.016   6.942
21336SOL     OW63965   6.258   5.360   5.741
21336SOL    HW163966   6.271   5.376   5.647
21336SOL    HW263967   6.205   5.280   5.744
21337SOL     OW63968   7.202   5.453   6.989
21337SOL    HW163969   7.259   5.453   6.912
21337SOL    HW263970   7.186   5.545   7.007
21338SOL     OW63971   7.431   3.884   6.551
21338SOL    HW163972   7.459   3.795   6.530
21338SOL    HW263973   7.343   3.892   6.513
21339SOL     OW63974   5.830   4.028   6.294
21339SOL    HW163975   5.744   4.065   6.273
21339SOL    HW263976   5.834   4.031   6.390
21340SOL     OW63977   6.798   5.313   5.625
21340SOL    HW163978   6.788   5.222   5.651
21340SOL    HW263979   6.728   5.327   5.561
21341SOL     OW63980   6.409   4.736   6.970
21341SOL    HW163981   6.444   4.728   6.881
21341SOL    HW263982   6.398   4.830   6.982
21342SOL     OW63983   6.508   4.636   5.887
21342SOL    HW163984   6.562   4.666   5.814
21342SOL    HW263985   6.560   4.566   5.927
21343SOL     OW63986   7.071   5.368   5.644
21343SOL    HW163987   6.979   5.349   5.628
21343SOL    HW263988   7.112   5.371   5.558
21344SOL     OW63989   5.949   5.038   7.088
21344SOL    HW163990   5.942   5.110   7.026
21344SOL    HW263991   5.871   4.984   7.071
21345SOL     OW63992   7.185   5.014   6.862
21345SOL    HW163993   7.240   4.989   6.937
21345SOL    HW263994   7.126   5.081   6.896
21346SOL     OW63995   6.666   4.843   6.319
21346SOL    HW163996   6.589   4.795   6.348
21346SOL    HW263997   6.726   4.776   6.286
21347SOL     OW63998   6.620   3.974   6.546
21347SOL    HW163999   6.619   3.931   6.461
21347SOL    HW264000   6.613   3.902   6.609
21348SOL     OW64001   6.196   5.215   6.067
21348SOL    HW164002   6.247   5.164   6.005
21348SOL    HW264003   6.118   5.242   6.018
21349SOL     OW64004   7.333   4.104   6.976
21349SOL    HW164005   7.403   4.169   6.971
21349SOL    HW264006   7.359   4.036   6.914
21350SOL     OW64007   5.874   5.062   5.888
21350SOL    HW164008   5.789   5.055   5.844
21350SOL    HW264009   5.857   5.112   5.967
21351SOL     OW64010   5.707   4.770   7.323
21351SOL    HW164011   5.630   4.742   7.372
21351SOL    HW264012   5.779   4.718   7.359
21352SOL     OW64013   6.265   3.911   7.081
21352SOL    HW164014   6.349   3.887   7.042
21352SOL    HW264015   6.288   3.946   7.168
21353SOL     OW64016   5.672   4.035   5.598
21353SOL    HW164017   5.597   4.017   5.541
21353SOL    HW264018   5.701   4.123   5.572
21354SOL     OW64019   7.001   4.577   6.974
21354SOL    HW164020   6.948   4.636   6.919
21354SOL    HW264021   7.088   4.582   6.936
21355SOL     OW64022   5.627   3.873   5.857
21355SOL    HW164023   5.613   3.942   5.792
21355SOL    HW264024   5.716   3.841   5.840
21356SOL     OW64025   6.763   5.048   5.704
21356SOL    HW164026   6.669   5.034   5.699
21356SOL    HW264027   6.782   5.046   5.798
21357SOL     OW64028   6.213   4.555   7.027
21357SOL    HW164029   6.271   4.630   7.015
21357SOL    HW264030   6.270   4.479   7.026
21358SOL     OW64031   7.072   5.527   6.578
21358SOL    HW164032   7.097   5.602   6.523
21358SOL    HW264033   7.154   5.481   6.595
21359SOL     OW64034   6.309   4.272   7.273
21359SOL    HW164035   6.356   4.326   7.336
21359SOL    HW264036   6.320   4.183   7.305
21360SOL     OW64037   7.055   4.908   7.205
21360SOL    HW164038   7.048   4.931   7.298
21360SOL    HW264039   7.144   4.932   7.181
21361SOL     OW64040   5.940   5.472   7.166
21361SOL    HW164041   5.858   5.518   7.147
21361SOL    HW264042   5.912   5.388   7.203
21362SOL     OW64043   7.240   4.599   6.838
21362SOL    HW164044   7.239   4.516   6.792
21362SOL    HW264045   7.229   4.665   6.770
21363SOL     OW64046   6.806   4.046   6.043
21363SOL    HW164047   6.866   3.971   6.042
21363SOL    HW264048   6.834   4.098   6.118
21364SOL     OW64049   6.162   4.450   6.270
21364SOL    HW164050   6.206   4.534   6.255
21364SOL    HW264051   6.102   4.441   6.196
21365SOL     OW64052   7.333   4.078   7.252
21365SOL    HW164053   7.331   4.094   7.158
21365SOL    HW264054   7.255   4.026   7.269
21366SOL     OW64055   7.346   4.648   7.089
21366SOL    HW164056   7.329   4.741   7.102
21366SOL    HW264057   7.319   4.631   6.999
21367SOL     OW64058   6.475   5.084   5.658
21367SOL    HW164059   6.425   5.101   5.738
21367SOL    HW264060   6.472   5.166   5.609
21368SOL     OW64061   6.255   5.490   6.517
21368SOL    HW164062   6.236   5.583   6.505
21368SOL    HW264063   6.350   5.485   6.511
21369SOL     OW64064   6.459   4.702   6.443
21369SOL    HW164065   6.509   4.628   6.478
21369SOL    HW264066   6.414   4.739   6.519
21370SOL     OW64067   6.655   4.701   5.673
21370SOL    HW164068   6.635   4.760   5.600
21370SOL    HW264069   6.730   4.651   5.643
21371SOL     OW64070   7.414   5.284   6.427
21371SOL    HW164071   7.339   5.275   6.368
21371SOL    HW264072   7.391   5.232   6.504
21372SOL     OW64073   5.797   5.010   7.422
21372SOL    HW164074   5.766   4.930   7.379
21372SOL    HW264075   5.737   5.022   7.496
21373SOL     OW64076   5.701   4.943   6.254
21373SOL    HW164077   5.737   4.901   6.332
21373SOL    HW264078   5.759   4.916   6.183
21374SOL     OW64079   6.277   5.142   7.222
21374SOL    HW164080   6.199   5.105   7.262
21374SOL    HW264081   6.282   5.231   7.257
21375SOL     OW64082   7.397   3.894   6.821
21375SOL    HW164083   7.399   3.799   6.833
21375SOL    HW264084   7.410   3.906   6.727
21376SOL     OW64085   6.007   4.145   6.106
21376SOL    HW164086   6.038   4.075   6.049
21376SOL    HW264087   5.953   4.100   6.172
21377SOL     OW64088   7.281   5.204   6.667
21377SOL    HW164089   7.203   5.186   6.615
21377SOL    HW264090   7.281   5.137   6.735
21378SOL     OW64091   5.938   4.290   6.878
21378SOL    HW164092   5.988   4.225   6.927
21378SOL    HW264093   5.945   4.262   6.787
21379SOL     OW64094   6.424   5.320   6.249
21379SOL    HW164095   6.406   5.396   6.193
21379SOL    HW264096   6.345   5.265   6.241
21380SOL     OW64097   7.007   3.957   6.701
21380SOL    HW164098   7.016   3.867   6.734
21380SOL    HW264099   6.961   4.003   6.771
21381SOL     OW64100   6.596   3.741   6.705
21381SOL    HW164101   6.543   3.679   6.656
21381SOL    HW264102   6.683   3.701   6.709
21382SOL     OW64103   6.364   5.056   5.917
21382SOL    HW164104   6.339   4.964   5.927
21382SOL    HW264105   6.446   5.064   5.967
21383SOL     OW64106   6.202   5.293   6.876
21383SOL    HW164107   6.197   5.376   6.922
21383SOL    HW264108   6.291   5.289   6.841
21384SOL     OW64109   6.966   3.763   5.779
21384SOL    HW164110   7.006   3.691   5.729
21384SOL    HW264111   6.874   3.736   5.790
21385SOL     OW64112   6.884   4.195   6.261
21385SOL    HW164113   6.833   4.276   6.258
21385SOL    HW264114   6.878   4.166   6.352
21386SOL     OW64115   7.168   3.912   6.479
21386SOL    HW164116   7.116   3.942   6.554
21386SOL    HW264117   7.168   3.986   6.419
21387SOL     OW64118   5.623   4.773   5.900
21387SOL    HW164119   5.716   4.762   5.878
21387SOL    HW264120   5.592   4.685   5.921
21388SOL     OW64121   6.481   5.398   5.914
21388SOL    HW164122   6.404   5.383   5.858
21388SOL    HW264123   6.454   5.468   5.974
21389SOL     OW64124   5.793   4.344   7.596
21389SOL    HW164125   5.705   4.332   7.632
21389SOL    HW264126   5.783   4.332   7.502
21390SOL     OW64127   5.806   4.012   8.443
21390SOL    HW164128   5.835   3.976   8.527
21390SOL    HW264129   5.719   3.974   8.430
21391SOL     OW64130   5.573   4.118   8.096
21391SOL    HW164131   5.493   4.145   8.141
21391SOL    HW264132   5.546   4.045   8.040
21392SOL     OW64133   6.161   5.032   8.656
21392SOL    HW164134   6.079   5.035   8.607
21392SOL    HW264135   6.178   5.123   8.680
21393SOL     OW64136   7.174   5.248   8.152
21393SOL    HW164137   7.127   5.217   8.230
21393SOL    HW264138   7.108   5.251   8.084
21394SOL     OW64139   6.723   4.429   8.135
21394SOL    HW164140   6.770   4.512   8.122
21394SOL    HW264141   6.675   4.441   8.217
21395SOL     OW64142   7.386   4.305   7.668
21395SOL    HW164143   7.348   4.305   7.580
21395SOL    HW264144   7.342   4.233   7.713
21396SOL     OW64145   6.313   4.854   8.505
21396SOL    HW164146   6.255   4.895   8.570
21396SOL    HW264147   6.355   4.928   8.461
21397SOL     OW64148   6.470   4.470   9.271
21397SOL    HW164149   6.478   4.537   9.338
21397SOL    HW264150   6.487   4.516   9.189
21398SOL     OW64151   6.271   4.708   8.093
21398SOL    HW164152   6.339   4.709   8.160
21398SOL    HW264153   6.205   4.771   8.123
21399SOL     OW64154   6.298   4.876   9.273
21399SOL    HW164155   6.351   4.948   9.307
21399SOL    HW264156   6.221   4.918   9.234
21400SOL     OW64157   5.929   5.121   8.517
21400SOL    HW164158   5.854   5.078   8.477
21400SOL    HW264159   5.965   5.176   8.448
21401SOL     OW64160   7.040   5.231   8.819
21401SOL    HW164161   7.095   5.308   8.830
21401SOL    HW264162   6.969   5.242   8.882
21402SOL     OW64163   6.054   4.100   8.896
21402SOL    HW164164   6.129   4.043   8.914
21402SOL    HW264165   5.979   4.052   8.931
21403SOL     OW64166   7.171   4.156   8.203
21403SOL    HW164167   7.107   4.168   8.133
21403SOL    HW264168   7.153   4.227   8.265
21404SOL     OW64169   5.805   5.452   7.912
21404SOL    HW164170   5.831   5.523   7.970
21404SOL    HW264171   5.878   5.441   7.852
21405SOL     OW64172   6.721   5.067   9.141
21405SOL    HW164173   6.765   5.057   9.225
21405SOL    HW264174   6.669   4.987   9.131
21406SOL     OW64175   5.817   5.182   7.981
21406SOL    HW164176   5.798   5.276   7.983
21406SOL    HW264177   5.767   5.146   8.054
21407SOL     OW64178   5.870   4.813   8.325
21407SOL    HW164179   5.871   4.723   8.359
21407SOL    HW264180   5.814   4.861   8.386
21408SOL     OW64181   6.161   5.528   8.868
21408SOL    HW164182   6.084   5.508   8.921
21408SOL    HW264183   6.194   5.611   8.902
21409SOL     OW64184   6.152   4.712   7.600
21409SOL    HW164185   6.203   4.755   7.531
21409SOL    HW264186   6.193   4.741   7.682
21410SOL     OW64187   7.175   3.857   8.904
21410SOL    HW164188   7.216   3.932   8.861
21410SOL    HW264189   7.145   3.892   8.988
21411SOL     OW64190   5.705   4.381   8.016
21411SOL    HW164191   5.673   4.294   8.039
21411SOL    HW264192   5.699   4.431   8.097
21412SOL     OW64193   7.432   5.467   7.766
21412SOL    HW164194   7.505   5.452   7.827
21412SOL    HW264195   7.439   5.560   7.743
21413SOL     OW64196   5.645   5.304   7.559
21413SOL    HW164197   5.624   5.212   7.578
21413SOL    HW264198   5.613   5.352   7.636
21414SOL     OW64199   7.283   4.650   8.100
21414SOL    HW164200   7.364   4.605   8.076
21414SOL    HW264201   7.261   4.702   8.023
21415SOL     OW64202   7.242   4.829   7.881
21415SOL    HW164203   7.327   4.822   7.837
21415SOL    HW264204   7.256   4.894   7.950
21416SOL     OW64205   5.692   4.476   9.020
21416SOL    HW164206   5.769   4.532   9.026
21416SOL    HW264207   5.619   4.536   9.003
21417SOL     OW64208   6.207   5.122   8.180
21417SOL    HW164209   6.166   5.035   8.184
21417SOL    HW264210   6.193   5.151   8.090
21418SOL     OW64211   6.857   4.950   8.865
21418SOL    HW164212   6.885   4.881   8.805
21418SOL    HW264213   6.918   4.945   8.938
21419SOL     OW64214   6.416   3.732   7.969
21419SOL    HW164215   6.458   3.814   7.940
21419SOL    HW264216   6.322   3.751   7.967
21420SOL     OW64217   5.771   4.679   8.752
21420SOL    HW164218   5.859   4.645   8.734
21420SOL    HW264219   5.720   4.656   8.674
21421SOL     OW64220   7.121   4.739   7.647
21421SOL    HW164221   7.053   4.679   7.677
21421SOL    HW264222   7.163   4.769   7.728
21422SOL     OW64223   6.761   5.546   9.084
21422SOL    HW164224   6.764   5.609   9.012
21422SOL    HW264225   6.780   5.462   9.044
21423SOL     OW64226   5.947   3.971   9.296
21423SOL    HW164227   5.987   4.050   9.330
21423SOL    HW264228   5.853   3.988   9.300
21424SOL     OW64229   7.058   5.143   8.379
21424SOL    HW164230   6.994   5.162   8.448
21424SOL    HW264231   7.041   5.052   8.354
21425SOL     OW64232   7.224   5.520   8.010
21425SOL    HW164233   7.207   5.474   7.928
21425SOL    HW264234   7.224   5.451   8.077
21426SOL     OW64235   6.173   4.424   7.720
21426SOL    HW164236   6.177   4.511   7.681
21426SOL    HW264237   6.109   4.431   7.790
21427SOL     OW64238   6.869   4.118   8.390
21427SOL    HW164239   6.780   4.082   8.394
21427SOL    HW264240   6.921   4.059   8.445
21428SOL     OW64241   7.165   5.397   7.767
21428SOL    HW164242   7.259   5.412   7.756
21428SOL    HW264243   7.132   5.385   7.679
21429SOL     OW64244   6.372   4.336   8.882
21429SOL    HW164245   6.344   4.308   8.969
21429SOL    HW264246   6.348   4.263   8.824
21430SOL     OW64247   6.976   4.198   9.118
21430SOL    HW164248   6.981   4.243   9.203
21430SOL    HW264249   7.028   4.118   9.130
21431SOL     OW64250   6.530   4.605   9.037
21431SOL    HW164251   6.586   4.541   8.992
21431SOL    HW264252   6.482   4.648   8.966
21432SOL     OW64253   6.591   4.121   8.659
21432SOL    HW164254   6.499   4.134   8.680
21432SOL    HW264255   6.591   4.080   8.572
21433SOL     OW64256   6.645   4.420   7.867
21433SOL    HW164257   6.665   4.418   7.960
21433SOL    HW264258   6.560   4.376   7.859
21434SOL     OW64259   5.678   4.543   8.234
21434SOL    HW164260   5.761   4.542   8.283
21434SOL    HW264261   5.629   4.616   8.272
21435SOL     OW64262   5.696   5.604   9.041
21435SOL    HW164263   5.705   5.580   9.133
21435SOL    HW264264   5.610   5.570   9.016
21436SOL     OW64265   6.477   4.074   7.648
21436SOL    HW164266   6.527   4.130   7.589
21436SOL    HW264267   6.457   3.996   7.597
21437SOL     OW64268   7.265   4.284   9.285
21437SOL    HW164269   7.246   4.364   9.235
21437SOL    HW264270   7.297   4.222   9.220
21438SOL     OW64271   6.978   4.873   7.989
21438SOL    HW164272   7.058   4.862   7.937
21438SOL    HW264273   6.925   4.934   7.939
21439SOL     OW64274   6.138   3.885   8.360
21439SOL    HW164275   6.141   3.915   8.451
21439SOL    HW264276   6.135   3.966   8.309
21440SOL     OW64277   6.583   5.180   7.913
21440SOL    HW164278   6.558   5.254   7.857
21440SOL    HW264279   6.553   5.205   8.000
21441SOL     OW64280   5.940   5.540   8.328
21441SOL    HW164281   5.986   5.456   8.332
21441SOL    HW264282   6.007   5.605   8.349
21442SOL     OW64283   7.390   4.767   8.337
21442SOL    HW164284   7.342   4.752   8.255
21442SOL    HW264285   7.321   4.776   8.403
21443SOL     OW64286   6.804   5.269   8.964
21443SOL    HW164287   6.793   5.197   9.026
21443SOL    HW264288   6.736   5.255   8.898
21444SOL     OW64289   5.886   4.684   7.712
21444SOL    HW164290   5.969   4.705   7.670
21444SOL    HW264291   5.863   4.598   7.677
21445SOL     OW64292   7.070   4.487   8.159
21445SOL    HW164293   7.073   4.444   8.244
21445SOL    HW264294   7.150   4.541   8.156
21446SOL     OW64295   6.056   5.011   9.196
21446SOL    HW164296   6.032   5.014   9.103
21446SOL    HW264297   5.973   5.002   9.242
21447SOL     OW64298   6.726   5.499   7.676
21447SOL    HW164299   6.643   5.469   7.713
21447SOL    HW264300   6.746   5.435   7.607
21448SOL     OW64301   5.786   4.013   8.951
21448SOL    HW164302   5.747   4.094   8.918
21448SOL    HW264303   5.756   4.007   9.041
21449SOL     OW64304   7.224   5.112   7.549
21449SOL    HW164305   7.184   5.198   7.535
21449SOL    HW264306   7.158   5.050   7.522
21450SOL     OW64307   6.045   5.465   7.763
21450SOL    HW164308   6.094   5.516   7.827
21450SOL    HW264309   6.113   5.425   7.708
21451SOL     OW64310   6.983   3.829   7.907
21451SOL    HW164311   6.983   3.805   7.815
21451SOL    HW264312   7.074   3.818   7.934
21452SOL     OW64313   5.837   5.512   8.662
21452SOL    HW164314   5.887   5.437   8.696
21452SOL    HW264315   5.823   5.492   8.570
21453SOL     OW64316   6.534   5.426   8.338
21453SOL    HW164317   6.620   5.385   8.351
21453SOL    HW264318   6.495   5.377   8.266
21454SOL     OW64319   5.982   4.409   7.921
21454SOL    HW164320   5.994   4.315   7.934
21454SOL    HW264321   5.888   4.423   7.938
21455SOL     OW64322   7.097   3.945   9.163
21455SOL    HW164323   7.108   3.967   9.256
21455SOL    HW264324   7.035   3.872   9.163
21456SOL     OW64325   6.248   3.833   7.551
21456SOL    HW164326   6.298   3.754   7.573
21456SOL    HW264327   6.187   3.803   7.484
21457SOL     OW64328   6.342   4.004   9.203
21457SOL    HW164329   6.427   3.961   9.206
21457SOL    HW264330   6.296   3.972   9.281
21458SOL     OW64331   6.455   5.250   8.647
21458SOL    HW164332   6.437   5.209   8.562
21458SOL    HW264333   6.523   5.195   8.686
21459SOL     OW64334   6.915   4.316   8.879
21459SOL    HW164335   6.948   4.285   8.963
21459SOL    HW264336   6.955   4.402   8.868
21460SOL     OW64337   6.401   5.100   8.403
21460SOL    HW164338   6.489   5.096   8.365
21460SOL    HW264339   6.343   5.116   8.329
21461SOL     OW64340   6.515   4.238   8.336
21461SOL    HW164341   6.490   4.227   8.245
21461SOL    HW264342   6.544   4.151   8.364
21462SOL     OW64343   6.150   3.787   7.938
21462SOL    HW164344   6.072   3.788   7.992
21462SOL    HW264345   6.139   3.862   7.879
21463SOL     OW64346   7.020   4.937   7.480
21463SOL    HW164347   7.049   4.863   7.533
21463SOL    HW264348   6.935   4.960   7.516
21464SOL     OW64349   5.868   3.772   7.636
21464SOL    HW164350   5.919   3.839   7.592
21464SOL    HW264351   5.933   3.714   7.677
21465SOL     OW64352   6.537   3.972   7.899
21465SOL    HW164353   6.511   4.008   7.814
21465SOL    HW264354   6.631   3.990   7.905
21466SOL     OW64355   6.661   4.417   8.891
21466SOL    HW164356   6.600   4.343   8.896
21466SOL    HW264357   6.748   4.376   8.887
21467SOL     OW64358   6.791   5.312   8.251
21467SOL    HW164359   6.806   5.372   8.178
21467SOL    HW264360   6.865   5.328   8.310
21468SOL     OW64361   6.068   4.885   8.155
21468SOL    HW164362   6.005   4.861   8.223
21468SOL    HW264363   6.018   4.878   8.074
21469SOL     OW64364   6.837   5.516   8.065
21469SOL    HW164365   6.887   5.579   8.012
21469SOL    HW264366   6.766   5.568   8.104
21470SOL     OW64367   6.617   4.240   7.478
21470SOL    HW164368   6.575   4.324   7.458
21470SOL    HW264369   6.682   4.261   7.546
21471SOL     OW64370   5.697   4.261   8.850
21471SOL    HW164371   5.786   4.275   8.817
21471SOL    HW264372   5.681   4.334   8.909
21472SOL     OW64373   6.141   3.942   8.631
21472SOL    HW164374   6.178   3.871   8.684
21472SOL    HW264375   6.049   3.946   8.656
21473SOL     OW64376   6.455   4.177   8.078
21473SOL    HW164377   6.416   4.233   8.011
21473SOL    HW264378   6.481   4.098   8.031
21474SOL     OW64379   6.608   3.785   8.190
21474SOL    HW164380   6.547   3.780   8.116
21474SOL    HW264381   6.583   3.711   8.246
21475SOL     OW64382   7.022   4.879   8.302
21475SOL    HW164383   6.950   4.816   8.308
21475SOL    HW264384   7.039   4.885   8.208
21476SOL     OW64385   7.049   4.340   8.396
21476SOL    HW164386   6.986   4.270   8.407
21476SOL    HW264387   7.105   4.334   8.474
21477SOL     OW64388   7.414   4.520   7.836
21477SOL    HW164389   7.475   4.477   7.896
21477SOL    HW264390   7.401   4.457   7.766
21478SOL     OW64391   6.084   5.148   7.597
21478SOL    HW164392   6.010   5.116   7.648
21478SOL    HW264393   6.080   5.100   7.515
21479SOL     OW64394   7.292   4.994   8.084
21479SOL    HW164395   7.386   4.987   8.104
21479SOL    HW264396   7.269   5.084   8.108
21480SOL     OW64397   6.978   4.300   7.513
21480SOL    HW164398   6.923   4.273   7.586
21480SOL    HW264399   7.067   4.277   7.540
21481SOL     OW64400   6.114   3.981   7.750
21481SOL    HW164401   6.167   3.939   7.683
21481SOL    HW264402   6.082   4.061   7.709
21482SOL     OW64403   7.321   4.967   8.980
21482SOL    HW164404   7.409   4.933   8.966
21482SOL    HW264405   7.334   5.054   9.017
21483SOL     OW64406   6.628   5.078   8.782
21483SOL    HW164407   6.551   5.045   8.828
21483SOL    HW264408   6.702   5.034   8.824
21484SOL     OW64409   7.194   5.359   9.113
21484SOL    HW164410   7.185   5.395   9.024
21484SOL    HW264411   7.271   5.303   9.108
21485SOL     OW64412   6.737   4.961   8.553
21485SOL    HW164413   6.675   4.995   8.618
21485SOL    HW264414   6.704   4.994   8.469
21486SOL     OW64415   7.195   4.815   8.525
21486SOL    HW164416   7.187   4.882   8.593
21486SOL    HW264417   7.126   4.837   8.462
21487SOL     OW64418   6.506   3.804   8.833
21487SOL    HW164419   6.526   3.788   8.741
21487SOL    HW264420   6.586   3.845   8.867
21488SOL     OW64421   6.567   4.839   9.169
21488SOL    HW164422   6.477   4.856   9.195
21488SOL    HW264423   6.562   4.758   9.118
21489SOL     OW64424   6.300   4.786   7.825
21489SOL    HW164425   6.284   4.759   7.915
21489SOL    HW264426   6.375   4.733   7.797
21490SOL     OW64427   6.012   4.555   8.708
21490SOL    HW164428   6.079   4.564   8.775
21490SOL    HW264429   5.983   4.464   8.716
21491SOL     OW64430   6.849   4.090   8.741
21491SOL    HW164431   6.877   4.171   8.784
21491SOL    HW264432   6.760   4.109   8.711
21492SOL     OW64433   5.664   5.293   8.808
21492SOL    HW164434   5.634   5.365   8.753
21492SOL    HW264435   5.759   5.294   8.799
21493SOL     OW64436   5.903   4.858   7.933
21493SOL    HW164437   5.905   4.931   7.870
21493SOL    HW264438   5.901   4.779   7.879
21494SOL     OW64439   6.121   4.240   8.307
21494SOL    HW164440   6.133   4.299   8.233
21494SOL    HW264441   6.190   4.266   8.369
21495SOL     OW64442   6.832   5.078   7.846
21495SOL    HW164443   6.889   5.148   7.880
21495SOL    HW264444   6.745   5.102   7.876
21496SOL     OW64445   6.895   5.192   8.591
21496SOL    HW164446   6.942   5.199   8.673
21496SOL    HW264447   6.844   5.112   8.599
21497SOL     OW64448   7.161   4.340   7.935
21497SOL    HW164449   7.109   4.383   8.004
21497SOL    HW264450   7.210   4.411   7.895
21498SOL     OW64451   5.931   5.257   8.750
21498SOL    HW164452   5.924   5.204   8.670
21498SOL    HW264453   6.025   5.273   8.759
21499SOL     OW64454   6.043   4.441   9.084
21499SOL    HW164455   6.083   4.493   9.015
21499SOL    HW264456   6.111   4.377   9.108
21500SOL     OW64457   7.212   4.512   9.148
21500SOL    HW164458   7.125   4.550   9.138
21500SOL    HW264459   7.263   4.550   9.077
21501SOL     OW64460   6.580   3.871   9.221
21501SOL    HW164461   6.639   3.942   9.194
21501SOL    HW264462   6.625   3.791   9.194
21502SOL     OW64463   6.076   3.740   9.198
21502SOL    HW164464   6.023   3.691   9.134
21502SOL    HW264465   6.026   3.820   9.214
21503SOL     OW64466   6.180   4.599   8.488
21503SOL    HW164467   6.217   4.687   8.490
21503SOL    HW264468   6.120   4.597   8.563
21504SOL     OW64469   6.895   4.576   8.452
21504SOL    HW164470   6.807   4.550   8.425
21504SOL    HW264471   6.950   4.501   8.432
21505SOL     OW64472   6.786   4.246   7.706
21505SOL    HW164473   6.796   4.170   7.762
21505SOL    HW264474   6.744   4.312   7.761
21506SOL     OW64475   5.874   3.915   8.696
21506SOL    HW164476   5.836   3.942   8.780
21506SOL    HW264477   5.855   3.821   8.690
21507SOL     OW64478   5.636   5.035   8.715
21507SOL    HW164479   5.665   4.980   8.788
21507SOL    HW264480   5.639   5.124   8.749
21508SOL     OW64481   6.298   4.345   8.489
21508SOL    HW164482   6.375   4.338   8.433
21508SOL    HW264483   6.270   4.436   8.479
21509SOL     OW64484   7.342   4.695   9.316
21509SOL    HW164485   7.296   4.623   9.272
21509SOL    HW264486   7.284   4.718   9.389
21510SOL     OW64487   5.910   3.784   8.074
21510SOL    HW164488   5.877   3.872   8.093
21510SOL    HW264489   5.917   3.742   8.160
21511SOL     OW64490   7.217   4.114   7.792
21511SOL    HW164491   7.250   4.048   7.854
21511SOL    HW264492   7.188   4.186   7.847
21512SOL     OW64493   6.620   4.482   8.402
21512SOL    HW164494   6.599   4.497   8.494
21512SOL    HW264495   6.589   4.392   8.385
21513SOL     OW64496   6.566   5.290   9.181
21513SOL    HW164497   6.546   5.333   9.098
21513SOL    HW264498   6.607   5.207   9.155
21514SOL     OW64499   7.424   5.218   9.048
21514SOL    HW164500   7.451   5.247   8.961
21514SOL    HW264501   7.502   5.229   9.102
21515SOL     OW64502   5.937   4.627   9.262
21515SOL    HW164503   6.013   4.656   9.314
21515SOL    HW264504   5.972   4.560   9.204
21516SOL     OW64505   7.107   3.992   7.567
21516SOL    HW164506   7.054   3.921   7.605
21516SOL    HW264507   7.146   4.035   7.642
21517SOL     OW64508   6.867   4.546   7.467
21517SOL    HW164509   6.907   4.459   7.474
21517SOL    HW264510   6.904   4.582   7.386
21518SOL     OW64511   6.656   5.077   8.315
21518SOL    HW164512   6.667   5.005   8.253
21518SOL    HW264513   6.708   5.149   8.277
21519SOL     OW64514   5.905   4.540   8.393
21519SOL    HW164515   6.000   4.554   8.388
21519SOL    HW264516   5.896   4.450   8.424
21520SOL     OW64517   5.901   4.262   8.460
21520SOL    HW164518   5.862   4.175   8.451
21520SOL    HW264519   5.978   4.260   8.403
21521SOL     OW64520   6.722   4.092   9.135
21521SOL    HW164521   6.678   4.147   9.200
21521SOL    HW264522   6.808   4.133   9.124
21522SOL     OW64523   6.742   3.913   8.925
21522SOL    HW164524   6.731   3.976   8.996
21522SOL    HW264525   6.788   3.962   8.857
21523SOL     OW64526   5.610   5.027   7.628
21523SOL    HW164527   5.520   5.049   7.603
21523SOL    HW264528   5.603   4.941   7.669
21524SOL     OW64529   5.679   5.494   8.399
21524SOL    HW164530   5.645   5.421   8.348
21524SOL    HW264531   5.766   5.511   8.362
21525SOL     OW64532   6.071   5.294   8.350
21525SOL    HW164533   6.142   5.355   8.372
21525SOL    HW264534   6.111   5.232   8.288
21526SOL     OW64535   6.535   4.504   8.661
21526SOL    HW164536   6.597   4.492   8.733
21526SOL    HW264537   6.455   4.460   8.690
21527SOL     OW64538   5.625   4.287   8.577
21527SOL    HW164539   5.703   4.289   8.520
21527SOL    HW264540   5.661   4.278   8.665
21528SOL     OW64541   5.786   4.270   9.179
21528SOL    HW164542   5.875   4.283   9.147
21528SOL    HW264543   5.735   4.337   9.133
21529SOL     OW64544   6.977   4.645   9.098
21529SOL    HW164545   6.994   4.739   9.094
21529SOL    HW264546   6.970   4.618   9.007
21530SOL     OW64547   6.404   4.292   7.821
21530SOL    HW164548   6.413   4.218   7.760
21530SOL    HW264549   6.327   4.340   7.789
21531SOL     OW64550   7.222   4.325   8.611
21531SOL    HW164551   7.212   4.266   8.686
21531SOL    HW264552   7.313   4.314   8.583
21532SOL     OW64553   5.811   5.267   9.167
21532SOL    HW164554   5.793   5.326   9.240
21532SOL    HW264555   5.820   5.181   9.207
21533SOL     OW64556   6.317   4.155   8.683
21533SOL    HW164557   6.253   4.086   8.667
21533SOL    HW264558   6.300   4.220   8.614
21534SOL     OW64559   6.492   5.403   8.934
21534SOL    HW164560   6.469   5.356   8.854
21534SOL    HW264561   6.494   5.495   8.908
21535SOL     OW64562   6.029   4.205   7.613
21535SOL    HW164563   6.093   4.272   7.637
21535SOL    HW264564   5.945   4.250   7.616
21536SOL     OW64565   5.714   4.874   8.930
21536SOL    HW164566   5.721   4.835   9.018
21536SOL    HW264567   5.735   4.802   8.871
21537SOL     OW64568   6.890   4.758   8.657
21537SOL    HW164569   6.899   4.694   8.586
21537SOL    HW264570   6.836   4.828   8.619
21538SOL     OW64571   6.912   4.584   7.739
21538SOL    HW164572   6.841   4.549   7.793
21538SOL    HW264573   6.884   4.569   7.649
21539SOL     OW64574   7.373   5.448   8.618
21539SOL    HW164575   7.435   5.474   8.549
21539SOL    HW264576   7.341   5.362   8.590
21540SOL     OW64577   6.827   5.458   8.540
21540SOL    HW164578   6.911   5.488   8.505
21540SOL    HW264579   6.841   5.366   8.563
21541SOL     OW64580   5.693   4.968   8.459
21541SOL    HW164581   5.665   4.991   8.547
21541SOL    HW264582   5.620   4.918   8.423
21542SOL     OW64583   6.273   5.407   9.201
21542SOL    HW164584   6.211   5.478   9.188
21542SOL    HW264585   6.348   5.429   9.145
21543SOL     OW64586   7.330   3.908   7.944
21543SOL    HW164587   7.389   3.888   7.871
21543SOL    HW264588   7.304   3.822   7.978
21544SOL     OW64589   6.983   5.294   7.951
21544SOL    HW164590   7.038   5.328   7.881
21544SOL    HW264591   6.928   5.367   7.977
21545SOL     OW64592   5.729   5.521   9.295
21545SOL    HW164593   5.682   5.452   9.341
21545SOL    HW264594   5.777   5.567   9.364
21546SOL     OW64595   6.865   4.660   8.112
21546SOL    HW164596   6.939   4.601   8.125
21546SOL    HW264597   6.901   4.732   8.059
21547SOL     OW64598   6.369   5.005   8.863
21547SOL    HW164599   6.342   5.052   8.942
21547SOL    HW264600   6.295   5.015   8.803
21548SOL     OW64601   6.255   5.359   7.606
21548SOL    HW164602   6.269   5.374   7.513
21548SOL    HW264603   6.202   5.279   7.610
21549SOL     OW64604   7.202   5.455   8.846
21549SOL    HW164605   7.259   5.455   8.769
21549SOL    HW264606   7.186   5.547   8.864
21550SOL     OW64607   7.430   3.885   8.413
21550SOL    HW164608   7.459   3.796   8.391
21550SOL    HW264609   7.343   3.892   8.374
21551SOL     OW64610   5.829   4.029   8.158
21551SOL    HW164611   5.743   4.066   8.137
21551SOL    HW264612   5.833   4.032   8.254
21552SOL     OW64613   6.796   5.313   7.486
21552SOL    HW164614   6.786   5.222   7.513
21552SOL    HW264615   6.727   5.327   7.421
21553SOL     OW64616   6.408   4.736   8.830
21553SOL    HW164617   6.445   4.729   8.743
21553SOL    HW264618   6.397   4.830   8.844
21554SOL     OW64619   6.507   4.635   7.746
21554SOL    HW164620   6.562   4.666   7.674
21554SOL    HW264621   6.559   4.567   7.788
21555SOL     OW64622   7.070   5.369   7.506
21555SOL    HW164623   6.978   5.349   7.489
21555SOL    HW264624   7.110   5.372   7.419
21556SOL     OW64625   5.948   5.036   8.949
21556SOL    HW164626   5.941   5.110   8.888
21556SOL    HW264627   5.869   4.984   8.933
21557SOL     OW64628   7.185   5.014   8.724
21557SOL    HW164629   7.239   4.989   8.800
21557SOL    HW264630   7.126   5.081   8.758
21558SOL     OW64631   6.664   4.844   8.178
21558SOL    HW164632   6.588   4.794   8.209
21558SOL    HW264633   6.725   4.777   8.148
21559SOL     OW64634   6.619   3.974   8.409
21559SOL    HW164635   6.619   3.931   8.324
21559SOL    HW264636   6.612   3.902   8.472
21560SOL     OW64637   6.191   5.211   7.925
21560SOL    HW164638   6.246   5.162   7.863
21560SOL    HW264639   6.110   5.229   7.877
21561SOL     OW64640   7.332   4.105   8.836
21561SOL    HW164641   7.403   4.170   8.832
21561SOL    HW264642   7.359   4.037   8.775
21562SOL     OW64643   5.866   5.065   7.747
21562SOL    HW164644   5.779   5.058   7.707
21562SOL    HW264645   5.851   5.113   7.828
21563SOL     OW64646   5.713   4.770   9.185
21563SOL    HW164647   5.634   4.743   9.233
21563SOL    HW264648   5.783   4.716   9.222
21564SOL     OW64649   6.271   3.919   8.947
21564SOL    HW164650   6.355   3.895   8.908
21564SOL    HW264651   6.293   3.952   9.034
21565SOL     OW64652   5.672   4.042   7.460
21565SOL    HW164653   5.595   4.023   7.406
21565SOL    HW264654   5.701   4.128   7.429
21566SOL     OW64655   7.002   4.578   8.835
21566SOL    HW164656   6.949   4.636   8.780
21566SOL    HW264657   7.090   4.582   8.798
21567SOL     OW64658   5.629   3.874   7.720
21567SOL    HW164659   5.616   3.943   7.655
21567SOL    HW264660   5.718   3.842   7.703
21568SOL     OW64661   6.767   5.046   7.570
21568SOL    HW164662   6.675   5.021   7.568
21568SOL    HW264663   6.790   5.049   7.663
21569SOL     OW64664   6.210   4.556   8.890
21569SOL    HW164665   6.268   4.631   8.878
21569SOL    HW264666   6.269   4.480   8.888
21570SOL     OW64667   7.073   5.527   8.440
21570SOL    HW164668   7.098   5.601   8.386
21570SOL    HW264669   7.155   5.483   8.461
21571SOL     OW64670   6.291   4.282   9.140
21571SOL    HW164671   6.345   4.337   9.197
21571SOL    HW264672   6.308   4.193   9.170
21572SOL     OW64673   7.055   4.908   9.069
21572SOL    HW164674   7.049   4.928   9.162
21572SOL    HW264675   7.144   4.932   9.045
21573SOL     OW64676   5.941   5.473   9.025
21573SOL    HW164677   5.859   5.520   9.009
21573SOL    HW264678   5.914   5.388   9.061
21574SOL     OW64679   7.242   4.600   8.701
21574SOL    HW164680   7.240   4.516   8.654
21574SOL    HW264681   7.230   4.666   8.633
21575SOL     OW64682   6.806   4.045   7.905
21575SOL    HW164683   6.866   3.971   7.903
21575SOL    HW264684   6.834   4.098   7.980
21576SOL     OW64685   6.160   4.451   8.131
21576SOL    HW164686   6.205   4.534   8.115
21576SOL    HW264687   6.100   4.442   8.057
21577SOL     OW64688   7.335   4.077   9.111
21577SOL    HW164689   7.332   4.094   9.017
21577SOL    HW264690   7.257   4.024   9.129
21578SOL     OW64691   7.346   4.648   8.953
21578SOL    HW164692   7.329   4.742   8.966
21578SOL    HW264693   7.319   4.631   8.862
21579SOL     OW64694   6.462   5.081   7.512
21579SOL    HW164695   6.421   5.102   7.596
21579SOL    HW264696   6.470   5.166   7.468
21580SOL     OW64697   6.255   5.490   8.375
21580SOL    HW164698   6.235   5.584   8.366
21580SOL    HW264699   6.350   5.485   8.373
21581SOL     OW64700   6.458   4.702   8.303
21581SOL    HW164701   6.508   4.628   8.338
21581SOL    HW264702   6.414   4.738   8.379
21582SOL     OW64703   6.656   4.704   7.534
21582SOL    HW164704   6.636   4.760   7.459
21582SOL    HW264705   6.731   4.652   7.505
21583SOL     OW64706   7.416   5.282   8.288
21583SOL    HW164707   7.340   5.274   8.230
21583SOL    HW264708   7.393   5.231   8.365
21584SOL     OW64709   5.797   5.014   9.285
21584SOL    HW164710   5.766   4.934   9.243
21584SOL    HW264711   5.734   5.029   9.356
21585SOL     OW64712   5.702   4.947   8.115
21585SOL    HW164713   5.734   4.904   8.195
21585SOL    HW264714   5.761   4.916   8.046
21586SOL     OW64715   6.273   5.144   9.080
21586SOL    HW164716   6.196   5.107   9.121
21586SOL    HW264717   6.280   5.232   9.118
21587SOL     OW64718   7.396   3.893   8.683
21587SOL    HW164719   7.400   3.799   8.695
21587SOL    HW264720   7.409   3.906   8.589
21588SOL     OW64721   6.004   4.146   7.967
21588SOL    HW164722   6.038   4.075   7.912
21588SOL    HW264723   5.952   4.101   8.034
21589SOL     OW64724   7.282   5.204   8.529
21589SOL    HW164725   7.203   5.185   8.478
21589SOL    HW264726   7.283   5.136   8.597
21590SOL     OW64727   5.940   4.291   8.738
21590SOL    HW164728   5.994   4.228   8.786
21590SOL    HW264729   5.948   4.265   8.646
21591SOL     OW64730   6.424   5.312   8.116
21591SOL    HW164731   6.398   5.384   8.059
21591SOL    HW264732   6.348   5.255   8.120
21592SOL     OW64733   7.008   3.958   8.564
21592SOL    HW164734   7.020   3.869   8.598
21592SOL    HW264735   6.961   4.004   8.634
21593SOL     OW64736   6.596   3.740   8.567
21593SOL    HW164737   6.544   3.677   8.517
21593SOL    HW264738   6.683   3.701   8.572
21594SOL     OW64739   6.365   5.056   7.777
21594SOL    HW164740   6.341   4.965   7.788
21594SOL    HW264741   6.446   5.067   7.828
21595SOL     OW64742   6.202   5.293   8.736
21595SOL    HW164743   6.197   5.377   8.781
21595SOL    HW264744   6.291   5.289   8.703
21596SOL     OW64745   6.966   3.762   7.641
21596SOL    HW164746   7.006   3.690   7.592
21596SOL    HW264747   6.875   3.735   7.652
21597SOL     OW64748   6.882   4.195   8.122
21597SOL    HW164749   6.832   4.277   8.120
21597SOL    HW264750   6.877   4.167   8.214
21598SOL     OW64751   7.167   3.912   8.341
21598SOL    HW164752   7.115   3.943   8.415
21598SOL    HW264753   7.168   3.986   8.280
21599SOL     OW64754   5.623   4.776   7.758
21599SOL    HW164755   5.716   4.764   7.739
21599SOL    HW264756   5.591   4.688   7.778
21600SOL     OW64757   6.481   5.399   7.777
21600SOL    HW164758   6.402   5.383   7.724
21600SOL    HW264759   6.455   5.468   7.838
21601SOL     OW64760   5.799   4.319   9.454
21601SOL    HW164761   5.710   4.313   9.489
21601SOL    HW264762   5.787   4.323   9.359
21602SOL     OW64763   7.391   4.293   9.520
21602SOL    HW164764   7.349   4.295   9.434
21602SOL    HW264765   7.342   4.228   9.570
21603SOL     OW64766   5.808   5.458   9.764
21603SOL    HW164767   5.822   5.531   9.824
21603SOL    HW264768   5.886   5.457   9.709
21604SOL     OW64769   5.790   5.197   9.849
21604SOL    HW164770   5.801   5.290   9.828
21604SOL    HW264771   5.729   5.196   9.923
21605SOL     OW64772   6.156   4.710   9.451
21605SOL    HW164773   6.206   4.753   9.382
21605SOL    HW264774   6.198   4.740   9.532
21606SOL     OW64775   5.650   4.403   9.886
21606SOL    HW164776   5.562   4.372   9.866
21606SOL    HW264777   5.636   4.481   9.940
21607SOL     OW64778   7.417   5.477   9.644
21607SOL    HW164779   7.494   5.457   9.697
21607SOL    HW264780   7.433   5.565   9.611
21608SOL     OW64781   5.633   5.314   9.434
21608SOL    HW164782   5.618   5.221   9.450
21608SOL    HW264783   5.597   5.358   9.512
21609SOL     OW64784   7.261   4.595   9.919
21609SOL    HW164785   7.333   4.616   9.978
21609SOL    HW264786   7.253   4.671   9.862
21610SOL     OW64787   7.280   4.823   9.755
21610SOL    HW164788   7.362   4.818   9.707
21610SOL    HW264789   7.293   4.896   9.816
21611SOL     OW64790   6.228   5.062   9.993
21611SOL    HW164791   6.170   4.986   9.990
21611SOL    HW264792   6.206   5.111   9.914
21612SOL     OW64793   6.402   3.753   9.822
21612SOL    HW164794   6.448   3.833   9.795
21612SOL    HW264795   6.310   3.779   9.827
21613SOL     OW64796   7.145   4.749   9.519
21613SOL    HW164797   7.085   4.680   9.546
21613SOL    HW264798   7.183   4.781   9.601
21614SOL     OW64799   6.171   4.424   9.583
21614SOL    HW164800   6.181   4.510   9.543
21614SOL    HW264801   6.114   4.439   9.658
21615SOL     OW64802   7.149   5.397   9.628
21615SOL    HW164803   7.242   5.419   9.635
21615SOL    HW264804   7.134   5.384   9.534
21616SOL     OW64805   6.630   4.411   9.734
21616SOL    HW164806   6.658   4.388   9.823
21616SOL    HW264807   6.545   4.368   9.724
21617SOL     OW64808   5.644   4.608   0.070
21617SOL    HW164809   5.724   4.576   0.112
21617SOL    HW264810   5.615   4.680   0.125
21618SOL     OW64811   6.494   4.055   9.494
21618SOL    HW164812   6.531   4.125   9.439
21618SOL    HW264813   6.512   3.975   9.446
21619SOL     OW64814   6.901   4.818   9.791
21619SOL    HW164815   6.953   4.846   9.866
21619SOL    HW264816   6.876   4.899   9.747
21620SOL     OW64817   6.578   5.158   9.783
21620SOL    HW164818   6.548   5.244   9.751
21620SOL    HW264819   6.552   5.156   9.875
21621SOL     OW64820   5.940   5.576   0.165
21621SOL    HW164821   5.946   5.498   0.220
21621SOL    HW264822   6.030   5.609   0.161
21622SOL     OW64823   5.904   4.689   9.577
21622SOL    HW164824   5.986   4.701   9.530
21622SOL    HW264825   5.865   4.611   9.538
21623SOL     OW64826   6.723   5.499   9.546
21623SOL    HW164827   6.644   5.464   9.587
21623SOL    HW264828   6.744   5.435   9.478
21624SOL     OW64829   7.223   5.117   9.403
21624SOL    HW164830   7.180   5.201   9.391
21624SOL    HW264831   7.157   5.052   9.379
21625SOL     OW64832   6.056   5.487   9.634
21625SOL    HW164833   6.106   5.519   9.708
21625SOL    HW264834   6.120   5.440   9.580
21626SOL     OW64835   7.009   3.875   9.740
21626SOL    HW164836   6.999   3.834   9.654
21626SOL    HW264837   7.104   3.879   9.753
21627SOL     OW64838   5.981   4.414   9.799
21627SOL    HW164839   5.982   4.321   9.822
21627SOL    HW264840   5.888   4.436   9.792
21628SOL     OW64841   6.231   3.831   9.408
21628SOL    HW164842   6.294   3.761   9.427
21628SOL    HW264843   6.177   3.797   9.338
21629SOL     OW64844   6.128   3.823   9.838
21629SOL    HW164845   6.037   3.819   9.867
21629SOL    HW264846   6.127   3.881   9.762
21630SOL     OW64847   7.025   4.932   9.344
21630SOL    HW164848   7.060   4.865   9.403
21630SOL    HW264849   6.939   4.953   9.380
21631SOL     OW64850   5.883   3.781   9.499
21631SOL    HW164851   5.938   3.850   9.462
21631SOL    HW264852   5.942   3.731   9.556
21632SOL     OW64853   6.533   3.986   9.757
21632SOL    HW164854   6.511   4.012   9.667
21632SOL    HW264855   6.626   4.005   9.766
21633SOL     OW64856   6.027   4.875   0.036
21633SOL    HW164857   5.959   4.911   0.093
21633SOL    HW264858   5.983   4.862   9.952
21634SOL     OW64859   6.886   5.560   9.900
21634SOL    HW164860   6.930   5.625   9.846
21634SOL    HW264861   6.794   5.585   9.897
21635SOL     OW64862   6.615   4.245   9.337
21635SOL    HW164863   6.572   4.328   9.317
21635SOL    HW264864   6.679   4.267   9.405
21636SOL     OW64865   6.427   4.165   9.942
21636SOL    HW164866   6.389   4.230   9.882
21636SOL    HW264867   6.460   4.096   9.885
21637SOL     OW64868   7.467   4.529   9.637
21637SOL    HW164869   7.499   4.490   9.718
21637SOL    HW264870   7.432   4.455   9.587
21638SOL     OW64871   6.077   5.152   9.469
21638SOL    HW164872   6.001   5.119   9.516
21638SOL    HW264873   6.078   5.102   9.387
21639SOL     OW64874   6.975   4.302   9.370
21639SOL    HW164875   6.920   4.278   9.445
21639SOL    HW264876   7.064   4.279   9.396
21640SOL     OW64877   6.122   3.979   9.619
21640SOL    HW164878   6.170   3.936   9.548
21640SOL    HW264879   6.089   4.060   9.580
21641SOL     OW64880   6.294   4.779   9.683
21641SOL    HW164881   6.262   4.735   9.762
21641SOL    HW264882   6.373   4.731   9.660
21642SOL     OW64883   5.892   4.857   9.800
21642SOL    HW164884   5.893   4.933   9.741
21642SOL    HW264885   5.900   4.782   9.741
21643SOL     OW64886   6.823   5.078   9.690
21643SOL    HW164887   6.879   5.149   9.721
21643SOL    HW264888   6.736   5.098   9.726
21644SOL     OW64889   7.222   4.362   9.789
21644SOL    HW164890   7.225   4.436   9.850
21644SOL    HW264891   7.175   4.396   9.713
21645SOL     OW64892   6.782   4.255   9.564
21645SOL    HW164893   6.789   4.179   9.622
21645SOL    HW264894   6.743   4.323   9.619
21646SOL     OW64895   5.866   3.816   9.928
21646SOL    HW164896   5.800   3.882   9.950
21646SOL    HW264897   5.884   3.772   0.011
21647SOL     OW64898   7.216   4.120   9.655
21647SOL    HW164899   7.239   4.044   9.709
21647SOL    HW264900   7.208   4.192   9.718
21648SOL     OW64901   7.106   3.997   9.426
21648SOL    HW164902   7.054   3.925   9.461
21648SOL    HW264903   7.143   4.040   9.503
21649SOL     OW64904   6.866   4.550   9.330
21649SOL    HW164905   6.905   4.463   9.338
21649SOL    HW264906   6.902   4.586   9.249
21650SOL     OW64907   5.608   5.039   9.484
21650SOL    HW164908   5.518   5.058   9.459
21650SOL    HW264909   5.604   4.952   9.524
21651SOL     OW64910   6.392   4.280   9.680
21651SOL    HW164911   6.400   4.212   9.612
21651SOL    HW264912   6.320   4.335   9.648
21652SOL     OW64913   6.038   4.200   9.481
21652SOL    HW164914   6.096   4.272   9.506
21652SOL    HW264915   5.951   4.239   9.479
21653SOL     OW64916   6.955   4.573   9.607
21653SOL    HW164917   6.907   4.629   9.668
21653SOL    HW264918   6.899   4.566   9.530
21654SOL     OW64919   7.292   3.882   9.771
21654SOL    HW164920   7.363   3.883   9.706
21654SOL    HW264921   7.310   3.805   9.825
21655SOL     OW64922   6.948   5.313   9.794
21655SOL    HW164923   7.020   5.329   9.732
21655SOL    HW264924   6.921   5.400   9.822
21656SOL     OW64925   6.253   5.363   9.475
21656SOL    HW164926   6.269   5.375   9.381
21656SOL    HW264927   6.199   5.284   9.479
21657SOL     OW64928   6.794   5.318   9.349
21657SOL    HW164929   6.786   5.226   9.372
21657SOL    HW264930   6.726   5.333   9.284
21658SOL     OW64931   6.508   4.634   9.615
21658SOL    HW164932   6.562   4.660   9.541
21658SOL    HW264933   6.559   4.565   9.659
21659SOL     OW64934   7.072   5.370   9.360
21659SOL    HW164935   6.979   5.352   9.344
21659SOL    HW264936   7.111   5.372   9.273
21660SOL     OW64937   6.177   5.198   9.761
21660SOL    HW164938   6.240   5.156   9.703
21660SOL    HW264939   6.098   5.208   9.708
21661SOL     OW64940   5.858   5.071   9.621
21661SOL    HW164941   5.774   5.064   9.574
21661SOL    HW264942   5.836   5.118   9.701
21662SOL     OW64943   5.678   4.042   9.297
21662SOL    HW164944   5.591   4.036   9.257
21662SOL    HW264945   5.710   4.129   9.274
21663SOL     OW64946   5.632   3.877   9.578
21663SOL    HW164947   5.626   3.949   9.514
21663SOL    HW264948   5.722   3.846   9.570
21664SOL     OW64949   6.766   5.047   9.421
21664SOL    HW164950   6.674   5.022   9.420
21664SOL    HW264951   6.789   5.052   9.514
21665SOL     OW64952   6.800   4.059   9.770
21665SOL    HW164953   6.875   4.001   9.762
21665SOL    HW264954   6.820   4.115   9.845
21666SOL     OW64955   6.197   4.566   9.891
21666SOL    HW164956   6.198   4.569   9.987
21666SOL    HW264957   6.123   4.510   9.870
21667SOL     OW64958   6.460   5.081   9.364
21667SOL    HW164959   6.423   5.098   9.450
21667SOL    HW264960   6.469   5.167   9.324
21668SOL     OW64961   6.646   4.694   9.392
21668SOL    HW164962   6.632   4.755   9.320
21668SOL    HW264963   6.725   4.646   9.368
21669SOL     OW64964   5.626   4.923   9.909
21669SOL    HW164965   5.636   4.966   9.994
21669SOL    HW264966   5.716   4.908   9.879
21670SOL     OW64967   5.992   4.153   9.873
21670SOL    HW164968   6.044   4.089   9.826
21670SOL    HW264969   6.025   4.150   9.963
21671SOL     OW64970   6.369   5.052   9.627
21671SOL    HW164971   6.344   4.962   9.643
21671SOL    HW264972   6.446   5.067   9.682
21672SOL     OW64973   6.963   3.766   9.494
21672SOL    HW164974   7.007   3.688   9.458
21672SOL    HW264975   6.873   3.738   9.507
21673SOL     OW64976   5.642   4.791   9.593
21673SOL    HW164977   5.738   4.787   9.591
21673SOL    HW264978   5.614   4.699   9.599
21674SOL     OW64979   6.480   5.395   9.664
21674SOL    HW164980   6.404   5.378   9.608
21674SOL    HW264981   6.451   5.465   9.723
21675SOL     OW64982   5.783   6.194   0.125
21675SOL    HW164983   5.700   6.182   0.170
21675SOL    HW264984   5.759   6.208   0.033
21676SOL     OW64985   5.805   5.874   0.990
21676SOL    HW164986   5.835   5.839   1.073
21676SOL    HW264987   5.718   5.837   0.978
21677SOL     OW64988   5.570   5.984   0.647
21677SOL    HW164989   5.488   6.006   0.692
21677SOL    HW264990   5.547   5.908   0.593
21678SOL     OW64991   6.161   6.894   1.209
21678SOL    HW164992   6.079   6.897   1.160
21678SOL    HW264993   6.178   6.985   1.232
21679SOL     OW64994   7.175   7.109   0.706
21679SOL    HW164995   7.128   7.078   0.783
21679SOL    HW264996   7.109   7.113   0.637
21680SOL     OW64997   6.725   6.287   0.686
21680SOL    HW164998   6.771   6.370   0.676
21680SOL    HW264999   6.675   6.296   0.767
21681SOL     OW65000   7.361   6.169   0.200
21681SOL    HW165001   7.287   6.199   0.147
21681SOL    HW265002   7.325   6.097   0.252
21682SOL     OW65003   6.313   6.715   1.058
21682SOL    HW165004   6.254   6.755   1.122
21682SOL    HW265005   6.356   6.789   1.015
21683SOL     OW65006   6.473   6.327   1.828
21683SOL    HW165007   6.464   6.394   1.897
21683SOL    HW265008   6.490   6.377   1.748
21684SOL     OW65009   6.271   6.563   0.645
21684SOL    HW165010   6.339   6.565   0.713
21684SOL    HW265011   6.205   6.625   0.676
21685SOL     OW65012   6.297   6.735   1.832
21685SOL    HW165013   6.349   6.808   1.867
21685SOL    HW265014   6.221   6.777   1.792
21686SOL     OW65015   5.928   6.983   1.071
21686SOL    HW165016   5.852   6.941   1.031
21686SOL    HW265017   5.964   7.038   1.001
21687SOL     OW65018   7.039   7.093   1.372
21687SOL    HW165019   7.094   7.170   1.385
21687SOL    HW265020   6.968   7.104   1.434
21688SOL     OW65021   6.044   5.960   1.455
21688SOL    HW165022   6.119   5.902   1.471
21688SOL    HW265023   5.968   5.909   1.483
21689SOL     OW65024   7.166   6.018   0.753
21689SOL    HW165025   7.092   6.026   0.692
21689SOL    HW265026   7.152   6.088   0.816
21690SOL     OW65027   5.814   7.306   0.470
21690SOL    HW165028   5.830   7.381   0.527
21690SOL    HW265029   5.899   7.286   0.431
21691SOL     OW65030   6.721   6.928   1.697
21691SOL    HW165031   6.766   6.917   1.781
21691SOL    HW265032   6.667   6.849   1.689
21692SOL     OW65033   5.795   7.030   0.507
21692SOL    HW165034   5.788   7.125   0.516
21692SOL    HW265035   5.756   6.996   0.588
21693SOL     OW65036   5.865   6.673   0.880
21693SOL    HW165037   5.868   6.584   0.916
21693SOL    HW265038   5.812   6.722   0.942
21694SOL     OW65039   6.158   7.390   1.420
21694SOL    HW165040   6.083   7.370   1.475
21694SOL    HW265041   6.192   7.473   1.454
21695SOL     OW65042   6.153   6.533   0.174
21695SOL    HW165043   6.127   6.603   0.114
21695SOL    HW265044   6.212   6.576   0.236
21696SOL     OW65045   7.177   5.719   1.459
21696SOL    HW165046   7.216   5.796   1.416
21696SOL    HW265047   7.146   5.752   1.543
21697SOL     OW65048   5.700   6.239   0.573
21697SOL    HW165049   5.665   6.154   0.597
21697SOL    HW265050   5.693   6.292   0.653
21698SOL     OW65051   7.448   7.324   0.307
21698SOL    HW165052   7.518   7.302   0.369
21698SOL    HW265053   7.462   7.416   0.285
21699SOL     OW65054   5.646   7.161   0.085
21699SOL    HW165055   5.622   7.074   0.117
21699SOL    HW265056   5.623   7.220   0.157
21700SOL     OW65057   7.284   6.506   0.664
21700SOL    HW165058   7.367   6.463   0.647
21700SOL    HW265059   7.265   6.555   0.584
21701SOL     OW65060   7.248   6.677   0.443
21701SOL    HW165061   7.329   6.673   0.393
21701SOL    HW265062   7.262   6.746   0.507
21702SOL     OW65063   5.708   6.335   1.578
21702SOL    HW165064   5.793   6.379   1.583
21702SOL    HW265065   5.645   6.407   1.565
21703SOL     OW65066   6.202   6.967   0.757
21703SOL    HW165067   6.159   6.881   0.752
21703SOL    HW265068   6.198   7.001   0.668
21704SOL     OW65069   6.857   6.812   1.417
21704SOL    HW165070   6.884   6.743   1.357
21704SOL    HW265071   6.918   6.807   1.490
21705SOL     OW65072   6.418   5.601   0.529
21705SOL    HW165073   6.459   5.681   0.498
21705SOL    HW265074   6.324   5.620   0.530
21706SOL     OW65075   5.773   6.542   1.302
21706SOL    HW165076   5.860   6.507   1.285
21706SOL    HW265077   5.718   6.505   1.233
21707SOL     OW65078   7.076   6.615   0.236
21707SOL    HW165079   7.022   6.543   0.267
21707SOL    HW265080   7.139   6.631   0.307
21708SOL     OW65081   6.766   7.408   1.635
21708SOL    HW165082   6.767   7.470   1.562
21708SOL    HW265083   6.782   7.323   1.596
21709SOL     OW65084   5.946   5.839   1.874
21709SOL    HW165085   5.982   5.919   1.913
21709SOL    HW265086   5.852   5.854   1.873
21710SOL     OW65087   7.058   7.003   0.930
21710SOL    HW165088   6.994   7.022   1.000
21710SOL    HW265089   7.040   6.912   0.906
21711SOL     OW65090   7.229   7.383   0.565
21711SOL    HW165091   7.213   7.337   0.482
21711SOL    HW265092   7.228   7.314   0.631
21712SOL     OW65093   6.179   6.276   0.285
21712SOL    HW165094   6.185   6.363   0.244
21712SOL    HW265095   6.112   6.287   0.353
21713SOL     OW65096   6.868   5.977   0.941
21713SOL    HW165097   6.779   5.943   0.947
21713SOL    HW265098   6.920   5.919   0.997
21714SOL     OW65099   7.176   7.263   0.324
21714SOL    HW165100   7.270   7.274   0.309
21714SOL    HW265101   7.140   7.245   0.237
21715SOL     OW65102   6.375   6.200   1.430
21715SOL    HW165103   6.353   6.171   1.519
21715SOL    HW265104   6.351   6.126   1.374
21716SOL     OW65105   6.978   6.063   1.674
21716SOL    HW165106   6.983   6.106   1.760
21716SOL    HW265107   7.028   5.982   1.685
21717SOL     OW65108   6.530   6.466   1.594
21717SOL    HW165109   6.586   6.403   1.549
21717SOL    HW265110   6.482   6.509   1.523
21718SOL     OW65111   6.593   5.984   1.209
21718SOL    HW165112   6.501   5.997   1.232
21718SOL    HW265113   6.591   5.939   1.125
21719SOL     OW65114   6.652   6.283   0.416
21719SOL    HW165115   6.672   6.280   0.510
21719SOL    HW265116   6.567   6.240   0.408
21720SOL     OW65117   5.678   6.414   0.783
21720SOL    HW165118   5.761   6.406   0.831
21720SOL    HW265119   5.631   6.485   0.827
21721SOL     OW65120   5.696   7.465   1.587
21721SOL    HW165121   5.703   7.445   1.681
21721SOL    HW265122   5.610   7.429   1.562
21722SOL     OW65123   6.446   5.925   0.200
21722SOL    HW165124   6.433   5.974   0.119
21722SOL    HW265125   6.456   5.834   0.171
21723SOL     OW65126   7.273   6.148   1.840
21723SOL    HW165127   7.251   6.226   1.788
21723SOL    HW265128   7.302   6.084   1.775
21724SOL     OW65129   6.982   6.735   0.556
21724SOL    HW165130   7.060   6.725   0.502
21724SOL    HW265131   6.926   6.796   0.507
21725SOL     OW65132   6.137   5.749   0.915
21725SOL    HW165133   6.142   5.776   1.007
21725SOL    HW265134   6.133   5.831   0.867
21726SOL     OW65135   6.585   7.039   0.471
21726SOL    HW165136   6.561   7.115   0.419
21726SOL    HW265137   6.553   7.059   0.559
21727SOL     OW65138   5.939   7.403   0.880
21727SOL    HW165139   5.984   7.319   0.884
21727SOL    HW265140   6.007   7.467   0.902
21728SOL     OW65141   7.389   6.630   0.895
21728SOL    HW165142   7.341   6.613   0.814
21728SOL    HW265143   7.321   6.640   0.962
21729SOL     OW65144   6.804   7.129   1.517
21729SOL    HW165145   6.793   7.059   1.581
21729SOL    HW265146   6.735   7.114   1.452
21730SOL     OW65147   5.898   6.513   0.290
21730SOL    HW165148   5.980   6.521   0.240
21730SOL    HW265149   5.902   6.425   0.328
21731SOL     OW65150   7.071   6.343   0.713
21731SOL    HW165151   7.071   6.302   0.800
21731SOL    HW265152   7.149   6.398   0.712
21732SOL     OW65153   6.060   6.870   1.748
21732SOL    HW165154   6.035   6.874   1.655
21732SOL    HW265155   5.976   6.858   1.794
21733SOL     OW65156   6.690   7.370   0.181
21733SOL    HW165157   6.634   7.329   0.247
21733SOL    HW265158   6.729   7.296   0.134
21734SOL     OW65159   5.794   5.842   1.499
21734SOL    HW165160   5.723   5.903   1.520
21734SOL    HW265161   5.764   5.757   1.533
21735SOL     OW65162   7.217   6.957   0.112
21735SOL    HW165163   7.176   7.044   0.105
21735SOL    HW265164   7.151   6.897   0.078
21736SOL     OW65165   6.074   7.294   0.376
21736SOL    HW165166   6.109   7.370   0.422
21736SOL    HW265167   6.140   7.273   0.310
21737SOL     OW65168   6.982   5.689   0.448
21737SOL    HW165169   6.979   5.669   0.354
21737SOL    HW265170   7.073   5.678   0.472
21738SOL     OW65171   5.838   7.374   1.215
21738SOL    HW165172   5.887   7.300   1.250
21738SOL    HW265173   5.826   7.353   1.122
21739SOL     OW65174   6.532   7.288   0.891
21739SOL    HW165175   6.616   7.244   0.905
21739SOL    HW265176   6.490   7.237   0.821
21740SOL     OW65177   5.959   6.279   0.463
21740SOL    HW165178   5.982   6.187   0.474
21740SOL    HW265179   5.870   6.286   0.498
21741SOL     OW65180   7.094   5.808   1.717
21741SOL    HW165181   7.107   5.827   1.810
21741SOL    HW265182   7.029   5.739   1.716
21742SOL     OW65183   6.194   5.679   0.116
21742SOL    HW165184   6.289   5.669   0.126
21742SOL    HW265185   6.180   5.685   0.022
21743SOL     OW65186   6.344   5.860   1.751
21743SOL    HW165187   6.429   5.815   1.750
21743SOL    HW265188   6.298   5.821   1.826
21744SOL     OW65189   6.456   7.114   1.201
21744SOL    HW165190   6.437   7.072   1.117
21744SOL    HW265191   6.523   7.058   1.241
21745SOL     OW65192   6.916   6.178   1.434
21745SOL    HW165193   6.949   6.147   1.518
21745SOL    HW265194   6.955   6.264   1.423
21746SOL     OW65195   6.403   6.963   0.961
21746SOL    HW165196   6.489   6.959   0.919
21746SOL    HW265197   6.341   6.975   0.890
21747SOL     OW65198   6.517   6.101   0.890
21747SOL    HW165199   6.492   6.088   0.799
21747SOL    HW265200   6.544   6.014   0.920
21748SOL     OW65201   6.150   5.662   0.503
21748SOL    HW165202   6.071   5.660   0.556
21748SOL    HW265203   6.136   5.734   0.442
21749SOL     OW65204   7.012   6.785   0.035
21749SOL    HW165205   7.037   6.719   0.100
21749SOL    HW265206   6.931   6.823   0.069
21750SOL     OW65207   6.538   5.836   0.450
21750SOL    HW165208   6.506   5.872   0.367
21750SOL    HW265209   6.631   5.857   0.451
21751SOL     OW65210   6.662   6.280   1.446
21751SOL    HW165211   6.599   6.207   1.451
21751SOL    HW265212   6.748   6.237   1.443
21752SOL     OW65213   6.791   7.174   0.800
21752SOL    HW165214   6.807   7.233   0.727
21752SOL    HW265215   6.863   7.191   0.861
21753SOL     OW65216   6.065   6.734   0.710
21753SOL    HW165217   6.001   6.713   0.778
21753SOL    HW265218   6.015   6.730   0.629
21754SOL     OW65219   6.839   7.379   0.613
21754SOL    HW165220   6.887   7.443   0.561
21754SOL    HW265221   6.769   7.430   0.655
21755SOL     OW65222   6.680   6.147   9.980
21755SOL    HW165223   6.592   6.110   9.986
21755SOL    HW265224   6.715   6.140   0.069
21756SOL     OW65225   5.685   6.139   1.390
21756SOL    HW165226   5.777   6.139   1.365
21756SOL    HW265227   5.678   6.207   1.457
21757SOL     OW65228   6.145   5.807   1.185
21757SOL    HW165229   6.182   5.744   1.247
21757SOL    HW265230   6.051   5.808   1.206
21758SOL     OW65231   6.459   6.037   0.633
21758SOL    HW165232   6.424   6.094   0.564
21758SOL    HW265233   6.483   5.957   0.587
21759SOL     OW65234   6.611   5.643   0.742
21759SOL    HW165235   6.548   5.640   0.671
21759SOL    HW265236   6.587   5.571   0.800
21760SOL     OW65237   7.017   6.739   0.854
21760SOL    HW165238   6.949   6.672   0.867
21760SOL    HW265239   7.027   6.745   0.760
21761SOL     OW65240   7.048   6.201   0.952
21761SOL    HW165241   6.984   6.130   0.962
21761SOL    HW265242   7.104   6.195   1.029
21762SOL     OW65243   7.446   6.375   0.369
21762SOL    HW165244   7.487   6.326   0.439
21762SOL    HW265245   7.407   6.308   0.312
21763SOL     OW65246   6.090   7.029   0.214
21763SOL    HW165247   6.009   6.984   0.234
21763SOL    HW265248   6.132   6.974   0.147
21764SOL     OW65249   7.297   6.858   0.631
21764SOL    HW165250   7.389   6.850   0.655
21764SOL    HW265251   7.272   6.946   0.658
21765SOL     OW65252   7.003   6.151   0.094
21765SOL    HW165253   6.926   6.139   0.151
21765SOL    HW265254   7.040   6.064   0.086
21766SOL     OW65255   6.094   5.850   0.309
21766SOL    HW165256   6.133   5.791   0.244
21766SOL    HW265257   6.072   5.929   0.261
21767SOL     OW65258   7.321   6.830   1.532
21767SOL    HW165259   7.409   6.796   1.519
21767SOL    HW265260   7.334   6.917   1.570
21768SOL     OW65261   6.628   6.941   1.335
21768SOL    HW165262   6.551   6.906   1.380
21768SOL    HW265263   6.702   6.896   1.376
21769SOL     OW65264   7.193   7.221   1.672
21769SOL    HW165265   7.183   7.257   1.584
21769SOL    HW265266   7.271   7.165   1.665
21770SOL     OW65267   6.736   6.824   1.105
21770SOL    HW165268   6.675   6.858   1.170
21770SOL    HW265269   6.703   6.856   1.021
21771SOL     OW65270   7.193   6.678   1.079
21771SOL    HW165271   7.185   6.744   1.147
21771SOL    HW265272   7.123   6.699   1.016
21772SOL     OW65273   6.505   5.667   1.383
21772SOL    HW165274   6.527   5.652   1.291
21772SOL    HW265275   6.583   5.708   1.419
21773SOL     OW65276   6.565   6.702   1.724
21773SOL    HW165277   6.475   6.718   1.751
21773SOL    HW265278   6.560   6.621   1.673
21774SOL     OW65279   6.309   6.638   0.377
21774SOL    HW165280   6.295   6.611   0.468
21774SOL    HW265281   6.389   6.593   0.351
21775SOL     OW65282   6.012   6.413   1.259
21775SOL    HW165283   6.079   6.423   1.326
21775SOL    HW265284   5.982   6.323   1.269
21776SOL     OW65285   6.851   5.955   1.291
21776SOL    HW165286   6.878   6.035   1.336
21776SOL    HW265287   6.761   5.973   1.262
21777SOL     OW65288   5.664   7.156   1.363
21777SOL    HW165289   5.635   7.228   1.307
21777SOL    HW265290   5.759   7.156   1.353
21778SOL     OW65291   5.901   6.711   0.487
21778SOL    HW165292   5.901   6.782   0.423
21778SOL    HW265293   5.909   6.631   0.436
21779SOL     OW65294   6.119   6.099   0.857
21779SOL    HW165295   6.129   6.158   0.782
21779SOL    HW265296   6.187   6.126   0.918
21780SOL     OW65297   6.835   6.934   0.419
21780SOL    HW165298   6.891   7.007   0.446
21780SOL    HW265299   6.747   6.960   0.444
21781SOL     OW65300   6.895   7.055   1.142
21781SOL    HW165301   6.942   7.061   1.225
21781SOL    HW265302   6.844   6.974   1.151
21782SOL     OW65303   7.126   6.208   0.473
21782SOL    HW165304   7.105   6.246   0.558
21782SOL    HW265305   7.082   6.265   0.410
21783SOL     OW65306   5.931   7.119   1.303
21783SOL    HW165307   5.923   7.066   1.223
21783SOL    HW265308   6.024   7.135   1.312
21784SOL     OW65309   6.019   6.331   1.619
21784SOL    HW165310   6.077   6.375   1.557
21784SOL    HW265311   6.065   6.250   1.641
21785SOL     OW65312   7.213   6.371   1.698
21785SOL    HW165313   7.126   6.410   1.689
21785SOL    HW265314   7.264   6.410   1.626
21786SOL     OW65315   6.581   5.727   1.757
21786SOL    HW165316   6.640   5.800   1.738
21786SOL    HW265317   6.633   5.649   1.736
21787SOL     OW65318   6.082   5.621   1.762
21787SOL    HW165319   6.026   5.571   1.702
21787SOL    HW265320   6.029   5.698   1.784
21788SOL     OW65321   6.175   6.461   1.038
21788SOL    HW165322   6.214   6.548   1.041
21788SOL    HW265323   6.119   6.457   1.115
21789SOL     OW65324   6.895   6.440   1.003
21789SOL    HW165325   6.807   6.413   0.977
21789SOL    HW265326   6.949   6.363   0.986
21790SOL     OW65327   6.777   6.105   0.246
21790SOL    HW165328   6.789   6.029   0.304
21790SOL    HW265329   6.736   6.171   0.302
21791SOL     OW65330   5.877   5.780   1.239
21791SOL    HW165331   5.842   5.808   1.324
21791SOL    HW265332   5.860   5.685   1.237
21792SOL     OW65333   5.635   6.899   1.267
21792SOL    HW165334   5.665   6.843   1.339
21792SOL    HW265335   5.638   6.988   1.303
21793SOL     OW65336   6.294   6.207   1.037
21793SOL    HW165337   6.374   6.201   0.984
21793SOL    HW265338   6.267   6.298   1.028
21794SOL     OW65339   7.337   6.554   1.869
21794SOL    HW165340   7.297   6.481   1.821
21794SOL    HW265341   7.274   6.574   1.938
21795SOL     OW65342   5.905   5.649   0.630
21795SOL    HW165343   5.873   5.738   0.649
21795SOL    HW265344   5.911   5.607   0.716
21796SOL     OW65345   7.223   5.979   0.351
21796SOL    HW165346   7.256   5.915   0.414
21796SOL    HW265347   7.188   6.050   0.406
21797SOL     OW65348   6.620   6.344   0.958
21797SOL    HW165349   6.598   6.359   1.050
21797SOL    HW265350   6.590   6.255   0.940
21798SOL     OW65351   6.566   7.152   1.734
21798SOL    HW165352   6.546   7.195   1.651
21798SOL    HW265353   6.605   7.068   1.709
21799SOL     OW65354   7.424   7.081   1.602
21799SOL    HW165355   7.451   7.110   1.515
21799SOL    HW265356   7.502   7.091   1.656
21800SOL     OW65357   5.936   6.506   1.815
21800SOL    HW165358   6.011   6.523   1.871
21800SOL    HW265359   5.967   6.442   1.751
21801SOL     OW65360   7.085   5.891   0.128
21801SOL    HW165361   7.037   5.811   0.150
21801SOL    HW265362   7.133   5.912   0.208
21802SOL     OW65363   6.907   6.404   0.040
21802SOL    HW165364   6.942   6.315   0.040
21802SOL    HW265365   6.964   6.451   9.979
21803SOL     OW65366   6.656   6.939   0.865
21803SOL    HW165367   6.667   6.866   0.805
21803SOL    HW265368   6.708   7.010   0.827
21804SOL     OW65369   5.904   6.400   0.944
21804SOL    HW165370   5.998   6.416   0.945
21804SOL    HW265371   5.894   6.310   0.975
21805SOL     OW65372   5.899   6.124   1.010
21805SOL    HW165373   5.860   6.037   1.002
21805SOL    HW265374   5.976   6.121   0.954
21806SOL     OW65375   6.725   5.954   1.685
21806SOL    HW165376   6.679   6.005   1.752
21806SOL    HW265377   6.810   5.996   1.677
21807SOL     OW65378   6.742   5.776   1.473
21807SOL    HW165379   6.731   5.838   1.545
21807SOL    HW265380   6.788   5.826   1.406
21808SOL     OW65381   5.604   6.876   0.171
21808SOL    HW165382   5.514   6.905   0.154
21808SOL    HW265383   5.594   6.797   0.223
21809SOL     OW65384   5.678   7.356   0.950
21809SOL    HW165385   5.645   7.282   0.900
21809SOL    HW265386   5.765   7.373   0.914
21810SOL     OW65387   6.070   7.158   0.905
21810SOL    HW165388   6.141   7.219   0.925
21810SOL    HW265389   6.112   7.090   0.852
21811SOL     OW65390   6.534   6.366   1.216
21811SOL    HW165391   6.597   6.355   1.287
21811SOL    HW265392   6.455   6.321   1.247
21812SOL     OW65393   5.626   6.160   1.120
21812SOL    HW165394   5.708   6.156   1.071
21812SOL    HW265395   5.653   6.152   1.212
21813SOL     OW65396   5.772   6.124   1.744
21813SOL    HW165397   5.847   6.094   1.692
21813SOL    HW265398   5.736   6.198   1.693
21814SOL     OW65399   6.978   6.506   1.652
21814SOL    HW165400   6.995   6.601   1.647
21814SOL    HW265401   6.970   6.479   1.560
21815SOL     OW65402   6.413   6.149   0.374
21815SOL    HW165403   6.419   6.074   0.315
21815SOL    HW265404   6.335   6.197   0.347
21816SOL     OW65405   7.222   6.187   1.164
21816SOL    HW165406   7.213   6.128   1.239
21816SOL    HW265407   7.313   6.176   1.136
21817SOL     OW65408   5.812   7.125   1.723
21817SOL    HW165409   5.788   7.174   1.802
21817SOL    HW265410   5.824   7.035   1.753
21818SOL     OW65411   6.319   6.019   1.233
21818SOL    HW165412   6.255   5.949   1.219
21818SOL    HW265413   6.301   6.083   1.164
21819SOL     OW65414   6.492   7.265   1.487
21819SOL    HW165415   6.470   7.218   1.407
21819SOL    HW265416   6.494   7.357   1.461
21820SOL     OW65417   6.038   6.072   0.154
21820SOL    HW165418   6.096   6.138   0.191
21820SOL    HW265419   5.952   6.115   0.150
21821SOL     OW65420   5.715   6.737   1.480
21821SOL    HW165421   5.720   6.697   1.568
21821SOL    HW265422   5.737   6.665   1.421
21822SOL     OW65423   6.889   6.620   1.209
21822SOL    HW165424   6.899   6.557   1.138
21822SOL    HW265425   6.836   6.690   1.171
21823SOL     OW65426   6.912   6.405   0.319
21823SOL    HW165427   6.827   6.382   0.356
21823SOL    HW265428   6.899   6.401   0.224
21824SOL     OW65429   7.373   7.310   1.170
21824SOL    HW165430   7.434   7.336   1.102
21824SOL    HW265431   7.341   7.224   1.143
21825SOL     OW65432   6.826   7.319   1.090
21825SOL    HW165433   6.911   7.349   1.057
21825SOL    HW265434   6.841   7.228   1.115
21826SOL     OW65435   5.691   6.835   1.011
21826SOL    HW165436   5.663   6.857   1.100
21826SOL    HW265437   5.620   6.782   0.976
21827SOL     OW65438   6.273   7.269   1.750
21827SOL    HW165439   6.211   7.340   1.736
21827SOL    HW265440   6.348   7.292   1.695
21828SOL     OW65441   6.472   5.664   0.098
21828SOL    HW165442   6.467   5.638   0.006
21828SOL    HW265443   6.550   5.619   0.131
21829SOL     OW65444   7.339   5.768   0.495
21829SOL    HW165445   7.399   5.745   0.425
21829SOL    HW265446   7.310   5.684   0.530
21830SOL     OW65447   6.986   7.157   0.504
21830SOL    HW165448   7.043   7.191   0.435
21830SOL    HW265449   6.933   7.232   0.530
21831SOL     OW65450   5.719   7.393   1.844
21831SOL    HW165451   5.679   7.317   1.886
21831SOL    HW265452   5.770   7.435   1.914
21832SOL     OW65453   6.865   6.519   0.669
21832SOL    HW165454   6.939   6.459   0.681
21832SOL    HW265455   6.902   6.591   0.618
21833SOL     OW65456   6.369   6.866   1.414
21833SOL    HW165457   6.343   6.914   1.493
21833SOL    HW265458   6.295   6.876   1.354
21834SOL     OW65459   6.271   7.225   0.188
21834SOL    HW165460   6.275   7.240   0.094
21834SOL    HW265461   6.215   7.147   0.198
21835SOL     OW65462   7.202   7.316   1.402
21835SOL    HW165463   7.259   7.316   1.325
21835SOL    HW265464   7.186   7.409   1.420
21836SOL     OW65465   7.431   5.746   0.963
21836SOL    HW165466   7.459   5.657   0.943
21836SOL    HW265467   7.343   5.752   0.926
21837SOL     OW65468   5.828   5.898   0.709
21837SOL    HW165469   5.742   5.934   0.689
21837SOL    HW265470   5.833   5.898   0.804
21838SOL     OW65471   6.802   7.153   0.052
21838SOL    HW165472   6.790   7.064   0.083
21838SOL    HW265473   6.816   7.144   9.958
21839SOL     OW65474   6.409   6.597   1.385
21839SOL    HW165475   6.447   6.588   1.298
21839SOL    HW265476   6.399   6.691   1.397
21840SOL     OW65477   6.529   6.508   0.296
21840SOL    HW165478   6.577   6.529   0.216
21840SOL    HW265479   6.576   6.434   0.334
21841SOL     OW65480   7.075   7.198   0.074
21841SOL    HW165481   6.980   7.190   0.082
21841SOL    HW265482   7.091   7.206   9.981
21842SOL     OW65483   5.949   6.898   1.502
21842SOL    HW165484   5.941   6.972   1.441
21842SOL    HW265485   5.871   6.845   1.485
21843SOL     OW65486   7.185   6.876   1.277
21843SOL    HW165487   7.239   6.852   1.352
21843SOL    HW265488   7.125   6.944   1.311
21844SOL     OW65489   6.663   6.704   0.731
21844SOL    HW165490   6.587   6.655   0.762
21844SOL    HW265491   6.725   6.637   0.702
21845SOL     OW65492   6.619   5.835   0.962
21845SOL    HW165493   6.619   5.792   0.876
21845SOL    HW265494   6.612   5.763   1.024
21846SOL     OW65495   6.208   7.071   0.507
21846SOL    HW165496   6.248   7.016   0.440
21846SOL    HW265497   6.139   7.118   0.461
21847SOL     OW65498   7.330   5.969   1.387
21847SOL    HW165499   7.402   6.033   1.384
21847SOL    HW265500   7.357   5.900   1.326
21848SOL     OW65501   5.856   6.899   0.282
21848SOL    HW165502   5.773   6.901   0.234
21848SOL    HW265503   5.839   6.952   0.360
21849SOL     OW65504   5.706   6.633   1.735
21849SOL    HW165505   5.629   6.605   1.785
21849SOL    HW265506   5.778   6.582   1.772
21850SOL     OW65507   6.265   5.774   1.494
21850SOL    HW165508   6.349   5.748   1.456
21850SOL    HW265509   6.288   5.808   1.581
21851SOL     OW65510   5.675   5.861   0.021
21851SOL    HW165511   5.586   5.880   9.992
21851SOL    HW265512   5.724   5.941   0.002
21852SOL     OW65513   7.001   6.440   1.388
21852SOL    HW165514   6.948   6.499   1.333
21852SOL    HW265515   7.089   6.444   1.351
21853SOL     OW65516   5.659   5.728   0.278
21853SOL    HW165517   5.653   5.776   0.196
21853SOL    HW265518   5.753   5.719   0.294
21854SOL     OW65519   6.783   6.898   0.146
21854SOL    HW165520   6.695   6.861   0.137
21854SOL    HW265521   6.800   6.896   0.240
21855SOL     OW65522   6.211   6.418   1.441
21855SOL    HW165523   6.270   6.492   1.430
21855SOL    HW265524   6.269   6.341   1.440
21856SOL     OW65525   7.074   7.388   0.993
21856SOL    HW165526   7.100   7.462   0.939
21856SOL    HW265527   7.155   7.344   1.016
21857SOL     OW65528   6.310   6.134   1.686
21857SOL    HW165529   6.357   6.188   1.750
21857SOL    HW265530   6.320   6.045   1.718
21858SOL     OW65531   7.054   6.770   1.619
21858SOL    HW165532   7.047   6.792   1.712
21858SOL    HW265533   7.144   6.794   1.596
21859SOL     OW65534   5.940   7.333   1.580
21859SOL    HW165535   5.858   7.379   1.563
21859SOL    HW265536   5.913   7.249   1.618
21860SOL     OW65537   7.241   6.461   1.253
21860SOL    HW165538   7.239   6.378   1.207
21860SOL    HW265539   7.228   6.527   1.185
21861SOL     OW65540   6.806   5.909   0.452
21861SOL    HW165541   6.866   5.835   0.449
21861SOL    HW265542   6.835   5.961   0.527
21862SOL     OW65543   6.152   6.309   0.677
21862SOL    HW165544   6.199   6.391   0.666
21862SOL    HW265545   6.088   6.308   0.606
21863SOL     OW65546   7.333   5.941   1.663
21863SOL    HW165547   7.329   5.957   1.569
21863SOL    HW265548   7.256   5.888   1.682
21864SOL     OW65549   7.346   6.511   1.504
21864SOL    HW165550   7.329   6.604   1.517
21864SOL    HW265551   7.319   6.494   1.414
21865SOL     OW65552   6.484   7.004   0.043
21865SOL    HW165553   6.398   6.964   0.026
21865SOL    HW265554   6.478   7.036   0.133
21866SOL     OW65555   6.253   7.355   0.928
21866SOL    HW165556   6.235   7.448   0.919
21866SOL    HW265557   6.349   7.348   0.925
21867SOL     OW65558   6.458   6.561   0.857
21867SOL    HW165559   6.509   6.489   0.893
21867SOL    HW265560   6.413   6.599   0.932
21868SOL     OW65561   6.682   6.559   0.074
21868SOL    HW165562   6.675   6.607   9.991
21868SOL    HW265563   6.756   6.500   0.061
21869SOL     OW65564   7.416   7.143   0.841
21869SOL    HW165565   7.340   7.135   0.784
21869SOL    HW265566   7.395   7.092   0.918
21870SOL     OW65567   5.798   6.871   1.836
21870SOL    HW165568   5.767   6.792   1.793
21870SOL    HW265569   5.740   6.883   1.910
21871SOL     OW65570   5.704   6.804   0.670
21871SOL    HW165571   5.735   6.764   0.752
21871SOL    HW265572   5.764   6.770   0.603
21872SOL     OW65573   6.276   7.006   1.631
21872SOL    HW165574   6.200   6.966   1.674
21872SOL    HW265575   6.281   7.094   1.669
21873SOL     OW65576   7.396   5.758   1.233
21873SOL    HW165577   7.398   5.663   1.247
21873SOL    HW265578   7.410   5.769   1.139
21874SOL     OW65579   5.999   6.020   0.515
21874SOL    HW165580   6.033   5.950   0.460
21874SOL    HW265581   5.951   5.975   0.585
21875SOL     OW65582   7.281   7.066   1.082
21875SOL    HW165583   7.203   7.046   1.030
21875SOL    HW265584   7.283   6.999   1.150
21876SOL     OW65585   5.938   6.151   1.291
21876SOL    HW165586   5.987   6.086   1.343
21876SOL    HW265587   5.946   6.121   1.201
21877SOL     OW65588   6.421   7.183   0.662
21877SOL    HW165589   6.412   7.266   0.615
21877SOL    HW265590   6.345   7.132   0.635
21878SOL     OW65591   7.008   5.819   1.116
21878SOL    HW165592   7.018   5.730   1.150
21878SOL    HW265593   6.962   5.866   1.185
21879SOL     OW65594   6.597   5.603   1.119
21879SOL    HW165595   6.542   5.540   1.073
21879SOL    HW265596   6.683   5.562   1.122
21880SOL     OW65597   6.362   6.912   0.343
21880SOL    HW165598   6.341   6.818   0.347
21880SOL    HW265599   6.447   6.919   0.386
21881SOL     OW65600   6.201   7.156   1.288
21881SOL    HW165601   6.196   7.240   1.333
21881SOL    HW265602   6.291   7.151   1.255
21882SOL     OW65603   6.938   5.643   0.177
21882SOL    HW165604   6.962   5.606   0.092
21882SOL    HW265605   6.849   5.614   0.192
21883SOL     OW65606   6.885   6.054   0.675
21883SOL    HW165607   6.836   6.136   0.671
21883SOL    HW265608   6.877   6.025   0.766
21884SOL     OW65609   7.168   5.774   0.894
21884SOL    HW165610   7.116   5.803   0.968
21884SOL    HW265611   7.167   5.848   0.833
21885SOL     OW65612   5.628   6.630   0.303
21885SOL    HW165613   5.723   6.632   0.309
21885SOL    HW265614   5.603   6.542   0.332
21886SOL     OW65615   6.492   7.266   0.345
21886SOL    HW165616   6.414   7.251   0.292
21886SOL    HW265617   6.467   7.336   0.405
21887SOL     OW65618   5.794   6.208   2.009
21887SOL    HW165619   5.706   6.196   2.047
21887SOL    HW265620   5.782   6.194   1.915
21888SOL     OW65621   5.805   5.874   2.852
21888SOL    HW165622   5.835   5.839   2.936
21888SOL    HW265623   5.718   5.836   2.840
21889SOL     OW65624   5.572   5.982   2.508
21889SOL    HW165625   5.493   6.007   2.555
21889SOL    HW265626   5.545   5.909   2.453
21890SOL     OW65627   6.161   6.894   3.071
21890SOL    HW165628   6.078   6.897   3.023
21890SOL    HW265629   6.178   6.985   3.094
21891SOL     OW65630   7.174   7.110   2.568
21891SOL    HW165631   7.127   7.079   2.645
21891SOL    HW265632   7.107   7.113   2.499
21892SOL     OW65633   6.723   6.289   2.548
21892SOL    HW165634   6.769   6.373   2.537
21892SOL    HW265635   6.675   6.299   2.630
21893SOL     OW65636   7.387   6.167   2.081
21893SOL    HW165637   7.349   6.166   1.994
21893SOL    HW265638   7.343   6.096   2.128
21894SOL     OW65639   6.312   6.716   2.919
21894SOL    HW165640   6.254   6.756   2.984
21894SOL    HW265641   6.355   6.790   2.876
21895SOL     OW65642   6.472   6.326   3.693
21895SOL    HW165643   6.458   6.391   3.761
21895SOL    HW265644   6.490   6.378   3.614
21896SOL     OW65645   6.271   6.571   2.506
21896SOL    HW165646   6.338   6.571   2.574
21896SOL    HW265647   6.205   6.633   2.538
21897SOL     OW65648   6.297   6.734   3.693
21897SOL    HW165649   6.347   6.807   3.729
21897SOL    HW265650   6.220   6.774   3.653
21898SOL     OW65651   5.929   6.984   2.931
21898SOL    HW165652   5.853   6.941   2.892
21898SOL    HW265653   5.965   7.038   2.862
21899SOL     OW65654   7.039   7.092   3.234
21899SOL    HW165655   7.094   7.170   3.247
21899SOL    HW265656   6.968   7.103   3.296
21900SOL     OW65657   6.042   5.959   3.316
21900SOL    HW165658   6.117   5.902   3.334
21900SOL    HW265659   5.966   5.909   3.346
21901SOL     OW65660   7.169   6.018   2.617
21901SOL    HW165661   7.101   6.028   2.551
21901SOL    HW265662   7.152   6.088   2.680
21902SOL     OW65663   5.803   7.315   2.327
21902SOL    HW165664   5.830   7.385   2.386
21902SOL    HW265665   5.877   7.303   2.268
21903SOL     OW65666   6.719   6.928   3.560
21903SOL    HW165667   6.765   6.918   3.644
21903SOL    HW265668   6.666   6.849   3.552
21904SOL     OW65669   5.818   7.043   2.395
21904SOL    HW165670   5.797   7.136   2.400
21904SOL    HW265671   5.769   7.003   2.467
21905SOL     OW65672   5.871   6.676   2.741
21905SOL    HW165673   5.872   6.586   2.775
21905SOL    HW265674   5.815   6.724   2.803
21906SOL     OW65675   6.158   7.390   3.282
21906SOL    HW165676   6.083   7.369   3.337
21906SOL    HW265677   6.191   7.473   3.317
21907SOL     OW65678   6.151   6.574   2.014
21907SOL    HW165679   6.202   6.616   1.945
21907SOL    HW265680   6.192   6.603   2.095
21908SOL     OW65681   7.178   5.719   3.322
21908SOL    HW165682   7.215   5.797   3.279
21908SOL    HW265683   7.146   5.751   3.406
21909SOL     OW65684   5.704   6.246   2.429
21909SOL    HW165685   5.672   6.159   2.453
21909SOL    HW265686   5.698   6.297   2.510
21910SOL     OW65687   7.432   7.329   2.179
21910SOL    HW165688   7.504   7.314   2.241
21910SOL    HW265689   7.439   7.422   2.157
21911SOL     OW65690   5.645   7.166   1.972
21911SOL    HW165691   5.625   7.075   1.991
21911SOL    HW265692   5.614   7.214   2.049
21912SOL     OW65693   7.283   6.512   2.515
21912SOL    HW165694   7.366   6.468   2.493
21912SOL    HW265695   7.263   6.563   2.437
21913SOL     OW65696   7.243   6.691   2.294
21913SOL    HW165697   7.328   6.682   2.251
21913SOL    HW265698   7.257   6.757   2.362
21914SOL     OW65699   5.709   6.336   3.438
21914SOL    HW165700   5.795   6.378   3.445
21914SOL    HW265701   5.647   6.409   3.428
21915SOL     OW65702   6.210   6.984   2.592
21915SOL    HW165703   6.168   6.898   2.597
21915SOL    HW265704   6.194   7.013   2.502
21916SOL     OW65705   6.857   6.812   3.278
21916SOL    HW165706   6.884   6.743   3.219
21916SOL    HW265707   6.918   6.807   3.352
21917SOL     OW65708   6.418   5.598   2.380
21917SOL    HW165709   6.457   5.680   2.353
21917SOL    HW265710   6.324   5.616   2.381
21918SOL     OW65711   5.773   6.543   3.161
21918SOL    HW165712   5.861   6.508   3.145
21918SOL    HW265713   5.718   6.500   3.097
21919SOL     OW65714   7.121   6.601   2.061
21919SOL    HW165715   7.052   6.541   2.091
21919SOL    HW265716   7.163   6.631   2.142
21920SOL     OW65717   6.769   7.410   3.498
21920SOL    HW165718   6.769   7.470   3.424
21920SOL    HW265719   6.784   7.324   3.459
21921SOL     OW65720   5.955   5.845   3.729
21921SOL    HW165721   5.989   5.924   3.770
21921SOL    HW265722   5.860   5.855   3.732
21922SOL     OW65723   7.058   7.003   2.793
21922SOL    HW165724   6.995   7.022   2.862
21922SOL    HW265725   7.040   6.912   2.769
21923SOL     OW65726   7.223   7.382   2.424
21923SOL    HW165727   7.206   7.335   2.342
21923SOL    HW265728   7.223   7.314   2.491
21924SOL     OW65729   6.172   6.284   2.133
21924SOL    HW165730   6.177   6.372   2.096
21924SOL    HW265731   6.108   6.291   2.204
21925SOL     OW65732   6.868   5.979   2.803
21925SOL    HW165733   6.779   5.944   2.808
21925SOL    HW265734   6.920   5.921   2.858
21926SOL     OW65735   7.165   7.259   2.181
21926SOL    HW165736   7.259   7.274   2.170
21926SOL    HW265737   7.132   7.247   2.092
21927SOL     OW65738   6.378   6.199   3.292
21927SOL    HW165739   6.354   6.170   3.381
21927SOL    HW265740   6.353   6.126   3.236
21928SOL     OW65741   6.979   6.063   3.537
21928SOL    HW165742   6.983   6.106   3.623
21928SOL    HW265743   7.029   5.982   3.549
21929SOL     OW65744   6.530   6.466   3.458
21929SOL    HW165745   6.586   6.403   3.413
21929SOL    HW265746   6.481   6.508   3.387
21930SOL     OW65747   6.594   5.984   3.070
21930SOL    HW165748   6.502   5.997   3.093
21930SOL    HW265749   6.591   5.939   2.985
21931SOL     OW65750   6.644   6.283   2.280
21931SOL    HW165751   6.665   6.280   2.374
21931SOL    HW265752   6.559   6.239   2.273
21932SOL     OW65753   5.679   6.415   2.643
21932SOL    HW165754   5.761   6.407   2.692
21932SOL    HW265755   5.632   6.486   2.687
21933SOL     OW65756   5.696   7.464   3.449
21933SOL    HW165757   5.703   7.446   3.543
21933SOL    HW265758   5.612   7.426   3.423
21934SOL     OW65759   6.475   5.936   2.062
21934SOL    HW165760   6.525   5.990   2.001
21934SOL    HW265761   6.453   5.857   2.012
21935SOL     OW65762   7.277   6.149   3.701
21935SOL    HW165763   7.253   6.226   3.650
21935SOL    HW265764   7.303   6.084   3.636
21936SOL     OW65765   6.979   6.736   2.407
21936SOL    HW165766   7.059   6.724   2.355
21936SOL    HW265767   6.926   6.797   2.356
21937SOL     OW65768   6.137   5.746   2.780
21937SOL    HW165769   6.142   5.774   2.872
21937SOL    HW265770   6.132   5.828   2.731
21938SOL     OW65771   6.583   7.041   2.327
21938SOL    HW165772   6.559   7.116   2.272
21938SOL    HW265773   6.553   7.065   2.415
21939SOL     OW65774   5.939   7.401   2.743
21939SOL    HW165775   5.984   7.317   2.746
21939SOL    HW265776   6.006   7.466   2.764
21940SOL     OW65777   7.390   6.631   2.751
21940SOL    HW165778   7.342   6.615   2.670
21940SOL    HW265779   7.322   6.640   2.818
21941SOL     OW65780   6.805   7.130   3.380
21941SOL    HW165781   6.793   7.059   3.443
21941SOL    HW265782   6.734   7.117   3.316
21942SOL     OW65783   5.886   6.544   2.128
21942SOL    HW165784   5.969   6.565   2.084
21942SOL    HW265785   5.864   6.456   2.098
21943SOL     OW65786   7.070   6.349   2.573
21943SOL    HW165787   7.072   6.306   2.658
21943SOL    HW265788   7.150   6.403   2.571
21944SOL     OW65789   6.061   6.869   3.608
21944SOL    HW165790   6.036   6.874   3.516
21944SOL    HW265791   5.978   6.856   3.655
21945SOL     OW65792   6.725   7.363   2.087
21945SOL    HW165793   6.644   7.333   2.127
21945SOL    HW265794   6.745   7.297   2.020
21946SOL     OW65795   5.791   5.844   3.364
21946SOL    HW165796   5.722   5.904   3.392
21946SOL    HW265797   5.763   5.758   3.397
21947SOL     OW65798   7.224   6.974   1.961
21947SOL    HW165799   7.183   7.060   1.949
21947SOL    HW265800   7.157   6.911   1.935
21948SOL     OW65801   6.044   7.328   2.178
21948SOL    HW165802   6.093   7.378   2.243
21948SOL    HW265803   6.112   7.286   2.124
21949SOL     OW65804   6.983   5.692   2.321
21949SOL    HW165805   6.983   5.667   2.228
21949SOL    HW265806   7.074   5.679   2.349
21950SOL     OW65807   5.838   7.375   3.077
21950SOL    HW165808   5.886   7.300   3.113
21950SOL    HW265809   5.826   7.353   2.984
21951SOL     OW65810   6.534   7.289   2.752
21951SOL    HW165811   6.618   7.247   2.769
21951SOL    HW265812   6.495   7.237   2.681
21952SOL     OW65813   5.980   6.272   2.334
21952SOL    HW165814   5.992   6.178   2.347
21952SOL    HW265815   5.887   6.286   2.352
21953SOL     OW65816   7.094   5.808   3.579
21953SOL    HW165817   7.108   5.827   3.672
21953SOL    HW265818   7.027   5.740   3.578
21954SOL     OW65819   6.249   5.696   1.964
21954SOL    HW165820   6.295   5.617   1.993
21954SOL    HW265821   6.188   5.665   1.897
21955SOL     OW65822   6.345   5.859   3.611
21955SOL    HW165823   6.429   5.814   3.610
21955SOL    HW265824   6.298   5.821   3.685
21956SOL     OW65825   6.455   7.113   3.061
21956SOL    HW165826   6.437   7.072   2.977
21956SOL    HW265827   6.522   7.058   3.102
21957SOL     OW65828   6.916   6.178   3.296
21957SOL    HW165829   6.949   6.147   3.381
21957SOL    HW265830   6.954   6.264   3.285
21958SOL     OW65831   6.402   6.962   2.819
21958SOL    HW165832   6.490   6.957   2.780
21958SOL    HW265833   6.344   6.977   2.744
21959SOL     OW65834   6.517   6.102   2.750
21959SOL    HW165835   6.492   6.090   2.658
21959SOL    HW265836   6.544   6.015   2.779
21960SOL     OW65837   6.150   5.650   2.352
21960SOL    HW165838   6.072   5.650   2.408
21960SOL    HW265839   6.138   5.724   2.294
21961SOL     OW65840   7.020   6.798   1.894
21961SOL    HW165841   7.050   6.724   1.947
21961SOL    HW265842   6.935   6.822   1.931
21962SOL     OW65843   5.869   5.634   2.051
21962SOL    HW165844   5.923   5.701   2.009
21962SOL    HW265845   5.932   5.576   2.093
21963SOL     OW65846   6.538   5.837   2.312
21963SOL    HW165847   6.512   5.872   2.227
21963SOL    HW265848   6.632   5.854   2.318
21964SOL     OW65849   6.662   6.281   3.307
21964SOL    HW165850   6.598   6.210   3.313
21964SOL    HW265851   6.746   6.237   3.305
21965SOL     OW65852   6.792   7.171   2.663
21965SOL    HW165853   6.807   7.232   2.591
21965SOL    HW265854   6.864   7.188   2.724
21966SOL     OW65855   6.068   6.748   2.570
21966SOL    HW165856   6.006   6.724   2.639
21966SOL    HW265857   6.018   6.741   2.489
21967SOL     OW65858   6.838   7.378   2.479
21967SOL    HW165859   6.887   7.441   2.426
21967SOL    HW265860   6.766   7.428   2.518
21968SOL     OW65861   6.618   6.100   1.891
21968SOL    HW165862   6.575   6.184   1.873
21968SOL    HW265863   6.681   6.120   1.960
21969SOL     OW65864   5.682   6.140   3.249
21969SOL    HW165865   5.774   6.139   3.225
21969SOL    HW265866   5.675   6.208   3.317
21970SOL     OW65867   6.143   5.808   3.050
21970SOL    HW165868   6.181   5.749   3.114
21970SOL    HW265869   6.050   5.809   3.070
21971SOL     OW65870   6.456   6.041   2.492
21971SOL    HW165871   6.416   6.096   2.425
21971SOL    HW265872   6.481   5.961   2.445
21972SOL     OW65873   6.608   5.643   2.601
21972SOL    HW165874   6.547   5.637   2.528
21972SOL    HW265875   6.584   5.571   2.659
21973SOL     OW65876   7.019   6.739   2.717
21973SOL    HW165877   6.950   6.673   2.728
21973SOL    HW265878   7.030   6.745   2.622
21974SOL     OW65879   7.048   6.202   2.811
21974SOL    HW165880   6.984   6.132   2.821
21974SOL    HW265881   7.104   6.196   2.888
21975SOL     OW65882   7.414   6.382   2.249
21975SOL    HW165883   7.475   6.339   2.309
21975SOL    HW265884   7.401   6.318   2.179
21976SOL     OW65885   6.084   7.011   2.013
21976SOL    HW165886   6.008   6.979   2.063
21976SOL    HW265887   6.081   6.961   1.931
21977SOL     OW65888   7.295   6.860   2.493
21977SOL    HW165889   7.387   6.853   2.515
21977SOL    HW265890   7.270   6.948   2.520
21978SOL     OW65891   6.978   6.161   1.928
21978SOL    HW165892   6.922   6.135   2.001
21978SOL    HW265893   7.067   6.138   1.956
21979SOL     OW65894   6.112   5.843   2.164
21979SOL    HW165895   6.167   5.802   2.096
21979SOL    HW265896   6.080   5.924   2.123
21980SOL     OW65897   7.321   6.830   3.394
21980SOL    HW165898   7.409   6.796   3.380
21980SOL    HW265899   7.335   6.917   3.431
21981SOL     OW65900   6.627   6.940   3.195
21981SOL    HW165901   6.550   6.906   3.241
21981SOL    HW265902   6.701   6.896   3.237
21982SOL     OW65903   7.193   7.221   3.534
21982SOL    HW165904   7.183   7.257   3.446
21982SOL    HW265905   7.271   7.165   3.528
21983SOL     OW65906   6.737   6.823   2.967
21983SOL    HW165907   6.676   6.857   3.032
21983SOL    HW265908   6.704   6.855   2.883
21984SOL     OW65909   7.196   6.678   2.939
21984SOL    HW165910   7.189   6.744   3.008
21984SOL    HW265911   7.126   6.699   2.878
21985SOL     OW65912   6.506   5.667   3.245
21985SOL    HW165913   6.528   5.653   3.153
21985SOL    HW265914   6.584   5.708   3.282
21986SOL     OW65915   6.565   6.702   3.587
21986SOL    HW165916   6.475   6.718   3.615
21986SOL    HW265917   6.560   6.621   3.537
21987SOL     OW65918   6.300   6.648   2.238
21987SOL    HW165919   6.285   6.622   2.329
21987SOL    HW265920   6.374   6.594   2.209
21988SOL     OW65921   6.012   6.412   3.121
21988SOL    HW165922   6.080   6.422   3.188
21988SOL    HW265923   5.981   6.322   3.131
21989SOL     OW65924   6.851   5.955   3.153
21989SOL    HW165925   6.878   6.035   3.198
21989SOL    HW265926   6.762   5.974   3.123
21990SOL     OW65927   5.664   7.156   3.225
21990SOL    HW165928   5.634   7.227   3.169
21990SOL    HW265929   5.759   7.155   3.216
21991SOL     OW65930   5.903   6.721   2.348
21991SOL    HW165931   5.904   6.792   2.285
21991SOL    HW265932   5.900   6.641   2.295
21992SOL     OW65933   6.119   6.102   2.720
21992SOL    HW165934   6.133   6.160   2.645
21992SOL    HW265935   6.187   6.128   2.782
21993SOL     OW65936   6.833   6.940   2.260
21993SOL    HW165937   6.889   7.010   2.295
21993SOL    HW265938   6.745   6.963   2.291
21994SOL     OW65939   6.895   7.055   3.005
21994SOL    HW165940   6.942   7.062   3.088
21994SOL    HW265941   6.844   6.974   3.013
21995SOL     OW65942   7.161   6.204   2.347
21995SOL    HW165943   7.110   6.244   2.417
21995SOL    HW265944   7.210   6.277   2.308
21996SOL     OW65945   5.930   7.119   3.164
21996SOL    HW165946   5.923   7.067   3.084
21996SOL    HW265947   6.024   7.135   3.174
21997SOL     OW65948   6.018   6.333   3.481
21997SOL    HW165949   6.077   6.375   3.418
21997SOL    HW265950   6.061   6.251   3.504
21998SOL     OW65951   7.214   6.371   3.560
21998SOL    HW165952   7.126   6.409   3.551
21998SOL    HW265953   7.264   6.410   3.488
21999SOL     OW65954   6.582   5.727   3.618
21999SOL    HW165955   6.640   5.801   3.600
21999SOL    HW265956   6.634   5.650   3.599
22000SOL     OW65957   6.084   5.622   3.619
22000SOL    HW165958   6.026   5.572   3.561
22000SOL    HW265959   6.033   5.701   3.641
22001SOL     OW65960   6.176   6.461   2.900
22001SOL    HW165961   6.214   6.548   2.904
22001SOL    HW265962   6.119   6.456   2.977
22002SOL     OW65963   6.894   6.440   2.863
22002SOL    HW165964   6.806   6.412   2.840
22002SOL    HW265965   6.949   6.364   2.845
22003SOL     OW65966   6.784   6.109   2.119
22003SOL    HW165967   6.795   6.033   2.176
22003SOL    HW265968   6.743   6.175   2.175
22004SOL     OW65969   5.875   5.781   3.103
22004SOL    HW165970   5.839   5.810   3.187
22004SOL    HW265971   5.858   5.687   3.101
22005SOL     OW65972   5.636   6.899   3.127
22005SOL    HW165973   5.665   6.842   3.198
22005SOL    HW265974   5.638   6.987   3.164
22006SOL     OW65975   6.297   6.207   2.900
22006SOL    HW165976   6.375   6.201   2.845
22006SOL    HW265977   6.268   6.298   2.890
22007SOL     OW65978   7.337   6.554   3.730
22007SOL    HW165979   7.297   6.481   3.683
22007SOL    HW265980   7.273   6.574   3.799
22008SOL     OW65981   5.911   5.646   2.490
22008SOL    HW165982   5.877   5.734   2.509
22008SOL    HW265983   5.917   5.604   2.576
22009SOL     OW65984   7.218   5.977   2.206
22009SOL    HW165985   7.249   5.911   2.268
22009SOL    HW265986   7.188   6.050   2.260
22010SOL     OW65987   6.620   6.345   2.819
22010SOL    HW165988   6.598   6.359   2.911
22010SOL    HW265989   6.591   6.256   2.801
22011SOL     OW65990   6.567   7.155   3.596
22011SOL    HW165991   6.547   7.196   3.511
22011SOL    HW265992   6.603   7.069   3.572
22012SOL     OW65993   7.424   7.081   3.465
22012SOL    HW165994   7.451   7.109   3.377
22012SOL    HW265995   7.502   7.091   3.519
22013SOL     OW65996   5.936   6.511   3.674
22013SOL    HW165997   6.010   6.525   3.733
22013SOL    HW265998   5.967   6.446   3.611
22014SOL     OW65999   7.108   5.854   1.981
22014SOL    HW166000   7.056   5.784   2.018
22014SOL    HW266001   7.147   5.898   2.056
22015SOL     OW66002   6.866   6.407   1.881
22015SOL    HW166003   6.906   6.321   1.889
22015SOL    HW266004   6.903   6.443   1.800
22016SOL     OW66005   6.655   6.938   2.728
22016SOL    HW166006   6.667   6.865   2.666
22016SOL    HW266007   6.708   7.009   2.690
22017SOL     OW66008   5.904   6.402   2.805
22017SOL    HW166009   5.999   6.416   2.806
22017SOL    HW266010   5.894   6.312   2.836
22018SOL     OW66011   5.898   6.124   2.871
22018SOL    HW166012   5.859   6.037   2.862
22018SOL    HW266013   5.975   6.122   2.815
22019SOL     OW66014   6.726   5.954   3.546
22019SOL    HW166015   6.680   6.005   3.613
22019SOL    HW266016   6.811   5.997   3.539
22020SOL     OW66017   6.743   5.776   3.335
22020SOL    HW166018   6.731   5.838   3.407
22020SOL    HW266019   6.789   5.827   3.267
22021SOL     OW66020   5.610   6.889   2.041
22021SOL    HW166021   5.520   6.911   2.016
22021SOL    HW266022   5.603   6.802   2.082
22022SOL     OW66023   5.677   7.357   2.812
22022SOL    HW166024   5.644   7.282   2.761
22022SOL    HW266025   5.765   7.373   2.776
22023SOL     OW66026   6.071   7.156   2.762
22023SOL    HW166027   6.141   7.216   2.785
22023SOL    HW266028   6.111   7.094   2.701
22024SOL     OW66029   6.534   6.367   3.077
22024SOL    HW166030   6.597   6.355   3.149
22024SOL    HW266031   6.455   6.321   3.107
22025SOL     OW66032   5.626   6.163   2.979
22025SOL    HW166033   5.709   6.157   2.931
22025SOL    HW266034   5.652   6.154   3.071
22026SOL     OW66035   5.771   6.125   3.603
22026SOL    HW166036   5.845   6.094   3.552
22026SOL    HW266037   5.735   6.198   3.553
22027SOL     OW66038   6.978   6.506   3.514
22027SOL    HW166039   6.995   6.600   3.509
22027SOL    HW266040   6.970   6.478   3.422
22028SOL     OW66041   6.404   6.154   2.233
22028SOL    HW166042   6.413   6.080   2.173
22028SOL    HW266043   6.327   6.201   2.202
22029SOL     OW66044   7.221   6.188   3.024
22029SOL    HW166045   7.211   6.129   3.099
22029SOL    HW266046   7.312   6.177   2.997
22030SOL     OW66047   5.811   7.125   3.587
22030SOL    HW166048   5.784   7.169   3.668
22030SOL    HW266049   5.825   7.034   3.614
22031SOL     OW66050   6.320   6.019   3.095
22031SOL    HW166051   6.255   5.950   3.082
22031SOL    HW266052   6.302   6.083   3.026
22032SOL     OW66053   6.497   7.265   3.346
22032SOL    HW166054   6.472   7.218   3.267
22032SOL    HW266055   6.496   7.357   3.321
22033SOL     OW66056   6.028   6.067   2.025
22033SOL    HW166057   6.093   6.133   2.050
22033SOL    HW266058   5.944   6.113   2.029
22034SOL     OW66059   5.716   6.737   3.340
22034SOL    HW166060   5.719   6.697   3.428
22034SOL    HW266061   5.737   6.665   3.281
22035SOL     OW66062   6.891   6.620   3.069
22035SOL    HW166063   6.899   6.556   2.999
22035SOL    HW266064   6.837   6.690   3.032
22036SOL     OW66065   6.912   6.447   2.153
22036SOL    HW166066   6.842   6.412   2.208
22036SOL    HW266067   6.882   6.431   2.063
22037SOL     OW66068   7.373   7.310   3.033
22037SOL    HW166069   7.434   7.335   2.964
22037SOL    HW266070   7.341   7.224   3.006
22038SOL     OW66071   6.825   7.319   2.950
22038SOL    HW166072   6.910   7.349   2.918
22038SOL    HW266073   6.840   7.228   2.976
22039SOL     OW66074   5.691   6.837   2.869
22039SOL    HW166075   5.664   6.857   2.959
22039SOL    HW266076   5.621   6.781   2.835
22040SOL     OW66077   6.274   7.269   3.613
22040SOL    HW166078   6.212   7.340   3.598
22040SOL    HW266079   6.351   7.292   3.561
22041SOL     OW66080   7.329   5.770   2.358
22041SOL    HW166081   7.389   5.750   2.286
22041SOL    HW266082   7.303   5.685   2.392
22042SOL     OW66083   6.983   7.156   2.365
22042SOL    HW166084   7.038   7.191   2.295
22042SOL    HW266085   6.928   7.229   2.392
22043SOL     OW66086   5.717   7.397   3.707
22043SOL    HW166087   5.679   7.319   3.747
22043SOL    HW266088   5.769   7.437   3.777
22044SOL     OW66089   6.864   6.521   2.525
22044SOL    HW166090   6.938   6.462   2.539
22044SOL    HW266091   6.901   6.593   2.474
22045SOL     OW66092   6.369   6.865   3.275
22045SOL    HW166093   6.343   6.914   3.353
22045SOL    HW266094   6.294   6.875   3.215
22046SOL     OW66095   6.254   7.222   2.022
22046SOL    HW166096   6.269   7.236   1.928
22046SOL    HW266097   6.202   7.142   2.026
22047SOL     OW66098   7.202   7.316   3.264
22047SOL    HW166099   7.259   7.316   3.187
22047SOL    HW266100   7.186   7.409   3.282
22048SOL     OW66101   7.431   5.746   2.826
22048SOL    HW166102   7.459   5.657   2.805
22048SOL    HW266103   7.344   5.753   2.788
22049SOL     OW66104   5.829   5.893   2.570
22049SOL    HW166105   5.743   5.929   2.549
22049SOL    HW266106   5.833   5.894   2.666
22050SOL     OW66107   6.795   7.174   1.900
22050SOL    HW166108   6.785   7.083   1.928
22050SOL    HW266109   6.725   7.187   1.836
22051SOL     OW66110   6.409   6.596   3.249
22051SOL    HW166111   6.448   6.587   3.162
22051SOL    HW266112   6.398   6.691   3.260
22052SOL     OW66113   6.505   6.495   2.155
22052SOL    HW166114   6.562   6.529   2.086
22052SOL    HW266115   6.557   6.429   2.199
22053SOL     OW66116   7.069   7.231   1.920
22053SOL    HW166117   6.977   7.211   1.903
22053SOL    HW266118   7.109   7.234   1.833
22054SOL     OW66119   5.948   6.899   3.363
22054SOL    HW166120   5.940   6.972   3.302
22054SOL    HW266121   5.871   6.845   3.347
22055SOL     OW66122   7.186   6.876   3.139
22055SOL    HW166123   7.239   6.851   3.215
22055SOL    HW266124   7.126   6.943   3.173
22056SOL     OW66125   6.662   6.705   2.590
22056SOL    HW166126   6.587   6.655   2.622
22056SOL    HW266127   6.724   6.638   2.561
22057SOL     OW66128   6.619   5.835   2.822
22057SOL    HW166129   6.618   5.792   2.736
22057SOL    HW266130   6.612   5.763   2.884
22058SOL     OW66131   6.190   7.071   2.336
22058SOL    HW166132   6.245   7.023   2.275
22058SOL    HW266133   6.108   7.085   2.289
22059SOL     OW66134   7.330   5.969   3.249
22059SOL    HW166135   7.401   6.033   3.245
22059SOL    HW266136   7.357   5.900   3.188
22060SOL     OW66137   5.865   6.927   2.161
22060SOL    HW166138   5.778   6.919   2.122
22060SOL    HW266139   5.851   6.975   2.242
22061SOL     OW66140   5.705   6.634   3.595
22061SOL    HW166141   5.628   6.605   3.645
22061SOL    HW266142   5.778   6.584   3.632
22062SOL     OW66143   6.265   5.774   3.354
22062SOL    HW166144   6.350   5.748   3.317
22062SOL    HW266145   6.287   5.807   3.441
22063SOL     OW66146   5.672   5.903   1.877
22063SOL    HW166147   5.595   5.882   1.825
22063SOL    HW266148   5.700   5.989   1.844
22064SOL     OW66149   7.001   6.440   3.250
22064SOL    HW166150   6.949   6.498   3.195
22064SOL    HW266151   7.089   6.444   3.212
22065SOL     OW66152   5.630   5.735   2.135
22065SOL    HW166153   5.618   5.805   2.071
22065SOL    HW266154   5.718   5.702   2.118
22066SOL     OW66155   6.769   6.908   1.986
22066SOL    HW166156   6.680   6.875   1.986
22066SOL    HW266157   6.793   6.912   2.078
22067SOL     OW66158   6.212   6.416   3.303
22067SOL    HW166159   6.270   6.491   3.293
22067SOL    HW266160   6.269   6.340   3.302
22068SOL     OW66161   7.073   7.389   2.856
22068SOL    HW166162   7.100   7.463   2.801
22068SOL    HW266163   7.155   7.345   2.878
22069SOL     OW66164   6.312   6.134   3.547
22069SOL    HW166165   6.358   6.187   3.612
22069SOL    HW266166   6.321   6.044   3.579
22070SOL     OW66167   7.054   6.770   3.481
22070SOL    HW166168   7.046   6.792   3.574
22070SOL    HW266169   7.144   6.794   3.458
22071SOL     OW66170   5.941   7.332   3.444
22071SOL    HW166171   5.858   7.378   3.426
22071SOL    HW266172   5.914   7.249   3.483
22072SOL     OW66173   7.241   6.461   3.115
22072SOL    HW166174   7.239   6.378   3.068
22072SOL    HW266175   7.230   6.527   3.046
22073SOL     OW66176   6.807   5.909   2.318
22073SOL    HW166177   6.866   5.834   2.317
22073SOL    HW266178   6.835   5.961   2.393
22074SOL     OW66179   6.163   6.311   2.541
22074SOL    HW166180   6.206   6.395   2.527
22074SOL    HW266181   6.101   6.303   2.468
22075SOL     OW66182   7.333   5.941   3.525
22075SOL    HW166183   7.328   5.958   3.430
22075SOL    HW266184   7.255   5.888   3.543
22076SOL     OW66185   7.346   6.511   3.366
22076SOL    HW166186   7.328   6.604   3.379
22076SOL    HW266187   7.319   6.494   3.275
22077SOL     OW66188   6.453   6.943   1.923
22077SOL    HW166189   6.418   6.960   2.011
22077SOL    HW266190   6.465   7.030   1.885
22078SOL     OW66191   6.254   7.352   2.786
22078SOL    HW166192   6.235   7.446   2.779
22078SOL    HW266193   6.350   7.347   2.786
22079SOL     OW66194   6.458   6.563   2.718
22079SOL    HW166195   6.508   6.490   2.753
22079SOL    HW266196   6.412   6.600   2.793
22080SOL     OW66197   6.659   6.572   1.949
22080SOL    HW166198   6.638   6.625   1.872
22080SOL    HW266199   6.732   6.517   1.920
22081SOL     OW66200   7.416   7.144   2.702
22081SOL    HW166201   7.339   7.136   2.645
22081SOL    HW266202   7.395   7.091   2.779
22082SOL     OW66203   5.800   6.870   3.697
22082SOL    HW166204   5.767   6.791   3.654
22082SOL    HW266205   5.742   6.882   3.773
22083SOL     OW66206   5.704   6.812   2.530
22083SOL    HW166207   5.733   6.771   2.611
22083SOL    HW266208   5.763   6.777   2.463
22084SOL     OW66209   6.275   7.007   3.491
22084SOL    HW166210   6.201   6.965   3.535
22084SOL    HW266211   6.281   7.094   3.530
22085SOL     OW66212   7.397   5.758   3.096
22085SOL    HW166213   7.398   5.663   3.110
22085SOL    HW266214   7.411   5.769   3.002
22086SOL     OW66215   6.002   6.009   2.379
22086SOL    HW166216   6.037   5.937   2.326
22086SOL    HW266217   5.951   5.966   2.448
22087SOL     OW66218   7.281   7.066   2.944
22087SOL    HW166219   7.203   7.047   2.892
22087SOL    HW266220   7.282   6.999   3.012
22088SOL     OW66221   5.937   6.151   3.153
22088SOL    HW166222   5.985   6.086   3.204
22088SOL    HW266223   5.944   6.120   3.062
22089SOL     OW66224   6.424   7.167   2.533
22089SOL    HW166225   6.390   7.235   2.475
22089SOL    HW266226   6.350   7.107   2.545
22090SOL     OW66227   7.008   5.819   2.977
22090SOL    HW166228   7.017   5.730   3.011
22090SOL    HW266229   6.962   5.867   3.046
22091SOL     OW66230   6.597   5.604   2.981
22091SOL    HW166231   6.541   5.542   2.935
22091SOL    HW266232   6.683   5.563   2.983
22092SOL     OW66233   6.367   6.918   2.189
22092SOL    HW166234   6.343   6.826   2.202
22092SOL    HW266235   6.446   6.929   2.242
22093SOL     OW66236   6.201   7.157   3.148
22093SOL    HW166237   6.196   7.240   3.194
22093SOL    HW266238   6.291   7.152   3.117
22094SOL     OW66239   6.967   5.625   2.054
22094SOL    HW166240   7.007   5.552   2.007
22094SOL    HW266241   6.875   5.599   2.064
22095SOL     OW66242   6.884   6.057   2.537
22095SOL    HW166243   6.833   6.138   2.534
22095SOL    HW266244   6.877   6.027   2.627
22096SOL     OW66245   7.168   5.773   2.756
22096SOL    HW166246   7.116   5.803   2.830
22096SOL    HW266247   7.168   5.848   2.695
22097SOL     OW66248   5.623   6.637   2.169
22097SOL    HW166249   5.716   6.625   2.151
22097SOL    HW266250   5.591   6.549   2.189
22098SOL     OW66251   6.482   7.262   2.192
22098SOL    HW166252   6.403   7.246   2.140
22098SOL    HW266253   6.456   7.330   2.254
22099SOL     OW66254   5.795   6.213   3.869
22099SOL    HW166255   5.709   6.198   3.909
22099SOL    HW266256   5.782   6.194   3.776
22100SOL     OW66257   6.164   6.896   4.936
22100SOL    HW166258   6.081   6.893   4.888
22100SOL    HW266259   6.177   6.988   4.958
22101SOL     OW66260   7.173   7.112   4.430
22101SOL    HW166261   7.127   7.077   4.507
22101SOL    HW266262   7.107   7.114   4.361
22102SOL     OW66263   6.729   6.286   4.408
22102SOL    HW166264   6.772   6.370   4.396
22102SOL    HW266265   6.688   6.291   4.494
22103SOL     OW66266   7.388   6.168   3.944
22103SOL    HW166267   7.350   6.167   3.857
22103SOL    HW266268   7.343   6.098   3.991
22104SOL     OW66269   6.324   6.725   4.784
22104SOL    HW166270   6.264   6.760   4.850
22104SOL    HW266271   6.363   6.803   4.743
22105SOL     OW66272   6.470   6.323   5.549
22105SOL    HW166273   6.449   6.391   5.613
22105SOL    HW266274   6.488   6.371   5.469
22106SOL     OW66275   6.268   6.573   4.369
22106SOL    HW166276   6.334   6.571   4.439
22106SOL    HW266277   6.199   6.630   4.403
22107SOL     OW66278   6.298   6.736   5.559
22107SOL    HW166279   6.350   6.810   5.592
22107SOL    HW266280   6.223   6.777   5.517
22108SOL     OW66281   5.926   6.985   4.792
22108SOL    HW166282   5.848   6.948   4.751
22108SOL    HW266283   5.967   7.039   4.724
22109SOL     OW66284   7.038   7.091   5.095
22109SOL    HW166285   7.092   7.169   5.108
22109SOL    HW266286   6.965   7.101   5.156
22110SOL     OW66287   5.968   5.974   5.291
22110SOL    HW166288   6.062   5.957   5.297
22110SOL    HW266289   5.935   5.907   5.231
22111SOL     OW66290   7.167   6.017   4.479
22111SOL    HW166291   7.095   6.024   4.416
22111SOL    HW266292   7.150   6.087   4.542
22112SOL     OW66293   5.801   7.316   4.189
22112SOL    HW166294   5.829   7.386   4.248
22112SOL    HW266295   5.876   7.302   4.131
22113SOL     OW66296   6.723   6.926   5.423
22113SOL    HW166297   6.765   6.915   5.508
22113SOL    HW266298   6.669   6.847   5.412
22114SOL     OW66299   5.823   7.042   4.257
22114SOL    HW166300   5.796   7.134   4.267
22114SOL    HW266301   5.776   6.996   4.326
22115SOL     OW66302   5.857   6.674   4.600
22115SOL    HW166303   5.868   6.584   4.630
22115SOL    HW266304   5.809   6.718   4.671
22116SOL     OW66305   6.157   7.394   5.143
22116SOL    HW166306   6.082   7.371   5.199
22116SOL    HW266307   6.189   7.477   5.180
22117SOL     OW66308   6.151   6.572   3.877
22117SOL    HW166309   6.202   6.615   3.808
22117SOL    HW266310   6.191   6.602   3.958
22118SOL     OW66311   7.182   5.717   5.187
22118SOL    HW166312   7.216   5.796   5.145
22118SOL    HW266313   7.146   5.749   5.270
22119SOL     OW66314   5.728   6.248   4.283
22119SOL    HW166315   5.744   6.155   4.300
22119SOL    HW266316   5.713   6.286   4.369
22120SOL     OW66317   7.432   7.329   4.040
22120SOL    HW166318   7.504   7.314   4.102
22120SOL    HW266319   7.439   7.422   4.018
22121SOL     OW66320   5.647   7.166   3.832
22121SOL    HW166321   5.626   7.075   3.851
22121SOL    HW266322   5.615   7.214   3.909
22122SOL     OW66323   7.285   6.515   4.375
22122SOL    HW166324   7.363   6.467   4.345
22122SOL    HW266325   7.260   6.568   4.299
22123SOL     OW66326   7.243   6.692   4.155
22123SOL    HW166327   7.327   6.682   4.111
22123SOL    HW266328   7.258   6.760   4.220
22124SOL     OW66329   5.710   6.312   5.314
22124SOL    HW166330   5.797   6.350   5.300
22124SOL    HW266331   5.649   6.380   5.284
22125SOL     OW66332   6.210   6.983   4.455
22125SOL    HW166333   6.168   6.897   4.462
22125SOL    HW266334   6.194   7.011   4.365
22126SOL     OW66335   6.856   6.811   5.139
22126SOL    HW166336   6.883   6.742   5.078
22126SOL    HW266337   6.918   6.803   5.212
22127SOL     OW66338   6.417   5.597   4.241
22127SOL    HW166339   6.458   5.680   4.215
22127SOL    HW266340   6.323   5.616   4.243
22128SOL     OW66341   5.778   6.537   5.024
22128SOL    HW166342   5.868   6.507   5.009
22128SOL    HW266343   5.725   6.487   4.963
22129SOL     OW66344   7.121   6.601   3.922
22129SOL    HW166345   7.053   6.541   3.952
22129SOL    HW266346   7.162   6.632   4.003
22130SOL     OW66347   6.767   7.407   5.358
22130SOL    HW166348   6.767   7.468   5.284
22130SOL    HW266349   6.780   7.321   5.317
22131SOL     OW66350   5.924   5.831   5.604
22131SOL    HW166351   5.961   5.918   5.611
22131SOL    HW266352   5.829   5.845   5.600
22132SOL     OW66353   7.058   7.000   4.654
22132SOL    HW166354   6.994   7.020   4.722
22132SOL    HW266355   7.040   6.909   4.629
22133SOL     OW66356   7.222   7.383   4.286
22133SOL    HW166357   7.206   7.336   4.204
22133SOL    HW266358   7.221   7.315   4.353
22134SOL     OW66359   6.178   6.286   3.985
22134SOL    HW166360   6.182   6.375   3.949
22134SOL    HW266361   6.115   6.292   4.057
22135SOL     OW66362   6.869   5.979   4.663
22135SOL    HW166363   6.780   5.946   4.667
22135SOL    HW266364   6.919   5.920   4.720
22136SOL     OW66365   7.165   7.260   4.043
22136SOL    HW166366   7.259   7.274   4.031
22136SOL    HW266367   7.131   7.247   3.954
22137SOL     OW66368   6.399   6.183   5.166
22137SOL    HW166369   6.365   6.154   5.251
22137SOL    HW266370   6.364   6.120   5.103
22138SOL     OW66371   6.976   6.067   5.395
22138SOL    HW166372   6.981   6.109   5.481
22138SOL    HW266373   7.025   5.986   5.405
22139SOL     OW66374   6.529   6.466   5.318
22139SOL    HW166375   6.586   6.407   5.268
22139SOL    HW266376   6.473   6.507   5.252
22140SOL     OW66377   6.580   5.991   4.933
22140SOL    HW166378   6.489   6.006   4.958
22140SOL    HW266379   6.575   5.957   4.843
22141SOL     OW66380   6.642   6.285   4.142
22141SOL    HW166381   6.664   6.280   4.235
22141SOL    HW266382   6.558   6.240   4.135
22142SOL     OW66383   5.675   6.353   4.528
22142SOL    HW166384   5.756   6.372   4.574
22142SOL    HW266385   5.625   6.434   4.532
22143SOL     OW66386   5.697   7.463   5.308
22143SOL    HW166387   5.700   7.448   5.403
22143SOL    HW266388   5.617   7.420   5.279
22144SOL     OW66389   6.474   5.933   3.921
22144SOL    HW166390   6.525   5.987   3.860
22144SOL    HW266391   6.453   5.854   3.871
22145SOL     OW66392   7.276   6.150   5.565
22145SOL    HW166393   7.253   6.227   5.513
22145SOL    HW266394   7.302   6.084   5.500
22146SOL     OW66395   6.981   6.739   4.273
22146SOL    HW166396   7.060   6.727   4.220
22146SOL    HW266397   6.926   6.798   4.222
22147SOL     OW66398   6.216   5.798   4.627
22147SOL    HW166399   6.201   5.839   4.712
22147SOL    HW266400   6.209   5.869   4.564
22148SOL     OW66401   6.584   7.042   4.190
22148SOL    HW166402   6.559   7.117   4.136
22148SOL    HW266403   6.553   7.064   4.278
22149SOL     OW66404   5.939   7.401   4.603
22149SOL    HW166405   5.983   7.316   4.608
22149SOL    HW266406   6.007   7.465   4.626
22150SOL     OW66407   7.391   6.632   4.609
22150SOL    HW166408   7.344   6.613   4.528
22150SOL    HW266409   7.323   6.641   4.676
22151SOL     OW66410   6.800   7.125   5.238
22151SOL    HW166411   6.792   7.057   5.305
22151SOL    HW266412   6.739   7.098   5.169
22152SOL     OW66413   5.884   6.541   3.990
22152SOL    HW166414   5.968   6.561   3.948
22152SOL    HW266415   5.864   6.452   3.963
22153SOL     OW66416   7.072   6.349   4.432
22153SOL    HW166417   7.072   6.305   4.517
22153SOL    HW266418   7.151   6.403   4.433
22154SOL     OW66419   6.060   6.872   5.472
22154SOL    HW166420   6.033   6.878   5.380
22154SOL    HW266421   5.978   6.855   5.519
22155SOL     OW66422   6.726   7.363   3.950
22155SOL    HW166423   6.644   7.333   3.990
22155SOL    HW266424   6.745   7.297   3.883
22156SOL     OW66425   7.225   6.975   3.823
22156SOL    HW166426   7.183   7.060   3.811
22156SOL    HW266427   7.158   6.911   3.797
22157SOL     OW66428   6.043   7.329   4.040
22157SOL    HW166429   6.093   7.378   4.106
22157SOL    HW266430   6.110   7.285   3.987
22158SOL     OW66431   6.982   5.692   4.182
22158SOL    HW166432   6.982   5.667   4.090
22158SOL    HW266433   7.073   5.681   4.210
22159SOL     OW66434   5.843   7.376   4.937
22159SOL    HW166435   5.887   7.300   4.973
22159SOL    HW266436   5.823   7.352   4.846
22160SOL     OW66437   6.532   7.288   4.612
22160SOL    HW166438   6.615   7.245   4.632
22160SOL    HW266439   6.494   7.236   4.542
22161SOL     OW66440   5.990   6.276   4.184
22161SOL    HW166441   6.002   6.183   4.204
22161SOL    HW266442   5.899   6.293   4.205
22162SOL     OW66443   7.088   5.811   5.440
22162SOL    HW166444   7.102   5.827   5.533
22162SOL    HW266445   7.018   5.746   5.437
22163SOL     OW66446   6.250   5.696   3.824
22163SOL    HW166447   6.291   5.616   3.857
22163SOL    HW266448   6.189   5.666   3.756
22164SOL     OW66449   6.347   5.852   5.474
22164SOL    HW166450   6.431   5.807   5.473
22164SOL    HW266451   6.297   5.808   5.543
22165SOL     OW66452   6.456   7.118   4.925
22165SOL    HW166453   6.439   7.075   4.842
22165SOL    HW266454   6.523   7.064   4.967
22166SOL     OW66455   6.904   6.176   5.153
22166SOL    HW166456   6.937   6.148   5.238
22166SOL    HW266457   6.940   6.264   5.142
22167SOL     OW66458   6.405   6.972   4.683
22167SOL    HW166459   6.491   6.962   4.642
22167SOL    HW266460   6.344   6.980   4.610
22168SOL     OW66461   6.517   6.090   4.620
22168SOL    HW166462   6.488   6.087   4.529
22168SOL    HW266463   6.545   6.001   4.640
22169SOL     OW66464   6.151   5.657   4.211
22169SOL    HW166465   6.073   5.662   4.266
22169SOL    HW266466   6.144   5.730   4.150
22170SOL     OW66467   7.021   6.798   3.756
22170SOL    HW166468   7.050   6.724   3.809
22170SOL    HW266469   6.936   6.821   3.793
22171SOL     OW66470   5.880   5.632   3.901
22171SOL    HW166471   5.937   5.701   3.865
22171SOL    HW266472   5.940   5.575   3.949
22172SOL     OW66473   6.537   5.837   4.174
22172SOL    HW166474   6.511   5.872   4.088
22172SOL    HW266475   6.631   5.855   4.180
22173SOL     OW66476   6.648   6.293   5.142
22173SOL    HW166477   6.573   6.234   5.151
22173SOL    HW266478   6.725   6.236   5.144
22174SOL     OW66479   6.793   7.169   4.523
22174SOL    HW166480   6.808   7.231   4.452
22174SOL    HW266481   6.865   7.185   4.584
22175SOL     OW66482   6.063   6.750   4.435
22175SOL    HW166483   6.003   6.722   4.504
22175SOL    HW266484   6.012   6.741   4.354
22176SOL     OW66485   6.838   7.377   4.341
22176SOL    HW166486   6.886   7.441   4.288
22176SOL    HW266487   6.766   7.427   4.379
22177SOL     OW66488   6.618   6.100   3.753
22177SOL    HW166489   6.575   6.183   3.736
22177SOL    HW266490   6.680   6.119   3.824
22178SOL     OW66491   6.461   6.042   4.356
22178SOL    HW166492   6.416   6.100   4.295
22178SOL    HW266493   6.482   5.965   4.305
22179SOL     OW66494   6.610   5.636   4.463
22179SOL    HW166495   6.547   5.635   4.391
22179SOL    HW266496   6.580   5.568   4.523
22180SOL     OW66497   7.014   6.736   4.579
22180SOL    HW166498   6.949   6.668   4.595
22180SOL    HW266499   7.019   6.742   4.483
22181SOL     OW66500   7.050   6.202   4.670
22181SOL    HW166501   6.983   6.134   4.681
22181SOL    HW266502   7.104   6.196   4.749
22182SOL     OW66503   7.418   6.384   4.112
22182SOL    HW166504   7.477   6.339   4.172
22182SOL    HW266505   7.402   6.319   4.042
22183SOL     OW66506   6.084   7.011   3.875
22183SOL    HW166507   6.008   6.979   3.924
22183SOL    HW266508   6.082   6.961   3.794
22184SOL     OW66509   7.297   6.866   4.347
22184SOL    HW166510   7.389   6.859   4.372
22184SOL    HW266511   7.270   6.953   4.378
22185SOL     OW66512   6.977   6.161   3.792
22185SOL    HW166513   6.919   6.136   3.863
22185SOL    HW266514   7.065   6.137   3.822
22186SOL     OW66515   6.127   5.852   4.026
22186SOL    HW166516   6.177   5.811   3.955
22186SOL    HW266517   6.087   5.929   3.985
22187SOL     OW66518   7.321   6.831   5.256
22187SOL    HW166519   7.409   6.796   5.242
22187SOL    HW266520   7.335   6.917   5.294
22188SOL     OW66521   6.630   6.950   5.068
22188SOL    HW166522   6.551   6.909   5.105
22188SOL    HW266523   6.702   6.898   5.101
22189SOL     OW66524   7.194   7.221   5.397
22189SOL    HW166525   7.182   7.256   5.309
22189SOL    HW266526   7.272   7.165   5.390
22190SOL     OW66527   6.738   6.827   4.827
22190SOL    HW166528   6.667   6.848   4.888
22190SOL    HW266529   6.705   6.853   4.741
22191SOL     OW66530   7.198   6.679   4.800
22191SOL    HW166531   7.190   6.744   4.869
22191SOL    HW266532   7.125   6.697   4.740
22192SOL     OW66533   6.513   5.663   5.110
22192SOL    HW166534   6.532   5.651   5.017
22192SOL    HW266535   6.592   5.705   5.145
22193SOL     OW66536   6.566   6.700   5.450
22193SOL    HW166537   6.476   6.716   5.476
22193SOL    HW266538   6.561   6.620   5.398
22194SOL     OW66539   6.300   6.648   4.101
22194SOL    HW166540   6.285   6.622   4.192
22194SOL    HW266541   6.373   6.593   4.072
22195SOL     OW66542   6.019   6.421   4.966
22195SOL    HW166543   6.083   6.397   5.033
22195SOL    HW266544   5.996   6.338   4.924
22196SOL     OW66545   6.839   5.954   5.010
22196SOL    HW166546   6.866   6.035   5.054
22196SOL    HW266547   6.749   5.972   4.981
22197SOL     OW66548   5.663   7.154   5.089
22197SOL    HW166549   5.630   7.222   5.030
22197SOL    HW266550   5.758   7.154   5.076
22198SOL     OW66551   5.900   6.720   4.211
22198SOL    HW166552   5.902   6.790   4.146
22198SOL    HW266553   5.898   6.639   4.158
22199SOL     OW66554   6.151   6.056   4.521
22199SOL    HW166555   6.172   6.140   4.480
22199SOL    HW266556   6.140   6.077   4.614
22200SOL     OW66557   6.834   6.941   4.123
22200SOL    HW166558   6.890   7.010   4.158
22200SOL    HW266559   6.746   6.964   4.153
22201SOL     OW66560   6.894   7.056   4.863
22201SOL    HW166561   6.940   7.060   4.947
22201SOL    HW266562   6.840   6.976   4.869
22202SOL     OW66563   7.158   6.206   4.205
22202SOL    HW166564   7.109   6.242   4.278
22202SOL    HW266565   7.201   6.281   4.164
22203SOL     OW66566   5.929   7.120   5.024
22203SOL    HW166567   5.922   7.067   4.945
22203SOL    HW266568   6.023   7.137   5.034
22204SOL     OW66569   6.004   6.339   5.332
22204SOL    HW166570   6.072   6.368   5.271
22204SOL    HW266571   6.022   6.246   5.345
22205SOL     OW66572   7.214   6.372   5.422
22205SOL    HW166573   7.126   6.409   5.413
22205SOL    HW266574   7.264   6.409   5.349
22206SOL     OW66575   6.585   5.725   5.485
22206SOL    HW166576   6.642   5.799   5.465
22206SOL    HW266577   6.638   5.648   5.464
22207SOL     OW66578   6.070   5.624   5.494
22207SOL    HW166579   6.025   5.578   5.424
22207SOL    HW266580   6.010   5.692   5.522
22208SOL     OW66581   6.132   6.525   4.732
22208SOL    HW166582   6.205   6.584   4.750
22208SOL    HW266583   6.105   6.492   4.818
22209SOL     OW66584   6.902   6.442   4.722
22209SOL    HW166585   6.814   6.413   4.701
22209SOL    HW266586   6.958   6.366   4.706
22210SOL     OW66587   6.782   6.110   3.981
22210SOL    HW166588   6.793   6.034   4.038
22210SOL    HW266589   6.740   6.176   4.037
22211SOL     OW66590   5.640   6.897   4.984
22211SOL    HW166591   5.666   6.837   5.054
22211SOL    HW266592   5.639   6.983   5.025
22212SOL     OW66593   6.358   6.252   4.789
22212SOL    HW166594   6.401   6.192   4.728
22212SOL    HW266595   6.267   6.222   4.792
22213SOL     OW66596   7.337   6.554   5.594
22213SOL    HW166597   7.298   6.482   5.544
22213SOL    HW266598   7.273   6.574   5.662
22214SOL     OW66599   5.911   5.680   4.341
22214SOL    HW166600   5.869   5.765   4.352
22214SOL    HW266601   5.917   5.645   4.430
22215SOL     OW66602   7.219   5.977   4.068
22215SOL    HW166603   7.249   5.912   4.131
22215SOL    HW266604   7.188   6.050   4.121
22216SOL     OW66605   6.648   6.330   4.676
22216SOL    HW166606   6.617   6.366   4.759
22216SOL    HW266607   6.603   6.245   4.669
22217SOL     OW66608   6.569   7.151   5.463
22217SOL    HW166609   6.543   7.196   5.383
22217SOL    HW266610   6.606   7.068   5.432
22218SOL     OW66611   7.424   7.081   5.328
22218SOL    HW166612   7.451   7.109   5.240
22218SOL    HW266613   7.503   7.092   5.381
22219SOL     OW66614   5.935   6.509   5.536
22219SOL    HW166615   6.016   6.520   5.587
22219SOL    HW266616   5.959   6.448   5.467
22220SOL     OW66617   7.110   5.854   3.843
22220SOL    HW166618   7.057   5.784   3.880
22220SOL    HW266619   7.149   5.898   3.919
22221SOL     OW66620   6.865   6.408   3.744
22221SOL    HW166621   6.905   6.321   3.752
22221SOL    HW266622   6.902   6.443   3.663
22222SOL     OW66623   6.654   6.936   4.587
22222SOL    HW166624   6.664   6.861   4.527
22222SOL    HW266625   6.707   7.005   4.547
22223SOL     OW66626   5.898   6.401   4.670
22223SOL    HW166627   5.986   6.437   4.668
22223SOL    HW266628   5.904   6.324   4.727
22224SOL     OW66629   6.726   5.952   5.412
22224SOL    HW166630   6.678   6.003   5.478
22224SOL    HW266631   6.809   5.999   5.401
22225SOL     OW66632   6.747   5.776   5.199
22225SOL    HW166633   6.734   5.838   5.271
22225SOL    HW266634   6.786   5.828   5.129
22226SOL     OW66635   5.610   6.888   3.902
22226SOL    HW166636   5.521   6.911   3.877
22226SOL    HW266637   5.602   6.802   3.943
22227SOL     OW66638   5.678   7.353   4.676
22227SOL    HW166639   5.647   7.277   4.628
22227SOL    HW266640   5.765   7.371   4.639
22228SOL     OW66641   6.071   7.155   4.624
22228SOL    HW166642   6.141   7.216   4.647
22228SOL    HW266643   6.111   7.093   4.564
22229SOL     OW66644   6.539   6.416   4.916
22229SOL    HW166645   6.578   6.375   4.993
22229SOL    HW266646   6.466   6.359   4.892
22230SOL     OW66647   5.784   6.095   5.462
22230SOL    HW166648   5.848   6.054   5.403
22230SOL    HW266649   5.749   6.169   5.412
22231SOL     OW66650   6.978   6.505   5.375
22231SOL    HW166651   6.995   6.599   5.369
22231SOL    HW266652   6.968   6.476   5.284
22232SOL     OW66653   6.406   6.154   4.091
22232SOL    HW166654   6.413   6.078   4.033
22232SOL    HW266655   6.329   6.201   4.059
22233SOL     OW66656   7.220   6.190   4.887
22233SOL    HW166657   7.207   6.130   4.961
22233SOL    HW266658   7.311   6.176   4.860
22234SOL     OW66659   5.811   7.127   5.455
22234SOL    HW166660   5.780   7.163   5.538
22234SOL    HW266661   5.828   7.034   5.473
22235SOL     OW66662   6.303   6.008   4.982
22235SOL    HW166663   6.254   5.936   5.022
22235SOL    HW266664   6.244   6.042   4.914
22236SOL     OW66665   6.475   7.274   5.227
22236SOL    HW166666   6.463   7.220   5.149
22236SOL    HW266667   6.483   7.363   5.193
22237SOL     OW66668   6.030   6.070   3.883
22237SOL    HW166669   6.095   6.137   3.906
22237SOL    HW266670   5.946   6.115   3.888
22238SOL     OW66671   5.714   6.732   5.200
22238SOL    HW166672   5.720   6.693   5.287
22238SOL    HW266673   5.739   6.661   5.141
22239SOL     OW66674   6.894   6.623   4.928
22239SOL    HW166675   6.901   6.558   4.858
22239SOL    HW266676   6.838   6.692   4.892
22240SOL     OW66677   6.913   6.447   4.016
22240SOL    HW166678   6.844   6.413   4.073
22240SOL    HW266679   6.882   6.430   3.927
22241SOL     OW66680   7.374   7.308   4.897
22241SOL    HW166681   7.435   7.334   4.828
22241SOL    HW266682   7.340   7.223   4.869
22242SOL     OW66683   6.824   7.321   4.814
22242SOL    HW166684   6.909   7.350   4.781
22242SOL    HW266685   6.839   7.229   4.838
22243SOL     OW66686   5.673   6.870   4.716
22243SOL    HW166687   5.653   6.876   4.809
22243SOL    HW266688   5.618   6.798   4.684
22244SOL     OW66689   6.276   7.269   5.468
22244SOL    HW166690   6.213   7.339   5.456
22244SOL    HW266691   6.345   7.287   5.404
22245SOL     OW66692   7.329   5.769   4.222
22245SOL    HW166693   7.388   5.749   4.149
22245SOL    HW266694   7.302   5.684   4.255
22246SOL     OW66695   6.984   7.156   4.227
22246SOL    HW166696   7.038   7.191   4.157
22246SOL    HW266697   6.928   7.230   4.254
22247SOL     OW66698   5.709   7.405   5.569
22247SOL    HW166699   5.676   7.323   5.606
22247SOL    HW266700   5.763   7.442   5.639
22248SOL     OW66701   6.865   6.520   4.383
22248SOL    HW166702   6.939   6.461   4.397
22248SOL    HW266703   6.901   6.593   4.334
22249SOL     OW66704   6.372   6.861   5.131
22249SOL    HW166705   6.344   6.907   5.210
22249SOL    HW266706   6.298   6.869   5.071
22250SOL     OW66707   6.254   7.223   3.885
22250SOL    HW166708   6.268   7.236   3.791
22250SOL    HW266709   6.202   7.142   3.890
22251SOL     OW66710   7.200   7.315   5.127
22251SOL    HW166711   7.257   7.314   5.050
22251SOL    HW266712   7.185   7.407   5.145
22252SOL     OW66713   7.432   5.745   4.689
22252SOL    HW166714   7.458   5.656   4.667
22252SOL    HW266715   7.343   5.753   4.652
22253SOL     OW66716   6.795   7.173   3.763
22253SOL    HW166717   6.784   7.083   3.792
22253SOL    HW266718   6.725   7.186   3.699
22254SOL     OW66719   6.400   6.585   5.109
22254SOL    HW166720   6.444   6.564   5.026
22254SOL    HW266721   6.395   6.680   5.110
22255SOL     OW66722   6.503   6.495   4.010
22255SOL    HW166723   6.564   6.532   3.947
22255SOL    HW266724   6.554   6.429   4.057
22256SOL     OW66725   7.069   7.232   3.782
22256SOL    HW166726   6.977   7.211   3.766
22256SOL    HW266727   7.109   7.235   3.695
22257SOL     OW66728   5.943   6.904   5.229
22257SOL    HW166729   5.937   6.973   5.164
22257SOL    HW266730   5.870   6.845   5.208
22258SOL     OW66731   7.188   6.877   5.002
22258SOL    HW166732   7.239   6.851   5.079
22258SOL    HW266733   7.126   6.942   5.035
22259SOL     OW66734   6.661   6.698   4.458
22259SOL    HW166735   6.586   6.649   4.492
22259SOL    HW266736   6.722   6.630   4.427
22260SOL     OW66737   6.623   5.834   4.680
22260SOL    HW166738   6.620   5.786   4.597
22260SOL    HW266739   6.614   5.765   4.747
22261SOL     OW66740   6.190   7.071   4.198
22261SOL    HW166741   6.245   7.022   4.137
22261SOL    HW266742   6.106   7.079   4.154
22262SOL     OW66743   7.332   5.966   5.115
22262SOL    HW166744   7.402   6.031   5.109
22262SOL    HW266745   7.359   5.898   5.053
22263SOL     OW66746   5.865   6.927   4.021
22263SOL    HW166747   5.777   6.919   3.984
22263SOL    HW266748   5.852   6.975   4.103
22264SOL     OW66749   5.704   6.635   5.458
22264SOL    HW166750   5.627   6.605   5.506
22264SOL    HW266751   5.776   6.581   5.491
22265SOL     OW66752   6.280   5.788   5.202
22265SOL    HW166753   6.363   5.753   5.170
22265SOL    HW266754   6.298   5.814   5.292
22266SOL     OW66755   5.683   5.904   3.742
22266SOL    HW166756   5.597   5.880   3.709
22266SOL    HW266757   5.702   5.988   3.701
22267SOL     OW66758   6.996   6.438   5.111
22267SOL    HW166759   6.944   6.496   5.056
22267SOL    HW266760   7.084   6.443   5.073
22268SOL     OW66761   5.641   5.727   3.992
22268SOL    HW166762   5.631   5.810   3.946
22268SOL    HW266763   5.729   5.696   3.966
22269SOL     OW66764   6.771   6.907   3.849
22269SOL    HW166765   6.685   6.866   3.850
22269SOL    HW266766   6.796   6.912   3.941
22270SOL     OW66767   6.214   6.389   5.159
22270SOL    HW166768   6.265   6.468   5.144
22270SOL    HW266769   6.278   6.318   5.159
22271SOL     OW66770   7.072   7.391   4.719
22271SOL    HW166771   7.100   7.464   4.663
22271SOL    HW266772   7.152   7.341   4.736
22272SOL     OW66773   6.306   6.120   5.412
22272SOL    HW166774   6.350   6.177   5.475
22272SOL    HW266775   6.321   6.032   5.445
22273SOL     OW66776   7.054   6.769   5.343
22273SOL    HW166777   7.046   6.791   5.435
22273SOL    HW266778   7.144   6.793   5.319
22274SOL     OW66779   5.942   7.331   5.308
22274SOL    HW166780   5.860   7.376   5.289
22274SOL    HW266781   5.915   7.249   5.349
22275SOL     OW66782   7.239   6.461   4.977
22275SOL    HW166783   7.236   6.377   4.931
22275SOL    HW266784   7.228   6.527   4.908
22276SOL     OW66785   6.806   5.910   4.178
22276SOL    HW166786   6.865   5.834   4.178
22276SOL    HW266787   6.835   5.961   4.254
22277SOL     OW66788   6.187   6.297   4.384
22277SOL    HW166789   6.221   6.387   4.387
22277SOL    HW266790   6.118   6.299   4.318
22278SOL     OW66791   7.331   5.940   5.390
22278SOL    HW166792   7.328   5.955   5.296
22278SOL    HW266793   7.252   5.888   5.408
22279SOL     OW66794   7.347   6.509   5.226
22279SOL    HW166795   7.329   6.602   5.240
22279SOL    HW266796   7.318   6.491   5.137
22280SOL     OW66797   6.447   6.943   3.785
22280SOL    HW166798   6.416   6.957   3.874
22280SOL    HW266799   6.461   7.032   3.751
22281SOL     OW66800   6.254   7.353   4.649
22281SOL    HW166801   6.236   7.446   4.641
22281SOL    HW266802   6.349   7.346   4.647
22282SOL     OW66803   6.450   6.565   4.583
22282SOL    HW166804   6.473   6.478   4.616
22282SOL    HW266805   6.409   6.608   4.658
22283SOL     OW66806   6.667   6.582   3.814
22283SOL    HW166807   6.641   6.629   3.735
22283SOL    HW266808   6.736   6.523   3.785
22284SOL     OW66809   7.415   7.146   4.565
22284SOL    HW166810   7.338   7.137   4.508
22284SOL    HW266811   7.395   7.091   4.641
22285SOL     OW66812   5.798   6.869   5.560
22285SOL    HW166813   5.767   6.790   5.516
22285SOL    HW266814   5.738   6.881   5.634
22286SOL     OW66815   5.706   6.819   4.392
22286SOL    HW166816   5.728   6.774   4.474
22286SOL    HW266817   5.763   6.779   4.327
22287SOL     OW66818   6.278   7.002   5.351
22287SOL    HW166819   6.202   6.962   5.393
22287SOL    HW266820   6.283   7.090   5.388
22288SOL     OW66821   7.401   5.758   4.959
22288SOL    HW166822   7.398   5.663   4.972
22288SOL    HW266823   7.413   5.769   4.865
22289SOL     OW66824   6.030   6.020   4.257
22289SOL    HW166825   6.075   5.951   4.208
22289SOL    HW266826   6.066   6.014   4.346
22290SOL     OW66827   7.279   7.066   4.807
22290SOL    HW166828   7.202   7.046   4.754
22290SOL    HW266829   7.279   6.999   4.876
22291SOL     OW66830   6.422   7.162   4.397
22291SOL    HW166831   6.383   7.225   4.335
22291SOL    HW266832   6.352   7.099   4.414
22292SOL     OW66833   7.004   5.818   4.840
22292SOL    HW166834   7.006   5.728   4.871
22292SOL    HW266835   6.954   5.865   4.907
22293SOL     OW66836   6.597   5.605   4.844
22293SOL    HW166837   6.536   5.546   4.799
22293SOL    HW266838   6.681   5.559   4.842
22294SOL     OW66839   6.368   6.916   4.052
22294SOL    HW166840   6.343   6.825   4.066
22294SOL    HW266841   6.447   6.928   4.105
22295SOL     OW66842   6.200   7.160   5.009
22295SOL    HW166843   6.195   7.245   5.055
22295SOL    HW266844   6.290   7.155   4.978
22296SOL     OW66845   6.967   5.626   3.915
22296SOL    HW166846   7.007   5.552   3.868
22296SOL    HW266847   6.875   5.600   3.926
22297SOL     OW66848   6.889   6.055   4.397
22297SOL    HW166849   6.837   6.136   4.393
22297SOL    HW266850   6.879   6.025   4.488
22298SOL     OW66851   7.168   5.774   4.621
22298SOL    HW166852   7.115   5.803   4.695
22298SOL    HW266853   7.167   5.848   4.560
22299SOL     OW66854   5.621   6.634   4.030
22299SOL    HW166855   5.714   6.622   4.011
22299SOL    HW266856   5.590   6.547   4.054
22300SOL     OW66857   6.482   7.263   4.056
22300SOL    HW166858   6.403   7.247   4.004
22300SOL    HW266859   6.457   7.331   4.118
22301SOL     OW66860   5.798   6.204   5.724
22301SOL    HW166861   5.709   6.194   5.760
22301SOL    HW266862   5.789   6.183   5.631
22302SOL     OW66863   5.804   5.875   6.577
22302SOL    HW166864   5.835   5.838   6.660
22302SOL    HW266865   5.717   5.837   6.565
22303SOL     OW66866   5.577   5.984   6.237
22303SOL    HW166867   5.496   6.010   6.282
22303SOL    HW266868   5.551   5.908   6.185
22304SOL     OW66869   6.161   6.894   6.796
22304SOL    HW166870   6.079   6.897   6.746
22304SOL    HW266871   6.177   6.986   6.819
22305SOL     OW66872   7.175   7.112   6.291
22305SOL    HW166873   7.128   7.079   6.367
22305SOL    HW266874   7.109   7.115   6.221
22306SOL     OW66875   6.725   6.289   6.272
22306SOL    HW166876   6.771   6.373   6.260
22306SOL    HW266877   6.676   6.300   6.353
22307SOL     OW66878   7.387   6.169   5.808
22307SOL    HW166879   7.349   6.168   5.720
22307SOL    HW266880   7.343   6.097   5.853
22308SOL     OW66881   6.313   6.716   6.645
22308SOL    HW166882   6.255   6.757   6.709
22308SOL    HW266883   6.355   6.790   6.600
22309SOL     OW66884   6.474   6.328   7.414
22309SOL    HW166885   6.465   6.396   7.481
22309SOL    HW266886   6.490   6.376   7.333
22310SOL     OW66887   6.272   6.572   6.231
22310SOL    HW166888   6.339   6.572   6.299
22310SOL    HW266889   6.206   6.634   6.262
22311SOL     OW66890   6.298   6.736   7.420
22311SOL    HW166891   6.350   6.809   7.454
22311SOL    HW266892   6.222   6.778   7.379
22312SOL     OW66893   5.928   6.983   6.655
22312SOL    HW166894   5.853   6.941   6.615
22312SOL    HW266895   5.965   7.037   6.586
22313SOL     OW66896   7.039   7.091   6.958
22313SOL    HW166897   7.094   7.169   6.971
22313SOL    HW266898   6.967   7.102   7.020
22314SOL     OW66899   6.045   5.962   7.043
22314SOL    HW166900   6.119   5.903   7.057
22314SOL    HW266901   5.968   5.910   7.068
22315SOL     OW66902   7.170   6.018   6.341
22315SOL    HW166903   7.102   6.027   6.274
22315SOL    HW266904   7.152   6.089   6.403
22316SOL     OW66905   5.803   7.315   6.050
22316SOL    HW166906   5.831   7.386   6.108
22316SOL    HW266907   5.877   7.303   5.990
22317SOL     OW66908   6.721   6.927   7.283
22317SOL    HW166909   6.766   6.916   7.367
22317SOL    HW266910   6.668   6.848   7.274
22318SOL     OW66911   5.819   7.044   6.119
22318SOL    HW166912   5.797   7.137   6.122
22318SOL    HW266913   5.769   7.004   6.189
22319SOL     OW66914   5.870   6.676   6.466
22319SOL    HW166915   5.871   6.587   6.499
22319SOL    HW266916   5.813   6.724   6.526
22320SOL     OW66917   6.159   7.390   7.007
22320SOL    HW166918   6.083   7.370   7.062
22320SOL    HW266919   6.192   7.474   7.041
22321SOL     OW66920   6.155   6.574   5.741
22321SOL    HW166921   6.204   6.617   5.671
22321SOL    HW266922   6.196   6.605   5.822
22322SOL     OW66923   7.179   5.717   7.047
22322SOL    HW166924   7.216   5.794   7.003
22322SOL    HW266925   7.146   5.751   7.130
22323SOL     OW66926   5.706   6.244   6.154
22323SOL    HW166927   5.674   6.156   6.176
22323SOL    HW266928   5.699   6.293   6.236
22324SOL     OW66929   7.432   7.329   5.902
22324SOL    HW166930   7.504   7.314   5.964
22324SOL    HW266931   7.439   7.422   5.880
22325SOL     OW66932   5.652   7.168   5.694
22325SOL    HW166933   5.631   7.076   5.712
22325SOL    HW266934   5.619   7.216   5.769
22326SOL     OW66935   7.285   6.513   6.237
22326SOL    HW166936   7.362   6.465   6.207
22326SOL    HW266937   7.260   6.567   6.161
22327SOL     OW66938   7.242   6.692   6.018
22327SOL    HW166939   7.327   6.683   5.975
22327SOL    HW266940   7.256   6.758   6.086
22328SOL     OW66941   5.706   6.335   7.164
22328SOL    HW166942   5.791   6.379   7.166
22328SOL    HW266943   5.643   6.405   7.149
22329SOL     OW66944   6.208   6.984   6.317
22329SOL    HW166945   6.166   6.898   6.322
22329SOL    HW266946   6.192   7.013   6.227
22330SOL     OW66947   6.856   6.811   7.004
22330SOL    HW166948   6.883   6.742   6.943
22330SOL    HW266949   6.918   6.805   7.076
22331SOL     OW66950   6.419   5.596   6.107
22331SOL    HW166951   6.460   5.676   6.077
22331SOL    HW266952   6.325   5.615   6.106
22332SOL     OW66953   5.773   6.542   6.887
22332SOL    HW166954   5.860   6.507   6.871
22332SOL    HW266955   5.719   6.508   6.815
22333SOL     OW66956   7.121   6.600   5.785
22333SOL    HW166957   7.053   6.540   5.814
22333SOL    HW266958   7.162   6.631   5.866
22334SOL     OW66959   6.766   7.407   7.221
22334SOL    HW166960   6.766   7.469   7.148
22334SOL    HW266961   6.781   7.322   7.181
22335SOL     OW66962   5.945   5.839   7.463
22335SOL    HW166963   5.981   5.919   7.500
22335SOL    HW266964   5.850   5.854   7.458
22336SOL     OW66965   7.058   7.004   6.515
22336SOL    HW166966   6.994   7.023   6.584
22336SOL    HW266967   7.040   6.914   6.490
22337SOL     OW66968   7.222   7.383   6.147
22337SOL    HW166969   7.206   7.337   6.065
22337SOL    HW266970   7.223   7.315   6.214
22338SOL     OW66971   6.177   6.299   5.866
22338SOL    HW166972   6.174   6.385   5.823
22338SOL    HW266973   6.111   6.305   5.935
22339SOL     OW66974   6.868   5.980   6.527
22339SOL    HW166975   6.779   5.945   6.531
22339SOL    HW266976   6.920   5.921   6.582
22340SOL     OW66977   7.165   7.260   5.905
22340SOL    HW166978   7.259   7.274   5.893
22340SOL    HW266979   7.131   7.248   5.817
22341SOL     OW66980   6.377   6.198   7.018
22341SOL    HW166981   6.353   6.169   7.106
22341SOL    HW266982   6.352   6.125   6.961
22342SOL     OW66983   6.977   6.064   7.259
22342SOL    HW166984   6.982   6.107   7.345
22342SOL    HW266985   7.027   5.983   7.270
22343SOL     OW66986   6.530   6.467   7.179
22343SOL    HW166987   6.586   6.403   7.134
22343SOL    HW266988   6.481   6.509   7.108
22344SOL     OW66989   6.594   5.983   6.795
22344SOL    HW166990   6.502   5.996   6.817
22344SOL    HW266991   6.592   5.941   6.709
22345SOL     OW66992   6.646   6.284   6.004
22345SOL    HW166993   6.666   6.280   6.097
22345SOL    HW266994   6.560   6.242   5.996
22346SOL     OW66995   5.678   6.406   6.372
22346SOL    HW166996   5.761   6.403   6.421
22346SOL    HW266997   5.631   6.480   6.411
22347SOL     OW66998   5.696   7.465   7.172
22347SOL    HW166999   5.702   7.446   7.266
22347SOL    HW267000   5.612   7.428   7.146
22348SOL     OW67001   6.468   5.939   5.788
22348SOL    HW167002   6.522   5.988   5.727
22348SOL    HW267003   6.431   5.868   5.736
22349SOL     OW67004   7.272   6.149   7.426
22349SOL    HW167005   7.251   6.226   7.374
22349SOL    HW267006   7.301   6.084   7.362
22350SOL     OW67007   6.979   6.736   6.130
22350SOL    HW167008   7.058   6.724   6.077
22350SOL    HW267009   6.925   6.796   6.080
22351SOL     OW67010   6.137   5.746   6.499
22351SOL    HW167011   6.143   5.777   6.589
22351SOL    HW267012   6.133   5.826   6.446
22352SOL     OW67013   6.585   7.043   6.052
22352SOL    HW167014   6.560   7.117   5.996
22352SOL    HW267015   6.554   7.067   6.139
22353SOL     OW67016   5.940   7.402   6.466
22353SOL    HW167017   5.985   7.317   6.470
22353SOL    HW267018   6.007   7.466   6.487
22354SOL     OW67019   7.391   6.630   6.473
22354SOL    HW167020   7.344   6.613   6.391
22354SOL    HW267021   7.322   6.638   6.539
22355SOL     OW67022   6.803   7.128   7.102
22355SOL    HW167023   6.792   7.058   7.166
22355SOL    HW267024   6.737   7.109   7.034
22356SOL     OW67025   5.886   6.546   5.847
22356SOL    HW167026   5.969   6.568   5.804
22356SOL    HW267027   5.861   6.462   5.808
22357SOL     OW67028   7.071   6.350   6.297
22357SOL    HW167029   7.073   6.306   6.382
22357SOL    HW267030   7.151   6.403   6.295
22358SOL     OW67031   6.058   6.871   7.334
22358SOL    HW167032   6.034   6.875   7.242
22358SOL    HW267033   5.975   6.858   7.380
22359SOL     OW67034   6.726   7.361   5.814
22359SOL    HW167035   6.643   7.331   5.852
22359SOL    HW267036   6.746   7.296   5.746
22360SOL     OW67037   5.795   5.843   7.084
22360SOL    HW167038   5.722   5.903   7.096
22360SOL    HW267039   5.764   5.759   7.118
22361SOL     OW67040   7.225   6.975   5.687
22361SOL    HW167041   7.183   7.061   5.673
22361SOL    HW267042   7.159   6.912   5.660
22362SOL     OW67043   6.044   7.327   5.900
22362SOL    HW167044   6.095   7.377   5.965
22362SOL    HW267045   6.111   7.286   5.845
22363SOL     OW67046   6.983   5.690   6.044
22363SOL    HW167047   6.981   5.667   5.952
22363SOL    HW267048   7.074   5.678   6.071
22364SOL     OW67049   5.839   7.375   6.800
22364SOL    HW167050   5.886   7.299   6.834
22364SOL    HW267051   5.822   7.354   6.708
22365SOL     OW67052   6.534   7.288   6.474
22365SOL    HW167053   6.620   7.247   6.487
22365SOL    HW267054   6.494   7.238   6.404
22366SOL     OW67055   5.982   6.273   6.063
22366SOL    HW167056   5.997   6.179   6.074
22366SOL    HW267057   5.888   6.284   6.078
22367SOL     OW67058   7.093   5.810   7.303
22367SOL    HW167059   7.105   5.828   7.396
22367SOL    HW267060   7.026   5.741   7.301
22368SOL     OW67061   6.248   5.694   5.686
22368SOL    HW167062   6.300   5.615   5.702
22368SOL    HW267063   6.182   5.667   5.622
22369SOL     OW67064   6.346   5.859   7.339
22369SOL    HW167065   6.430   5.814   7.337
22369SOL    HW267066   6.299   5.820   7.412
22370SOL     OW67067   6.454   7.113   6.786
22370SOL    HW167068   6.437   7.072   6.701
22370SOL    HW267069   6.522   7.059   6.825
22371SOL     OW67070   6.914   6.177   7.018
22371SOL    HW167071   6.947   6.147   7.103
22371SOL    HW267072   6.953   6.264   7.007
22372SOL     OW67073   6.401   6.963   6.543
22372SOL    HW167074   6.489   6.958   6.504
22372SOL    HW267075   6.343   6.978   6.468
22373SOL     OW67076   6.517   6.102   6.472
22373SOL    HW167077   6.492   6.090   6.381
22373SOL    HW267078   6.543   6.014   6.501
22374SOL     OW67079   6.155   5.653   6.077
22374SOL    HW167080   6.075   5.652   6.130
22374SOL    HW267081   6.144   5.727   6.018
22375SOL     OW67082   7.022   6.799   5.618
22375SOL    HW167083   7.051   6.724   5.670
22375SOL    HW267084   6.936   6.821   5.653
22376SOL     OW67085   5.876   5.653   5.812
22376SOL    HW167086   5.919   5.717   5.755
22376SOL    HW267087   5.946   5.596   5.842
22377SOL     OW67088   6.539   5.835   6.036
22377SOL    HW167089   6.511   5.870   5.951
22377SOL    HW267090   6.632   5.853   6.040
22378SOL     OW67091   6.660   6.280   7.030
22378SOL    HW167092   6.596   6.209   7.034
22378SOL    HW267093   6.745   6.236   7.026
22379SOL     OW67094   6.791   7.175   6.390
22379SOL    HW167095   6.806   7.234   6.316
22379SOL    HW267096   6.866   7.188   6.447
22380SOL     OW67097   6.067   6.748   6.294
22380SOL    HW167098   6.005   6.723   6.363
22380SOL    HW267099   6.018   6.740   6.213
22381SOL     OW67100   6.837   7.378   6.203
22381SOL    HW167101   6.885   7.441   6.150
22381SOL    HW267102   6.765   7.430   6.241
22382SOL     OW67103   6.616   6.099   5.617
22382SOL    HW167104   6.572   6.181   5.596
22382SOL    HW267105   6.679   6.121   5.685
22383SOL     OW67106   5.687   6.135   6.979
22383SOL    HW167107   5.779   6.138   6.952
22383SOL    HW267108   5.679   6.205   7.044
22384SOL     OW67109   6.145   5.809   6.768
22384SOL    HW167110   6.183   5.742   6.826
22384SOL    HW267111   6.052   5.809   6.789
22385SOL     OW67112   6.457   6.041   6.214
22385SOL    HW167113   6.418   6.097   6.147
22385SOL    HW267114   6.481   5.961   6.167
22386SOL     OW67115   6.608   5.646   6.327
22386SOL    HW167116   6.547   5.642   6.253
22386SOL    HW267117   6.583   5.573   6.383
22387SOL     OW67118   7.019   6.741   6.438
22387SOL    HW167119   6.949   6.676   6.447
22387SOL    HW267120   7.034   6.747   6.344
22388SOL     OW67121   7.049   6.203   6.534
22388SOL    HW167122   6.985   6.133   6.544
22388SOL    HW267123   7.104   6.196   6.612
22389SOL     OW67124   7.417   6.384   5.975
22389SOL    HW167125   7.477   6.339   6.035
22389SOL    HW267126   7.402   6.320   5.905
22390SOL     OW67127   6.086   7.012   5.734
22390SOL    HW167128   6.011   6.978   5.785
22390SOL    HW267129   6.082   6.964   5.651
22391SOL     OW67130   7.293   6.860   6.218
22391SOL    HW167131   7.387   6.853   6.239
22391SOL    HW267132   7.270   6.949   6.244
22392SOL     OW67133   6.978   6.160   5.651
22392SOL    HW167134   6.920   6.134   5.723
22392SOL    HW267135   7.066   6.133   5.680
22393SOL     OW67136   6.121   5.847   5.888
22393SOL    HW167137   6.171   5.803   5.819
22393SOL    HW267138   6.090   5.928   5.848
22394SOL     OW67139   7.321   6.830   7.118
22394SOL    HW167140   7.409   6.796   7.104
22394SOL    HW267141   7.335   6.917   7.155
22395SOL     OW67142   6.628   6.943   6.923
22395SOL    HW167143   6.551   6.908   6.966
22395SOL    HW267144   6.701   6.896   6.962
22396SOL     OW67145   7.194   7.220   7.259
22396SOL    HW167146   7.182   7.257   7.171
22396SOL    HW267147   7.272   7.165   7.252
22397SOL     OW67148   6.738   6.826   6.692
22397SOL    HW167149   6.675   6.859   6.756
22397SOL    HW267150   6.704   6.856   6.608
22398SOL     OW67151   7.196   6.677   6.661
22398SOL    HW167152   7.188   6.743   6.729
22398SOL    HW267153   7.126   6.698   6.599
22399SOL     OW67154   6.504   5.667   6.969
22399SOL    HW167155   6.525   5.651   6.877
22399SOL    HW267156   6.583   5.707   7.005
22400SOL     OW67157   6.565   6.701   7.310
22400SOL    HW167158   6.475   6.718   7.338
22400SOL    HW267159   6.561   6.621   7.259
22401SOL     OW67160   6.303   6.651   5.964
22401SOL    HW167161   6.287   6.623   6.054
22401SOL    HW267162   6.378   6.599   5.935
22402SOL     OW67163   6.013   6.415   6.846
22402SOL    HW167164   6.081   6.424   6.912
22402SOL    HW267165   5.982   6.324   6.855
22403SOL     OW67166   6.850   5.952   6.878
22403SOL    HW167167   6.878   6.033   6.921
22403SOL    HW267168   6.761   5.971   6.848
22404SOL     OW67169   5.663   7.154   6.949
22404SOL    HW167170   5.632   7.224   6.892
22404SOL    HW267171   5.758   7.155   6.937
22405SOL     OW67172   5.904   6.719   6.071
22405SOL    HW167173   5.906   6.790   6.007
22405SOL    HW267174   5.901   6.639   6.019
22406SOL     OW67175   6.120   6.105   6.449
22406SOL    HW167176   6.132   6.162   6.374
22406SOL    HW267177   6.190   6.130   6.510
22407SOL     OW67178   6.834   6.940   5.986
22407SOL    HW167179   6.890   7.009   6.019
22407SOL    HW267180   6.746   6.964   6.015
22408SOL     OW67181   6.896   7.055   6.727
22408SOL    HW167182   6.943   7.061   6.811
22408SOL    HW267183   6.845   6.975   6.734
22409SOL     OW67184   7.157   6.202   6.072
22409SOL    HW167185   7.107   6.243   6.143
22409SOL    HW267186   7.199   6.275   6.026
22410SOL     OW67187   5.930   7.120   6.887
22410SOL    HW167188   5.923   7.067   6.807
22410SOL    HW267189   6.024   7.136   6.896
22411SOL     OW67190   6.017   6.333   7.203
22411SOL    HW167191   6.077   6.376   7.142
22411SOL    HW267192   6.057   6.249   7.221
22412SOL     OW67193   7.214   6.372   7.284
22412SOL    HW167194   7.126   6.410   7.275
22412SOL    HW267195   7.264   6.410   7.212
22413SOL     OW67196   6.582   5.726   7.346
22413SOL    HW167197   6.640   5.799   7.326
22413SOL    HW267198   6.633   5.648   7.323
22414SOL     OW67199   6.080   5.620   7.350
22414SOL    HW167200   6.025   5.571   7.288
22414SOL    HW267201   6.028   5.698   7.371
22415SOL     OW67202   6.182   6.461   6.627
22415SOL    HW167203   6.218   6.549   6.630
22415SOL    HW267204   6.121   6.457   6.701
22416SOL     OW67205   6.894   6.439   6.590
22416SOL    HW167206   6.806   6.412   6.564
22416SOL    HW267207   6.949   6.363   6.570
22417SOL     OW67208   6.786   6.109   5.843
22417SOL    HW167209   6.795   6.032   5.900
22417SOL    HW267210   6.743   6.175   5.899
22418SOL     OW67211   5.879   5.779   6.825
22418SOL    HW167212   5.844   5.807   6.910
22418SOL    HW267213   5.862   5.685   6.822
22419SOL     OW67214   5.635   6.896   6.851
22419SOL    HW167215   5.665   6.841   6.923
22419SOL    HW267216   5.638   6.985   6.887
22420SOL     OW67217   6.301   6.209   6.627
22420SOL    HW167218   6.377   6.201   6.569
22420SOL    HW267219   6.272   6.299   6.617
22421SOL     OW67220   7.337   6.554   7.456
22421SOL    HW167221   7.298   6.482   7.407
22421SOL    HW267222   7.273   6.574   7.524
22422SOL     OW67223   5.915   5.647   6.215
22422SOL    HW167224   5.881   5.734   6.232
22422SOL    HW267225   5.919   5.605   6.301
22423SOL     OW67226   7.219   5.976   5.930
22423SOL    HW167227   7.251   5.910   5.992
22423SOL    HW267228   7.188   6.048   5.985
22424SOL     OW67229   6.620   6.345   6.541
22424SOL    HW167230   6.599   6.359   6.633
22424SOL    HW267231   6.591   6.256   6.523
22425SOL     OW67232   6.567   7.151   7.322
22425SOL    HW167233   6.544   7.195   7.240
22425SOL    HW267234   6.606   7.068   7.295
22426SOL     OW67235   7.424   7.081   7.189
22426SOL    HW167236   7.451   7.109   7.101
22426SOL    HW267237   7.503   7.092   7.243
22427SOL     OW67238   5.935   6.504   7.402
22427SOL    HW167239   6.013   6.521   7.456
22427SOL    HW267240   5.965   6.442   7.336
22428SOL     OW67241   7.107   5.855   5.705
22428SOL    HW167242   7.054   5.784   5.742
22428SOL    HW267243   7.147   5.897   5.780
22429SOL     OW67244   6.869   6.408   5.607
22429SOL    HW167245   6.907   6.321   5.614
22429SOL    HW267246   6.904   6.443   5.525
22430SOL     OW67247   6.656   6.939   6.453
22430SOL    HW167248   6.667   6.866   6.392
22430SOL    HW267249   6.707   7.011   6.415
22431SOL     OW67250   5.905   6.402   6.531
22431SOL    HW167251   6.000   6.414   6.522
22431SOL    HW267252   5.895   6.312   6.562
22432SOL     OW67253   5.898   6.124   6.599
22432SOL    HW167254   5.859   6.038   6.588
22432SOL    HW267255   5.976   6.122   6.543
22433SOL     OW67256   6.724   5.953   7.272
22433SOL    HW167257   6.679   6.004   7.339
22433SOL    HW267258   6.809   5.996   7.263
22434SOL     OW67259   6.741   5.775   7.061
22434SOL    HW167260   6.730   5.837   7.132
22434SOL    HW267261   6.787   5.824   6.993
22435SOL     OW67262   5.612   6.891   5.766
22435SOL    HW167263   5.523   6.914   5.741
22435SOL    HW267264   5.605   6.804   5.806
22436SOL     OW67265   5.680   7.356   6.538
22436SOL    HW167266   5.646   7.282   6.487
22436SOL    HW267267   5.766   7.373   6.501
22437SOL     OW67268   6.071   7.156   6.488
22437SOL    HW167269   6.142   7.216   6.510
22437SOL    HW267270   6.111   7.095   6.426
22438SOL     OW67271   6.535   6.368   6.799
22438SOL    HW167272   6.595   6.356   6.872
22438SOL    HW267273   6.456   6.321   6.825
22439SOL     OW67274   5.624   6.157   6.708
22439SOL    HW167275   5.705   6.154   6.656
22439SOL    HW267276   5.654   6.149   6.799
22440SOL     OW67277   5.773   6.124   7.330
22440SOL    HW167278   5.842   6.089   7.274
22440SOL    HW267279   5.738   6.198   7.280
22441SOL     OW67280   6.978   6.507   7.237
22441SOL    HW167281   6.995   6.601   7.232
22441SOL    HW267282   6.970   6.478   7.146
22442SOL     OW67283   6.404   6.159   5.960
22442SOL    HW167284   6.409   6.085   5.900
22442SOL    HW267285   6.328   6.209   5.929
22443SOL     OW67286   7.221   6.188   6.749
22443SOL    HW167287   7.210   6.128   6.823
22443SOL    HW267288   7.312   6.176   6.722
22444SOL     OW67289   5.812   7.126   7.311
22444SOL    HW167290   5.786   7.172   7.391
22444SOL    HW267291   5.825   7.035   7.338
22445SOL     OW67292   6.320   6.019   6.820
22445SOL    HW167293   6.256   5.950   6.804
22445SOL    HW267294   6.303   6.083   6.752
22446SOL     OW67295   6.485   7.268   7.079
22446SOL    HW167296   6.467   7.218   6.999
22446SOL    HW267297   6.490   7.359   7.050
22447SOL     OW67298   6.038   6.076   5.764
22447SOL    HW167299   6.098   6.147   5.789
22447SOL    HW267300   5.952   6.118   5.758
22448SOL     OW67301   5.716   6.736   7.067
22448SOL    HW167302   5.720   6.696   7.154
22448SOL    HW267303   5.737   6.665   7.006
22449SOL     OW67304   6.890   6.621   6.795
22449SOL    HW167305   6.899   6.557   6.724
22449SOL    HW267306   6.837   6.691   6.757
22450SOL     OW67307   6.913   6.445   5.879
22450SOL    HW167308   6.842   6.410   5.932
22450SOL    HW267309   6.885   6.431   5.788
22451SOL     OW67310   7.375   7.309   6.759
22451SOL    HW167311   7.435   7.335   6.689
22451SOL    HW267312   7.341   7.224   6.730
22452SOL     OW67313   6.827   7.322   6.681
22452SOL    HW167314   6.911   7.351   6.645
22452SOL    HW267315   6.841   7.230   6.703
22453SOL     OW67316   5.689   6.837   6.592
22453SOL    HW167317   5.661   6.856   6.682
22453SOL    HW267318   5.620   6.781   6.558
22454SOL     OW67319   6.274   7.270   7.333
22454SOL    HW167320   6.210   7.340   7.321
22454SOL    HW267321   6.345   7.291   7.273
22455SOL     OW67322   7.331   5.769   6.083
22455SOL    HW167323   7.390   5.749   6.010
22455SOL    HW267324   7.304   5.684   6.116
22456SOL     OW67325   6.984   7.156   6.090
22456SOL    HW167326   7.038   7.190   6.019
22456SOL    HW267327   6.927   7.229   6.115
22457SOL     OW67328   5.717   7.395   7.430
22457SOL    HW167329   5.678   7.318   7.471
22457SOL    HW267330   5.768   7.436   7.500
22458SOL     OW67331   6.865   6.522   6.251
22458SOL    HW167332   6.939   6.463   6.264
22458SOL    HW267333   6.901   6.594   6.198
22459SOL     OW67334   6.370   6.866   7.000
22459SOL    HW167335   6.343   6.913   7.079
22459SOL    HW267336   6.295   6.876   6.940
22460SOL     OW67337   6.255   7.224   5.742
22460SOL    HW167338   6.271   7.237   5.649
22460SOL    HW267339   6.204   7.143   5.746
22461SOL     OW67340   7.201   7.315   6.989
22461SOL    HW167341   7.259   7.315   6.912
22461SOL    HW267342   7.186   7.408   7.007
22462SOL     OW67343   7.431   5.745   6.552
22462SOL    HW167344   7.459   5.656   6.530
22462SOL    HW267345   7.344   5.753   6.513
22463SOL     OW67346   5.832   5.892   6.295
22463SOL    HW167347   5.747   5.930   6.273
22463SOL    HW267348   5.835   5.894   6.391
22464SOL     OW67349   6.796   7.173   5.626
22464SOL    HW167350   6.787   7.082   5.654
22464SOL    HW267351   6.726   7.186   5.562
22465SOL     OW67352   6.409   6.597   6.971
22465SOL    HW167353   6.445   6.587   6.883
22465SOL    HW267354   6.398   6.691   6.982
22466SOL     OW67355   6.513   6.504   5.884
22466SOL    HW167356   6.569   6.536   5.813
22466SOL    HW267357   6.562   6.433   5.924
22467SOL     OW67358   7.069   7.233   5.645
22467SOL    HW167359   6.977   7.212   5.628
22467SOL    HW267360   7.109   7.236   5.558
22468SOL     OW67361   5.948   6.900   7.088
22468SOL    HW167362   5.941   6.972   7.026
22468SOL    HW267363   5.871   6.846   7.071
22469SOL     OW67364   7.185   6.876   6.862
22469SOL    HW167365   7.239   6.851   6.937
22469SOL    HW267366   7.126   6.942   6.896
22470SOL     OW67367   6.664   6.706   6.318
22470SOL    HW167368   6.588   6.657   6.347
22470SOL    HW267369   6.725   6.639   6.286
22471SOL     OW67370   6.619   5.836   6.546
22471SOL    HW167371   6.618   5.793   6.461
22471SOL    HW267372   6.612   5.763   6.609
22472SOL     OW67373   6.190   7.073   6.062
22472SOL    HW167374   6.246   7.024   6.001
22472SOL    HW267375   6.107   7.084   6.015
22473SOL     OW67376   7.332   5.967   6.976
22473SOL    HW167377   7.402   6.032   6.971
22473SOL    HW267378   7.358   5.898   6.914
22474SOL     OW67379   5.869   6.926   5.885
22474SOL    HW167380   5.782   6.919   5.845
22474SOL    HW267381   5.853   6.975   5.966
22475SOL     OW67382   5.707   6.632   7.322
22475SOL    HW167383   5.630   6.604   7.371
22475SOL    HW267384   5.779   6.581   7.358
22476SOL     OW67385   6.265   5.774   7.082
22476SOL    HW167386   6.348   5.749   7.042
22476SOL    HW267387   6.288   5.809   7.168
22477SOL     OW67388   5.647   5.914   5.616
22477SOL    HW167389   5.553   5.929   5.601
22477SOL    HW267390   5.691   5.982   5.565
22478SOL     OW67391   7.001   6.440   6.974
22478SOL    HW167392   6.948   6.498   6.919
22478SOL    HW267393   7.088   6.444   6.936
22479SOL     OW67394   5.629   5.747   5.867
22479SOL    HW167395   5.618   5.811   5.797
22479SOL    HW267396   5.720   5.717   5.859
22480SOL     OW67397   6.770   6.907   5.710
22480SOL    HW167398   6.681   6.872   5.708
22480SOL    HW267399   6.793   6.910   5.802
22481SOL     OW67400   6.213   6.416   7.028
22481SOL    HW167401   6.271   6.491   7.016
22481SOL    HW267402   6.270   6.340   7.027
22482SOL     OW67403   7.072   7.390   6.579
22482SOL    HW167404   7.099   7.464   6.524
22482SOL    HW267405   7.153   7.342   6.596
22483SOL     OW67406   6.311   6.133   7.273
22483SOL    HW167407   6.358   6.187   7.337
22483SOL    HW267408   6.321   6.043   7.305
22484SOL     OW67409   7.055   6.770   7.205
22484SOL    HW167410   7.047   6.792   7.298
22484SOL    HW267411   7.144   6.794   7.181
22485SOL     OW67412   5.941   7.333   7.167
22485SOL    HW167413   5.859   7.379   7.148
22485SOL    HW267414   5.913   7.249   7.205
22486SOL     OW67415   7.241   6.461   6.838
22486SOL    HW167416   7.239   6.377   6.792
22486SOL    HW267417   7.229   6.527   6.769
22487SOL     OW67418   6.807   5.909   6.042
22487SOL    HW167419   6.866   5.834   6.041
22487SOL    HW267420   6.837   5.961   6.117
22488SOL     OW67421   6.160   6.316   6.272
22488SOL    HW167422   6.205   6.398   6.254
22488SOL    HW267423   6.099   6.305   6.199
22489SOL     OW67424   7.333   5.941   7.252
22489SOL    HW167425   7.330   5.957   7.157
22489SOL    HW267426   7.255   5.888   7.269
22490SOL     OW67427   7.347   6.510   7.089
22490SOL    HW167428   7.329   6.603   7.102
22490SOL    HW267429   7.319   6.492   6.999
22491SOL     OW67430   6.455   6.945   5.647
22491SOL    HW167431   6.418   6.965   5.734
22491SOL    HW267432   6.469   7.031   5.607
22492SOL     OW67433   6.255   7.352   6.514
22492SOL    HW167434   6.236   7.445   6.504
22492SOL    HW267435   6.351   7.347   6.510
22493SOL     OW67436   6.458   6.564   6.442
22493SOL    HW167437   6.508   6.490   6.476
22493SOL    HW267438   6.413   6.599   6.519
22494SOL     OW67439   6.668   6.580   5.677
22494SOL    HW167440   6.640   6.627   5.598
22494SOL    HW267441   6.737   6.521   5.647
22495SOL     OW67442   7.417   7.145   6.426
22495SOL    HW167443   7.340   7.137   6.369
22495SOL    HW267444   7.396   7.090   6.501
22496SOL     OW67445   5.797   6.871   7.422
22496SOL    HW167446   5.766   6.791   7.379
22496SOL    HW267447   5.738   6.883   7.496
22497SOL     OW67448   5.703   6.812   6.252
22497SOL    HW167449   5.733   6.769   6.332
22497SOL    HW267450   5.761   6.778   6.184
22498SOL     OW67451   6.277   7.004   7.219
22498SOL    HW167452   6.199   6.966   7.260
22498SOL    HW267453   6.282   7.093   7.255
22499SOL     OW67454   7.398   5.756   6.822
22499SOL    HW167455   7.398   5.661   6.834
22499SOL    HW267456   7.411   5.768   6.728
22500SOL     OW67457   6.012   6.010   6.108
22500SOL    HW167458   6.043   5.942   6.048
22500SOL    HW267459   5.958   5.964   6.172
22501SOL     OW67460   7.279   7.067   6.668
22501SOL    HW167461   7.202   7.048   6.615
22501SOL    HW267462   7.279   6.999   6.736
22502SOL     OW67463   5.939   6.152   6.878
22502SOL    HW167464   5.988   6.087   6.928
22502SOL    HW267465   5.945   6.123   6.787
22503SOL     OW67466   6.423   7.170   6.256
22503SOL    HW167467   6.392   7.238   6.196
22503SOL    HW267468   6.349   7.110   6.265
22504SOL     OW67469   7.006   5.818   6.700
22504SOL    HW167470   7.011   5.727   6.730
22504SOL    HW267471   6.960   5.864   6.770
22505SOL     OW67472   6.596   5.603   6.705
22505SOL    HW167473   6.543   5.540   6.655
22505SOL    HW267474   6.682   5.563   6.710
22506SOL     OW67475   6.367   6.920   5.916
22506SOL    HW167476   6.342   6.828   5.926
22506SOL    HW267477   6.448   6.929   5.966
22507SOL     OW67478   6.201   7.156   6.874
22507SOL    HW167479   6.196   7.240   6.920
22507SOL    HW267480   6.290   7.152   6.841
22508SOL     OW67481   6.965   5.626   5.778
22508SOL    HW167482   7.005   5.555   5.726
22508SOL    HW267483   6.874   5.598   5.790
22509SOL     OW67484   6.886   6.058   6.261
22509SOL    HW167485   6.835   6.138   6.257
22509SOL    HW267486   6.878   6.028   6.352
22510SOL     OW67487   7.169   5.774   6.479
22510SOL    HW167488   7.116   5.804   6.554
22510SOL    HW267489   7.169   5.848   6.419
22511SOL     OW67490   5.624   6.639   5.896
22511SOL    HW167491   5.716   6.627   5.875
22511SOL    HW267492   5.592   6.551   5.918
22512SOL     OW67493   6.481   7.262   5.916
22512SOL    HW167494   6.403   7.246   5.863
22512SOL    HW267495   6.455   7.331   5.977
22513SOL     OW67496   5.794   6.208   7.596
22513SOL    HW167497   5.706   6.195   7.631
22513SOL    HW267498   5.783   6.194   7.501
22514SOL     OW67499   5.805   5.875   8.438
22514SOL    HW167500   5.835   5.839   8.521
22514SOL    HW267501   5.718   5.837   8.426
22515SOL     OW67502   5.573   5.981   8.094
22515SOL    HW167503   5.493   6.007   8.141
22515SOL    HW267504   5.546   5.908   8.039
22516SOL     OW67505   6.161   6.894   8.657
22516SOL    HW167506   6.079   6.897   8.608
22516SOL    HW267507   6.178   6.985   8.681
22517SOL     OW67508   7.174   7.111   8.153
22517SOL    HW167509   7.127   7.079   8.230
22517SOL    HW267510   7.108   7.114   8.084
22518SOL     OW67511   6.724   6.290   8.134
22518SOL    HW167512   6.770   6.373   8.123
22518SOL    HW267513   6.675   6.301   8.216
22519SOL     OW67514   7.387   6.167   7.668
22519SOL    HW167515   7.348   6.167   7.580
22519SOL    HW267516   7.343   6.096   7.714
22520SOL     OW67517   6.313   6.716   8.506
22520SOL    HW167518   6.254   6.756   8.570
22520SOL    HW267519   6.355   6.790   8.461
22521SOL     OW67520   6.474   6.330   9.275
22521SOL    HW167521   6.476   6.398   9.342
22521SOL    HW267522   6.489   6.377   9.193
22522SOL     OW67523   6.271   6.571   8.092
22522SOL    HW167524   6.339   6.571   8.160
22522SOL    HW267525   6.205   6.633   8.123
22523SOL     OW67526   6.298   6.738   9.273
22523SOL    HW167527   6.350   6.811   9.307
22523SOL    HW267528   6.221   6.779   9.234
22524SOL     OW67529   5.929   6.983   8.517
22524SOL    HW167530   5.853   6.940   8.477
22524SOL    HW267531   5.965   7.038   8.448
22525SOL     OW67532   7.040   7.092   8.819
22525SOL    HW167533   7.094   7.170   8.831
22525SOL    HW267534   6.968   7.104   8.882
22526SOL     OW67535   6.044   5.960   8.904
22526SOL    HW167536   6.118   5.902   8.919
22526SOL    HW267537   5.968   5.909   8.930
22527SOL     OW67538   7.170   6.018   8.203
22527SOL    HW167539   7.105   6.029   8.134
22527SOL    HW267540   7.152   6.088   8.265
22528SOL     OW67541   5.804   7.314   7.912
22528SOL    HW167542   5.831   7.385   7.971
22528SOL    HW267543   5.877   7.303   7.852
22529SOL     OW67544   6.721   6.929   9.142
22529SOL    HW167545   6.764   6.919   9.226
22529SOL    HW267546   6.669   6.849   9.132
22530SOL     OW67547   5.819   7.044   7.981
22530SOL    HW167548   5.797   7.137   7.984
22530SOL    HW267549   5.768   7.005   8.053
22531SOL     OW67550   5.871   6.676   8.327
22531SOL    HW167551   5.872   6.586   8.360
22531SOL    HW267552   5.814   6.724   8.387
22532SOL     OW67553   6.160   7.391   8.867
22532SOL    HW167554   6.084   7.370   8.921
22532SOL    HW267555   6.193   7.474   8.902
22533SOL     OW67556   6.152   6.573   7.600
22533SOL    HW167557   6.203   6.616   7.531
22533SOL    HW267558   6.193   6.603   7.682
22534SOL     OW67559   7.177   5.719   8.905
22534SOL    HW167560   7.216   5.796   8.863
22534SOL    HW267561   7.145   5.752   8.989
22535SOL     OW67562   5.705   6.244   8.015
22535SOL    HW167563   5.673   6.157   8.038
22535SOL    HW267564   5.699   6.295   8.096
22536SOL     OW67565   7.432   7.329   7.765
22536SOL    HW167566   7.504   7.314   7.826
22536SOL    HW267567   7.439   7.422   7.742
22537SOL     OW67568   5.647   7.166   7.558
22537SOL    HW167569   5.626   7.075   7.577
22537SOL    HW267570   5.615   7.214   7.634
22538SOL     OW67571   7.284   6.512   8.100
22538SOL    HW167572   7.364   6.466   8.075
22538SOL    HW267573   7.261   6.565   8.023
22539SOL     OW67574   7.242   6.691   7.881
22539SOL    HW167575   7.327   6.683   7.837
22539SOL    HW267576   7.257   6.757   7.949
22540SOL     OW67577   5.706   6.335   9.026
22540SOL    HW167578   5.790   6.380   9.029
22540SOL    HW267579   5.642   6.405   9.012
22541SOL     OW67580   6.208   6.984   8.179
22541SOL    HW167581   6.167   6.898   8.183
22541SOL    HW267582   6.193   7.013   8.089
22542SOL     OW67583   6.857   6.812   8.865
22542SOL    HW167584   6.885   6.743   8.805
22542SOL    HW267585   6.918   6.807   8.939
22543SOL     OW67586   6.417   5.596   7.967
22543SOL    HW167587   6.457   5.678   7.939
22543SOL    HW267588   6.323   5.614   7.967
22544SOL     OW67589   5.773   6.542   8.750
22544SOL    HW167590   5.860   6.507   8.733
22544SOL    HW267591   5.719   6.508   8.678
22545SOL     OW67592   7.121   6.601   7.647
22545SOL    HW167593   7.053   6.541   7.677
22545SOL    HW267594   7.163   6.631   7.728
22546SOL     OW67595   6.763   7.408   9.084
22546SOL    HW167596   6.765   7.470   9.011
22546SOL    HW267597   6.780   7.323   9.044
22547SOL     OW67598   5.945   5.839   9.324
22547SOL    HW167599   5.982   5.918   9.363
22547SOL    HW267600   5.851   5.856   9.318
22548SOL     OW67601   7.058   7.004   8.378
22548SOL    HW167602   6.994   7.023   8.447
22548SOL    HW267603   7.040   6.913   8.354
22549SOL     OW67604   7.223   7.383   8.010
22549SOL    HW167605   7.206   7.336   7.928
22549SOL    HW267606   7.223   7.314   8.077
22550SOL     OW67607   6.173   6.286   7.720
22550SOL    HW167608   6.176   6.373   7.681
22550SOL    HW267609   6.108   6.293   7.790
22551SOL     OW67610   6.868   5.980   8.389
22551SOL    HW167611   6.780   5.945   8.394
22551SOL    HW267612   6.920   5.921   8.444
22552SOL     OW67613   7.165   7.259   7.767
22552SOL    HW167614   7.259   7.274   7.756
22552SOL    HW267615   7.132   7.247   7.678
22553SOL     OW67616   6.376   6.199   8.879
22553SOL    HW167617   6.352   6.170   8.967
22553SOL    HW267618   6.351   6.126   8.823
22554SOL     OW67619   6.977   6.061   9.118
22554SOL    HW167620   6.981   6.105   9.203
22554SOL    HW267621   7.027   5.981   9.130
22555SOL     OW67622   6.530   6.466   9.039
22555SOL    HW167623   6.586   6.403   8.995
22555SOL    HW267624   6.482   6.509   8.969
22556SOL     OW67625   6.593   5.983   8.657
22556SOL    HW167626   6.501   5.996   8.680
22556SOL    HW267627   6.591   5.941   8.571
22557SOL     OW67628   6.644   6.283   7.866
22557SOL    HW167629   6.665   6.280   7.960
22557SOL    HW267630   6.560   6.239   7.859
22558SOL     OW67631   5.679   6.409   8.232
22558SOL    HW167632   5.761   6.405   8.281
22558SOL    HW267633   5.631   6.482   8.272
22559SOL     OW67634   5.697   7.465   9.040
22559SOL    HW167635   5.705   7.443   9.133
22559SOL    HW267636   5.612   7.428   9.015
22560SOL     OW67637   6.475   5.936   7.648
22560SOL    HW167638   6.526   5.991   7.588
22560SOL    HW267639   6.452   5.859   7.597
22561SOL     OW67640   7.267   6.147   9.285
22561SOL    HW167641   7.248   6.226   9.235
22561SOL    HW267642   7.297   6.083   9.219
22562SOL     OW67643   6.979   6.736   7.991
22562SOL    HW167644   7.058   6.724   7.939
22562SOL    HW267645   6.925   6.796   7.940
22563SOL     OW67646   6.137   5.746   8.363
22563SOL    HW167647   6.143   5.776   8.454
22563SOL    HW267648   6.133   5.827   8.312
22564SOL     OW67649   6.584   7.042   7.913
22564SOL    HW167650   6.559   7.116   7.858
22564SOL    HW267651   6.553   7.066   8.001
22565SOL     OW67652   5.940   7.402   8.328
22565SOL    HW167653   5.985   7.318   8.332
22565SOL    HW267654   6.007   7.466   8.349
22566SOL     OW67655   7.390   6.630   8.337
22566SOL    HW167656   7.343   6.614   8.255
22566SOL    HW267657   7.322   6.639   8.403
22567SOL     OW67658   6.804   7.130   8.964
22567SOL    HW167659   6.793   7.059   9.027
22567SOL    HW267660   6.736   7.114   8.897
22568SOL     OW67661   5.886   6.545   7.713
22568SOL    HW167662   5.969   6.566   7.669
22568SOL    HW267663   5.863   6.458   7.679
22569SOL     OW67664   7.070   6.350   8.159
22569SOL    HW167665   7.073   6.306   8.244
22569SOL    HW267666   7.150   6.403   8.157
22570SOL     OW67667   6.057   6.872   9.196
22570SOL    HW167668   6.033   6.876   9.103
22570SOL    HW267669   5.974   6.862   9.242
22571SOL     OW67670   6.726   7.361   7.675
22571SOL    HW167671   6.643   7.331   7.713
22571SOL    HW267672   6.746   7.297   7.607
22572SOL     OW67673   5.794   5.841   8.947
22572SOL    HW167674   5.721   5.902   8.960
22572SOL    HW267675   5.764   5.758   8.982
22573SOL     OW67676   7.225   6.975   7.549
22573SOL    HW167677   7.184   7.060   7.535
22573SOL    HW267678   7.158   6.912   7.522
22574SOL     OW67679   6.045   7.327   7.763
22574SOL    HW167680   6.094   7.378   7.828
22574SOL    HW267681   6.112   7.287   7.708
22575SOL     OW67682   6.983   5.691   7.907
22575SOL    HW167683   6.982   5.667   7.814
22575SOL    HW267684   7.074   5.679   7.934
22576SOL     OW67685   5.838   7.375   8.662
22576SOL    HW167686   5.887   7.300   8.696
22576SOL    HW267687   5.823   7.354   8.570
22577SOL     OW67688   6.534   7.288   8.337
22577SOL    HW167689   6.619   7.247   8.352
22577SOL    HW267690   6.495   7.238   8.266
22578SOL     OW67691   5.981   6.271   7.921
22578SOL    HW167692   5.994   6.177   7.934
22578SOL    HW267693   5.888   6.285   7.938
22579SOL     OW67694   7.094   5.807   9.163
22579SOL    HW167695   7.106   5.828   9.255
22579SOL    HW267696   7.030   5.736   9.162
22580SOL     OW67697   6.249   5.695   7.551
22580SOL    HW167698   6.298   5.617   7.574
22580SOL    HW267699   6.187   5.665   7.484
22581SOL     OW67700   6.343   5.859   9.201
22581SOL    HW167701   6.428   5.814   9.201
22581SOL    HW267702   6.297   5.822   9.277
22582SOL     OW67703   6.455   7.113   8.647
22582SOL    HW167704   6.437   7.072   8.563
22582SOL    HW267705   6.522   7.058   8.687
22583SOL     OW67706   6.915   6.178   8.879
22583SOL    HW167707   6.948   6.147   8.963
22583SOL    HW267708   6.954   6.265   8.868
22584SOL     OW67709   6.402   6.962   8.404
22584SOL    HW167710   6.489   6.958   8.366
22584SOL    HW267711   6.343   6.978   8.330
22585SOL     OW67712   6.516   6.101   8.336
22585SOL    HW167713   6.491   6.089   8.244
22585SOL    HW267714   6.544   6.014   8.364
22586SOL     OW67715   6.150   5.649   7.938
22586SOL    HW167716   6.072   5.649   7.993
22586SOL    HW267717   6.138   5.724   7.879
22587SOL     OW67718   7.021   6.799   7.480
22587SOL    HW167719   7.050   6.725   7.533
22587SOL    HW267720   6.935   6.822   7.516
22588SOL     OW67721   5.868   5.634   7.636
22588SOL    HW167722   5.919   5.701   7.592
22588SOL    HW267723   5.932   5.576   7.677
22589SOL     OW67724   6.538   5.835   7.899
22589SOL    HW167725   6.512   5.871   7.814
22589SOL    HW267726   6.632   5.853   7.904
22590SOL     OW67727   6.661   6.279   8.891
22590SOL    HW167728   6.599   6.207   8.897
22590SOL    HW267729   6.747   6.237   8.888
22591SOL     OW67730   6.791   7.173   8.251
22591SOL    HW167731   6.806   7.233   8.178
22591SOL    HW267732   6.865   7.188   8.310
22592SOL     OW67733   6.068   6.748   8.156
22592SOL    HW167734   6.006   6.723   8.224
22592SOL    HW267735   6.018   6.741   8.075
22593SOL     OW67736   6.837   7.378   8.065
22593SOL    HW167737   6.886   7.441   8.012
22593SOL    HW267738   6.766   7.429   8.103
22594SOL     OW67739   6.618   6.101   7.478
22594SOL    HW167740   6.576   6.185   7.459
22594SOL    HW267741   6.682   6.122   7.546
22595SOL     OW67742   5.686   6.136   8.840
22595SOL    HW167743   5.778   6.139   8.813
22595SOL    HW267744   5.678   6.206   8.905
22596SOL     OW67745   6.145   5.807   8.632
22596SOL    HW167746   6.182   5.743   8.692
22596SOL    HW267747   6.052   5.808   8.653
22597SOL     OW67748   6.456   6.040   8.077
22597SOL    HW167749   6.417   6.096   8.010
22597SOL    HW267750   6.481   5.960   8.030
22598SOL     OW67751   6.608   5.645   8.188
22598SOL    HW167752   6.547   5.640   8.115
22598SOL    HW267753   6.583   5.572   8.245
22599SOL     OW67754   7.020   6.740   8.302
22599SOL    HW167755   6.950   6.675   8.311
22599SOL    HW267756   7.035   6.746   8.207
22600SOL     OW67757   7.049   6.203   8.396
22600SOL    HW167758   6.985   6.132   8.406
22600SOL    HW267759   7.104   6.196   8.474
22601SOL     OW67760   7.415   6.382   7.836
22601SOL    HW167761   7.476   6.339   7.896
22601SOL    HW267762   7.401   6.319   7.766
22602SOL     OW67763   6.084   7.011   7.598
22602SOL    HW167764   6.010   6.978   7.648
22602SOL    HW267765   6.081   6.962   7.515
22603SOL     OW67766   7.293   6.858   8.082
22603SOL    HW167767   7.387   6.851   8.102
22603SOL    HW267768   7.270   6.947   8.107
22604SOL     OW67769   6.978   6.161   7.513
22604SOL    HW167770   6.923   6.135   7.586
22604SOL    HW267771   7.067   6.137   7.541
22605SOL     OW67772   6.114   5.843   7.750
22605SOL    HW167773   6.167   5.801   7.683
22605SOL    HW267774   6.082   5.923   7.709
22606SOL     OW67775   7.321   6.829   8.979
22606SOL    HW167776   7.409   6.795   8.966
22606SOL    HW267777   7.334   6.916   9.017
22607SOL     OW67778   6.628   6.941   8.783
22607SOL    HW167779   6.550   6.907   8.828
22607SOL    HW267780   6.701   6.896   8.824
22608SOL     OW67781   7.194   7.221   9.113
22608SOL    HW167782   7.185   7.257   9.025
22608SOL    HW267783   7.271   7.165   9.108
22609SOL     OW67784   6.737   6.824   8.553
22609SOL    HW167785   6.675   6.858   8.618
22609SOL    HW267786   6.704   6.856   8.470
22610SOL     OW67787   7.196   6.678   8.524
22610SOL    HW167788   7.188   6.744   8.593
22610SOL    HW267789   7.126   6.699   8.463
22611SOL     OW67790   6.505   5.667   8.831
22611SOL    HW167791   6.526   5.652   8.738
22611SOL    HW267792   6.583   5.708   8.867
22612SOL     OW67793   6.567   6.701   9.171
22612SOL    HW167794   6.477   6.718   9.196
22612SOL    HW267795   6.563   6.620   9.119
22613SOL     OW67796   6.300   6.648   7.824
22613SOL    HW167797   6.285   6.622   7.915
22613SOL    HW267798   6.375   6.596   7.796
22614SOL     OW67799   6.012   6.414   8.707
22614SOL    HW167800   6.080   6.424   8.774
22614SOL    HW267801   5.982   6.324   8.717
22615SOL     OW67802   6.850   5.953   8.740
22615SOL    HW167803   6.878   6.034   8.783
22615SOL    HW267804   6.761   5.972   8.710
22616SOL     OW67805   5.664   7.155   8.809
22616SOL    HW167806   5.633   7.227   8.753
22616SOL    HW267807   5.759   7.156   8.799
22617SOL     OW67808   5.903   6.720   7.934
22617SOL    HW167809   5.905   6.792   7.870
22617SOL    HW267810   5.900   6.641   7.881
22618SOL     OW67811   6.120   6.103   8.308
22618SOL    HW167812   6.132   6.161   8.233
22618SOL    HW267813   6.188   6.129   8.369
22619SOL     OW67814   6.833   6.940   7.846
22619SOL    HW167815   6.889   7.010   7.880
22619SOL    HW267816   6.745   6.964   7.876
22620SOL     OW67817   6.895   7.055   8.590
22620SOL    HW167818   6.942   7.061   8.673
22620SOL    HW267819   6.844   6.974   8.598
22621SOL     OW67820   7.160   6.202   7.935
22621SOL    HW167821   7.109   6.244   8.004
22621SOL    HW267822   7.208   6.274   7.893
22622SOL     OW67823   5.930   7.119   8.749
22622SOL    HW167824   5.923   7.067   8.670
22622SOL    HW267825   6.024   7.136   8.759
22623SOL     OW67826   6.017   6.333   9.066
22623SOL    HW167827   6.076   6.377   9.004
22623SOL    HW267828   6.060   6.250   9.085
22624SOL     OW67829   7.212   6.374   9.148
22624SOL    HW167830   7.125   6.412   9.138
22624SOL    HW267831   7.263   6.412   9.077
22625SOL     OW67832   6.581   5.729   9.212
22625SOL    HW167833   6.639   5.802   9.190
22625SOL    HW267834   6.631   5.650   9.188
22626SOL     OW67835   6.081   5.620   9.211
22626SOL    HW167836   6.027   5.571   9.149
22626SOL    HW267837   6.029   5.698   9.232
22627SOL     OW67838   6.178   6.461   8.487
22627SOL    HW167839   6.216   6.549   8.490
22627SOL    HW267840   6.120   6.457   8.563
22628SOL     OW67841   6.894   6.439   8.451
22628SOL    HW167842   6.806   6.412   8.425
22628SOL    HW267843   6.949   6.363   8.432
22629SOL     OW67844   6.785   6.109   7.706
22629SOL    HW167845   6.795   6.032   7.762
22629SOL    HW267846   6.744   6.174   7.761
22630SOL     OW67847   5.878   5.779   8.687
22630SOL    HW167848   5.843   5.807   8.771
22630SOL    HW267849   5.861   5.685   8.684
22631SOL     OW67850   5.636   6.897   8.713
22631SOL    HW167851   5.665   6.842   8.786
22631SOL    HW267852   5.639   6.986   8.749
22632SOL     OW67853   6.298   6.208   8.488
22632SOL    HW167854   6.375   6.201   8.431
22632SOL    HW267855   6.270   6.299   8.478
22633SOL     OW67856   7.341   6.557   9.316
22633SOL    HW167857   7.297   6.485   9.272
22633SOL    HW267858   7.284   6.580   9.389
22634SOL     OW67859   5.911   5.645   8.076
22634SOL    HW167860   5.878   5.733   8.094
22634SOL    HW267861   5.917   5.604   8.162
22635SOL     OW67862   7.218   5.976   7.792
22635SOL    HW167863   7.250   5.910   7.854
22635SOL    HW267864   7.188   6.048   7.847
22636SOL     OW67865   6.620   6.344   8.404
22636SOL    HW167866   6.598   6.359   8.496
22636SOL    HW267867   6.590   6.255   8.386
22637SOL     OW67868   6.566   7.153   9.181
22637SOL    HW167869   6.546   7.196   9.098
22637SOL    HW267870   6.606   7.070   9.155
22638SOL     OW67871   7.424   7.080   9.048
22638SOL    HW167872   7.451   7.108   8.961
22638SOL    HW267873   7.502   7.091   9.103
22639SOL     OW67874   5.936   6.501   9.267
22639SOL    HW167875   6.015   6.522   9.317
22639SOL    HW267876   5.964   6.440   9.200
22640SOL     OW67877   7.107   5.854   7.567
22640SOL    HW167878   7.054   5.784   7.605
22640SOL    HW267879   7.146   5.898   7.643
22641SOL     OW67880   6.867   6.408   7.467
22641SOL    HW167881   6.907   6.321   7.475
22641SOL    HW267882   6.904   6.444   7.386
22642SOL     OW67883   6.656   6.939   8.315
22642SOL    HW167884   6.667   6.866   8.253
22642SOL    HW267885   6.707   7.010   8.277
22643SOL     OW67886   5.904   6.402   8.393
22643SOL    HW167887   5.999   6.416   8.389
22643SOL    HW267888   5.894   6.312   8.424
22644SOL     OW67889   5.899   6.124   8.460
22644SOL    HW167890   5.860   6.037   8.449
22644SOL    HW267891   5.976   6.122   8.403
22645SOL     OW67892   6.724   5.954   9.133
22645SOL    HW167893   6.679   6.007   9.199
22645SOL    HW267894   6.809   5.996   9.123
22646SOL     OW67895   6.741   5.775   8.923
22646SOL    HW167896   6.730   5.838   8.994
22646SOL    HW267897   6.788   5.825   8.855
22647SOL     OW67898   5.610   6.889   7.628
22647SOL    HW167899   5.521   6.912   7.602
22647SOL    HW267900   5.603   6.803   7.668
22648SOL     OW67901   5.679   7.356   8.399
22648SOL    HW167902   5.645   7.283   8.348
22648SOL    HW267903   5.766   7.373   8.362
22649SOL     OW67904   6.071   7.156   8.349
22649SOL    HW167905   6.142   7.216   8.372
22649SOL    HW267906   6.111   7.094   8.288
22650SOL     OW67907   6.534   6.367   8.662
22650SOL    HW167908   6.596   6.355   8.734
22650SOL    HW267909   6.455   6.322   8.691
22651SOL     OW67910   5.625   6.157   8.570
22651SOL    HW167911   5.706   6.154   8.519
22651SOL    HW267912   5.653   6.149   8.661
22652SOL     OW67913   5.774   6.121   9.186
22652SOL    HW167914   5.843   6.087   9.130
22652SOL    HW267915   5.738   6.196   9.139
22653SOL     OW67916   6.977   6.507   9.098
22653SOL    HW167917   6.994   6.601   9.094
22653SOL    HW267918   6.970   6.479   9.007
22654SOL     OW67919   6.404   6.155   7.820
22654SOL    HW167920   6.413   6.081   7.760
22654SOL    HW267921   6.327   6.202   7.789
22655SOL     OW67922   7.221   6.188   8.611
22655SOL    HW167923   7.211   6.129   8.685
22655SOL    HW267924   7.312   6.176   8.583
22656SOL     OW67925   5.811   7.129   9.169
22656SOL    HW167926   5.792   7.185   9.244
22656SOL    HW267927   5.821   7.041   9.206
22657SOL     OW67928   6.319   6.019   8.682
22657SOL    HW167929   6.255   5.949   8.667
22657SOL    HW267930   6.302   6.083   8.613
22658SOL     OW67931   6.490   7.266   8.936
22658SOL    HW167932   6.468   7.218   8.856
22658SOL    HW267933   6.493   7.358   8.909
22659SOL     OW67934   6.029   6.067   7.613
22659SOL    HW167935   6.093   6.133   7.637
22659SOL    HW267936   5.945   6.113   7.616
22660SOL     OW67937   5.715   6.736   8.929
22660SOL    HW167938   5.720   6.697   9.016
22660SOL    HW267939   5.737   6.664   8.869
22661SOL     OW67940   6.890   6.620   8.656
22661SOL    HW167941   6.899   6.557   8.585
22661SOL    HW267942   6.837   6.691   8.619
22662SOL     OW67943   6.912   6.446   7.739
22662SOL    HW167944   6.841   6.411   7.793
22662SOL    HW267945   6.884   6.431   7.649
22663SOL     OW67946   7.374   7.310   8.618
22663SOL    HW167947   7.435   7.335   8.549
22663SOL    HW267948   7.341   7.224   8.591
22664SOL     OW67949   6.826   7.320   8.540
22664SOL    HW167950   6.911   7.350   8.506
22664SOL    HW267951   6.841   7.229   8.564
22665SOL     OW67952   5.692   6.834   8.456
22665SOL    HW167953   5.664   6.855   8.545
22665SOL    HW267954   5.621   6.780   8.421
22666SOL     OW67955   6.274   7.269   9.200
22666SOL    HW167956   6.212   7.340   9.187
22666SOL    HW267957   6.348   7.291   9.144
22667SOL     OW67958   7.330   5.770   7.945
22667SOL    HW167959   7.389   5.750   7.872
22667SOL    HW267960   7.304   5.684   7.978
22668SOL     OW67961   6.983   7.156   7.951
22668SOL    HW167962   7.038   7.190   7.881
22668SOL    HW267963   6.928   7.229   7.977
22669SOL     OW67964   5.727   7.387   9.296
22669SOL    HW167965   5.681   7.316   9.340
22669SOL    HW267966   5.776   7.431   9.365
22670SOL     OW67967   6.865   6.522   8.112
22670SOL    HW167968   6.938   6.463   8.125
22670SOL    HW267969   6.901   6.594   8.060
22671SOL     OW67970   6.369   6.866   8.862
22671SOL    HW167971   6.342   6.914   8.940
22671SOL    HW267972   6.295   6.876   8.801
22672SOL     OW67973   6.255   7.222   7.606
22672SOL    HW167974   6.270   7.236   7.513
22672SOL    HW267975   6.202   7.142   7.610
22673SOL     OW67976   7.201   7.317   8.846
22673SOL    HW167977   7.259   7.317   8.770
22673SOL    HW267978   7.186   7.409   8.864
22674SOL     OW67979   7.431   5.746   8.412
22674SOL    HW167980   7.459   5.657   8.391
22674SOL    HW267981   7.343   5.753   8.374
22675SOL     OW67982   5.829   5.892   8.156
22675SOL    HW167983   5.743   5.928   8.134
22675SOL    HW267984   5.833   5.894   8.252
22676SOL     OW67985   6.796   7.174   7.487
22676SOL    HW167986   6.786   7.083   7.514
22676SOL    HW267987   6.726   7.188   7.422
22677SOL     OW67988   6.409   6.598   8.832
22677SOL    HW167989   6.446   6.589   8.744
22677SOL    HW267990   6.398   6.692   8.844
22678SOL     OW67991   6.507   6.498   7.744
22678SOL    HW167992   6.563   6.530   7.674
22678SOL    HW267993   6.559   6.429   7.786
22679SOL     OW67994   7.069   7.232   7.506
22679SOL    HW167995   6.977   7.211   7.489
22679SOL    HW267996   7.110   7.235   7.419
22680SOL     OW67997   5.948   6.899   8.949
22680SOL    HW167998   5.940   6.972   8.888
22680SOL    HW267999   5.870   6.846   8.933
22681SOL     OW68000   7.185   6.876   8.725
22681SOL    HW168001   7.239   6.851   8.800
22681SOL    HW268002   7.126   6.943   8.759
22682SOL     OW68003   6.663   6.706   8.178
22682SOL    HW168004   6.587   6.656   8.209
22682SOL    HW268005   6.725   6.639   8.148
22683SOL     OW68006   6.619   5.836   8.408
22683SOL    HW168007   6.618   5.793   8.323
22683SOL    HW268008   6.612   5.764   8.471
22684SOL     OW68009   6.190   7.073   7.923
22684SOL    HW168010   6.245   7.023   7.862
22684SOL    HW268011   6.109   7.087   7.876
22685SOL     OW68012   7.332   5.967   8.836
22685SOL    HW168013   7.402   6.032   8.832
22685SOL    HW268014   7.358   5.899   8.775
22686SOL     OW68015   5.866   6.927   7.747
22686SOL    HW168016   5.779   6.919   7.707
22686SOL    HW268017   5.851   6.975   7.828
22687SOL     OW68018   5.710   6.634   9.184
22687SOL    HW168019   5.632   6.607   9.233
22687SOL    HW268020   5.781   6.582   9.222
22688SOL     OW68021   6.265   5.774   8.944
22688SOL    HW168022   6.349   5.749   8.905
22688SOL    HW268023   6.287   5.808   9.030
22689SOL     OW68024   5.671   5.904   7.461
22689SOL    HW168025   5.595   5.884   7.408
22689SOL    HW268026   5.700   5.990   7.431
22690SOL     OW68027   7.002   6.440   8.835
22690SOL    HW168028   6.949   6.499   8.780
22690SOL    HW268029   7.090   6.445   8.798
22691SOL     OW68030   5.629   5.735   7.720
22691SOL    HW168031   5.616   5.805   7.655
22691SOL    HW268032   5.718   5.703   7.703
22692SOL     OW68033   6.769   6.908   7.571
22692SOL    HW168034   6.678   6.878   7.570
22692SOL    HW268035   6.792   6.911   7.664
22693SOL     OW68036   6.212   6.418   8.890
22693SOL    HW168037   6.270   6.492   8.878
22693SOL    HW268038   6.269   6.341   8.889
22694SOL     OW68039   7.073   7.389   8.441
22694SOL    HW168040   7.099   7.463   8.386
22694SOL    HW268041   7.154   7.344   8.461
22695SOL     OW68042   6.310   6.134   9.135
22695SOL    HW168043   6.356   6.189   9.198
22695SOL    HW268044   6.320   6.045   9.168
22696SOL     OW68045   7.054   6.770   9.069
22696SOL    HW168046   7.049   6.790   9.162
22696SOL    HW268047   7.144   6.794   9.045
22697SOL     OW68048   5.942   7.334   9.026
22697SOL    HW168049   5.859   7.381   9.010
22697SOL    HW268050   5.915   7.250   9.063
22698SOL     OW68051   7.242   6.462   8.701
22698SOL    HW168052   7.240   6.378   8.654
22698SOL    HW268053   7.230   6.528   8.632
22699SOL     OW68054   6.806   5.908   7.904
22699SOL    HW168055   6.866   5.833   7.903
22699SOL    HW268056   6.835   5.960   7.979
22700SOL     OW68057   6.161   6.312   8.130
22700SOL    HW168058   6.205   6.396   8.115
22700SOL    HW268059   6.101   6.304   8.056
22701SOL     OW68060   7.333   5.939   9.111
22701SOL    HW168061   7.330   5.955   9.017
22701SOL    HW268062   7.256   5.886   9.129
22702SOL     OW68063   7.346   6.510   8.952
22702SOL    HW168064   7.329   6.603   8.965
22702SOL    HW268065   7.319   6.493   8.862
22703SOL     OW68066   6.458   6.943   7.510
22703SOL    HW168067   6.419   6.963   7.596
22703SOL    HW268068   6.468   7.029   7.469
22704SOL     OW68069   6.255   7.352   8.374
22704SOL    HW168070   6.236   7.446   8.366
22704SOL    HW268071   6.350   7.347   8.372
22705SOL     OW68072   6.458   6.564   8.304
22705SOL    HW168073   6.508   6.490   8.339
22705SOL    HW268074   6.413   6.600   8.380
22706SOL     OW68075   6.659   6.571   7.535
22706SOL    HW168076   6.638   6.624   7.459
22706SOL    HW268077   6.733   6.516   7.506
22707SOL     OW68078   7.416   7.144   8.288
22707SOL    HW168079   7.340   7.136   8.231
22707SOL    HW268080   7.395   7.091   8.364
22708SOL     OW68081   5.796   6.876   9.284
22708SOL    HW168082   5.766   6.796   9.242
22708SOL    HW268083   5.734   6.891   9.355
22709SOL     OW68084   5.703   6.811   8.115
22709SOL    HW168085   5.733   6.769   8.196
22709SOL    HW268086   5.762   6.778   8.048
22710SOL     OW68087   6.273   7.007   9.078
22710SOL    HW168088   6.197   6.968   9.120
22710SOL    HW268089   6.280   7.094   9.117
22711SOL     OW68090   7.398   5.757   8.682
22711SOL    HW168091   7.399   5.662   8.695
22711SOL    HW268092   7.411   5.769   8.588
22712SOL     OW68093   6.005   6.008   7.967
22712SOL    HW168094   6.038   5.938   7.911
22712SOL    HW268095   5.953   5.964   8.033
22713SOL     OW68096   7.281   7.066   8.530
22713SOL    HW168097   7.203   7.047   8.478
22713SOL    HW268098   7.282   6.999   8.598
22714SOL     OW68099   5.938   6.152   8.740
22714SOL    HW168100   5.988   6.087   8.790
22714SOL    HW268101   5.945   6.123   8.649
22715SOL     OW68102   6.424   7.170   8.118
22715SOL    HW168103   6.393   7.239   8.059
22715SOL    HW268104   6.349   7.111   8.126
22716SOL     OW68105   7.007   5.819   8.563
22716SOL    HW168106   7.016   5.730   8.596
22716SOL    HW268107   6.961   5.866   8.633
22717SOL     OW68108   6.596   5.603   8.567
22717SOL    HW168109   6.543   5.540   8.518
22717SOL    HW268110   6.683   5.563   8.571
22718SOL     OW68111   6.366   6.919   7.777
22718SOL    HW168112   6.342   6.827   7.788
22718SOL    HW268113   6.446   6.929   7.828
22719SOL     OW68114   6.201   7.156   8.735
22719SOL    HW168115   6.197   7.240   8.781
22719SOL    HW268116   6.291   7.151   8.703
22720SOL     OW68117   6.966   5.624   7.640
22720SOL    HW168118   7.006   5.553   7.591
22720SOL    HW268119   6.875   5.598   7.651
22721SOL     OW68120   6.884   6.057   8.123
22721SOL    HW168121   6.833   6.138   8.120
22721SOL    HW268122   6.877   6.028   8.214
22722SOL     OW68123   7.168   5.774   8.341
22722SOL    HW168124   7.116   5.804   8.416
22722SOL    HW268125   7.169   5.848   8.281
22723SOL     OW68126   5.623   6.638   7.757
22723SOL    HW168127   5.716   6.626   7.738
22723SOL    HW268128   5.591   6.550   7.777
22724SOL     OW68129   6.481   7.261   7.778
22724SOL    HW168130   6.403   7.246   7.725
22724SOL    HW268131   6.455   7.330   7.839
22725SOL     OW68132   5.797   6.190   9.454
22725SOL    HW168133   5.708   6.181   9.488
22725SOL    HW268134   5.788   6.184   9.359
22726SOL     OW68135   7.392   6.155   9.521
22726SOL    HW168136   7.350   6.157   9.435
22726SOL    HW268137   7.343   6.090   9.570
22727SOL     OW68138   5.798   7.328   9.764
22727SOL    HW168139   5.819   7.400   9.823
22727SOL    HW268140   5.878   7.315   9.713
22728SOL     OW68141   5.808   7.049   9.844
22728SOL    HW168142   5.789   7.140   9.866
22728SOL    HW268143   5.734   7.000   9.879
22729SOL     OW68144   6.157   6.571   9.451
22729SOL    HW168145   6.207   6.615   9.382
22729SOL    HW268146   6.197   6.601   9.533
22730SOL     OW68147   5.650   6.262   9.884
22730SOL    HW168148   5.564   6.228   9.860
22730SOL    HW268149   5.632   6.340   9.936
22731SOL     OW68150   7.416   7.340   9.642
22731SOL    HW168151   7.493   7.320   9.695
22731SOL    HW268152   7.432   7.428   9.608
22732SOL     OW68153   5.635   7.177   9.433
22732SOL    HW168154   5.620   7.083   9.449
22732SOL    HW268155   5.598   7.220   9.510
22733SOL     OW68156   7.261   6.457   9.919
22733SOL    HW168157   7.333   6.478   9.978
22733SOL    HW268158   7.253   6.533   9.862
22734SOL     OW68159   7.280   6.686   9.757
22734SOL    HW168160   7.363   6.682   9.709
22734SOL    HW268161   7.288   6.762   9.814
22735SOL     OW68162   6.226   6.926   9.993
22735SOL    HW168163   6.170   6.849   9.990
22735SOL    HW268164   6.205   6.975   9.914
22736SOL     OW68165   6.404   5.615   9.826
22736SOL    HW168166   6.449   5.694   9.797
22736SOL    HW268167   6.311   5.640   9.828
22737SOL     OW68168   7.144   6.611   9.520
22737SOL    HW168169   7.084   6.542   9.547
22737SOL    HW268170   7.182   6.642   9.602
22738SOL     OW68171   6.171   6.285   9.583
22738SOL    HW168172   6.179   6.371   9.541
22738SOL    HW268173   6.113   6.300   9.658
22739SOL     OW68174   7.149   7.260   9.627
22739SOL    HW168175   7.242   7.282   9.634
22739SOL    HW268176   7.134   7.247   9.534
22740SOL     OW68177   6.632   6.275   9.734
22740SOL    HW168178   6.660   6.252   9.823
22740SOL    HW268179   6.546   6.233   9.724
22741SOL     OW68180   5.640   6.469   0.069
22741SOL    HW168181   5.715   6.426   0.109
22741SOL    HW268182   5.616   6.538   0.132
22742SOL     OW68183   6.479   5.932   9.502
22742SOL    HW168184   6.527   5.991   9.444
22742SOL    HW268185   6.469   5.851   9.452
22743SOL     OW68186   6.900   6.681   9.796
22743SOL    HW168187   6.952   6.710   9.870
22743SOL    HW268188   6.876   6.761   9.750
22744SOL     OW68189   6.579   7.021   9.783
22744SOL    HW168190   6.549   7.106   9.751
22744SOL    HW268191   6.552   7.019   9.874
22745SOL     OW68192   5.938   7.440   0.167
22745SOL    HW168193   5.943   7.359   0.218
22745SOL    HW268194   6.028   7.471   0.163
22746SOL     OW68195   5.903   6.546   9.577
22746SOL    HW168196   5.984   6.560   9.528
22746SOL    HW268197   5.862   6.470   9.534
22747SOL     OW68198   6.723   7.361   9.547
22747SOL    HW168199   6.644   7.327   9.587
22747SOL    HW268200   6.745   7.297   9.478
22748SOL     OW68201   7.223   6.979   9.403
22748SOL    HW168202   7.180   7.063   9.391
22748SOL    HW268203   7.157   6.914   9.380
22749SOL     OW68204   6.054   7.348   9.634
22749SOL    HW168205   6.104   7.376   9.710
22749SOL    HW268206   6.118   7.301   9.580
22750SOL     OW68207   7.010   5.737   9.738
22750SOL    HW168208   6.999   5.695   9.653
22750SOL    HW268209   7.105   5.741   9.751
22751SOL     OW68210   5.982   6.274   9.801
22751SOL    HW168211   5.984   6.180   9.821
22751SOL    HW268212   5.888   6.295   9.793
22752SOL     OW68213   6.247   5.693   9.416
22752SOL    HW168214   6.295   5.614   9.441
22752SOL    HW268215   6.186   5.665   9.349
22753SOL     OW68216   6.130   5.684   9.839
22753SOL    HW168217   6.038   5.678   9.865
22753SOL    HW268218   6.131   5.743   9.764
22754SOL     OW68219   7.026   6.794   9.344
22754SOL    HW168220   7.060   6.726   9.403
22754SOL    HW268221   6.939   6.815   9.380
22755SOL     OW68222   5.871   5.639   9.500
22755SOL    HW168223   5.918   5.706   9.451
22755SOL    HW268224   5.939   5.588   9.544
22756SOL     OW68225   6.534   5.847   9.758
22756SOL    HW168226   6.510   5.878   9.670
22756SOL    HW268227   6.628   5.866   9.764
22757SOL     OW68228   6.028   6.736   0.034
22757SOL    HW168229   5.959   6.773   0.090
22757SOL    HW268230   5.984   6.722   9.950
22758SOL     OW68231   6.886   7.422   9.900
22758SOL    HW168232   6.930   7.487   9.845
22758SOL    HW268233   6.793   7.446   9.895
22759SOL     OW68234   6.618   6.104   9.338
22759SOL    HW168235   6.575   6.187   9.318
22759SOL    HW268236   6.681   6.125   9.407
22760SOL     OW68237   6.430   6.028   9.942
22760SOL    HW168238   6.392   6.092   9.882
22760SOL    HW268239   6.462   5.958   9.886
22761SOL     OW68240   7.468   6.391   9.637
22761SOL    HW168241   7.499   6.352   9.719
22761SOL    HW268242   7.433   6.318   9.587
22762SOL     OW68243   6.080   7.013   9.465
22762SOL    HW168244   6.005   6.979   9.512
22762SOL    HW268245   6.081   6.964   9.382
22763SOL     OW68246   6.975   6.163   9.370
22763SOL    HW168247   6.920   6.140   9.445
22763SOL    HW268248   7.064   6.139   9.398
22764SOL     OW68249   6.128   5.846   9.624
22764SOL    HW168250   6.176   5.801   9.554
22764SOL    HW268251   6.091   5.923   9.582
22765SOL     OW68252   6.294   6.642   9.683
22765SOL    HW168253   6.262   6.596   9.761
22765SOL    HW268254   6.374   6.595   9.659
22766SOL     OW68255   5.892   6.714   9.799
22766SOL    HW168256   5.894   6.790   9.741
22766SOL    HW268257   5.901   6.639   9.740
22767SOL     OW68258   6.824   6.940   9.691
22767SOL    HW168259   6.880   7.011   9.722
22767SOL    HW268260   6.737   6.960   9.726
22768SOL     OW68261   7.222   6.224   9.789
22768SOL    HW168262   7.225   6.298   9.849
22768SOL    HW268263   7.173   6.257   9.713
22769SOL     OW68264   6.783   6.117   9.565
22769SOL    HW168265   6.789   6.041   9.623
22769SOL    HW268266   6.743   6.186   9.619
22770SOL     OW68267   5.865   5.672   9.926
22770SOL    HW168268   5.799   5.739   9.944
22770SOL    HW268269   5.883   5.632   0.012
22771SOL     OW68270   7.217   5.982   9.655
22771SOL    HW168271   7.240   5.906   9.709
22771SOL    HW268272   7.208   6.053   9.718
22772SOL     OW68273   7.106   5.859   9.425
22772SOL    HW168274   7.053   5.787   9.460
22772SOL    HW268275   7.143   5.901   9.503
22773SOL     OW68276   6.866   6.411   9.330
22773SOL    HW168277   6.904   6.323   9.337
22773SOL    HW268278   6.902   6.446   9.249
22774SOL     OW68279   5.609   6.902   9.485
22774SOL    HW168280   5.519   6.921   9.459
22774SOL    HW268281   5.605   6.815   9.524
22775SOL     OW68282   6.393   6.144   9.682
22775SOL    HW168283   6.405   6.076   9.616
22775SOL    HW268284   6.321   6.197   9.649
22776SOL     OW68285   6.033   6.062   9.484
22776SOL    HW168286   6.094   6.132   9.507
22776SOL    HW268287   5.948   6.105   9.481
22777SOL     OW68288   6.955   6.432   9.605
22777SOL    HW168289   6.902   6.484   9.666
22777SOL    HW268290   6.901   6.425   9.526
22778SOL     OW68291   7.293   5.743   9.771
22778SOL    HW168292   7.363   5.744   9.707
22778SOL    HW268293   7.309   5.665   9.824
22779SOL     OW68294   6.950   7.175   9.794
22779SOL    HW168295   7.021   7.192   9.732
22779SOL    HW268296   6.922   7.262   9.823
22780SOL     OW68297   6.253   7.225   9.474
22780SOL    HW168298   6.270   7.238   9.381
22780SOL    HW268299   6.200   7.146   9.479
22781SOL     OW68300   6.794   7.180   9.350
22781SOL    HW168301   6.786   7.087   9.373
22781SOL    HW268302   6.725   7.194   9.285
22782SOL     OW68303   6.510   6.499   9.615
22782SOL    HW168304   6.565   6.527   9.542
22782SOL    HW268305   6.560   6.430   9.658
22783SOL     OW68306   7.071   7.232   9.360
22783SOL    HW168307   6.978   7.214   9.344
22783SOL    HW268308   7.110   7.235   9.273
22784SOL     OW68309   6.178   7.063   9.762
22784SOL    HW168310   6.239   7.020   9.702
22784SOL    HW268311   6.096   7.069   9.714
22785SOL     OW68312   5.864   6.928   9.614
22785SOL    HW168313   5.778   6.923   9.572
22785SOL    HW268314   5.848   6.979   9.694
22786SOL     OW68315   5.670   5.902   9.321
22786SOL    HW168316   5.593   5.883   9.267
22786SOL    HW268317   5.699   5.988   9.291
22787SOL     OW68318   5.628   5.739   9.578
22787SOL    HW168319   5.618   5.806   9.510
22787SOL    HW268320   5.717   5.706   9.566
22788SOL     OW68321   6.767   6.909   9.422
22788SOL    HW168322   6.676   6.879   9.422
22788SOL    HW268323   6.790   6.914   9.515
22789SOL     OW68324   6.801   5.921   9.769
22789SOL    HW168325   6.877   5.862   9.760
22789SOL    HW268326   6.821   5.976   9.844
22790SOL     OW68327   6.196   6.428   9.892
22790SOL    HW168328   6.197   6.430   9.988
22790SOL    HW268329   6.122   6.371   9.870
22791SOL     OW68330   6.457   6.943   9.363
22791SOL    HW168331   6.422   6.960   9.450
22791SOL    HW268332   6.468   7.031   9.325
22792SOL     OW68333   6.653   6.564   9.396
22792SOL    HW168334   6.635   6.621   9.321
22792SOL    HW268335   6.729   6.512   9.370
22793SOL     OW68336   5.640   6.826   9.899
22793SOL    HW168337   5.637   6.833   9.994
22793SOL    HW268338   5.716   6.771   9.881
22794SOL     OW68339   5.994   6.011   9.866
22794SOL    HW168340   6.045   5.950   9.812
22794SOL    HW268341   6.032   6.003   9.954
22795SOL     OW68342   6.369   6.915   9.627
22795SOL    HW168343   6.343   6.824   9.643
22795SOL    HW268344   6.446   6.929   9.682
22796SOL     OW68345   6.963   5.627   9.493
22796SOL    HW168346   7.006   5.551   9.454
22796SOL    HW268347   6.873   5.599   9.509
22797SOL     OW68348   5.642   6.655   9.597
22797SOL    HW168349   5.738   6.648   9.591
22797SOL    HW268350   5.612   6.564   9.601
22798SOL     OW68351   6.480   7.258   9.664
22798SOL    HW168352   6.405   7.240   9.608
22798SOL    HW268353   6.451   7.327   9.723
22799SOL     OW68354   5.784   8.061   0.126
22799SOL    HW168355   5.701   8.045   0.171
22799SOL    HW268356   5.759   8.071   0.034
22800SOL     OW68357   5.805   7.736   0.990
22800SOL    HW168358   5.835   7.701   1.073
22800SOL    HW268359   5.718   7.699   0.978
22801SOL     OW68360   5.570   7.846   0.647
22801SOL    HW168361   5.488   7.868   0.692
22801SOL    HW268362   5.547   7.771   0.593
22802SOL     OW68363   6.160   8.754   1.208
22802SOL    HW168364   6.078   8.758   1.160
22802SOL    HW268365   6.178   8.845   1.232
22803SOL     OW68366   7.175   8.970   0.706
22803SOL    HW168367   7.128   8.939   0.784
22803SOL    HW268368   7.108   8.973   0.638
22804SOL     OW68369   6.725   8.149   0.686
22804SOL    HW168370   6.771   8.232   0.676
22804SOL    HW268371   6.675   8.158   0.767
22805SOL     OW68372   7.360   8.031   0.200
22805SOL    HW168373   7.286   8.060   0.147
22805SOL    HW268374   7.325   7.958   0.252
22806SOL     OW68375   6.313   8.576   1.058
22806SOL    HW168376   6.254   8.616   1.122
22806SOL    HW268377   6.357   8.650   1.016
22807SOL     OW68378   6.473   8.189   1.828
22807SOL    HW168379   6.465   8.256   1.896
22807SOL    HW268380   6.490   8.239   1.748
22808SOL     OW68381   6.271   8.426   0.646
22808SOL    HW168382   6.339   8.427   0.713
22808SOL    HW268383   6.206   8.488   0.676
22809SOL     OW68384   6.298   8.597   1.832
22809SOL    HW168385   6.349   8.670   1.867
22809SOL    HW268386   6.221   8.639   1.792
22810SOL     OW68387   5.928   8.844   1.070
22810SOL    HW168388   5.852   8.802   1.031
22810SOL    HW268389   5.964   8.900   1.001
22811SOL     OW68390   7.040   8.954   1.372
22811SOL    HW168391   7.095   9.031   1.384
22811SOL    HW268392   6.968   8.965   1.434
22812SOL     OW68393   6.044   7.822   1.455
22812SOL    HW168394   6.119   7.764   1.471
22812SOL    HW268395   5.968   7.771   1.483
22813SOL     OW68396   7.166   7.880   0.753
22813SOL    HW168397   7.092   7.888   0.692
22813SOL    HW268398   7.152   7.950   0.816
22814SOL     OW68399   5.813   9.170   0.468
22814SOL    HW168400   5.828   9.245   0.526
22814SOL    HW268401   5.898   9.152   0.429
22815SOL     OW68402   6.721   8.789   1.697
22815SOL    HW168403   6.767   8.778   1.780
22815SOL    HW268404   6.667   8.710   1.688
22816SOL     OW68405   5.794   8.894   0.508
22816SOL    HW168406   5.788   8.989   0.517
22816SOL    HW268407   5.755   8.859   0.588
22817SOL     OW68408   5.867   8.535   0.881
22817SOL    HW168409   5.869   8.446   0.916
22817SOL    HW268410   5.813   8.584   0.942
22818SOL     OW68411   6.161   9.245   1.423
22818SOL    HW168412   6.083   9.228   1.476
22818SOL    HW268413   6.191   9.331   1.452
22819SOL     OW68414   6.154   8.396   0.175
22819SOL    HW168415   6.129   8.465   0.114
22819SOL    HW268416   6.212   8.439   0.237
22820SOL     OW68417   7.177   7.581   1.459
22820SOL    HW168418   7.215   7.658   1.416
22820SOL    HW268419   7.146   7.614   1.543
22821SOL     OW68420   5.700   8.101   0.573
22821SOL    HW168421   5.665   8.016   0.597
22821SOL    HW268422   5.693   8.154   0.652
22822SOL     OW68423   7.445   9.182   0.307
22822SOL    HW168424   7.514   9.162   0.371
22822SOL    HW268425   7.460   9.274   0.284
22823SOL     OW68426   5.663   9.022   0.091
22823SOL    HW168427   5.633   8.934   0.114
22823SOL    HW268428   5.630   9.079   0.161
22824SOL     OW68429   7.284   8.368   0.664
22824SOL    HW168430   7.367   8.324   0.647
22824SOL    HW268431   7.265   8.417   0.584
22825SOL     OW68432   7.248   8.538   0.443
22825SOL    HW168433   7.330   8.534   0.393
22825SOL    HW268434   7.263   8.608   0.507
22826SOL     OW68435   5.707   8.197   1.578
22826SOL    HW168436   5.793   8.240   1.583
22826SOL    HW268437   5.645   8.269   1.565
22827SOL     OW68438   6.208   8.834   0.748
22827SOL    HW168439   6.166   8.748   0.749
22827SOL    HW268440   6.195   8.865   0.658
22828SOL     OW68441   6.857   8.674   1.417
22828SOL    HW168442   6.884   8.604   1.357
22828SOL    HW268443   6.918   8.668   1.490
22829SOL     OW68444   6.418   7.463   0.529
22829SOL    HW168445   6.459   7.544   0.498
22829SOL    HW268446   6.324   7.483   0.530
22830SOL     OW68447   5.773   8.404   1.302
22830SOL    HW168448   5.860   8.369   1.285
22830SOL    HW268449   5.718   8.367   1.233
22831SOL     OW68450   7.077   8.476   0.236
22831SOL    HW168451   7.023   8.404   0.267
22831SOL    HW268452   7.139   8.492   0.307
22832SOL     OW68453   6.769   9.270   1.632
22832SOL    HW168454   6.769   9.331   1.559
22832SOL    HW268455   6.784   9.184   1.593
22833SOL     OW68456   5.946   7.701   1.875
22833SOL    HW168457   5.981   7.782   1.913
22833SOL    HW268458   5.851   7.716   1.873
22834SOL     OW68459   7.059   8.863   0.931
22834SOL    HW168460   6.995   8.883   1.000
22834SOL    HW268461   7.040   8.773   0.907
22835SOL     OW68462   7.235   9.237   0.567
22835SOL    HW168463   7.214   9.193   0.485
22835SOL    HW268464   7.229   9.169   0.633
22836SOL     OW68465   6.179   8.139   0.285
22836SOL    HW168466   6.185   8.225   0.244
22836SOL    HW268467   6.112   8.149   0.353
22837SOL     OW68468   6.868   7.839   0.941
22837SOL    HW168469   6.779   7.805   0.947
22837SOL    HW268470   6.920   7.781   0.997
22838SOL     OW68471   7.174   9.122   0.324
22838SOL    HW168472   7.268   9.133   0.310
22838SOL    HW268473   7.138   9.106   0.237
22839SOL     OW68474   6.375   8.062   1.430
22839SOL    HW168475   6.353   8.033   1.519
22839SOL    HW268476   6.351   7.988   1.374
22840SOL     OW68477   6.978   7.924   1.674
22840SOL    HW168478   6.983   7.968   1.759
22840SOL    HW268479   7.028   7.844   1.685
22841SOL     OW68480   6.530   8.328   1.593
22841SOL    HW168481   6.586   8.265   1.549
22841SOL    HW268482   6.482   8.371   1.523
22842SOL     OW68483   6.594   7.846   1.209
22842SOL    HW168484   6.501   7.859   1.232
22842SOL    HW268485   6.591   7.801   1.125
22843SOL     OW68486   6.652   8.146   0.416
22843SOL    HW168487   6.672   8.142   0.510
22843SOL    HW268488   6.567   8.102   0.408
22844SOL     OW68489   5.679   8.276   0.782
22844SOL    HW168490   5.761   8.268   0.830
22844SOL    HW268491   5.632   8.347   0.827
22845SOL     OW68492   5.691   9.318   1.585
22845SOL    HW168493   5.700   9.302   1.679
22845SOL    HW268494   5.606   9.280   1.562
22846SOL     OW68495   6.447   7.787   0.200
22846SOL    HW168496   6.433   7.836   0.118
22846SOL    HW268497   6.456   7.696   0.171
22847SOL     OW68498   7.273   8.010   1.840
22847SOL    HW168499   7.251   8.088   1.788
22847SOL    HW268500   7.302   7.946   1.775
22848SOL     OW68501   6.982   8.597   0.556
22848SOL    HW168502   7.060   8.587   0.502
22848SOL    HW268503   6.926   8.658   0.507
22849SOL     OW68504   6.137   7.611   0.915
22849SOL    HW168505   6.143   7.638   1.007
22849SOL    HW268506   6.133   7.693   0.866
22850SOL     OW68507   6.584   8.899   0.472
22850SOL    HW168508   6.560   8.976   0.421
22850SOL    HW268509   6.553   8.918   0.561
22851SOL     OW68510   5.939   9.264   0.880
22851SOL    HW168511   5.985   9.180   0.884
22851SOL    HW268512   6.006   9.329   0.899
22852SOL     OW68513   7.389   8.492   0.895
22852SOL    HW168514   7.341   8.475   0.814
22852SOL    HW268515   7.322   8.502   0.962
22853SOL     OW68516   6.804   8.991   1.516
22853SOL    HW168517   6.793   8.920   1.580
22853SOL    HW268518   6.736   8.975   1.451
22854SOL     OW68519   5.898   8.377   0.289
22854SOL    HW168520   5.980   8.384   0.240
22854SOL    HW268521   5.900   8.288   0.325
22855SOL     OW68522   7.070   8.205   0.713
22855SOL    HW168523   7.071   8.164   0.800
22855SOL    HW268524   7.149   8.260   0.712
22856SOL     OW68525   6.059   8.732   1.748
22856SOL    HW168526   6.035   8.736   1.656
22856SOL    HW268527   5.976   8.719   1.794
22857SOL     OW68528   6.683   9.229   0.181
22857SOL    HW168529   6.629   9.188   0.249
22857SOL    HW268530   6.723   9.155   0.135
22858SOL     OW68531   5.794   7.704   1.499
22858SOL    HW168532   5.723   7.764   1.519
22858SOL    HW268533   5.764   7.619   1.532
22859SOL     OW68534   7.218   8.820   0.109
22859SOL    HW168535   7.176   8.906   0.104
22859SOL    HW268536   7.152   8.759   0.077
22860SOL     OW68537   6.071   9.163   0.370
22860SOL    HW168538   6.106   9.239   0.416
22860SOL    HW268539   6.136   9.142   0.304
22861SOL     OW68540   6.981   7.551   0.447
22861SOL    HW168541   6.979   7.531   0.354
22861SOL    HW268542   7.073   7.538   0.472
22862SOL     OW68543   5.837   9.231   1.214
22862SOL    HW168544   5.887   9.157   1.248
22862SOL    HW268545   5.826   9.211   1.121
22863SOL     OW68546   6.533   9.146   0.893
22863SOL    HW168547   6.618   9.104   0.907
22863SOL    HW268548   6.493   9.094   0.824
22864SOL     OW68549   5.959   8.141   0.464
22864SOL    HW168550   5.982   8.049   0.475
22864SOL    HW268551   5.871   8.148   0.499
22865SOL     OW68552   7.094   7.670   1.717
22865SOL    HW168553   7.107   7.689   1.810
22865SOL    HW268554   7.029   7.600   1.716
22866SOL     OW68555   6.193   7.540   0.117
22866SOL    HW168556   6.288   7.531   0.127
22866SOL    HW268557   6.179   7.547   0.022
22867SOL     OW68558   6.345   7.721   1.752
22867SOL    HW168559   6.429   7.676   1.750
22867SOL    HW268560   6.298   7.682   1.826
22868SOL     OW68561   6.457   8.976   1.201
22868SOL    HW168562   6.439   8.934   1.116
22868SOL    HW268563   6.524   8.921   1.241
22869SOL     OW68564   6.916   8.040   1.433
22869SOL    HW168565   6.949   8.009   1.518
22869SOL    HW268566   6.955   8.126   1.422
22870SOL     OW68567   6.404   8.823   0.962
22870SOL    HW168568   6.490   8.819   0.920
22870SOL    HW268569   6.343   8.836   0.889
22871SOL     OW68570   6.517   7.963   0.890
22871SOL    HW168571   6.492   7.950   0.799
22871SOL    HW268572   6.544   7.876   0.920
22872SOL     OW68573   6.150   7.524   0.503
22872SOL    HW168574   6.071   7.522   0.556
22872SOL    HW268575   6.137   7.597   0.442
22873SOL     OW68576   7.014   8.647   0.035
22873SOL    HW168577   7.038   8.581   0.099
22873SOL    HW268578   6.933   8.685   0.069
22874SOL     OW68579   6.538   7.698   0.450
22874SOL    HW168580   6.506   7.734   0.367
22874SOL    HW268581   6.631   7.720   0.451
22875SOL     OW68582   6.662   8.141   1.445
22875SOL    HW168583   6.599   8.069   1.451
22875SOL    HW268584   6.747   8.099   1.442
22876SOL     OW68585   6.793   9.035   0.803
22876SOL    HW168586   6.808   9.094   0.729
22876SOL    HW268587   6.863   9.055   0.864
22877SOL     OW68588   6.067   8.600   0.711
22877SOL    HW168589   6.004   8.578   0.780
22877SOL    HW268590   6.017   8.596   0.630
22878SOL     OW68591   6.839   9.236   0.612
22878SOL    HW168592   6.888   9.300   0.561
22878SOL    HW268593   6.768   9.286   0.652
22879SOL     OW68594   6.679   8.011   9.980
22879SOL    HW168595   6.592   7.972   9.986
22879SOL    HW268596   6.715   8.002   0.069
22880SOL     OW68597   5.685   8.000   1.390
22880SOL    HW168598   5.777   8.001   1.365
22880SOL    HW268599   5.678   8.069   1.457
22881SOL     OW68600   6.145   7.669   1.185
22881SOL    HW168601   6.182   7.605   1.245
22881SOL    HW268602   6.051   7.670   1.206
22882SOL     OW68603   6.459   7.900   0.633
22882SOL    HW168604   6.424   7.957   0.564
22882SOL    HW268605   6.483   7.819   0.587
22883SOL     OW68606   6.611   7.505   0.742
22883SOL    HW168607   6.547   7.502   0.671
22883SOL    HW268608   6.586   7.433   0.800
22884SOL     OW68609   7.017   8.600   0.855
22884SOL    HW168610   6.949   8.533   0.867
22884SOL    HW268611   7.026   8.607   0.760
22885SOL     OW68612   7.048   8.063   0.952
22885SOL    HW168613   6.984   7.992   0.962
22885SOL    HW268614   7.103   8.056   1.029
22886SOL     OW68615   7.446   8.237   0.368
22886SOL    HW168616   7.487   8.188   0.439
22886SOL    HW268617   7.407   8.170   0.312
22887SOL     OW68618   6.089   8.892   0.214
22887SOL    HW168619   6.008   8.846   0.235
22887SOL    HW268620   6.131   8.836   0.148
22888SOL     OW68621   7.297   8.720   0.631
22888SOL    HW168622   7.389   8.713   0.655
22888SOL    HW268623   7.271   8.808   0.658
22889SOL     OW68624   7.003   8.013   0.095
22889SOL    HW168625   6.926   8.001   0.151
22889SOL    HW268626   7.040   7.926   0.086
22890SOL     OW68627   6.094   7.712   0.310
22890SOL    HW168628   6.132   7.653   0.244
22890SOL    HW268629   6.072   7.791   0.261
22891SOL     OW68630   7.321   8.692   1.532
22891SOL    HW168631   7.409   8.658   1.519
22891SOL    HW268632   7.334   8.779   1.570
22892SOL     OW68633   6.628   8.803   1.336
22892SOL    HW168634   6.551   8.768   1.380
22892SOL    HW268635   6.702   8.758   1.376
22893SOL     OW68636   7.193   9.083   1.672
22893SOL    HW168637   7.182   9.119   1.584
22893SOL    HW268638   7.271   9.027   1.665
22894SOL     OW68639   6.736   8.685   1.105
22894SOL    HW168640   6.674   8.720   1.170
22894SOL    HW268641   6.703   8.717   1.021
22895SOL     OW68642   7.193   8.539   1.078
22895SOL    HW168643   7.186   8.606   1.147
22895SOL    HW268644   7.124   8.561   1.016
22896SOL     OW68645   6.505   7.529   1.383
22896SOL    HW168646   6.526   7.514   1.291
22896SOL    HW268647   6.583   7.570   1.419
22897SOL     OW68648   6.565   8.563   1.724
22897SOL    HW168649   6.475   8.580   1.751
22897SOL    HW268650   6.560   8.483   1.673
22898SOL     OW68651   6.310   8.502   0.378
22898SOL    HW168652   6.296   8.474   0.468
22898SOL    HW268653   6.390   8.457   0.351
22899SOL     OW68654   6.012   8.275   1.259
22899SOL    HW168655   6.080   8.285   1.326
22899SOL    HW268656   5.982   8.185   1.269
22900SOL     OW68657   6.851   7.817   1.291
22900SOL    HW168658   6.878   7.897   1.336
22900SOL    HW268659   6.761   7.835   1.262
22901SOL     OW68660   5.664   9.018   1.363
22901SOL    HW168661   5.635   9.089   1.307
22901SOL    HW268662   5.760   9.017   1.354
22902SOL     OW68663   5.902   8.574   0.489
22902SOL    HW168664   5.901   8.644   0.424
22902SOL    HW268665   5.910   8.493   0.437
22903SOL     OW68666   6.119   7.961   0.857
22903SOL    HW168667   6.129   8.020   0.782
22903SOL    HW268668   6.187   7.988   0.919
22904SOL     OW68669   6.835   8.795   0.419
22904SOL    HW168670   6.890   8.868   0.446
22904SOL    HW268671   6.746   8.821   0.444
22905SOL     OW68672   6.895   8.914   1.143
22905SOL    HW168673   6.943   8.922   1.226
22905SOL    HW268674   6.844   8.834   1.151
22906SOL     OW68675   7.125   8.070   0.473
22906SOL    HW168676   7.104   8.108   0.558
22906SOL    HW268677   7.081   8.126   0.410
22907SOL     OW68678   5.931   8.978   1.303
22907SOL    HW168679   5.924   8.926   1.223
22907SOL    HW268680   6.025   8.995   1.313
22908SOL     OW68681   6.018   8.194   1.619
22908SOL    HW168682   6.077   8.237   1.556
22908SOL    HW268683   6.063   8.112   1.640
22909SOL     OW68684   7.213   8.234   1.698
22909SOL    HW168685   7.126   8.272   1.689
22909SOL    HW268686   7.264   8.272   1.626
22910SOL     OW68687   6.581   7.589   1.757
22910SOL    HW168688   6.640   7.662   1.738
22910SOL    HW268689   6.632   7.511   1.736
22911SOL     OW68690   6.082   7.484   1.762
22911SOL    HW168691   6.026   7.433   1.702
22911SOL    HW268692   6.029   7.561   1.784
22912SOL     OW68693   6.175   8.323   1.038
22912SOL    HW168694   6.215   8.410   1.041
22912SOL    HW268695   6.119   8.318   1.115
22913SOL     OW68696   6.895   8.302   1.003
22913SOL    HW168697   6.807   8.275   0.977
22913SOL    HW268698   6.949   8.225   0.986
22914SOL     OW68699   6.777   7.967   0.246
22914SOL    HW168700   6.789   7.891   0.304
22914SOL    HW268701   6.736   8.033   0.302
22915SOL     OW68702   5.877   7.642   1.239
22915SOL    HW168703   5.843   7.670   1.324
22915SOL    HW268704   5.861   7.547   1.237
22916SOL     OW68705   5.635   8.760   1.267
22916SOL    HW168706   5.665   8.705   1.339
22916SOL    HW268707   5.638   8.849   1.303
22917SOL     OW68708   6.295   8.069   1.037
22917SOL    HW168709   6.374   8.062   0.984
22917SOL    HW268710   6.267   8.160   1.028
22918SOL     OW68711   7.337   8.416   1.869
22918SOL    HW168712   7.297   8.343   1.821
22918SOL    HW268713   7.273   8.436   1.938
22919SOL     OW68714   5.905   7.512   0.630
22919SOL    HW168715   5.873   7.600   0.649
22919SOL    HW268716   5.912   7.470   0.716
22920SOL     OW68717   7.223   7.841   0.352
22920SOL    HW168718   7.256   7.777   0.414
22920SOL    HW268719   7.188   7.911   0.406
22921SOL     OW68720   6.620   8.206   0.958
22921SOL    HW168721   6.598   8.221   1.050
22921SOL    HW268722   6.590   8.117   0.940
22922SOL     OW68723   6.568   9.014   1.734
22922SOL    HW168724   6.547   9.057   1.651
22922SOL    HW268725   6.605   8.930   1.708
22923SOL     OW68726   7.423   8.943   1.602
22923SOL    HW168727   7.451   8.971   1.515
22923SOL    HW268728   7.502   8.953   1.656
22924SOL     OW68729   5.935   8.368   1.815
22924SOL    HW168730   6.012   8.385   1.871
22924SOL    HW268731   5.967   8.304   1.751
22925SOL     OW68732   7.085   7.753   0.128
22925SOL    HW168733   7.037   7.673   0.150
22925SOL    HW268734   7.133   7.774   0.208
22926SOL     OW68735   6.907   8.266   0.040
22926SOL    HW168736   6.941   8.177   0.041
22926SOL    HW268737   6.964   8.313   9.979
22927SOL     OW68738   6.656   8.801   0.866
22927SOL    HW168739   6.667   8.728   0.805
22927SOL    HW268740   6.709   8.872   0.829
22928SOL     OW68741   5.904   8.262   0.944
22928SOL    HW168742   5.998   8.278   0.945
22928SOL    HW268743   5.894   8.172   0.975
22929SOL     OW68744   5.899   7.986   1.010
22929SOL    HW168745   5.859   7.899   1.002
22929SOL    HW268746   5.976   7.983   0.954
22930SOL     OW68747   6.725   7.816   1.685
22930SOL    HW168748   6.679   7.866   1.752
22930SOL    HW268749   6.810   7.858   1.676
22931SOL     OW68750   6.742   7.638   1.473
22931SOL    HW168751   6.731   7.699   1.545
22931SOL    HW268752   6.788   7.688   1.406
22932SOL     OW68753   5.604   8.738   0.170
22932SOL    HW168754   5.514   8.768   0.154
22932SOL    HW268755   5.594   8.658   0.223
22933SOL     OW68756   5.678   9.216   0.950
22933SOL    HW168757   5.645   9.142   0.899
22933SOL    HW268758   5.765   9.233   0.913
22934SOL     OW68759   6.071   9.018   0.904
22934SOL    HW168760   6.140   9.080   0.924
22934SOL    HW268761   6.112   8.952   0.848
22935SOL     OW68762   6.534   8.228   1.216
22935SOL    HW168763   6.597   8.217   1.287
22935SOL    HW268764   6.455   8.183   1.247
22936SOL     OW68765   5.626   8.022   1.120
22936SOL    HW168766   5.708   8.017   1.071
22936SOL    HW268767   5.653   8.014   1.212
22937SOL     OW68768   5.772   7.986   1.744
22937SOL    HW168769   5.845   7.954   1.691
22937SOL    HW268770   5.736   8.060   1.694
22938SOL     OW68771   6.978   8.369   1.652
22938SOL    HW168772   6.995   8.463   1.647
22938SOL    HW268773   6.970   8.341   1.560
22939SOL     OW68774   6.414   8.012   0.374
22939SOL    HW168775   6.419   7.937   0.315
22939SOL    HW268776   6.335   8.059   0.346
22940SOL     OW68777   7.222   8.049   1.164
22940SOL    HW168778   7.213   7.990   1.239
22940SOL    HW268779   7.313   8.038   1.136
22941SOL     OW68780   5.811   8.986   1.723
22941SOL    HW168781   5.787   9.034   1.803
22941SOL    HW268782   5.824   8.896   1.753
22942SOL     OW68783   6.320   7.881   1.233
22942SOL    HW168784   6.256   7.811   1.219
22942SOL    HW268785   6.301   7.945   1.164
22943SOL     OW68786   6.492   9.128   1.488
22943SOL    HW168787   6.469   9.080   1.408
22943SOL    HW268788   6.494   9.220   1.461
22944SOL     OW68789   6.037   7.934   0.156
22944SOL    HW168790   6.096   8.001   0.191
22944SOL    HW268791   5.952   7.978   0.151
22945SOL     OW68792   5.716   8.598   1.481
22945SOL    HW168793   5.720   8.559   1.568
22945SOL    HW268794   5.737   8.527   1.421
22946SOL     OW68795   6.889   8.482   1.209
22946SOL    HW168796   6.899   8.419   1.138
22946SOL    HW268797   6.835   8.552   1.171
22947SOL     OW68798   6.913   8.267   0.319
22947SOL    HW168799   6.828   8.244   0.356
22947SOL    HW268800   6.899   8.263   0.224
22948SOL     OW68801   7.373   9.171   1.170
22948SOL    HW168802   7.435   9.197   1.102
22948SOL    HW268803   7.341   9.085   1.143
22949SOL     OW68804   6.826   9.178   1.090
22949SOL    HW168805   6.910   9.208   1.056
22949SOL    HW268806   6.841   9.087   1.115
22950SOL     OW68807   5.692   8.696   1.011
22950SOL    HW168808   5.664   8.718   1.100
22950SOL    HW268809   5.620   8.643   0.975
22951SOL     OW68810   6.276   9.128   1.750
22951SOL    HW168811   6.211   9.198   1.737
22951SOL    HW268812   6.348   9.152   1.692
22952SOL     OW68813   6.472   7.527   0.099
22952SOL    HW168814   6.466   7.500   0.007
22952SOL    HW268815   6.550   7.481   0.132
22953SOL     OW68816   7.340   7.630   0.495
22953SOL    HW168817   7.400   7.607   0.425
22953SOL    HW268818   7.310   7.546   0.530
22954SOL     OW68819   6.985   9.017   0.504
22954SOL    HW168820   7.042   9.052   0.436
22954SOL    HW268821   6.932   9.091   0.532
22955SOL     OW68822   5.719   9.255   1.844
22955SOL    HW168823   5.680   9.178   1.886
22955SOL    HW268824   5.771   9.296   1.913
22956SOL     OW68825   6.865   8.381   0.669
22956SOL    HW168826   6.939   8.321   0.682
22956SOL    HW268827   6.902   8.453   0.619
22957SOL     OW68828   6.370   8.728   1.414
22957SOL    HW168829   6.344   8.775   1.493
22957SOL    HW268830   6.295   8.738   1.354
22958SOL     OW68831   6.269   9.088   0.186
22958SOL    HW168832   6.284   9.092   0.091
22958SOL    HW268833   6.213   9.011   0.198
22959SOL     OW68834   7.203   9.177   1.401
22959SOL    HW168835   7.260   9.176   1.324
22959SOL    HW268836   7.186   9.270   1.418
22960SOL     OW68837   7.431   7.608   0.964
22960SOL    HW168838   7.459   7.519   0.944
22960SOL    HW268839   7.343   7.614   0.926
22961SOL     OW68840   5.828   7.760   0.709
22961SOL    HW168841   5.742   7.796   0.689
22961SOL    HW268842   5.833   7.760   0.805
22962SOL     OW68843   6.801   9.014   0.054
22962SOL    HW168844   6.790   8.924   0.085
22962SOL    HW268845   6.814   9.007   9.960
22963SOL     OW68846   6.409   8.459   1.385
22963SOL    HW168847   6.447   8.450   1.298
22963SOL    HW268848   6.399   8.553   1.397
22964SOL     OW68849   6.529   8.371   0.295
22964SOL    HW168850   6.578   8.392   0.216
22964SOL    HW268851   6.576   8.297   0.334
22965SOL     OW68852   7.075   9.058   0.073
22965SOL    HW168853   6.980   9.051   0.084
22965SOL    HW268854   7.088   9.066   9.979
22966SOL     OW68855   5.949   8.760   1.502
22966SOL    HW168856   5.942   8.833   1.441
22966SOL    HW268857   5.871   8.707   1.486
22967SOL     OW68858   7.185   8.738   1.277
22967SOL    HW168859   7.239   8.714   1.352
22967SOL    HW268860   7.126   8.805   1.311
22968SOL     OW68861   6.662   8.566   0.730
22968SOL    HW168862   6.586   8.517   0.761
22968SOL    HW268863   6.724   8.499   0.702
22969SOL     OW68864   6.619   7.697   0.962
22969SOL    HW168865   6.619   7.654   0.876
22969SOL    HW268866   6.612   7.625   1.024
22970SOL     OW68867   6.199   8.931   0.498
22970SOL    HW168868   6.243   8.879   0.432
22970SOL    HW268869   6.132   8.981   0.450
22971SOL     OW68870   7.331   7.831   1.387
22971SOL    HW168871   7.402   7.895   1.384
22971SOL    HW268872   7.357   7.762   1.327
22972SOL     OW68873   5.855   8.761   0.284
22972SOL    HW168874   5.772   8.763   0.236
22972SOL    HW268875   5.839   8.815   0.362
22973SOL     OW68876   5.706   8.494   1.735
22973SOL    HW168877   5.629   8.466   1.785
22973SOL    HW268878   5.778   8.443   1.772
22974SOL     OW68879   6.265   7.636   1.495
22974SOL    HW168880   6.349   7.611   1.456
22974SOL    HW268881   6.288   7.670   1.582
22975SOL     OW68882   5.673   7.723   0.020
22975SOL    HW168883   5.584   7.739   9.990
22975SOL    HW268884   5.720   7.803   9.998
22976SOL     OW68885   7.001   8.302   1.388
22976SOL    HW168886   6.948   8.361   1.333
22976SOL    HW268887   7.089   8.306   1.351
22977SOL     OW68888   5.661   7.589   0.278
22977SOL    HW168889   5.653   7.639   0.196
22977SOL    HW268890   5.755   7.577   0.290
22978SOL     OW68891   6.784   8.758   0.146
22978SOL    HW168892   6.699   8.716   0.137
22978SOL    HW268893   6.802   8.757   0.240
22979SOL     OW68894   6.211   8.280   1.441
22979SOL    HW168895   6.270   8.354   1.430
22979SOL    HW268896   6.269   8.203   1.440
22980SOL     OW68897   7.072   9.240   0.989
22980SOL    HW168898   7.096   9.318   0.940
22980SOL    HW268899   7.155   9.200   1.013
22981SOL     OW68900   6.311   7.996   1.686
22981SOL    HW168901   6.358   8.050   1.750
22981SOL    HW268902   6.321   7.906   1.718
22982SOL     OW68903   7.054   8.632   1.619
22982SOL    HW168904   7.047   8.654   1.712
22982SOL    HW268905   7.144   8.656   1.596
22983SOL     OW68906   5.937   9.189   1.576
22983SOL    HW168907   5.855   9.236   1.559
22983SOL    HW268908   5.910   9.106   1.615
22984SOL     OW68909   7.241   8.323   1.253
22984SOL    HW168910   7.239   8.240   1.207
22984SOL    HW268911   7.228   8.389   1.185
22985SOL     OW68912   6.806   7.772   0.451
22985SOL    HW168913   6.867   7.697   0.449
22985SOL    HW268914   6.835   7.823   0.527
22986SOL     OW68915   6.152   8.172   0.678
22986SOL    HW168916   6.199   8.254   0.666
22986SOL    HW268917   6.088   8.170   0.606
22987SOL     OW68918   7.333   7.803   1.664
22987SOL    HW168919   7.329   7.819   1.569
22987SOL    HW268920   7.256   7.750   1.682
22988SOL     OW68921   7.346   8.373   1.504
22988SOL    HW168922   7.329   8.466   1.517
22988SOL    HW268923   7.319   8.356   1.414
22989SOL     OW68924   6.482   8.867   0.043
22989SOL    HW168925   6.397   8.828   0.025
22989SOL    HW268926   6.480   8.889   0.136
22990SOL     OW68927   6.253   9.215   0.924
22990SOL    HW168928   6.234   9.308   0.916
22990SOL    HW268929   6.349   9.211   0.925
22991SOL     OW68930   6.458   8.423   0.856
22991SOL    HW168931   6.509   8.351   0.892
22991SOL    HW268932   6.413   8.461   0.932
22992SOL     OW68933   6.683   8.423   0.073
22992SOL    HW168934   6.675   8.468   9.989
22992SOL    HW268935   6.757   8.363   0.062
22993SOL     OW68936   7.417   9.003   0.840
22993SOL    HW168937   7.340   8.995   0.783
22993SOL    HW268938   7.394   8.953   0.918
22994SOL     OW68939   5.798   8.732   1.836
22994SOL    HW168940   5.767   8.653   1.793
22994SOL    HW268941   5.739   8.744   1.911
22995SOL     OW68942   5.704   8.666   0.670
22995SOL    HW168943   5.734   8.627   0.752
22995SOL    HW268944   5.765   8.633   0.604
22996SOL     OW68945   6.276   8.866   1.632
22996SOL    HW168946   6.200   8.827   1.674
22996SOL    HW268947   6.282   8.954   1.669
22997SOL     OW68948   7.396   7.620   1.234
22997SOL    HW168949   7.398   7.525   1.247
22997SOL    HW268950   7.410   7.631   1.140
22998SOL     OW68951   5.999   7.882   0.516
22998SOL    HW168952   6.033   7.812   0.460
22998SOL    HW268953   5.952   7.836   0.585
22999SOL     OW68954   7.282   8.927   1.081
22999SOL    HW168955   7.204   8.907   1.030
22999SOL    HW268956   7.283   8.860   1.149
23000SOL     OW68957   5.938   8.013   1.292
23000SOL    HW168958   5.987   7.948   1.343
23000SOL    HW268959   5.946   7.983   1.201
23001SOL     OW68960   6.423   9.027   0.675
23001SOL    HW168961   6.396   9.095   0.613
23001SOL    HW268962   6.349   8.967   0.678
23002SOL     OW68963   7.008   7.681   1.115
23002SOL    HW168964   7.017   7.592   1.149
23002SOL    HW268965   6.962   7.728   1.185
23003SOL     OW68966   6.596   7.465   1.119
23003SOL    HW168967   6.542   7.402   1.073
23003SOL    HW268968   6.683   7.425   1.123
23004SOL     OW68969   6.364   8.775   0.339
23004SOL    HW168970   6.343   8.682   0.345
23004SOL    HW268971   6.446   8.784   0.386
23005SOL     OW68972   6.202   9.015   1.287
23005SOL    HW168973   6.197   9.098   1.334
23005SOL    HW268974   6.292   9.011   1.255
23006SOL     OW68975   6.938   7.505   0.176
23006SOL    HW168976   6.962   7.468   0.091
23006SOL    HW268977   6.848   7.476   0.192
23007SOL     OW68978   6.886   7.916   0.675
23007SOL    HW168979   6.836   7.998   0.671
23007SOL    HW268980   6.877   7.887   0.766
23008SOL     OW68981   7.168   7.636   0.893
23008SOL    HW168982   7.116   7.665   0.968
23008SOL    HW268983   7.167   7.710   0.833
23009SOL     OW68984   5.628   8.491   0.303
23009SOL    HW168985   5.724   8.493   0.308
23009SOL    HW268986   5.604   8.404   0.332
23010SOL     OW68987   6.487   9.128   0.351
23010SOL    HW168988   6.409   9.114   0.297
23010SOL    HW268989   6.465   9.201   0.408
23011SOL     OW68990   5.794   8.071   2.010
23011SOL    HW168991   5.706   8.058   2.046
23011SOL    HW268992   5.782   8.056   1.916
23012SOL     OW68993   5.805   7.736   2.852
23012SOL    HW168994   5.835   7.701   2.935
23012SOL    HW268995   5.718   7.699   2.840
23013SOL     OW68996   5.573   7.844   2.508
23013SOL    HW168997   5.493   7.869   2.555
23013SOL    HW268998   5.546   7.771   2.453
23014SOL     OW68999   6.161   8.755   3.070
23014SOL    HW169000   6.078   8.758   3.022
23014SOL    HW269001   6.178   8.846   3.094
23015SOL     OW69002   7.173   8.970   2.567
23015SOL    HW169003   7.127   8.940   2.645
23015SOL    HW269004   7.106   8.973   2.499
23016SOL     OW69005   6.723   8.152   2.548
23016SOL    HW169006   6.770   8.235   2.537
23016SOL    HW269007   6.675   8.162   2.630
23017SOL     OW69008   7.387   8.029   2.082
23017SOL    HW169009   7.348   8.028   1.994
23017SOL    HW269010   7.343   7.958   2.128
23018SOL     OW69011   6.313   8.577   2.919
23018SOL    HW169012   6.254   8.617   2.984
23018SOL    HW269013   6.355   8.651   2.876
23019SOL     OW69014   6.474   8.189   3.691
23019SOL    HW169015   6.464   8.256   3.758
23019SOL    HW269016   6.491   8.238   3.611
23020SOL     OW69017   6.271   8.433   2.506
23020SOL    HW169018   6.339   8.433   2.574
23020SOL    HW269019   6.205   8.495   2.538
23021SOL     OW69020   6.297   8.597   3.694
23021SOL    HW169021   6.348   8.670   3.729
23021SOL    HW269022   6.221   8.638   3.654
23022SOL     OW69023   5.929   8.845   2.931
23022SOL    HW169024   5.853   8.802   2.891
23022SOL    HW269025   5.965   8.900   2.861
23023SOL     OW69026   7.040   8.953   3.234
23023SOL    HW169027   7.095   9.031   3.247
23023SOL    HW269028   6.968   8.965   3.296
23024SOL     OW69029   6.044   7.822   3.317
23024SOL    HW169030   6.118   7.764   3.333
23024SOL    HW269031   5.968   7.771   3.345
23025SOL     OW69032   7.170   7.880   2.617
23025SOL    HW169033   7.102   7.890   2.550
23025SOL    HW269034   7.152   7.950   2.680
23026SOL     OW69035   5.804   9.178   2.327
23026SOL    HW169036   5.830   9.249   2.385
23026SOL    HW269037   5.878   9.167   2.267
23027SOL     OW69038   6.721   8.789   3.559
23027SOL    HW169039   6.767   8.778   3.642
23027SOL    HW269040   6.667   8.710   3.550
23028SOL     OW69041   5.818   8.906   2.395
23028SOL    HW169042   5.797   9.000   2.399
23028SOL    HW269043   5.769   8.867   2.467
23029SOL     OW69044   5.871   8.538   2.741
23029SOL    HW169045   5.872   8.448   2.774
23029SOL    HW269046   5.815   8.585   2.802
23030SOL     OW69047   6.160   9.246   3.284
23030SOL    HW169048   6.083   9.228   3.338
23030SOL    HW269049   6.191   9.331   3.314
23031SOL     OW69050   6.151   8.435   2.014
23031SOL    HW169051   6.202   8.478   1.945
23031SOL    HW269052   6.192   8.465   2.096
23032SOL     OW69053   7.177   7.581   3.321
23032SOL    HW169054   7.215   7.658   3.279
23032SOL    HW269055   7.145   7.614   3.405
23033SOL     OW69056   5.704   8.107   2.429
23033SOL    HW169057   5.673   8.020   2.453
23033SOL    HW269058   5.699   8.158   2.510
23034SOL     OW69059   7.433   9.188   2.178
23034SOL    HW169060   7.503   9.173   2.241
23034SOL    HW269061   7.441   9.280   2.155
23035SOL     OW69062   5.646   9.027   1.971
23035SOL    HW169063   5.625   8.935   1.989
23035SOL    HW269064   5.614   9.074   2.048
23036SOL     OW69065   7.284   8.373   2.515
23036SOL    HW169066   7.366   8.329   2.493
23036SOL    HW269067   7.263   8.425   2.437
23037SOL     OW69068   7.243   8.552   2.294
23037SOL    HW169069   7.328   8.544   2.251
23037SOL    HW269070   7.257   8.618   2.363
23038SOL     OW69071   5.708   8.196   3.440
23038SOL    HW169072   5.794   8.239   3.444
23038SOL    HW269073   5.647   8.269   3.427
23039SOL     OW69074   6.209   8.846   2.592
23039SOL    HW169075   6.168   8.760   2.597
23039SOL    HW269076   6.193   8.875   2.502
23040SOL     OW69077   6.856   8.674   3.279
23040SOL    HW169078   6.884   8.604   3.219
23040SOL    HW269079   6.918   8.668   3.352
23041SOL     OW69080   6.418   7.460   2.380
23041SOL    HW169081   6.458   7.543   2.353
23041SOL    HW269082   6.324   7.478   2.380
23042SOL     OW69083   5.773   8.404   3.163
23042SOL    HW169084   5.860   8.369   3.147
23042SOL    HW269085   5.719   8.367   3.094
23043SOL     OW69086   7.121   8.463   2.061
23043SOL    HW169087   7.052   8.403   2.091
23043SOL    HW269088   7.163   8.493   2.142
23044SOL     OW69089   6.769   9.269   3.494
23044SOL    HW169090   6.769   9.330   3.420
23044SOL    HW269091   6.784   9.183   3.455
23045SOL     OW69092   5.946   7.702   3.736
23045SOL    HW169093   5.981   7.782   3.774
23045SOL    HW269094   5.851   7.716   3.735
23046SOL     OW69095   7.058   8.864   2.793
23046SOL    HW169096   6.995   8.884   2.862
23046SOL    HW269097   7.040   8.774   2.769
23047SOL     OW69098   7.231   9.230   2.429
23047SOL    HW169099   7.208   9.188   2.346
23047SOL    HW269100   7.225   9.160   2.494
23048SOL     OW69101   6.172   8.147   2.133
23048SOL    HW169102   6.176   8.235   2.095
23048SOL    HW269103   6.108   8.154   2.204
23049SOL     OW69104   6.868   7.841   2.803
23049SOL    HW169105   6.779   7.806   2.808
23049SOL    HW269106   6.920   7.783   2.858
23050SOL     OW69107   7.165   9.119   2.181
23050SOL    HW169108   7.259   9.135   2.170
23050SOL    HW269109   7.132   9.108   2.092
23051SOL     OW69110   6.376   8.061   3.293
23051SOL    HW169111   6.353   8.032   3.381
23051SOL    HW269112   6.351   7.988   3.236
23052SOL     OW69113   6.978   7.925   3.536
23052SOL    HW169114   6.983   7.968   3.621
23052SOL    HW269115   7.028   7.843   3.547
23053SOL     OW69116   6.530   8.328   3.456
23053SOL    HW169117   6.586   8.264   3.411
23053SOL    HW269118   6.481   8.370   3.385
23054SOL     OW69119   6.594   7.846   3.070
23054SOL    HW169120   6.502   7.859   3.093
23054SOL    HW269121   6.592   7.802   2.985
23055SOL     OW69122   6.644   8.145   2.280
23055SOL    HW169123   6.665   8.142   2.374
23055SOL    HW269124   6.559   8.101   2.273
23056SOL     OW69125   5.679   8.274   2.644
23056SOL    HW169126   5.761   8.268   2.693
23056SOL    HW269127   5.631   8.346   2.686
23057SOL     OW69128   5.691   9.318   3.447
23057SOL    HW169129   5.699   9.302   3.541
23057SOL    HW269130   5.608   9.277   3.422
23058SOL     OW69131   6.474   7.799   2.062
23058SOL    HW169132   6.525   7.852   2.001
23058SOL    HW269133   6.452   7.720   2.012
23059SOL     OW69134   7.274   8.011   3.702
23059SOL    HW169135   7.252   8.088   3.650
23059SOL    HW269136   7.302   7.946   3.637
23060SOL     OW69137   6.979   8.598   2.406
23060SOL    HW169138   7.059   8.586   2.354
23060SOL    HW269139   6.926   8.658   2.355
23061SOL     OW69140   6.137   7.609   2.778
23061SOL    HW169141   6.143   7.637   2.870
23061SOL    HW269142   6.132   7.690   2.728
23062SOL     OW69143   6.583   8.903   2.327
23062SOL    HW169144   6.558   8.978   2.274
23062SOL    HW269145   6.554   8.925   2.415
23063SOL     OW69146   5.939   9.264   2.741
23063SOL    HW169147   5.985   9.180   2.746
23063SOL    HW269148   6.006   9.329   2.761
23064SOL     OW69149   7.390   8.493   2.751
23064SOL    HW169150   7.342   8.477   2.669
23064SOL    HW269151   7.322   8.501   2.818
23065SOL     OW69152   6.803   8.990   3.378
23065SOL    HW169153   6.792   8.920   3.442
23065SOL    HW269154   6.737   8.973   3.311
23066SOL     OW69155   5.886   8.406   2.128
23066SOL    HW169156   5.969   8.427   2.084
23066SOL    HW269157   5.864   8.319   2.097
23067SOL     OW69158   7.070   8.211   2.573
23067SOL    HW169159   7.072   8.168   2.658
23067SOL    HW269160   7.150   8.265   2.571
23068SOL     OW69161   6.059   8.732   3.610
23068SOL    HW169162   6.035   8.737   3.518
23068SOL    HW269163   5.977   8.719   3.656
23069SOL     OW69164   6.720   9.224   2.086
23069SOL    HW169165   6.640   9.192   2.127
23069SOL    HW269166   6.741   9.158   2.020
23070SOL     OW69167   5.794   7.704   3.361
23070SOL    HW169168   5.721   7.763   3.381
23070SOL    HW269169   5.764   7.619   3.394
23071SOL     OW69170   7.224   8.836   1.961
23071SOL    HW169171   7.183   8.921   1.949
23071SOL    HW269172   7.158   8.773   1.935
23072SOL     OW69173   6.043   9.193   2.176
23072SOL    HW169174   6.092   9.243   2.241
23072SOL    HW269175   6.111   9.150   2.123
23073SOL     OW69176   6.983   7.553   2.321
23073SOL    HW169177   6.983   7.529   2.228
23073SOL    HW269178   7.074   7.540   2.349
23074SOL     OW69179   5.837   9.232   3.075
23074SOL    HW169180   5.886   9.157   3.109
23074SOL    HW269181   5.823   9.211   2.983
23075SOL     OW69182   6.533   9.146   2.752
23075SOL    HW169183   6.619   9.106   2.766
23075SOL    HW269184   6.494   9.094   2.682
23076SOL     OW69185   5.980   8.133   2.334
23076SOL    HW169186   5.993   8.039   2.347
23076SOL    HW269187   5.887   8.148   2.352
23077SOL     OW69188   7.094   7.670   3.579
23077SOL    HW169189   7.106   7.689   3.672
23077SOL    HW269190   7.029   7.600   3.578
23078SOL     OW69191   6.249   7.557   1.965
23078SOL    HW169192   6.295   7.478   1.993
23078SOL    HW269193   6.188   7.527   1.897
23079SOL     OW69194   6.345   7.721   3.614
23079SOL    HW169195   6.429   7.676   3.612
23079SOL    HW269196   6.298   7.680   3.688
23080SOL     OW69197   6.456   8.975   3.061
23080SOL    HW169198   6.438   8.933   2.977
23080SOL    HW269199   6.523   8.921   3.102
23081SOL     OW69200   6.916   8.040   3.295
23081SOL    HW169201   6.949   8.009   3.380
23081SOL    HW269202   6.955   8.127   3.285
23082SOL     OW69203   6.403   8.823   2.820
23082SOL    HW169204   6.490   8.819   2.781
23082SOL    HW269205   6.344   8.838   2.746
23083SOL     OW69206   6.516   7.964   2.750
23083SOL    HW169207   6.491   7.952   2.658
23083SOL    HW269208   6.544   7.876   2.779
23084SOL     OW69209   6.150   7.512   2.352
23084SOL    HW169210   6.072   7.512   2.408
23084SOL    HW269211   6.138   7.586   2.294
23085SOL     OW69212   7.020   8.660   1.894
23085SOL    HW169213   7.050   8.586   1.947
23085SOL    HW269214   6.935   8.683   1.931
23086SOL     OW69215   5.869   7.496   2.050
23086SOL    HW169216   5.922   7.563   2.008
23086SOL    HW269217   5.932   7.438   2.092
23087SOL     OW69218   6.538   7.699   2.313
23087SOL    HW169219   6.512   7.735   2.227
23087SOL    HW269220   6.632   7.716   2.318
23088SOL     OW69221   6.661   8.141   3.307
23088SOL    HW169222   6.599   8.069   3.312
23088SOL    HW269223   6.747   8.099   3.304
23089SOL     OW69224   6.792   9.035   2.665
23089SOL    HW169225   6.807   9.094   2.592
23089SOL    HW269226   6.865   9.053   2.726
23090SOL     OW69227   6.068   8.610   2.570
23090SOL    HW169228   6.006   8.585   2.639
23090SOL    HW269229   6.018   8.603   2.489
23091SOL     OW69230   6.838   9.236   2.477
23091SOL    HW169231   6.886   9.300   2.424
23091SOL    HW269232   6.766   9.287   2.515
23092SOL     OW69233   6.618   7.962   1.891
23092SOL    HW169234   6.576   8.046   1.873
23092SOL    HW269235   6.682   7.982   1.960
23093SOL     OW69236   5.685   8.000   3.252
23093SOL    HW169237   5.777   8.001   3.226
23093SOL    HW269238   5.678   8.068   3.318
23094SOL     OW69239   6.145   7.669   3.048
23094SOL    HW169240   6.182   7.606   3.109
23094SOL    HW269241   6.051   7.670   3.068
23095SOL     OW69242   6.456   7.903   2.492
23095SOL    HW169243   6.416   7.959   2.425
23095SOL    HW269244   6.481   7.823   2.445
23096SOL     OW69245   6.608   7.506   2.601
23096SOL    HW169246   6.547   7.500   2.528
23096SOL    HW269247   6.583   7.434   2.659
23097SOL     OW69248   7.019   8.601   2.716
23097SOL    HW169249   6.950   8.535   2.726
23097SOL    HW269250   7.033   8.607   2.622
23098SOL     OW69251   7.048   8.064   2.811
23098SOL    HW169252   6.985   7.994   2.821
23098SOL    HW269253   7.104   8.058   2.888
23099SOL     OW69254   7.414   8.244   2.249
23099SOL    HW169255   7.474   8.201   2.310
23099SOL    HW269256   7.401   8.180   2.179
23100SOL     OW69257   6.084   8.873   2.013
23100SOL    HW169258   6.008   8.841   2.063
23100SOL    HW269259   6.081   8.823   1.931
23101SOL     OW69260   7.294   8.720   2.495
23101SOL    HW169261   7.387   8.713   2.516
23101SOL    HW269262   7.269   8.808   2.521
23102SOL     OW69263   6.978   8.023   1.928
23102SOL    HW169264   6.922   7.997   2.000
23102SOL    HW269265   7.067   7.999   1.956
23103SOL     OW69266   6.113   7.705   2.164
23103SOL    HW169267   6.167   7.664   2.097
23103SOL    HW269268   6.081   7.786   2.122
23104SOL     OW69269   7.321   8.692   3.394
23104SOL    HW169270   7.409   8.658   3.380
23104SOL    HW269271   7.335   8.779   3.431
23105SOL     OW69272   6.628   8.804   3.198
23105SOL    HW169273   6.551   8.769   3.242
23105SOL    HW269274   6.702   8.758   3.238
23106SOL     OW69275   7.193   9.083   3.534
23106SOL    HW169276   7.182   9.119   3.446
23106SOL    HW269277   7.271   9.027   3.528
23107SOL     OW69278   6.736   8.685   2.967
23107SOL    HW169279   6.675   8.720   3.032
23107SOL    HW269280   6.704   8.717   2.883
23108SOL     OW69281   7.196   8.539   2.939
23108SOL    HW169282   7.188   8.605   3.007
23108SOL    HW269283   7.126   8.560   2.877
23109SOL     OW69284   6.504   7.530   3.244
23109SOL    HW169285   6.526   7.515   3.152
23109SOL    HW269286   6.583   7.570   3.281
23110SOL     OW69287   6.565   8.563   3.586
23110SOL    HW169288   6.475   8.579   3.613
23110SOL    HW269289   6.560   8.482   3.535
23111SOL     OW69290   6.300   8.510   2.238
23111SOL    HW169291   6.285   8.484   2.329
23111SOL    HW269292   6.374   8.457   2.210
23112SOL     OW69293   6.012   8.275   3.121
23112SOL    HW169294   6.080   8.285   3.188
23112SOL    HW269295   5.982   8.185   3.131
23113SOL     OW69296   6.851   7.817   3.153
23113SOL    HW169297   6.878   7.897   3.198
23113SOL    HW269298   6.762   7.835   3.123
23114SOL     OW69299   5.664   9.017   3.225
23114SOL    HW169300   5.634   9.088   3.168
23114SOL    HW269301   5.759   9.017   3.215
23115SOL     OW69302   5.903   8.582   2.348
23115SOL    HW169303   5.904   8.654   2.285
23115SOL    HW269304   5.900   8.503   2.295
23116SOL     OW69305   6.119   7.965   2.720
23116SOL    HW169306   6.132   8.023   2.646
23116SOL    HW269307   6.188   7.990   2.783
23117SOL     OW69308   6.833   8.802   2.260
23117SOL    HW169309   6.889   8.871   2.294
23117SOL    HW269310   6.745   8.825   2.290
23118SOL     OW69311   6.895   8.915   3.005
23118SOL    HW169312   6.943   8.922   3.088
23118SOL    HW269313   6.845   8.834   3.013
23119SOL     OW69314   7.160   8.066   2.347
23119SOL    HW169315   7.109   8.106   2.417
23119SOL    HW269316   7.210   8.138   2.309
23120SOL     OW69317   5.930   8.978   3.164
23120SOL    HW169318   5.923   8.926   3.084
23120SOL    HW269319   6.024   8.995   3.174
23121SOL     OW69320   6.017   8.195   3.480
23121SOL    HW169321   6.076   8.238   3.418
23121SOL    HW269322   6.059   8.112   3.500
23122SOL     OW69323   7.214   8.234   3.560
23122SOL    HW169324   7.126   8.272   3.551
23122SOL    HW269325   7.264   8.272   3.488
23123SOL     OW69326   6.581   7.588   3.617
23123SOL    HW169327   6.640   7.662   3.599
23123SOL    HW269328   6.634   7.511   3.597
23124SOL     OW69329   6.082   7.484   3.624
23124SOL    HW169330   6.027   7.433   3.565
23124SOL    HW269331   6.030   7.561   3.645
23125SOL     OW69332   6.177   8.322   2.901
23125SOL    HW169333   6.215   8.410   2.904
23125SOL    HW269334   6.120   8.318   2.977
23126SOL     OW69335   6.894   8.302   2.864
23126SOL    HW169336   6.806   8.274   2.840
23126SOL    HW269337   6.949   8.225   2.846
23127SOL     OW69338   6.784   7.971   2.119
23127SOL    HW169339   6.795   7.894   2.176
23127SOL    HW269340   6.743   8.036   2.175
23128SOL     OW69341   5.877   7.642   3.101
23128SOL    HW169342   5.842   7.670   3.186
23128SOL    HW269343   5.861   7.548   3.099
23129SOL     OW69344   5.636   8.760   3.128
23129SOL    HW169345   5.665   8.704   3.199
23129SOL    HW269346   5.638   8.848   3.164
23130SOL     OW69347   6.297   8.069   2.901
23130SOL    HW169348   6.375   8.062   2.845
23130SOL    HW269349   6.269   8.160   2.891
23131SOL     OW69350   7.337   8.416   3.731
23131SOL    HW169351   7.297   8.343   3.683
23131SOL    HW269352   7.273   8.436   3.800
23132SOL     OW69353   5.911   7.508   2.491
23132SOL    HW169354   5.878   7.596   2.509
23132SOL    HW269355   5.917   7.466   2.576
23133SOL     OW69356   7.218   7.838   2.206
23133SOL    HW169357   7.250   7.773   2.268
23133SOL    HW269358   7.188   7.911   2.261
23134SOL     OW69359   6.620   8.207   2.819
23134SOL    HW169360   6.598   8.221   2.911
23134SOL    HW269361   6.590   8.117   2.801
23135SOL     OW69362   6.568   9.014   3.596
23135SOL    HW169363   6.546   9.058   3.514
23135SOL    HW269364   6.605   8.930   3.570
23136SOL     OW69365   7.424   8.943   3.465
23136SOL    HW169366   7.451   8.971   3.377
23136SOL    HW269367   7.502   8.953   3.519
23137SOL     OW69368   5.936   8.369   3.677
23137SOL    HW169369   6.012   8.385   3.732
23137SOL    HW269370   5.966   8.305   3.612
23138SOL     OW69371   7.107   7.717   1.981
23138SOL    HW169372   7.055   7.646   2.018
23138SOL    HW269373   7.147   7.760   2.056
23139SOL     OW69374   6.866   8.269   1.881
23139SOL    HW169375   6.906   8.183   1.889
23139SOL    HW269376   6.903   8.305   1.800
23140SOL     OW69377   6.656   8.801   2.728
23140SOL    HW169378   6.667   8.728   2.667
23140SOL    HW269379   6.708   8.872   2.691
23141SOL     OW69380   5.904   8.264   2.806
23141SOL    HW169381   5.999   8.278   2.805
23141SOL    HW269382   5.894   8.174   2.837
23142SOL     OW69383   5.898   7.986   2.872
23142SOL    HW169384   5.859   7.899   2.863
23142SOL    HW269385   5.976   7.984   2.816
23143SOL     OW69386   6.725   7.816   3.546
23143SOL    HW169387   6.679   7.866   3.613
23143SOL    HW269388   6.810   7.858   3.538
23144SOL     OW69389   6.742   7.638   3.334
23144SOL    HW169390   6.731   7.699   3.407
23144SOL    HW269391   6.788   7.688   3.267
23145SOL     OW69392   5.610   8.750   2.041
23145SOL    HW169393   5.520   8.772   2.016
23145SOL    HW269394   5.603   8.664   2.082
23146SOL     OW69395   5.679   9.217   2.813
23146SOL    HW169396   5.645   9.143   2.762
23146SOL    HW269397   5.765   9.234   2.776
23147SOL     OW69398   6.071   9.017   2.762
23147SOL    HW169399   6.141   9.079   2.784
23147SOL    HW269400   6.111   8.956   2.701
23148SOL     OW69401   6.534   8.229   3.077
23148SOL    HW169402   6.596   8.217   3.149
23148SOL    HW269403   6.455   8.183   3.106
23149SOL     OW69404   5.626   8.022   2.982
23149SOL    HW169405   5.707   8.018   2.932
23149SOL    HW269406   5.653   8.014   3.073
23150SOL     OW69407   5.771   7.986   3.607
23150SOL    HW169408   5.843   7.951   3.554
23150SOL    HW269409   5.737   8.059   3.556
23151SOL     OW69410   6.978   8.369   3.514
23151SOL    HW169411   6.995   8.463   3.509
23151SOL    HW269412   6.970   8.341   3.422
23152SOL     OW69413   6.404   8.017   2.233
23152SOL    HW169414   6.413   7.942   2.174
23152SOL    HW269415   6.327   8.064   2.202
23153SOL     OW69416   7.221   8.050   3.025
23153SOL    HW169417   7.212   7.990   3.099
23153SOL    HW269418   7.312   8.039   2.997
23154SOL     OW69419   5.810   8.986   3.587
23154SOL    HW169420   5.785   9.032   3.667
23154SOL    HW269421   5.824   8.895   3.614
23155SOL     OW69422   6.320   7.881   3.096
23155SOL    HW169423   6.256   7.811   3.082
23155SOL    HW269424   6.302   7.945   3.027
23156SOL     OW69425   6.490   9.129   3.352
23156SOL    HW169426   6.467   9.080   3.273
23156SOL    HW269427   6.493   9.221   3.324
23157SOL     OW69428   6.028   7.929   2.025
23157SOL    HW169429   6.093   7.995   2.050
23157SOL    HW269430   5.944   7.975   2.029
23158SOL     OW69431   5.716   8.598   3.342
23158SOL    HW169432   5.720   8.559   3.429
23158SOL    HW269433   5.737   8.527   3.282
23159SOL     OW69434   6.890   8.482   3.070
23159SOL    HW169435   6.899   8.418   2.999
23159SOL    HW269436   6.836   8.552   3.033
23160SOL     OW69437   6.911   8.309   2.153
23160SOL    HW169438   6.842   8.273   2.208
23160SOL    HW269439   6.882   8.293   2.063
23161SOL     OW69440   7.374   9.170   3.033
23161SOL    HW169441   7.435   9.197   2.964
23161SOL    HW269442   7.341   9.085   3.005
23162SOL     OW69443   6.826   9.179   2.954
23162SOL    HW169444   6.910   9.209   2.919
23162SOL    HW269445   6.841   9.088   2.978
23163SOL     OW69446   5.692   8.696   2.870
23163SOL    HW169447   5.664   8.717   2.959
23163SOL    HW269448   5.621   8.642   2.835
23164SOL     OW69449   6.276   9.128   3.612
23164SOL    HW169450   6.212   9.198   3.599
23164SOL    HW269451   6.349   9.151   3.553
23165SOL     OW69452   7.330   7.632   2.358
23165SOL    HW169453   7.389   7.612   2.286
23165SOL    HW269454   7.303   7.547   2.392
23166SOL     OW69455   6.983   9.016   2.365
23166SOL    HW169456   7.037   9.052   2.295
23166SOL    HW269457   6.928   9.090   2.393
23167SOL     OW69458   5.717   9.257   3.706
23167SOL    HW169459   5.679   9.179   3.747
23167SOL    HW269460   5.770   9.297   3.775
23168SOL     OW69461   6.865   8.384   2.526
23168SOL    HW169462   6.938   8.324   2.540
23168SOL    HW269463   6.901   8.456   2.474
23169SOL     OW69464   6.370   8.728   3.275
23169SOL    HW169465   6.343   8.775   3.354
23169SOL    HW269466   6.295   8.737   3.215
23170SOL     OW69467   6.254   9.084   2.023
23170SOL    HW169468   6.270   9.098   1.929
23170SOL    HW269469   6.202   9.004   2.027
23171SOL     OW69470   7.203   9.177   3.264
23171SOL    HW169471   7.260   9.176   3.187
23171SOL    HW269472   7.186   9.269   3.280
23172SOL     OW69473   7.431   7.608   2.826
23172SOL    HW169474   7.459   7.519   2.806
23172SOL    HW269475   7.344   7.615   2.788
23173SOL     OW69476   5.829   7.754   2.570
23173SOL    HW169477   5.743   7.791   2.549
23173SOL    HW269478   5.833   7.756   2.666
23174SOL     OW69479   6.795   9.035   1.900
23174SOL    HW169480   6.785   8.944   1.928
23174SOL    HW269481   6.725   9.048   1.836
23175SOL     OW69482   6.409   8.458   3.248
23175SOL    HW169483   6.447   8.448   3.160
23175SOL    HW269484   6.399   8.553   3.259
23176SOL     OW69485   6.506   8.358   2.156
23176SOL    HW169486   6.563   8.392   2.086
23176SOL    HW269487   6.558   8.291   2.199
23177SOL     OW69488   7.068   9.093   1.920
23177SOL    HW169489   6.976   9.072   1.902
23177SOL    HW269490   7.109   9.096   1.833
23178SOL     OW69491   5.948   8.761   3.365
23178SOL    HW169492   5.941   8.834   3.302
23178SOL    HW269493   5.871   8.707   3.347
23179SOL     OW69494   7.185   8.737   3.139
23179SOL    HW169495   7.239   8.713   3.214
23179SOL    HW269496   7.126   8.804   3.173
23180SOL     OW69497   6.663   8.567   2.591
23180SOL    HW169498   6.587   8.518   2.623
23180SOL    HW269499   6.725   8.501   2.562
23181SOL     OW69500   6.619   7.697   2.822
23181SOL    HW169501   6.618   7.654   2.736
23181SOL    HW269502   6.612   7.625   2.885
23182SOL     OW69503   6.189   8.933   2.336
23182SOL    HW169504   6.245   8.884   2.275
23182SOL    HW269505   6.107   8.946   2.289
23183SOL     OW69506   7.330   7.831   3.250
23183SOL    HW169507   7.401   7.895   3.246
23183SOL    HW269508   7.357   7.762   3.189
23184SOL     OW69509   5.865   8.789   2.161
23184SOL    HW169510   5.778   8.781   2.122
23184SOL    HW269511   5.850   8.837   2.242
23185SOL     OW69512   5.706   8.494   3.597
23185SOL    HW169513   5.629   8.466   3.646
23185SOL    HW269514   5.778   8.444   3.634
23186SOL     OW69515   6.265   7.636   3.357
23186SOL    HW169516   6.349   7.611   3.318
23186SOL    HW269517   6.287   7.670   3.444
23187SOL     OW69518   5.672   7.765   1.877
23187SOL    HW169519   5.595   7.744   1.825
23187SOL    HW269520   5.700   7.851   1.845
23188SOL     OW69521   7.001   8.302   3.250
23188SOL    HW169522   6.949   8.361   3.195
23188SOL    HW269523   7.089   8.306   3.212
23189SOL     OW69524   5.630   7.597   2.134
23189SOL    HW169525   5.618   7.667   2.070
23189SOL    HW269526   5.718   7.564   2.118
23190SOL     OW69527   6.769   8.769   1.985
23190SOL    HW169528   6.679   8.737   1.985
23190SOL    HW269529   6.793   8.773   2.078
23191SOL     OW69530   6.211   8.279   3.304
23191SOL    HW169531   6.270   8.354   3.293
23191SOL    HW269532   6.269   8.203   3.303
23192SOL     OW69533   7.071   9.243   2.852
23192SOL    HW169534   7.095   9.320   2.801
23192SOL    HW269535   7.155   9.200   2.872
23193SOL     OW69536   6.312   7.995   3.548
23193SOL    HW169537   6.358   8.048   3.613
23193SOL    HW269538   6.321   7.905   3.580
23194SOL     OW69539   7.054   8.632   3.481
23194SOL    HW169540   7.047   8.654   3.574
23194SOL    HW269541   7.144   8.656   3.458
23195SOL     OW69542   5.937   9.189   3.439
23195SOL    HW169543   5.856   9.235   3.421
23195SOL    HW269544   5.910   9.106   3.478
23196SOL     OW69545   7.241   8.323   3.115
23196SOL    HW169546   7.239   8.239   3.069
23196SOL    HW269547   7.230   8.389   3.046
23197SOL     OW69548   6.807   7.771   2.318
23197SOL    HW169549   6.866   7.696   2.317
23197SOL    HW269550   6.835   7.823   2.393
23198SOL     OW69551   6.162   8.174   2.542
23198SOL    HW169552   6.206   8.258   2.527
23198SOL    HW269553   6.101   8.166   2.469
23199SOL     OW69554   7.333   7.803   3.526
23199SOL    HW169555   7.329   7.819   3.431
23199SOL    HW269556   7.256   7.749   3.544
23200SOL     OW69557   7.346   8.373   3.365
23200SOL    HW169558   7.329   8.466   3.378
23200SOL    HW269559   7.319   8.355   3.275
23201SOL     OW69560   6.454   8.805   1.923
23201SOL    HW169561   6.418   8.822   2.010
23201SOL    HW269562   6.465   8.892   1.884
23202SOL     OW69563   6.254   9.215   2.785
23202SOL    HW169564   6.235   9.309   2.777
23202SOL    HW269565   6.349   9.210   2.785
23203SOL     OW69566   6.458   8.425   2.718
23203SOL    HW169567   6.508   8.351   2.753
23203SOL    HW269568   6.412   8.462   2.793
23204SOL     OW69569   6.659   8.433   1.948
23204SOL    HW169570   6.638   8.487   1.872
23204SOL    HW269571   6.732   8.379   1.920
23205SOL     OW69572   7.417   9.004   2.702
23205SOL    HW169573   7.340   8.996   2.645
23205SOL    HW269574   7.395   8.952   2.779
23206SOL     OW69575   5.798   8.732   3.698
23206SOL    HW169576   5.767   8.652   3.655
23206SOL    HW269577   5.739   8.744   3.772
23207SOL     OW69578   5.704   8.674   2.530
23207SOL    HW169579   5.733   8.632   2.611
23207SOL    HW269580   5.763   8.640   2.462
23208SOL     OW69581   6.276   8.866   3.493
23208SOL    HW169582   6.200   8.827   3.536
23208SOL    HW269583   6.282   8.954   3.531
23209SOL     OW69584   7.397   7.620   3.096
23209SOL    HW169585   7.398   7.525   3.110
23209SOL    HW269586   7.411   7.631   3.002
23210SOL     OW69587   6.003   7.871   2.380
23210SOL    HW169588   6.038   7.800   2.326
23210SOL    HW269589   5.952   7.827   2.448
23211SOL     OW69590   7.281   8.928   2.944
23211SOL    HW169591   7.203   8.908   2.892
23211SOL    HW269592   7.282   8.860   3.012
23212SOL     OW69593   5.938   8.013   3.153
23212SOL    HW169594   5.987   7.948   3.204
23212SOL    HW269595   5.946   7.983   3.063
23213SOL     OW69596   6.422   9.024   2.535
23213SOL    HW169597   6.387   9.088   2.472
23213SOL    HW269598   6.350   8.963   2.550
23214SOL     OW69599   7.007   7.681   2.976
23214SOL    HW169600   7.016   7.592   3.009
23214SOL    HW269601   6.962   7.728   3.046
23215SOL     OW69602   6.596   7.466   2.981
23215SOL    HW169603   6.541   7.403   2.935
23215SOL    HW269604   6.683   7.425   2.984
23216SOL     OW69605   6.367   8.780   2.190
23216SOL    HW169606   6.343   8.688   2.202
23216SOL    HW269607   6.446   8.791   2.242
23217SOL     OW69608   6.202   9.015   3.149
23217SOL    HW169609   6.196   9.098   3.196
23217SOL    HW269610   6.291   9.012   3.116
23218SOL     OW69611   6.967   7.487   2.054
23218SOL    HW169612   7.007   7.414   2.006
23218SOL    HW269613   6.875   7.460   2.064
23219SOL     OW69614   6.884   7.919   2.537
23219SOL    HW169615   6.833   8.001   2.534
23219SOL    HW269616   6.877   7.890   2.627
23220SOL     OW69617   7.169   7.635   2.755
23220SOL    HW169618   7.116   7.665   2.829
23220SOL    HW269619   7.169   7.710   2.695
23221SOL     OW69620   5.623   8.499   2.170
23221SOL    HW169621   5.716   8.487   2.152
23221SOL    HW269622   5.591   8.411   2.190
23222SOL     OW69623   6.480   9.125   2.196
23222SOL    HW169624   6.401   9.110   2.144
23222SOL    HW269625   6.456   9.197   2.255
23223SOL     OW69626   5.793   8.073   3.872
23223SOL    HW169627   5.706   8.059   3.909
23223SOL    HW269628   5.782   8.057   3.778
23224SOL     OW69629   5.805   7.737   4.714
23224SOL    HW169630   5.836   7.701   4.797
23224SOL    HW269631   5.718   7.698   4.702
23225SOL     OW69632   5.573   7.845   4.370
23225SOL    HW169633   5.494   7.870   4.417
23225SOL    HW269634   5.547   7.772   4.315
23226SOL     OW69635   6.161   8.755   4.933
23226SOL    HW169636   6.078   8.758   4.884
23226SOL    HW269637   6.178   8.846   4.956
23227SOL     OW69638   7.174   8.971   4.429
23227SOL    HW169639   7.127   8.940   4.507
23227SOL    HW269640   7.107   8.973   4.361
23228SOL     OW69641   6.724   8.152   4.410
23228SOL    HW169642   6.770   8.235   4.399
23228SOL    HW269643   6.675   8.162   4.491
23229SOL     OW69644   7.387   8.029   3.944
23229SOL    HW169645   7.349   8.029   3.856
23229SOL    HW269646   7.343   7.958   3.990
23230SOL     OW69647   6.313   8.577   4.782
23230SOL    HW169648   6.254   8.617   4.846
23230SOL    HW269649   6.355   8.651   4.739
23231SOL     OW69650   6.475   8.189   5.553
23231SOL    HW169651   6.464   8.257   5.620
23231SOL    HW269652   6.491   8.238   5.473
23232SOL     OW69653   6.272   8.434   4.368
23232SOL    HW169654   6.339   8.433   4.436
23232SOL    HW269655   6.205   8.495   4.400
23233SOL     OW69656   6.297   8.597   5.556
23233SOL    HW169657   6.348   8.670   5.591
23233SOL    HW269658   6.221   8.638   5.516
23234SOL     OW69659   5.929   8.845   4.793
23234SOL    HW169660   5.853   8.803   4.753
23234SOL    HW269661   5.965   8.900   4.723
23235SOL     OW69662   7.040   8.953   5.096
23235SOL    HW169663   7.095   9.030   5.109
23235SOL    HW269664   6.968   8.964   5.158
23236SOL     OW69665   6.043   7.824   5.182
23236SOL    HW169666   6.118   7.766   5.196
23236SOL    HW269667   5.967   7.771   5.207
23237SOL     OW69668   7.170   7.880   4.479
23237SOL    HW169669   7.102   7.889   4.412
23237SOL    HW269670   7.151   7.950   4.542
23238SOL     OW69671   5.804   9.178   4.189
23238SOL    HW169672   5.830   9.249   4.247
23238SOL    HW269673   5.878   9.167   4.129
23239SOL     OW69674   6.721   8.789   5.421
23239SOL    HW169675   6.766   8.778   5.505
23239SOL    HW269676   6.667   8.710   5.412
23240SOL     OW69677   5.819   8.906   4.257
23240SOL    HW169678   5.797   8.999   4.262
23240SOL    HW269679   5.770   8.866   4.328
23241SOL     OW69680   5.871   8.538   4.604
23241SOL    HW169681   5.872   8.448   4.637
23241SOL    HW269682   5.815   8.585   4.665
23242SOL     OW69683   6.160   9.246   5.146
23242SOL    HW169684   6.083   9.228   5.200
23242SOL    HW269685   6.190   9.332   5.176
23243SOL     OW69686   6.151   8.435   3.876
23243SOL    HW169687   6.202   8.477   3.807
23243SOL    HW269688   6.192   8.465   3.958
23244SOL     OW69689   7.178   7.580   5.184
23244SOL    HW169690   7.215   7.657   5.140
23244SOL    HW269691   7.146   7.613   5.268
23245SOL     OW69692   5.704   8.107   4.291
23245SOL    HW169693   5.672   8.020   4.314
23245SOL    HW269694   5.699   8.157   4.372
23246SOL     OW69695   7.433   9.188   4.040
23246SOL    HW169696   7.503   9.173   4.103
23246SOL    HW269697   7.441   9.280   4.016
23247SOL     OW69698   5.647   9.027   3.833
23247SOL    HW169699   5.626   8.935   3.851
23247SOL    HW269700   5.615   9.074   3.909
23248SOL     OW69701   7.284   8.374   4.377
23248SOL    HW169702   7.365   8.328   4.354
23248SOL    HW269703   7.263   8.425   4.299
23249SOL     OW69704   7.243   8.552   4.156
23249SOL    HW169705   7.327   8.544   4.113
23249SOL    HW269706   7.257   8.618   4.224
23250SOL     OW69707   5.709   8.195   5.302
23250SOL    HW169708   5.795   8.236   5.306
23250SOL    HW269709   5.648   8.268   5.289
23251SOL     OW69710   6.209   8.846   4.454
23251SOL    HW169711   6.167   8.760   4.459
23251SOL    HW269712   6.193   8.875   4.364
23252SOL     OW69713   6.856   8.673   5.141
23252SOL    HW169714   6.883   8.604   5.081
23252SOL    HW269715   6.918   8.668   5.214
23253SOL     OW69716   6.419   7.464   4.241
23253SOL    HW169717   6.458   7.547   4.214
23253SOL    HW269718   6.325   7.480   4.242
23254SOL     OW69719   5.773   8.404   5.024
23254SOL    HW169720   5.861   8.369   5.008
23254SOL    HW269721   5.718   8.364   4.957
23255SOL     OW69722   7.121   8.463   3.923
23255SOL    HW169723   7.052   8.403   3.953
23255SOL    HW269724   7.163   8.493   4.004
23256SOL     OW69725   6.769   9.269   5.356
23256SOL    HW169726   6.768   9.329   5.282
23256SOL    HW269727   6.783   9.183   5.317
23257SOL     OW69728   5.944   7.702   5.600
23257SOL    HW169729   5.980   7.782   5.638
23257SOL    HW269730   5.850   7.716   5.599
23258SOL     OW69731   7.058   8.865   4.654
23258SOL    HW169732   6.995   8.884   4.723
23258SOL    HW269733   7.040   8.774   4.630
23259SOL     OW69734   7.231   9.230   4.291
23259SOL    HW169735   7.208   9.188   4.208
23259SOL    HW269736   7.225   9.160   4.356
23260SOL     OW69737   6.172   8.147   3.995
23260SOL    HW169738   6.175   8.235   3.957
23260SOL    HW269739   6.108   8.154   4.066
23261SOL     OW69740   6.867   7.841   4.664
23261SOL    HW169741   6.778   7.806   4.669
23261SOL    HW269742   6.919   7.783   4.719
23262SOL     OW69743   7.165   9.120   4.043
23262SOL    HW169744   7.259   9.135   4.032
23262SOL    HW269745   7.131   9.108   3.954
23263SOL     OW69746   6.376   8.061   5.155
23263SOL    HW169747   6.354   8.031   5.243
23263SOL    HW269748   6.351   7.988   5.098
23264SOL     OW69749   6.978   7.925   5.397
23264SOL    HW169750   6.983   7.968   5.483
23264SOL    HW269751   7.027   7.844   5.408
23265SOL     OW69752   6.531   8.328   5.318
23265SOL    HW169753   6.586   8.264   5.274
23265SOL    HW269754   6.481   8.370   5.247
23266SOL     OW69755   6.594   7.846   4.932
23266SOL    HW169756   6.502   7.858   4.955
23266SOL    HW269757   6.592   7.800   4.847
23267SOL     OW69758   6.644   8.146   4.142
23267SOL    HW169759   6.665   8.142   4.235
23267SOL    HW269760   6.560   8.102   4.135
23268SOL     OW69761   5.679   8.275   4.506
23268SOL    HW169762   5.761   8.268   4.555
23268SOL    HW269763   5.632   8.346   4.549
23269SOL     OW69764   5.691   9.317   5.308
23269SOL    HW169765   5.699   9.302   5.402
23269SOL    HW269766   5.609   9.275   5.284
23270SOL     OW69767   6.472   7.800   3.924
23270SOL    HW169768   6.524   7.851   3.862
23270SOL    HW269769   6.446   7.722   3.875
23271SOL     OW69770   7.274   8.011   5.564
23271SOL    HW169771   7.252   8.088   5.512
23271SOL    HW269772   7.301   7.946   5.499
23272SOL     OW69773   6.979   8.598   4.268
23272SOL    HW169774   7.059   8.586   4.216
23272SOL    HW269775   6.926   8.658   4.217
23273SOL     OW69776   6.138   7.610   4.639
23273SOL    HW169777   6.144   7.638   4.730
23273SOL    HW269778   6.133   7.691   4.589
23274SOL     OW69779   6.584   8.903   4.189
23274SOL    HW169780   6.558   8.978   4.136
23274SOL    HW269781   6.554   8.925   4.278
23275SOL     OW69782   5.939   9.264   4.603
23275SOL    HW169783   5.985   9.180   4.607
23275SOL    HW269784   6.007   9.329   4.623
23276SOL     OW69785   7.390   8.493   4.612
23276SOL    HW169786   7.343   8.477   4.531
23276SOL    HW269787   7.322   8.501   4.679
23277SOL     OW69788   6.803   8.989   5.240
23277SOL    HW169789   6.792   8.920   5.304
23277SOL    HW269790   6.738   8.970   5.172
23278SOL     OW69791   5.886   8.405   3.990
23278SOL    HW169792   5.968   8.426   3.946
23278SOL    HW269793   5.863   8.318   3.959
23279SOL     OW69794   7.070   8.212   4.435
23279SOL    HW169795   7.072   8.168   4.520
23279SOL    HW269796   7.150   8.265   4.434
23280SOL     OW69797   6.059   8.732   5.472
23280SOL    HW169798   6.035   8.737   5.380
23280SOL    HW269799   5.977   8.718   5.519
23281SOL     OW69800   6.720   9.224   3.948
23281SOL    HW169801   6.640   9.192   3.989
23281SOL    HW269802   6.741   9.157   3.882
23282SOL     OW69803   5.793   7.704   5.223
23282SOL    HW169804   5.718   7.761   5.237
23282SOL    HW269805   5.765   7.618   5.255
23283SOL     OW69806   7.225   8.836   3.824
23283SOL    HW169807   7.183   8.922   3.811
23283SOL    HW269808   7.158   8.773   3.797
23284SOL     OW69809   6.043   9.193   4.038
23284SOL    HW169810   6.092   9.242   4.103
23284SOL    HW269811   6.110   9.150   3.985
23285SOL     OW69812   6.983   7.553   4.182
23285SOL    HW169813   6.983   7.529   4.090
23285SOL    HW269814   7.073   7.538   4.211
23286SOL     OW69815   5.838   9.232   4.937
23286SOL    HW169816   5.887   9.157   4.971
23286SOL    HW269817   5.823   9.211   4.844
23287SOL     OW69818   6.533   9.146   4.614
23287SOL    HW169819   6.619   9.106   4.627
23287SOL    HW269820   6.493   9.094   4.544
23288SOL     OW69821   5.980   8.133   4.196
23288SOL    HW169822   5.993   8.039   4.209
23288SOL    HW269823   5.887   8.147   4.214
23289SOL     OW69824   7.093   7.670   5.441
23289SOL    HW169825   7.105   7.689   5.534
23289SOL    HW269826   7.028   7.600   5.439
23290SOL     OW69827   6.249   7.557   3.827
23290SOL    HW169828   6.293   7.478   3.858
23290SOL    HW269829   6.188   7.527   3.760
23291SOL     OW69830   6.347   7.721   5.479
23291SOL    HW169831   6.431   7.675   5.476
23291SOL    HW269832   6.299   7.679   5.550
23292SOL     OW69833   6.456   8.976   4.923
23292SOL    HW169834   6.438   8.934   4.839
23292SOL    HW269835   6.523   8.921   4.964
23293SOL     OW69836   6.915   8.040   5.157
23293SOL    HW169837   6.948   8.009   5.241
23293SOL    HW269838   6.954   8.126   5.146
23294SOL     OW69839   6.403   8.823   4.682
23294SOL    HW169840   6.490   8.819   4.643
23294SOL    HW269841   6.344   8.838   4.608
23295SOL     OW69842   6.517   7.964   4.612
23295SOL    HW169843   6.492   7.952   4.520
23295SOL    HW269844   6.543   7.877   4.641
23296SOL     OW69845   6.151   7.513   4.215
23296SOL    HW169846   6.073   7.512   4.270
23296SOL    HW269847   6.137   7.587   4.156
23297SOL     OW69848   7.021   8.660   3.756
23297SOL    HW169849   7.050   8.586   3.809
23297SOL    HW269850   6.936   8.683   3.792
23298SOL     OW69851   5.869   7.497   3.912
23298SOL    HW169852   5.923   7.563   3.871
23298SOL    HW269853   5.931   7.438   3.955
23299SOL     OW69854   6.538   7.703   4.174
23299SOL    HW169855   6.513   7.737   4.089
23299SOL    HW269856   6.633   7.719   4.180
23300SOL     OW69857   6.661   8.141   5.168
23300SOL    HW169858   6.598   8.069   5.173
23300SOL    HW269859   6.746   8.098   5.165
23301SOL     OW69860   6.792   9.035   4.528
23301SOL    HW169861   6.807   9.095   4.454
23301SOL    HW269862   6.865   9.052   4.587
23302SOL     OW69863   6.068   8.610   4.432
23302SOL    HW169864   6.006   8.586   4.501
23302SOL    HW269865   6.018   8.603   4.351
23303SOL     OW69866   6.838   9.237   4.339
23303SOL    HW169867   6.886   9.300   4.286
23303SOL    HW269868   6.765   9.287   4.376
23304SOL     OW69869   6.618   7.962   3.753
23304SOL    HW169870   6.576   8.045   3.735
23304SOL    HW269871   6.681   7.981   3.823
23305SOL     OW69872   5.686   7.999   5.113
23305SOL    HW169873   5.778   8.000   5.088
23305SOL    HW269874   5.679   8.067   5.180
23306SOL     OW69875   6.146   7.668   4.909
23306SOL    HW169876   6.182   7.600   4.966
23306SOL    HW269877   6.053   7.670   4.929
23307SOL     OW69878   6.457   7.905   4.354
23307SOL    HW169879   6.416   7.960   4.286
23307SOL    HW269880   6.482   7.825   4.307
23308SOL     OW69881   6.607   7.505   4.462
23308SOL    HW169882   6.546   7.498   4.388
23308SOL    HW269883   6.583   7.432   4.520
23309SOL     OW69884   7.019   8.601   4.578
23309SOL    HW169885   6.951   8.535   4.588
23309SOL    HW269886   7.033   8.607   4.483
23310SOL     OW69887   7.048   8.064   4.673
23310SOL    HW169888   6.984   7.994   4.683
23310SOL    HW269889   7.104   8.057   4.750
23311SOL     OW69890   7.415   8.244   4.112
23311SOL    HW169891   7.475   8.201   4.172
23311SOL    HW269892   7.401   8.181   4.042
23312SOL     OW69893   6.084   8.873   3.875
23312SOL    HW169894   6.009   8.840   3.924
23312SOL    HW269895   6.081   8.824   3.793
23313SOL     OW69896   7.294   8.720   4.356
23313SOL    HW169897   7.388   8.714   4.377
23313SOL    HW269898   7.270   8.809   4.382
23314SOL     OW69899   6.978   8.023   3.790
23314SOL    HW169900   6.921   7.996   3.862
23314SOL    HW269901   7.066   7.997   3.818
23315SOL     OW69902   6.112   7.706   4.026
23315SOL    HW169903   6.166   7.664   3.959
23315SOL    HW269904   6.080   7.786   3.984
23316SOL     OW69905   7.321   8.692   5.256
23316SOL    HW169906   7.409   8.658   5.242
23316SOL    HW269907   7.335   8.779   5.293
23317SOL     OW69908   6.628   8.805   5.061
23317SOL    HW169909   6.551   8.769   5.104
23317SOL    HW269910   6.702   8.758   5.100
23318SOL     OW69911   7.193   9.083   5.396
23318SOL    HW169912   7.182   9.119   5.308
23318SOL    HW269913   7.271   9.027   5.390
23319SOL     OW69914   6.737   8.686   4.830
23319SOL    HW169915   6.674   8.720   4.894
23319SOL    HW269916   6.704   8.718   4.745
23320SOL     OW69917   7.196   8.539   4.800
23320SOL    HW169918   7.188   8.605   4.869
23320SOL    HW269919   7.126   8.560   4.738
23321SOL     OW69920   6.502   7.531   5.108
23321SOL    HW169921   6.524   7.515   5.016
23321SOL    HW269922   6.582   7.571   5.144
23322SOL     OW69923   6.565   8.563   5.448
23322SOL    HW169924   6.475   8.579   5.475
23322SOL    HW269925   6.561   8.482   5.397
23323SOL     OW69926   6.300   8.510   4.100
23323SOL    HW169927   6.285   8.484   4.190
23323SOL    HW269928   6.375   8.457   4.071
23324SOL     OW69929   6.013   8.276   4.983
23324SOL    HW169930   6.080   8.285   5.050
23324SOL    HW269931   5.983   8.185   4.992
23325SOL     OW69932   6.851   7.816   5.015
23325SOL    HW169933   6.878   7.896   5.059
23325SOL    HW269934   6.762   7.834   4.985
23326SOL     OW69935   5.664   9.017   5.088
23326SOL    HW169936   5.633   9.087   5.030
23326SOL    HW269937   5.759   9.017   5.077
23327SOL     OW69938   5.903   8.582   4.210
23327SOL    HW169939   5.904   8.653   4.146
23327SOL    HW269940   5.900   8.502   4.157
23328SOL     OW69941   6.119   7.966   4.583
23328SOL    HW169942   6.132   8.024   4.508
23328SOL    HW269943   6.188   7.990   4.645
23329SOL     OW69944   6.833   8.802   4.122
23329SOL    HW169945   6.890   8.871   4.156
23329SOL    HW269946   6.745   8.825   4.152
23330SOL     OW69947   6.896   8.915   4.867
23330SOL    HW169948   6.943   8.922   4.949
23330SOL    HW269949   6.845   8.835   4.874
23331SOL     OW69950   7.159   8.066   4.209
23331SOL    HW169951   7.108   8.106   4.280
23331SOL    HW269952   7.207   8.138   4.170
23332SOL     OW69953   5.930   8.979   5.026
23332SOL    HW169954   5.923   8.926   4.946
23332SOL    HW269955   6.024   8.995   5.035
23333SOL     OW69956   6.013   8.197   5.340
23333SOL    HW169957   6.075   8.238   5.280
23333SOL    HW269958   6.051   8.111   5.358
23334SOL     OW69959   7.214   8.234   5.422
23334SOL    HW169960   7.126   8.272   5.413
23334SOL    HW269961   7.264   8.272   5.350
23335SOL     OW69962   6.583   7.588   5.480
23335SOL    HW169963   6.642   7.660   5.461
23335SOL    HW269964   6.633   7.509   5.459
23336SOL     OW69965   6.082   7.485   5.488
23336SOL    HW169966   6.027   7.433   5.428
23336SOL    HW269967   6.028   7.561   5.508
23337SOL     OW69968   6.178   8.322   4.763
23337SOL    HW169969   6.215   8.410   4.766
23337SOL    HW269970   6.120   8.318   4.839
23338SOL     OW69971   6.894   8.301   4.727
23338SOL    HW169972   6.806   8.274   4.702
23338SOL    HW269973   6.949   8.225   4.708
23339SOL     OW69974   6.784   7.971   3.981
23339SOL    HW169975   6.795   7.895   4.037
23339SOL    HW269976   6.742   8.037   4.037
23340SOL     OW69977   5.879   7.643   4.963
23340SOL    HW169978   5.843   7.670   5.048
23340SOL    HW269979   5.864   7.549   4.959
23341SOL     OW69980   5.636   8.760   4.989
23341SOL    HW169981   5.666   8.703   5.061
23341SOL    HW269982   5.638   8.848   5.026
23342SOL     OW69983   6.298   8.069   4.763
23342SOL    HW169984   6.376   8.062   4.707
23342SOL    HW269985   6.270   8.160   4.753
23343SOL     OW69986   7.337   8.416   5.593
23343SOL    HW169987   7.298   8.344   5.545
23343SOL    HW269988   7.273   8.436   5.662
23344SOL     OW69989   5.912   7.509   4.352
23344SOL    HW169990   5.878   7.596   4.371
23344SOL    HW269991   5.917   7.466   4.438
23345SOL     OW69992   7.218   7.838   4.068
23345SOL    HW169993   7.250   7.773   4.130
23345SOL    HW269994   7.188   7.911   4.123
23346SOL     OW69995   6.620   8.207   4.681
23346SOL    HW169996   6.598   8.222   4.773
23346SOL    HW269997   6.591   8.118   4.663
23347SOL     OW69998   6.568   9.014   5.459
23347SOL    HW169999   6.546   9.058   5.376
23347SOL    HW270000   6.606   8.930   5.432
23348SOL     OW70001   7.424   8.943   5.327
23348SOL    HW170002   7.451   8.971   5.240
23348SOL    HW270003   7.502   8.953   5.381
23349SOL     OW70004   5.936   8.369   5.540
23349SOL    HW170005   6.013   8.384   5.594
23349SOL    HW270006   5.965   8.306   5.474
23350SOL     OW70007   7.107   7.718   3.843
23350SOL    HW170008   7.055   7.646   3.880
23350SOL    HW270009   7.147   7.760   3.919
23351SOL     OW70010   6.867   8.269   3.743
23351SOL    HW170011   6.906   8.182   3.751
23351SOL    HW270012   6.904   8.305   3.663
23352SOL     OW70013   6.656   8.801   4.590
23352SOL    HW170014   6.667   8.728   4.529
23352SOL    HW270015   6.708   8.872   4.553
23353SOL     OW70016   5.904   8.264   4.668
23353SOL    HW170017   5.999   8.277   4.666
23353SOL    HW270018   5.894   8.174   4.699
23354SOL     OW70019   5.898   7.987   4.734
23354SOL    HW170020   5.859   7.900   4.725
23354SOL    HW270021   5.975   7.984   4.678
23355SOL     OW70022   6.725   7.815   5.408
23355SOL    HW170023   6.679   7.866   5.475
23355SOL    HW270024   6.810   7.859   5.400
23356SOL     OW70025   6.741   7.637   5.197
23356SOL    HW170026   6.730   7.699   5.269
23356SOL    HW270027   6.788   7.687   5.129
23357SOL     OW70028   5.610   8.750   3.903
23357SOL    HW170029   5.521   8.772   3.878
23357SOL    HW270030   5.603   8.664   3.944
23358SOL     OW70031   5.679   9.217   4.675
23358SOL    HW170032   5.645   9.143   4.624
23358SOL    HW270033   5.765   9.234   4.638
23359SOL     OW70034   6.071   9.017   4.624
23359SOL    HW170035   6.141   9.079   4.646
23359SOL    HW270036   6.111   8.956   4.563
23360SOL     OW70037   6.533   8.230   4.939
23360SOL    HW170038   6.595   8.217   5.011
23360SOL    HW270039   6.455   8.182   4.966
23361SOL     OW70040   5.625   8.024   4.844
23361SOL    HW170041   5.707   8.018   4.793
23361SOL    HW270042   5.653   8.014   4.935
23362SOL     OW70043   5.771   7.984   5.469
23362SOL    HW170044   5.837   7.944   5.413
23362SOL    HW270045   5.737   8.058   5.418
23363SOL     OW70046   6.978   8.369   5.376
23363SOL    HW170047   6.995   8.463   5.370
23363SOL    HW270048   6.970   8.341   5.285
23364SOL     OW70049   6.404   8.018   4.095
23364SOL    HW170050   6.413   7.943   4.036
23364SOL    HW270051   6.327   8.064   4.064
23365SOL     OW70052   7.221   8.050   4.887
23365SOL    HW170053   7.211   7.990   4.961
23365SOL    HW270054   7.312   8.039   4.859
23366SOL     OW70055   5.810   8.986   5.450
23366SOL    HW170056   5.784   9.030   5.531
23366SOL    HW270057   5.825   8.895   5.476
23367SOL     OW70058   6.321   7.880   4.958
23367SOL    HW170059   6.257   7.810   4.944
23367SOL    HW270060   6.302   7.943   4.889
23368SOL     OW70061   6.487   9.130   5.216
23368SOL    HW170062   6.467   9.081   5.136
23368SOL    HW270063   6.491   9.221   5.187
23369SOL     OW70064   6.028   7.930   3.887
23369SOL    HW170065   6.093   7.995   3.912
23369SOL    HW270066   5.944   7.976   3.891
23370SOL     OW70067   5.716   8.598   5.204
23370SOL    HW170068   5.720   8.558   5.290
23370SOL    HW270069   5.737   8.527   5.143
23371SOL     OW70070   6.890   8.482   4.932
23371SOL    HW170071   6.899   8.418   4.861
23371SOL    HW270072   6.836   8.552   4.894
23372SOL     OW70073   6.911   8.309   4.016
23372SOL    HW170074   6.842   8.272   4.070
23372SOL    HW270075   6.883   8.293   3.926
23373SOL     OW70076   7.375   9.170   4.896
23373SOL    HW170077   7.436   9.196   4.827
23373SOL    HW270078   7.341   9.085   4.868
23374SOL     OW70079   6.826   9.180   4.818
23374SOL    HW170080   6.910   9.210   4.782
23374SOL    HW270081   6.841   9.088   4.841
23375SOL     OW70082   5.691   8.698   4.731
23375SOL    HW170083   5.663   8.718   4.820
23375SOL    HW270084   5.621   8.643   4.696
23376SOL     OW70085   6.277   9.128   5.473
23376SOL    HW170086   6.212   9.198   5.460
23376SOL    HW270087   6.348   9.150   5.414
23377SOL     OW70088   7.331   7.632   4.221
23377SOL    HW170089   7.390   7.612   4.148
23377SOL    HW270090   7.303   7.547   4.254
23378SOL     OW70091   6.983   9.016   4.227
23378SOL    HW170092   7.037   9.052   4.157
23378SOL    HW270093   6.928   9.090   4.255
23379SOL     OW70094   5.716   9.258   5.568
23379SOL    HW170095   5.678   9.180   5.609
23379SOL    HW270096   5.769   9.298   5.637
23380SOL     OW70097   6.865   8.385   4.389
23380SOL    HW170098   6.938   8.325   4.402
23380SOL    HW270099   6.901   8.456   4.337
23381SOL     OW70100   6.370   8.727   5.136
23381SOL    HW170101   6.343   8.775   5.215
23381SOL    HW270102   6.295   8.737   5.077
23382SOL     OW70103   6.254   9.085   3.884
23382SOL    HW170104   6.270   9.098   3.791
23382SOL    HW270105   6.202   9.004   3.889
23383SOL     OW70106   7.202   9.176   5.126
23383SOL    HW170107   7.260   9.175   5.049
23383SOL    HW270108   7.186   9.269   5.142
23384SOL     OW70109   7.432   7.607   4.689
23384SOL    HW170110   7.460   7.518   4.669
23384SOL    HW270111   7.344   7.614   4.651
23385SOL     OW70112   5.829   7.755   4.433
23385SOL    HW170113   5.743   7.791   4.411
23385SOL    HW270114   5.833   7.756   4.528
23386SOL     OW70115   6.795   9.035   3.763
23386SOL    HW170116   6.785   8.944   3.791
23386SOL    HW270117   6.725   9.047   3.698
23387SOL     OW70118   6.409   8.458   5.110
23387SOL    HW170119   6.447   8.447   5.023
23387SOL    HW270120   6.399   8.552   5.120
23388SOL     OW70121   6.506   8.359   4.017
23388SOL    HW170122   6.564   8.393   3.948
23388SOL    HW270123   6.558   8.292   4.061
23389SOL     OW70124   7.068   9.093   3.782
23389SOL    HW170125   6.976   9.072   3.764
23389SOL    HW270126   7.108   9.097   3.695
23390SOL     OW70127   5.947   8.762   5.227
23390SOL    HW170128   5.941   8.834   5.164
23390SOL    HW270129   5.871   8.707   5.209
23391SOL     OW70130   7.186   8.737   5.001
23391SOL    HW170131   7.239   8.713   5.076
23391SOL    HW270132   7.126   8.804   5.035
23392SOL     OW70133   6.662   8.568   4.453
23392SOL    HW170134   6.587   8.518   4.485
23392SOL    HW270135   6.725   8.501   4.424
23393SOL     OW70136   6.619   7.696   4.683
23393SOL    HW170137   6.617   7.653   4.598
23393SOL    HW270138   6.611   7.624   4.746
23394SOL     OW70139   6.189   8.933   4.198
23394SOL    HW170140   6.245   8.884   4.137
23394SOL    HW270141   6.107   8.944   4.151
23395SOL     OW70142   7.331   7.831   5.112
23395SOL    HW170143   7.402   7.895   5.108
23395SOL    HW270144   7.357   7.761   5.051
23396SOL     OW70145   5.865   8.789   4.023
23396SOL    HW170146   5.778   8.781   3.984
23396SOL    HW270147   5.851   8.837   4.104
23397SOL     OW70148   5.706   8.494   5.459
23397SOL    HW170149   5.629   8.466   5.508
23397SOL    HW270150   5.778   8.443   5.495
23398SOL     OW70151   6.264   7.639   5.221
23398SOL    HW170152   6.347   7.613   5.181
23398SOL    HW270153   6.288   7.672   5.308
23399SOL     OW70154   5.672   7.765   3.741
23399SOL    HW170155   5.595   7.743   3.688
23399SOL    HW270156   5.699   7.851   3.709
23400SOL     OW70157   7.001   8.302   5.112
23400SOL    HW170158   6.949   8.361   5.057
23400SOL    HW270159   7.089   8.306   5.074
23401SOL     OW70160   5.630   7.597   3.996
23401SOL    HW170161   5.619   7.667   3.932
23401SOL    HW270162   5.718   7.564   3.980
23402SOL     OW70163   6.770   8.769   3.848
23402SOL    HW170164   6.681   8.734   3.848
23402SOL    HW270165   6.794   8.773   3.940
23403SOL     OW70166   6.211   8.279   5.167
23403SOL    HW170167   6.270   8.353   5.155
23403SOL    HW270168   6.268   8.202   5.165
23404SOL     OW70169   7.071   9.243   4.714
23404SOL    HW170170   7.096   9.320   4.663
23404SOL    HW270171   7.154   9.199   4.733
23405SOL     OW70172   6.315   7.994   5.411
23405SOL    HW170173   6.360   8.047   5.475
23405SOL    HW270174   6.324   7.904   5.443
23406SOL     OW70175   7.054   8.633   5.343
23406SOL    HW170176   7.047   8.654   5.436
23406SOL    HW270177   7.144   8.656   5.319
23407SOL     OW70178   5.938   9.188   5.301
23407SOL    HW170179   5.856   9.235   5.283
23407SOL    HW270180   5.910   9.106   5.341
23408SOL     OW70181   7.241   8.323   4.977
23408SOL    HW170182   7.239   8.239   4.931
23408SOL    HW270183   7.230   8.388   4.908
23409SOL     OW70184   6.808   7.772   4.179
23409SOL    HW170185   6.867   7.696   4.178
23409SOL    HW270186   6.837   7.823   4.255
23410SOL     OW70187   6.162   8.175   4.404
23410SOL    HW170188   6.205   8.259   4.389
23410SOL    HW270189   6.100   8.166   4.331
23411SOL     OW70190   7.332   7.803   5.388
23411SOL    HW170191   7.329   7.819   5.294
23411SOL    HW270192   7.255   7.749   5.406
23412SOL     OW70193   7.347   8.372   5.227
23412SOL    HW170194   7.329   8.465   5.240
23412SOL    HW270195   7.319   8.355   5.137
23413SOL     OW70196   6.452   8.806   3.785
23413SOL    HW170197   6.417   8.823   3.872
23413SOL    HW270198   6.465   8.892   3.746
23414SOL     OW70199   6.254   9.215   4.647
23414SOL    HW170200   6.236   9.309   4.639
23414SOL    HW270201   6.349   9.209   4.647
23415SOL     OW70202   6.458   8.425   4.580
23415SOL    HW170203   6.508   8.351   4.614
23415SOL    HW270204   6.412   8.461   4.656
23416SOL     OW70205   6.662   8.436   3.811
23416SOL    HW170206   6.639   8.487   3.733
23416SOL    HW270207   6.734   8.380   3.783
23417SOL     OW70208   7.417   9.004   4.563
23417SOL    HW170209   7.340   8.996   4.507
23417SOL    HW270210   7.397   8.950   4.640
23418SOL     OW70211   5.798   8.731   5.560
23418SOL    HW170212   5.766   8.652   5.516
23418SOL    HW270213   5.739   8.743   5.634
23419SOL     OW70214   5.704   8.675   4.391
23419SOL    HW170215   5.733   8.633   4.473
23419SOL    HW270216   5.763   8.640   4.325
23420SOL     OW70217   6.276   8.866   5.355
23420SOL    HW170218   6.200   8.827   5.397
23420SOL    HW270219   6.282   8.954   5.393
23421SOL     OW70220   7.398   7.620   4.959
23421SOL    HW170221   7.398   7.525   4.973
23421SOL    HW270222   7.412   7.630   4.865
23422SOL     OW70223   6.004   7.871   4.242
23422SOL    HW170224   6.038   7.800   4.188
23422SOL    HW270225   5.952   7.827   4.310
23423SOL     OW70226   7.280   8.928   4.806
23423SOL    HW170227   7.203   8.909   4.754
23423SOL    HW270228   7.281   8.860   4.874
23424SOL     OW70229   5.939   8.013   5.015
23424SOL    HW170230   5.987   7.949   5.067
23424SOL    HW270231   5.946   7.982   4.925
23425SOL     OW70232   6.422   9.024   4.397
23425SOL    HW170233   6.386   9.086   4.334
23425SOL    HW270234   6.350   8.962   4.412
23426SOL     OW70235   7.006   7.680   4.836
23426SOL    HW170236   7.010   7.588   4.865
23426SOL    HW270237   6.961   7.725   4.907
23427SOL     OW70238   6.594   7.467   4.845
23427SOL    HW170239   6.538   7.403   4.801
23427SOL    HW270240   6.681   7.425   4.847
23428SOL     OW70241   6.367   8.780   4.052
23428SOL    HW170242   6.343   8.688   4.064
23428SOL    HW270243   6.447   8.791   4.104
23429SOL     OW70244   6.201   9.016   5.011
23429SOL    HW170245   6.196   9.099   5.057
23429SOL    HW270246   6.291   9.012   4.978
23430SOL     OW70247   6.967   7.487   3.915
23430SOL    HW170248   7.007   7.414   3.868
23430SOL    HW270249   6.875   7.461   3.926
23431SOL     OW70250   6.885   7.920   4.399
23431SOL    HW170251   6.834   8.001   4.396
23431SOL    HW270252   6.877   7.890   4.489
23432SOL     OW70253   7.170   7.636   4.617
23432SOL    HW170254   7.117   7.665   4.691
23432SOL    HW270255   7.170   7.710   4.557
23433SOL     OW70256   5.623   8.499   4.032
23433SOL    HW170257   5.716   8.487   4.013
23433SOL    HW270258   5.591   8.411   4.052
23434SOL     OW70259   6.480   9.125   4.059
23434SOL    HW170260   6.401   9.110   4.006
23434SOL    HW270261   6.456   9.197   4.117
23435SOL     OW70262   5.793   8.073   5.733
23435SOL    HW170263   5.706   8.059   5.770
23435SOL    HW270264   5.783   8.056   5.640
23436SOL     OW70265   5.805   7.737   6.576
23436SOL    HW170266   5.836   7.701   6.659
23436SOL    HW270267   5.718   7.699   6.564
23437SOL     OW70268   5.574   7.845   6.232
23437SOL    HW170269   5.494   7.869   6.279
23437SOL    HW270270   5.548   7.771   6.177
23438SOL     OW70271   6.161   8.755   6.795
23438SOL    HW170272   6.078   8.758   6.746
23438SOL    HW270273   6.178   8.846   6.818
23439SOL     OW70274   7.174   8.971   6.291
23439SOL    HW170275   7.127   8.940   6.369
23439SOL    HW270276   7.107   8.973   6.223
23440SOL     OW70277   6.724   8.152   6.272
23440SOL    HW170278   6.770   8.236   6.261
23440SOL    HW270279   6.675   8.162   6.353
23441SOL     OW70280   7.387   8.030   5.806
23441SOL    HW170281   7.349   8.029   5.719
23441SOL    HW270282   7.343   7.958   5.852
23442SOL     OW70283   6.313   8.577   6.644
23442SOL    HW170284   6.254   8.617   6.708
23442SOL    HW270285   6.356   8.651   6.601
23443SOL     OW70286   6.474   8.189   7.415
23443SOL    HW170287   6.464   8.257   7.482
23443SOL    HW270288   6.491   8.238   7.334
23444SOL     OW70289   6.272   8.434   6.230
23444SOL    HW170290   6.339   8.433   6.298
23444SOL    HW270291   6.206   8.495   6.261
23445SOL     OW70292   6.298   8.598   7.419
23445SOL    HW170293   6.349   8.670   7.453
23445SOL    HW270294   6.221   8.639   7.378
23446SOL     OW70295   5.929   8.845   6.655
23446SOL    HW170296   5.853   8.802   6.615
23446SOL    HW270297   5.965   8.899   6.585
23447SOL     OW70298   7.040   8.953   6.958
23447SOL    HW170299   7.095   9.030   6.971
23447SOL    HW270300   6.968   8.964   7.020
23448SOL     OW70301   6.044   7.823   7.043
23448SOL    HW170302   6.119   7.765   7.057
23448SOL    HW270303   5.968   7.772   7.069
23449SOL     OW70304   7.170   7.880   6.341
23449SOL    HW170305   7.104   7.890   6.273
23449SOL    HW270306   7.152   7.950   6.403
23450SOL     OW70307   5.804   9.178   6.051
23450SOL    HW170308   5.830   9.249   6.109
23450SOL    HW270309   5.878   9.167   5.991
23451SOL     OW70310   6.721   8.789   7.283
23451SOL    HW170311   6.767   8.778   7.366
23451SOL    HW270312   6.668   8.710   7.274
23452SOL     OW70313   5.819   8.906   6.119
23452SOL    HW170314   5.797   8.999   6.124
23452SOL    HW270315   5.769   8.866   6.190
23453SOL     OW70316   5.872   8.538   6.466
23453SOL    HW170317   5.872   8.448   6.499
23453SOL    HW270318   5.815   8.585   6.526
23454SOL     OW70319   6.161   9.246   7.009
23454SOL    HW170320   6.083   9.228   7.062
23454SOL    HW270321   6.191   9.332   7.038
23455SOL     OW70322   6.151   8.435   5.738
23455SOL    HW170323   6.202   8.477   5.669
23455SOL    HW270324   6.192   8.465   5.820
23456SOL     OW70325   7.178   7.580   7.046
23456SOL    HW170326   7.216   7.656   7.002
23456SOL    HW270327   7.146   7.614   7.130
23457SOL     OW70328   5.705   8.106   6.153
23457SOL    HW170329   5.673   8.019   6.176
23457SOL    HW270330   5.699   8.156   6.234
23458SOL     OW70331   7.433   9.188   5.902
23458SOL    HW170332   7.503   9.173   5.965
23458SOL    HW270333   7.441   9.281   5.878
23459SOL     OW70334   5.648   9.027   5.695
23459SOL    HW170335   5.627   8.936   5.712
23459SOL    HW270336   5.616   9.075   5.771
23460SOL     OW70337   7.284   8.374   6.238
23460SOL    HW170338   7.364   8.328   6.214
23460SOL    HW270339   7.262   8.426   6.161
23461SOL     OW70340   7.243   8.552   6.018
23461SOL    HW170341   7.327   8.544   5.975
23461SOL    HW270342   7.257   8.618   6.087
23462SOL     OW70343   5.707   8.196   7.164
23462SOL    HW170344   5.793   8.239   7.167
23462SOL    HW270345   5.645   8.268   7.150
23463SOL     OW70346   6.209   8.846   6.316
23463SOL    HW170347   6.167   8.760   6.321
23463SOL    HW270348   6.193   8.875   6.226
23464SOL     OW70349   6.856   8.673   7.003
23464SOL    HW170350   6.883   8.604   6.943
23464SOL    HW270351   6.918   8.668   7.076
23465SOL     OW70352   6.418   7.461   6.105
23465SOL    HW170353   6.458   7.543   6.077
23465SOL    HW270354   6.324   7.478   6.105
23466SOL     OW70355   5.773   8.404   6.887
23466SOL    HW170356   5.860   8.369   6.871
23466SOL    HW270357   5.719   8.367   6.817
23467SOL     OW70358   7.121   8.463   5.785
23467SOL    HW170359   7.052   8.403   5.815
23467SOL    HW270360   7.163   8.493   5.866
23468SOL     OW70361   6.769   9.269   7.218
23468SOL    HW170362   6.768   9.330   7.144
23468SOL    HW270363   6.783   9.183   7.178
23469SOL     OW70364   5.945   7.701   7.462
23469SOL    HW170365   5.981   7.782   7.500
23469SOL    HW270366   5.850   7.716   7.459
23470SOL     OW70367   7.058   8.865   6.516
23470SOL    HW170368   6.995   8.884   6.585
23470SOL    HW270369   7.040   8.774   6.492
23471SOL     OW70370   7.231   9.230   6.153
23471SOL    HW170371   7.208   9.189   6.070
23471SOL    HW270372   7.225   9.160   6.217
23472SOL     OW70373   6.173   8.148   5.858
23472SOL    HW170374   6.175   8.235   5.819
23472SOL    HW270375   6.108   8.154   5.928
23473SOL     OW70376   6.868   7.842   6.527
23473SOL    HW170377   6.779   7.806   6.531
23473SOL    HW270378   6.920   7.783   6.582
23474SOL     OW70379   7.165   9.120   5.905
23474SOL    HW170380   7.259   9.135   5.894
23474SOL    HW270381   7.131   9.108   5.816
23475SOL     OW70382   6.376   8.061   7.017
23475SOL    HW170383   6.353   8.031   7.105
23475SOL    HW270384   6.351   7.988   6.960
23476SOL     OW70385   6.978   7.925   7.259
23476SOL    HW170386   6.982   7.968   7.345
23476SOL    HW270387   7.027   7.844   7.270
23477SOL     OW70388   6.530   8.328   7.179
23477SOL    HW170389   6.586   8.264   7.135
23477SOL    HW270390   6.481   8.370   7.109
23478SOL     OW70391   6.594   7.845   6.794
23478SOL    HW170392   6.502   7.858   6.817
23478SOL    HW270393   6.592   7.802   6.709
23479SOL     OW70394   6.645   8.146   6.004
23479SOL    HW170395   6.665   8.142   6.097
23479SOL    HW270396   6.560   8.102   5.996
23480SOL     OW70397   5.679   8.273   6.369
23480SOL    HW170398   5.761   8.267   6.418
23480SOL    HW270399   5.631   8.345   6.410
23481SOL     OW70400   5.691   9.318   7.170
23481SOL    HW170401   5.699   9.302   7.264
23481SOL    HW270402   5.608   9.277   7.146
23482SOL     OW70403   6.472   7.800   5.787
23482SOL    HW170404   6.524   7.851   5.725
23482SOL    HW270405   6.442   7.724   5.736
23483SOL     OW70406   7.273   8.011   7.426
23483SOL    HW170407   7.251   8.088   7.374
23483SOL    HW270408   7.301   7.946   7.362
23484SOL     OW70409   6.979   8.598   6.130
23484SOL    HW170410   7.058   8.586   6.077
23484SOL    HW270411   6.926   8.658   6.078
23485SOL     OW70412   6.138   7.608   6.500
23485SOL    HW170413   6.143   7.637   6.591
23485SOL    HW270414   6.133   7.689   6.449
23486SOL     OW70415   6.584   8.903   6.051
23486SOL    HW170416   6.558   8.979   5.998
23486SOL    HW270417   6.554   8.925   6.140
23487SOL     OW70418   5.940   9.264   6.465
23487SOL    HW170419   5.985   9.180   6.469
23487SOL    HW270420   6.007   9.329   6.485
23488SOL     OW70421   7.391   8.493   6.474
23488SOL    HW170422   7.343   8.476   6.393
23488SOL    HW270423   7.322   8.501   6.540
23489SOL     OW70424   6.803   8.990   7.102
23489SOL    HW170425   6.792   8.920   7.166
23489SOL    HW270426   6.738   8.971   7.034
23490SOL     OW70427   5.886   8.406   5.852
23490SOL    HW170428   5.968   8.426   5.807
23490SOL    HW270429   5.863   8.318   5.820
23491SOL     OW70430   7.070   8.212   6.297
23491SOL    HW170431   7.072   8.168   6.382
23491SOL    HW270432   7.150   8.265   6.295
23492SOL     OW70433   6.059   8.732   7.334
23492SOL    HW170434   6.034   8.737   7.242
23492SOL    HW270435   5.976   8.719   7.381
23493SOL     OW70436   6.720   9.223   5.810
23493SOL    HW170437   6.640   9.192   5.851
23493SOL    HW270438   6.741   9.157   5.744
23494SOL     OW70439   5.794   7.704   7.084
23494SOL    HW170440   5.721   7.764   7.098
23494SOL    HW270441   5.764   7.620   7.118
23495SOL     OW70442   7.225   8.837   5.686
23495SOL    HW170443   7.183   8.922   5.673
23495SOL    HW270444   7.158   8.773   5.659
23496SOL     OW70445   6.043   9.193   5.900
23496SOL    HW170446   6.092   9.242   5.965
23496SOL    HW270447   6.110   9.149   5.847
23497SOL     OW70448   6.983   7.552   6.044
23497SOL    HW170449   6.982   7.528   5.951
23497SOL    HW270450   7.073   7.537   6.072
23498SOL     OW70451   5.838   9.232   6.799
23498SOL    HW170452   5.886   9.157   6.833
23498SOL    HW270453   5.822   9.211   6.707
23499SOL     OW70454   6.533   9.146   6.476
23499SOL    HW170455   6.619   9.106   6.488
23499SOL    HW270456   6.493   9.094   6.406
23500SOL     OW70457   5.981   8.133   6.059
23500SOL    HW170458   5.994   8.039   6.072
23500SOL    HW270459   5.888   8.147   6.076
23501SOL     OW70460   7.093   7.671   7.303
23501SOL    HW170461   7.106   7.690   7.396
23501SOL    HW270462   7.028   7.601   7.301
23502SOL     OW70463   6.250   7.557   5.689
23502SOL    HW170464   6.297   7.477   5.715
23502SOL    HW270465   6.188   7.527   5.622
23503SOL     OW70466   6.346   7.721   7.339
23503SOL    HW170467   6.430   7.676   7.337
23503SOL    HW270468   6.299   7.681   7.412
23504SOL     OW70469   6.456   8.975   6.785
23504SOL    HW170470   6.438   8.933   6.701
23504SOL    HW270471   6.523   8.921   6.826
23505SOL     OW70472   6.915   8.040   7.018
23505SOL    HW170473   6.948   8.009   7.103
23505SOL    HW270474   6.954   8.126   7.007
23506SOL     OW70475   6.402   8.823   6.544
23506SOL    HW170476   6.490   8.819   6.505
23506SOL    HW270477   6.344   8.838   6.470
23507SOL     OW70478   6.516   7.964   6.473
23507SOL    HW170479   6.491   7.952   6.382
23507SOL    HW270480   6.543   7.876   6.502
23508SOL     OW70481   6.151   7.512   6.076
23508SOL    HW170482   6.072   7.511   6.131
23508SOL    HW270483   6.138   7.586   6.017
23509SOL     OW70484   7.021   8.660   5.618
23509SOL    HW170485   7.051   8.586   5.671
23509SOL    HW270486   6.936   8.683   5.654
23510SOL     OW70487   5.868   7.496   5.775
23510SOL    HW170488   5.921   7.562   5.730
23510SOL    HW270489   5.932   7.437   5.815
23511SOL     OW70490   6.538   7.700   6.036
23511SOL    HW170491   6.512   7.734   5.951
23511SOL    HW270492   6.632   7.716   6.041
23512SOL     OW70493   6.661   8.142   7.030
23512SOL    HW170494   6.597   8.070   7.035
23512SOL    HW270495   6.746   8.098   7.027
23513SOL     OW70496   6.792   9.036   6.390
23513SOL    HW170497   6.807   9.095   6.316
23513SOL    HW270498   6.865   9.052   6.449
23514SOL     OW70499   6.068   8.610   6.294
23514SOL    HW170500   6.006   8.585   6.363
23514SOL    HW270501   6.018   8.603   6.213
23515SOL     OW70502   6.838   9.237   6.201
23515SOL    HW170503   6.886   9.300   6.148
23515SOL    HW270504   6.765   9.287   6.238
23516SOL     OW70505   6.618   7.961   5.616
23516SOL    HW170506   6.576   8.045   5.597
23516SOL    HW270507   6.682   7.981   5.685
23517SOL     OW70508   5.686   7.998   6.977
23517SOL    HW170509   5.778   8.000   6.951
23517SOL    HW270510   5.679   8.067   7.043
23518SOL     OW70511   6.146   7.669   6.770
23518SOL    HW170512   6.183   7.603   6.828
23518SOL    HW270513   6.052   7.670   6.790
23519SOL     OW70514   6.457   7.904   6.215
23519SOL    HW170515   6.417   7.959   6.148
23519SOL    HW270516   6.482   7.824   6.169
23520SOL     OW70517   6.606   7.507   6.326
23520SOL    HW170518   6.546   7.501   6.252
23520SOL    HW270519   6.582   7.434   6.382
23521SOL     OW70520   7.020   8.601   6.440
23521SOL    HW170521   6.950   8.536   6.449
23521SOL    HW270522   7.034   8.608   6.345
23522SOL     OW70523   7.049   8.064   6.534
23522SOL    HW170524   6.984   7.994   6.544
23522SOL    HW270525   7.104   8.058   6.612
23523SOL     OW70526   7.415   8.245   5.974
23523SOL    HW170527   7.475   8.201   6.034
23523SOL    HW270528   7.401   8.181   5.904
23524SOL     OW70529   6.084   8.873   5.737
23524SOL    HW170530   6.009   8.840   5.786
23524SOL    HW270531   6.082   8.824   5.654
23525SOL     OW70532   7.294   8.720   6.219
23525SOL    HW170533   7.387   8.714   6.240
23525SOL    HW270534   7.269   8.809   6.245
23526SOL     OW70535   6.979   8.023   5.652
23526SOL    HW170536   6.922   7.996   5.724
23526SOL    HW270537   7.066   7.997   5.680
23527SOL     OW70538   6.114   7.706   5.888
23527SOL    HW170539   6.167   7.663   5.821
23527SOL    HW270540   6.081   7.785   5.846
23528SOL     OW70541   7.321   8.692   7.118
23528SOL    HW170542   7.409   8.658   7.104
23528SOL    HW270543   7.335   8.779   7.155
23529SOL     OW70544   6.628   8.805   6.923
23529SOL    HW170545   6.551   8.769   6.966
23529SOL    HW270546   6.702   8.758   6.962
23530SOL     OW70547   7.194   9.083   7.258
23530SOL    HW170548   7.182   9.119   7.170
23530SOL    HW270549   7.271   9.027   7.252
23531SOL     OW70550   6.737   8.686   6.692
23531SOL    HW170551   6.674   8.720   6.756
23531SOL    HW270552   6.704   8.718   6.608
23532SOL     OW70553   7.196   8.539   6.662
23532SOL    HW170554   7.188   8.605   6.730
23532SOL    HW270555   7.126   8.560   6.600
23533SOL     OW70556   6.504   7.529   6.969
23533SOL    HW170557   6.525   7.514   6.877
23533SOL    HW270558   6.583   7.570   7.005
23534SOL     OW70559   6.565   8.563   7.310
23534SOL    HW170560   6.475   8.579   7.337
23534SOL    HW270561   6.561   8.482   7.259
23535SOL     OW70562   6.301   8.511   5.962
23535SOL    HW170563   6.286   8.484   6.052
23535SOL    HW270564   6.375   8.458   5.933
23536SOL     OW70565   6.013   8.276   6.845
23536SOL    HW170566   6.080   8.285   6.912
23536SOL    HW270567   5.982   8.186   6.854
23537SOL     OW70568   6.850   7.815   6.878
23537SOL    HW170569   6.878   7.896   6.921
23537SOL    HW270570   6.762   7.834   6.847
23538SOL     OW70571   5.664   9.017   6.949
23538SOL    HW170572   5.633   9.087   6.892
23538SOL    HW270573   5.759   9.017   6.939
23539SOL     OW70574   5.903   8.582   6.072
23539SOL    HW170575   5.904   8.653   6.008
23539SOL    HW270576   5.900   8.502   6.019
23540SOL     OW70577   6.119   7.966   6.446
23540SOL    HW170578   6.132   8.024   6.371
23540SOL    HW270579   6.188   7.991   6.508
23541SOL     OW70580   6.833   8.802   5.984
23541SOL    HW170581   6.890   8.871   6.019
23541SOL    HW270582   6.745   8.825   6.014
23542SOL     OW70583   6.896   8.915   6.729
23542SOL    HW170584   6.943   8.921   6.811
23542SOL    HW270585   6.845   8.835   6.736
23543SOL     OW70586   7.159   8.064   6.073
23543SOL    HW170587   7.108   8.106   6.142
23543SOL    HW270588   7.206   8.136   6.031
23544SOL     OW70589   5.930   8.979   6.888
23544SOL    HW170590   5.923   8.926   6.808
23544SOL    HW270591   6.024   8.995   6.897
23545SOL     OW70592   6.016   8.196   7.203
23545SOL    HW170593   6.076   8.238   7.142
23545SOL    HW270594   6.056   8.111   7.222
23546SOL     OW70595   7.214   8.234   7.284
23546SOL    HW170596   7.126   8.272   7.275
23546SOL    HW270597   7.264   8.272   7.212
23547SOL     OW70598   6.582   7.588   7.344
23547SOL    HW170599   6.640   7.661   7.325
23547SOL    HW270600   6.633   7.510   7.322
23548SOL     OW70601   6.081   7.483   7.349
23548SOL    HW170602   6.026   7.433   7.289
23548SOL    HW270603   6.028   7.561   7.370
23549SOL     OW70604   6.178   8.322   6.625
23549SOL    HW170605   6.216   8.410   6.629
23549SOL    HW270606   6.120   8.318   6.701
23550SOL     OW70607   6.894   8.301   6.589
23550SOL    HW170608   6.806   8.274   6.564
23550SOL    HW270609   6.949   8.225   6.570
23551SOL     OW70610   6.785   7.971   5.843
23551SOL    HW170611   6.795   7.894   5.900
23551SOL    HW270612   6.743   8.036   5.899
23552SOL     OW70613   5.879   7.642   6.825
23552SOL    HW170614   5.844   7.670   6.909
23552SOL    HW270615   5.862   7.548   6.822
23553SOL     OW70616   5.636   8.759   6.851
23553SOL    HW170617   5.665   8.703   6.923
23553SOL    HW270618   5.638   8.848   6.888
23554SOL     OW70619   6.299   8.070   6.626
23554SOL    HW170620   6.376   8.062   6.569
23554SOL    HW270621   6.270   8.161   6.615
23555SOL     OW70622   7.337   8.416   7.456
23555SOL    HW170623   7.298   8.343   7.407
23555SOL    HW270624   7.273   8.436   7.524
23556SOL     OW70625   5.912   7.508   6.214
23556SOL    HW170626   5.878   7.596   6.232
23556SOL    HW270627   5.917   7.466   6.299
23557SOL     OW70628   7.218   7.838   5.930
23557SOL    HW170629   7.250   7.772   5.992
23557SOL    HW270630   7.188   7.910   5.985
23558SOL     OW70631   6.620   8.207   6.542
23558SOL    HW170632   6.598   8.221   6.634
23558SOL    HW270633   6.590   8.118   6.524
23559SOL     OW70634   6.568   9.014   7.321
23559SOL    HW170635   6.546   9.057   7.239
23559SOL    HW270636   6.606   8.930   7.294
23560SOL     OW70637   7.424   8.943   7.189
23560SOL    HW170638   7.451   8.971   7.102
23560SOL    HW270639   7.502   8.953   7.243
23561SOL     OW70640   5.935   8.368   7.402
23561SOL    HW170641   6.013   8.384   7.456
23561SOL    HW270642   5.965   8.305   7.336
23562SOL     OW70643   7.105   7.717   5.705
23562SOL    HW170644   7.054   7.646   5.742
23562SOL    HW270645   7.146   7.759   5.781
23563SOL     OW70646   6.867   8.269   5.606
23563SOL    HW170647   6.907   8.182   5.613
23563SOL    HW270648   6.904   8.305   5.525
23564SOL     OW70649   6.656   8.801   6.453
23564SOL    HW170650   6.667   8.728   6.391
23564SOL    HW270651   6.708   8.872   6.415
23565SOL     OW70652   5.905   8.264   6.530
23565SOL    HW170653   5.999   8.277   6.527
23565SOL    HW270654   5.894   8.174   6.561
23566SOL     OW70655   5.898   7.986   6.597
23566SOL    HW170656   5.859   7.900   6.587
23566SOL    HW270657   5.976   7.984   6.541
23567SOL     OW70658   6.725   7.815   7.271
23567SOL    HW170659   6.679   7.866   7.338
23567SOL    HW270660   6.810   7.858   7.262
23568SOL     OW70661   6.741   7.637   7.060
23568SOL    HW170662   6.730   7.699   7.132
23568SOL    HW270663   6.788   7.686   6.992
23569SOL     OW70664   5.610   8.750   5.765
23569SOL    HW170665   5.521   8.773   5.740
23569SOL    HW270666   5.603   8.664   5.806
23570SOL     OW70667   5.679   9.216   6.537
23570SOL    HW170668   5.645   9.143   6.486
23570SOL    HW270669   5.766   9.234   6.500
23571SOL     OW70670   6.071   9.017   6.487
23571SOL    HW170671   6.141   9.079   6.509
23571SOL    HW270672   6.111   8.956   6.425
23572SOL     OW70673   6.534   8.230   6.800
23572SOL    HW170674   6.596   8.217   6.873
23572SOL    HW270675   6.455   8.183   6.828
23573SOL     OW70676   5.625   8.022   6.707
23573SOL    HW170677   5.706   8.017   6.656
23573SOL    HW270678   5.653   8.013   6.798
23574SOL     OW70679   5.772   7.986   7.330
23574SOL    HW170680   5.841   7.949   7.275
23574SOL    HW270681   5.737   8.059   7.280
23575SOL     OW70682   6.978   8.369   7.237
23575SOL    HW170683   6.995   8.463   7.232
23575SOL    HW270684   6.970   8.341   7.146
23576SOL     OW70685   6.404   8.018   5.958
23576SOL    HW170686   6.413   7.943   5.898
23576SOL    HW270687   6.327   8.065   5.926
23577SOL     OW70688   7.221   8.050   6.749
23577SOL    HW170689   7.211   7.990   6.823
23577SOL    HW270690   7.312   8.039   6.722
23578SOL     OW70691   5.811   8.986   7.311
23578SOL    HW170692   5.785   9.032   7.391
23578SOL    HW270693   5.824   8.895   7.338
23579SOL     OW70694   6.320   7.881   6.820
23579SOL    HW170695   6.256   7.811   6.805
23579SOL    HW270696   6.302   7.945   6.751
23580SOL     OW70697   6.488   9.130   7.078
23580SOL    HW170698   6.467   9.081   6.998
23580SOL    HW270699   6.491   9.221   7.049
23581SOL     OW70700   6.028   7.930   5.751
23581SOL    HW170701   6.093   7.996   5.775
23581SOL    HW270702   5.944   7.976   5.754
23582SOL     OW70703   5.716   8.598   7.066
23582SOL    HW170704   5.720   8.558   7.153
23582SOL    HW270705   5.737   8.527   7.006
23583SOL     OW70706   6.890   8.482   6.794
23583SOL    HW170707   6.899   8.418   6.724
23583SOL    HW270708   6.836   8.552   6.757
23584SOL     OW70709   6.912   8.308   5.878
23584SOL    HW170710   6.841   8.272   5.932
23584SOL    HW270711   6.883   8.292   5.788
23585SOL     OW70712   7.375   9.170   6.758
23585SOL    HW170713   7.436   9.196   6.689
23585SOL    HW270714   7.341   9.085   6.730
23586SOL     OW70715   6.827   9.180   6.680
23586SOL    HW170716   6.910   9.210   6.644
23586SOL    HW270717   6.841   9.089   6.703
23587SOL     OW70718   5.691   8.697   6.594
23587SOL    HW170719   5.663   8.717   6.683
23587SOL    HW270720   5.621   8.642   6.558
23588SOL     OW70721   6.276   9.129   7.335
23588SOL    HW170722   6.212   9.198   7.322
23588SOL    HW270723   6.348   9.151   7.275
23589SOL     OW70724   7.332   7.633   6.083
23589SOL    HW170725   7.390   7.612   6.010
23589SOL    HW270726   7.304   7.547   6.116
23590SOL     OW70727   6.983   9.017   6.090
23590SOL    HW170728   7.037   9.052   6.019
23590SOL    HW270729   6.928   9.090   6.117
23591SOL     OW70730   5.717   9.257   7.430
23591SOL    HW170731   5.679   9.179   7.471
23591SOL    HW270732   5.770   9.297   7.499
23592SOL     OW70733   6.865   8.385   6.251
23592SOL    HW170734   6.938   8.325   6.264
23592SOL    HW270735   6.901   8.456   6.198
23593SOL     OW70736   6.370   8.728   6.999
23593SOL    HW170737   6.343   8.775   7.078
23593SOL    HW270738   6.295   8.737   6.939
23594SOL     OW70739   6.254   9.085   5.746
23594SOL    HW170740   6.271   9.098   5.653
23594SOL    HW270741   6.202   9.005   5.750
23595SOL     OW70742   7.203   9.176   6.988
23595SOL    HW170743   7.260   9.175   6.911
23595SOL    HW270744   7.186   9.269   7.004
23596SOL     OW70745   7.431   7.607   6.551
23596SOL    HW170746   7.460   7.518   6.530
23596SOL    HW270747   7.344   7.615   6.513
23597SOL     OW70748   5.830   7.754   6.294
23597SOL    HW170749   5.744   7.791   6.273
23597SOL    HW270750   5.833   7.756   6.390
23598SOL     OW70751   6.795   9.035   5.625
23598SOL    HW170752   6.785   8.944   5.653
23598SOL    HW270753   6.725   9.047   5.560
23599SOL     OW70754   6.409   8.458   6.972
23599SOL    HW170755   6.447   8.448   6.884
23599SOL    HW270756   6.399   8.553   6.982
23600SOL     OW70757   6.508   8.360   5.880
23600SOL    HW170758   6.565   8.394   5.811
23600SOL    HW270759   6.559   8.292   5.923
23601SOL     OW70760   7.068   9.094   5.644
23601SOL    HW170761   6.976   9.072   5.626
23601SOL    HW270762   7.108   9.097   5.557
23602SOL     OW70763   5.948   8.761   7.089
23602SOL    HW170764   5.941   8.834   7.026
23602SOL    HW270765   5.871   8.707   7.071
23603SOL     OW70766   7.185   8.737   6.862
23603SOL    HW170767   7.239   8.713   6.938
23603SOL    HW270768   7.126   8.804   6.897
23604SOL     OW70769   6.663   8.568   6.316
23604SOL    HW170770   6.587   8.518   6.347
23604SOL    HW270771   6.725   8.501   6.286
23605SOL     OW70772   6.619   7.697   6.546
23605SOL    HW170773   6.617   7.655   6.460
23605SOL    HW270774   6.612   7.625   6.608
23606SOL     OW70775   6.189   8.933   6.060
23606SOL    HW170776   6.245   8.885   5.999
23606SOL    HW270777   6.106   8.944   6.013
23607SOL     OW70778   7.331   7.830   6.975
23607SOL    HW170779   7.402   7.894   6.970
23607SOL    HW270780   7.358   7.761   6.914
23608SOL     OW70781   5.866   8.789   5.885
23608SOL    HW170782   5.779   8.781   5.846
23608SOL    HW270783   5.851   8.837   5.966
23609SOL     OW70784   5.706   8.494   7.321
23609SOL    HW170785   5.629   8.466   7.370
23609SOL    HW270786   5.778   8.443   7.358
23610SOL     OW70787   6.265   7.637   7.082
23610SOL    HW170788   6.348   7.612   7.043
23610SOL    HW270789   6.288   7.671   7.168
23611SOL     OW70790   5.670   7.766   5.605
23611SOL    HW170791   5.595   7.741   5.551
23611SOL    HW270792   5.696   7.851   5.572
23612SOL     OW70793   7.001   8.302   6.974
23612SOL    HW170794   6.948   8.360   6.919
23612SOL    HW270795   7.089   8.306   6.936
23613SOL     OW70796   5.630   7.598   5.858
23613SOL    HW170797   5.618   7.667   5.792
23613SOL    HW270798   5.718   7.565   5.842
23614SOL     OW70799   6.770   8.768   5.710
23614SOL    HW170800   6.681   8.733   5.709
23614SOL    HW270801   6.794   8.773   5.802
23615SOL     OW70802   6.212   8.279   7.028
23615SOL    HW170803   6.271   8.353   7.016
23615SOL    HW270804   6.269   8.202   7.027
23616SOL     OW70805   7.071   9.243   6.575
23616SOL    HW170806   7.095   9.321   6.525
23616SOL    HW270807   7.154   9.199   6.594
23617SOL     OW70808   6.312   7.995   7.273
23617SOL    HW170809   6.359   8.049   7.337
23617SOL    HW270810   6.322   7.905   7.305
23618SOL     OW70811   7.054   8.632   7.205
23618SOL    HW170812   7.047   8.654   7.298
23618SOL    HW270813   7.144   8.656   7.181
23619SOL     OW70814   5.937   9.189   7.163
23619SOL    HW170815   5.856   9.235   7.145
23619SOL    HW270816   5.910   9.106   7.202
23620SOL     OW70817   7.241   8.323   6.839
23620SOL    HW170818   7.239   8.239   6.793
23620SOL    HW270819   7.229   8.388   6.770
23621SOL     OW70820   6.808   7.771   6.041
23621SOL    HW170821   6.867   7.696   6.040
23621SOL    HW270822   6.836   7.823   6.117
23622SOL     OW70823   6.161   8.175   6.268
23622SOL    HW170824   6.205   8.259   6.252
23622SOL    HW270825   6.100   8.166   6.194
23623SOL     OW70826   7.333   7.803   7.251
23623SOL    HW170827   7.330   7.819   7.156
23623SOL    HW270828   7.255   7.750   7.269
23624SOL     OW70829   7.346   8.372   7.089
23624SOL    HW170830   7.329   8.465   7.102
23624SOL    HW270831   7.319   8.355   6.999
23625SOL     OW70832   6.452   8.806   5.646
23625SOL    HW170833   6.417   8.824   5.734
23625SOL    HW270834   6.465   8.892   5.608
23626SOL     OW70835   6.254   9.215   6.509
23626SOL    HW170836   6.235   9.309   6.501
23626SOL    HW270837   6.349   9.209   6.509
23627SOL     OW70838   6.458   8.425   6.442
23627SOL    HW170839   6.508   8.351   6.476
23627SOL    HW270840   6.412   8.461   6.518
23628SOL     OW70841   6.662   8.437   5.674
23628SOL    HW170842   6.639   8.487   5.596
23628SOL    HW270843   6.734   8.381   5.645
23629SOL     OW70844   7.417   9.004   6.425
23629SOL    HW170845   7.341   8.996   6.369
23629SOL    HW270846   7.396   8.951   6.502
23630SOL     OW70847   5.798   8.732   7.422
23630SOL    HW170848   5.766   8.652   7.379
23630SOL    HW270849   5.739   8.744   7.496
23631SOL     OW70850   5.704   8.675   6.253
23631SOL    HW170851   5.733   8.633   6.334
23631SOL    HW270852   5.762   8.640   6.186
23632SOL     OW70853   6.277   8.866   7.218
23632SOL    HW170854   6.200   8.827   7.260
23632SOL    HW270855   6.282   8.954   7.255
23633SOL     OW70856   7.397   7.619   6.821
23633SOL    HW170857   7.398   7.524   6.835
23633SOL    HW270858   7.411   7.630   6.727
23634SOL     OW70859   6.005   7.871   6.104
23634SOL    HW170860   6.039   7.800   6.049
23634SOL    HW270861   5.953   7.826   6.171
23635SOL     OW70862   7.280   8.928   6.668
23635SOL    HW170863   7.203   8.909   6.616
23635SOL    HW270864   7.281   8.860   6.736
23636SOL     OW70865   5.939   8.014   6.878
23636SOL    HW170866   5.988   7.949   6.928
23636SOL    HW270867   5.946   7.984   6.787
23637SOL     OW70868   6.422   9.024   6.259
23637SOL    HW170869   6.386   9.087   6.195
23637SOL    HW270870   6.350   8.963   6.274
23638SOL     OW70871   7.006   7.680   6.699
23638SOL    HW170872   7.012   7.589   6.729
23638SOL    HW270873   6.961   7.726   6.770
23639SOL     OW70874   6.596   7.465   6.705
23639SOL    HW170875   6.542   7.402   6.657
23639SOL    HW270876   6.682   7.425   6.710
23640SOL     OW70877   6.367   8.780   5.914
23640SOL    HW170878   6.343   8.689   5.926
23640SOL    HW270879   6.447   8.791   5.965
23641SOL     OW70880   6.201   9.015   6.873
23641SOL    HW170881   6.196   9.099   6.920
23641SOL    HW270882   6.291   9.012   6.840
23642SOL     OW70883   6.966   7.486   5.777
23642SOL    HW170884   7.007   7.414   5.728
23642SOL    HW270885   6.875   7.459   5.788
23643SOL     OW70886   6.885   7.920   6.260
23643SOL    HW170887   6.833   8.001   6.258
23643SOL    HW270888   6.878   7.890   6.351
23644SOL     OW70889   7.169   7.636   6.479
23644SOL    HW170890   7.116   7.665   6.553
23644SOL    HW270891   7.169   7.710   6.418
23645SOL     OW70892   5.623   8.499   5.894
23645SOL    HW170893   5.716   8.487   5.875
23645SOL    HW270894   5.591   8.411   5.915
23646SOL     OW70895   6.479   9.125   5.921
23646SOL    HW170896   6.401   9.110   5.868
23646SOL    HW270897   6.456   9.197   5.979
23647SOL     OW70898   5.794   8.071   7.595
23647SOL    HW170899   5.706   8.058   7.632
23647SOL    HW270900   5.783   8.056   7.502
23648SOL     OW70901   5.805   7.737   8.438
23648SOL    HW170902   5.836   7.701   8.521
23648SOL    HW270903   5.718   7.699   8.426
23649SOL     OW70904   5.573   7.844   8.094
23649SOL    HW170905   5.493   7.869   8.141
23649SOL    HW270906   5.546   7.771   8.039
23650SOL     OW70907   6.161   8.755   8.656
23650SOL    HW170908   6.078   8.757   8.608
23650SOL    HW270909   6.178   8.846   8.680
23651SOL     OW70910   7.174   8.971   8.153
23651SOL    HW170911   7.127   8.940   8.231
23651SOL    HW270912   7.107   8.973   8.085
23652SOL     OW70913   6.724   8.152   8.134
23652SOL    HW170914   6.770   8.235   8.123
23652SOL    HW270915   6.675   8.163   8.216
23653SOL     OW70916   7.387   8.029   7.668
23653SOL    HW170917   7.348   8.029   7.580
23653SOL    HW270918   7.343   7.958   7.714
23654SOL     OW70919   6.313   8.577   8.506
23654SOL    HW170920   6.254   8.617   8.570
23654SOL    HW270921   6.356   8.651   8.462
23655SOL     OW70922   6.474   8.192   9.275
23655SOL    HW170923   6.474   8.260   9.342
23655SOL    HW270924   6.490   8.239   9.193
23656SOL     OW70925   6.272   8.433   8.092
23656SOL    HW170926   6.339   8.433   8.160
23656SOL    HW270927   6.206   8.495   8.123
23657SOL     OW70928   6.298   8.599   9.273
23657SOL    HW170929   6.349   8.672   9.307
23657SOL    HW270930   6.220   8.640   9.234
23658SOL     OW70931   5.929   8.844   8.517
23658SOL    HW170932   5.853   8.802   8.477
23658SOL    HW270933   5.965   8.899   8.447
23659SOL     OW70934   7.040   8.953   8.819
23659SOL    HW170935   7.095   9.031   8.830
23659SOL    HW270936   6.968   8.965   8.882
23660SOL     OW70937   6.043   7.823   8.905
23660SOL    HW170938   6.118   7.765   8.920
23660SOL    HW270939   5.967   7.771   8.931
23661SOL     OW70940   7.170   7.880   8.203
23661SOL    HW170941   7.104   7.890   8.135
23661SOL    HW270942   7.152   7.950   8.265
23662SOL     OW70943   5.804   9.178   7.913
23662SOL    HW170944   5.831   9.249   7.971
23662SOL    HW270945   5.878   9.167   7.853
23663SOL     OW70946   6.721   8.790   9.142
23663SOL    HW170947   6.764   8.780   9.227
23663SOL    HW270948   6.668   8.710   9.132
23664SOL     OW70949   5.819   8.906   7.981
23664SOL    HW170950   5.797   9.000   7.985
23664SOL    HW270951   5.769   8.867   8.052
23665SOL     OW70952   5.872   8.538   8.327
23665SOL    HW170953   5.872   8.448   8.361
23665SOL    HW270954   5.815   8.585   8.388
23666SOL     OW70955   6.161   9.247   8.870
23666SOL    HW170956   6.083   9.229   8.922
23666SOL    HW270957   6.191   9.332   8.900
23667SOL     OW70958   6.152   8.435   7.600
23667SOL    HW170959   6.203   8.478   7.531
23667SOL    HW270960   6.192   8.465   7.682
23668SOL     OW70961   7.176   7.581   8.905
23668SOL    HW170962   7.215   7.658   8.862
23668SOL    HW270963   7.144   7.613   8.989
23669SOL     OW70964   5.705   8.106   8.015
23669SOL    HW170965   5.673   8.019   8.038
23669SOL    HW270966   5.699   8.157   8.096
23670SOL     OW70967   7.433   9.188   7.764
23670SOL    HW170968   7.503   9.173   7.827
23670SOL    HW270969   7.441   9.281   7.740
23671SOL     OW70970   5.648   9.027   7.557
23671SOL    HW170971   5.626   8.935   7.575
23671SOL    HW270972   5.615   9.075   7.633
23672SOL     OW70973   7.284   8.374   8.100
23672SOL    HW170974   7.365   8.328   8.076
23672SOL    HW270975   7.262   8.426   8.023
23673SOL     OW70976   7.243   8.553   7.880
23673SOL    HW170977   7.327   8.544   7.837
23673SOL    HW270978   7.257   8.618   7.949
23674SOL     OW70979   5.706   8.196   9.026
23674SOL    HW170980   5.791   8.240   9.029
23674SOL    HW270981   5.643   8.267   9.013
23675SOL     OW70982   6.209   8.846   8.178
23675SOL    HW170983   6.167   8.760   8.183
23675SOL    HW270984   6.193   8.875   8.088
23676SOL     OW70985   6.857   8.674   8.865
23676SOL    HW170986   6.885   8.605   8.805
23676SOL    HW270987   6.918   8.668   8.939
23677SOL     OW70988   6.417   7.460   7.967
23677SOL    HW170989   6.458   7.542   7.939
23677SOL    HW270990   6.323   7.478   7.967
23678SOL     OW70991   5.773   8.404   8.749
23678SOL    HW170992   5.860   8.369   8.733
23678SOL    HW270993   5.719   8.368   8.679
23679SOL     OW70994   7.121   8.463   7.647
23679SOL    HW170995   7.052   8.403   7.677
23679SOL    HW270996   7.163   8.493   7.728
23680SOL     OW70997   6.766   9.269   9.080
23680SOL    HW170998   6.767   9.330   9.006
23680SOL    HW270999   6.782   9.183   9.041
23681SOL     OW71000   5.946   7.702   9.323
23681SOL    HW171001   5.982   7.781   9.363
23681SOL    HW271002   5.851   7.718   9.319
23682SOL     OW71003   7.058   8.865   8.379
23682SOL    HW171004   6.994   8.884   8.448
23682SOL    HW271005   7.040   8.774   8.355
23683SOL     OW71006   7.232   9.230   8.015
23683SOL    HW171007   7.208   9.188   7.932
23683SOL    HW271008   7.225   9.160   8.080
23684SOL     OW71009   6.173   8.147   7.720
23684SOL    HW171010   6.176   8.235   7.681
23684SOL    HW271011   6.108   8.154   7.790
23685SOL     OW71012   6.868   7.842   8.389
23685SOL    HW171013   6.779   7.806   8.394
23685SOL    HW271014   6.920   7.783   8.444
23686SOL     OW71015   7.165   9.120   7.767
23686SOL    HW171016   7.259   9.135   7.756
23686SOL    HW271017   7.131   9.108   7.679
23687SOL     OW71018   6.375   8.061   8.879
23687SOL    HW171019   6.352   8.032   8.968
23687SOL    HW271020   6.351   7.988   8.823
23688SOL     OW71021   6.978   7.923   9.118
23688SOL    HW171022   6.982   7.967   9.203
23688SOL    HW271023   7.027   7.842   9.130
23689SOL     OW71024   6.531   8.328   9.040
23689SOL    HW171025   6.586   8.264   8.995
23689SOL    HW271026   6.482   8.370   8.969
23690SOL     OW71027   6.594   7.846   8.657
23690SOL    HW171028   6.501   7.859   8.679
23690SOL    HW271029   6.591   7.802   8.571
23691SOL     OW71030   6.644   8.145   7.866
23691SOL    HW171031   6.665   8.142   7.960
23691SOL    HW271032   6.560   8.102   7.859
23692SOL     OW71033   5.679   8.273   8.231
23692SOL    HW171034   5.761   8.267   8.280
23692SOL    HW271035   5.631   8.345   8.272
23693SOL     OW71036   5.692   9.317   9.037
23693SOL    HW171037   5.702   9.300   9.131
23693SOL    HW271038   5.609   9.276   9.014
23694SOL     OW71039   6.474   7.799   7.648
23694SOL    HW171040   6.525   7.852   7.587
23694SOL    HW271041   6.449   7.722   7.598
23695SOL     OW71042   7.268   8.009   9.285
23695SOL    HW171043   7.248   8.088   9.234
23695SOL    HW271044   7.297   7.945   9.219
23696SOL     OW71045   6.979   8.598   7.992
23696SOL    HW171046   7.058   8.586   7.939
23696SOL    HW271047   6.925   8.658   7.941
23697SOL     OW71048   6.137   7.608   8.363
23697SOL    HW171049   6.143   7.637   8.454
23697SOL    HW271050   6.133   7.689   8.312
23698SOL     OW71051   6.584   8.903   7.913
23698SOL    HW171052   6.558   8.978   7.860
23698SOL    HW271053   6.554   8.925   8.002
23699SOL     OW71054   5.940   9.264   8.326
23699SOL    HW171055   5.985   9.180   8.331
23699SOL    HW271056   6.007   9.329   8.347
23700SOL     OW71057   7.390   8.493   8.336
23700SOL    HW171058   7.343   8.476   8.255
23700SOL    HW271059   7.322   8.501   8.403
23701SOL     OW71060   6.803   8.991   8.963
23701SOL    HW171061   6.792   8.920   9.026
23701SOL    HW271062   6.738   8.973   8.895
23702SOL     OW71063   5.886   8.406   7.714
23702SOL    HW171064   5.969   8.427   7.670
23702SOL    HW271065   5.863   8.319   7.681
23703SOL     OW71066   7.070   8.212   8.159
23703SOL    HW171067   7.072   8.168   8.244
23703SOL    HW271068   7.150   8.265   8.157
23704SOL     OW71069   6.057   8.734   9.196
23704SOL    HW171070   6.033   8.738   9.104
23704SOL    HW271071   5.974   8.723   9.242
23705SOL     OW71072   6.720   9.223   7.672
23705SOL    HW171073   6.640   9.192   7.713
23705SOL    HW271074   6.741   9.157   7.606
23706SOL     OW71075   5.794   7.703   8.947
23706SOL    HW171076   5.720   7.762   8.960
23706SOL    HW271077   5.764   7.619   8.982
23707SOL     OW71078   7.225   8.837   7.548
23707SOL    HW171079   7.183   8.922   7.535
23707SOL    HW271080   7.158   8.773   7.521
23708SOL     OW71081   6.043   9.193   7.762
23708SOL    HW171082   6.092   9.242   7.827
23708SOL    HW271083   6.110   9.150   7.709
23709SOL     OW71084   6.983   7.553   7.907
23709SOL    HW171085   6.982   7.529   7.814
23709SOL    HW271086   7.074   7.539   7.934
23710SOL     OW71087   5.838   9.232   8.660
23710SOL    HW171088   5.887   9.157   8.694
23710SOL    HW271089   5.822   9.211   8.568
23711SOL     OW71090   6.533   9.146   8.338
23711SOL    HW171091   6.619   9.106   8.351
23711SOL    HW271092   6.493   9.094   8.268
23712SOL     OW71093   5.981   8.133   7.921
23712SOL    HW171094   5.994   8.039   7.934
23712SOL    HW271095   5.888   8.147   7.938
23713SOL     OW71096   7.094   7.669   9.163
23713SOL    HW171097   7.106   7.689   9.255
23713SOL    HW271098   7.030   7.597   9.162
23714SOL     OW71099   6.249   7.557   7.551
23714SOL    HW171100   6.297   7.478   7.576
23714SOL    HW271101   6.188   7.527   7.484
23715SOL     OW71102   6.344   7.720   9.202
23715SOL    HW171103   6.428   7.675   9.201
23715SOL    HW271104   6.297   7.682   9.276
23716SOL     OW71105   6.456   8.975   8.647
23716SOL    HW171106   6.438   8.934   8.563
23716SOL    HW271107   6.523   8.921   8.688
23717SOL     OW71108   6.916   8.040   8.879
23717SOL    HW171109   6.948   8.009   8.963
23717SOL    HW271110   6.955   8.127   8.868
23718SOL     OW71111   6.402   8.823   8.406
23718SOL    HW171112   6.490   8.819   8.367
23718SOL    HW271113   6.344   8.838   8.332
23719SOL     OW71114   6.516   7.963   8.336
23719SOL    HW171115   6.491   7.952   8.244
23719SOL    HW271116   6.543   7.876   8.364
23720SOL     OW71117   6.150   7.511   7.938
23720SOL    HW171118   6.072   7.511   7.993
23720SOL    HW271119   6.138   7.586   7.879
23721SOL     OW71120   7.021   8.661   7.480
23721SOL    HW171121   7.050   8.586   7.533
23721SOL    HW271122   6.935   8.683   7.516
23722SOL     OW71123   5.868   7.496   7.636
23722SOL    HW171124   5.921   7.563   7.593
23722SOL    HW271125   5.932   7.438   7.677
23723SOL     OW71126   6.538   7.699   7.899
23723SOL    HW171127   6.512   7.734   7.813
23723SOL    HW271128   6.632   7.716   7.904
23724SOL     OW71129   6.661   8.141   8.891
23724SOL    HW171130   6.599   8.069   8.897
23724SOL    HW271131   6.747   8.099   8.888
23725SOL     OW71132   6.792   9.036   8.252
23725SOL    HW171133   6.807   9.095   8.178
23725SOL    HW271134   6.865   9.052   8.311
23726SOL     OW71135   6.068   8.610   8.156
23726SOL    HW171136   6.006   8.585   8.225
23726SOL    HW271137   6.018   8.603   8.075
23727SOL     OW71138   6.838   9.237   8.063
23727SOL    HW171139   6.886   9.300   8.010
23727SOL    HW271140   6.765   9.287   8.100
23728SOL     OW71141   6.618   7.962   7.478
23728SOL    HW171142   6.576   8.046   7.459
23728SOL    HW271143   6.682   7.982   7.547
23729SOL     OW71144   5.686   7.998   8.839
23729SOL    HW171145   5.778   8.000   8.813
23729SOL    HW271146   5.678   8.068   8.905
23730SOL     OW71147   6.145   7.669   8.633
23730SOL    HW171148   6.182   7.604   8.692
23730SOL    HW271149   6.052   7.670   8.653
23731SOL     OW71150   6.456   7.903   8.077
23731SOL    HW171151   6.417   7.959   8.010
23731SOL    HW271152   6.481   7.823   8.031
23732SOL     OW71153   6.607   7.507   8.188
23732SOL    HW171154   6.546   7.501   8.114
23732SOL    HW271155   6.583   7.434   8.245
23733SOL     OW71156   7.020   8.601   8.302
23733SOL    HW171157   6.950   8.536   8.311
23733SOL    HW271158   7.034   8.608   8.208
23734SOL     OW71159   7.049   8.065   8.396
23734SOL    HW171160   6.985   7.994   8.407
23734SOL    HW271161   7.104   8.058   8.474
23735SOL     OW71162   7.415   8.244   7.836
23735SOL    HW171163   7.475   8.201   7.896
23735SOL    HW271164   7.401   8.181   7.766
23736SOL     OW71165   6.084   8.873   7.599
23736SOL    HW171166   6.009   8.840   7.648
23736SOL    HW271167   6.081   8.824   7.516
23737SOL     OW71168   7.294   8.720   8.081
23737SOL    HW171169   7.387   8.714   8.102
23737SOL    HW271170   7.269   8.808   8.107
23738SOL     OW71171   6.978   8.023   7.514
23738SOL    HW171172   6.922   7.996   7.586
23738SOL    HW271173   7.067   7.998   7.541
23739SOL     OW71174   6.114   7.705   7.750
23739SOL    HW171175   6.167   7.663   7.683
23739SOL    HW271176   6.081   7.785   7.709
23740SOL     OW71177   7.321   8.691   8.980
23740SOL    HW171178   7.409   8.657   8.966
23740SOL    HW271179   7.335   8.778   9.017
23741SOL     OW71180   6.628   8.804   8.784
23741SOL    HW171181   6.551   8.769   8.828
23741SOL    HW271182   6.702   8.758   8.824
23742SOL     OW71183   7.194   9.083   9.113
23742SOL    HW171184   7.185   9.119   9.024
23742SOL    HW271185   7.271   9.027   9.108
23743SOL     OW71186   6.737   8.686   8.554
23743SOL    HW171187   6.674   8.720   8.618
23743SOL    HW271188   6.703   8.718   8.470
23744SOL     OW71189   7.196   8.539   8.524
23744SOL    HW171190   7.188   8.605   8.593
23744SOL    HW271191   7.126   8.560   8.463
23745SOL     OW71192   6.504   7.530   8.831
23745SOL    HW171193   6.525   7.514   8.738
23745SOL    HW271194   6.583   7.570   8.867
23746SOL     OW71195   6.567   8.562   9.171
23746SOL    HW171196   6.476   8.580   9.197
23746SOL    HW271197   6.562   8.482   9.120
23747SOL     OW71198   6.300   8.510   7.824
23747SOL    HW171199   6.285   8.484   7.915
23747SOL    HW271200   6.375   8.457   7.796
23748SOL     OW71201   6.013   8.276   8.707
23748SOL    HW171202   6.080   8.286   8.774
23748SOL    HW271203   5.982   8.186   8.717
23749SOL     OW71204   6.850   7.816   8.739
23749SOL    HW171205   6.878   7.896   8.783
23749SOL    HW271206   6.761   7.834   8.709
23750SOL     OW71207   5.664   9.017   8.810
23750SOL    HW171208   5.634   9.088   8.753
23750SOL    HW271209   5.759   9.017   8.800
23751SOL     OW71210   5.903   8.582   7.934
23751SOL    HW171211   5.904   8.654   7.870
23751SOL    HW271212   5.901   8.503   7.881
23752SOL     OW71213   6.120   7.965   8.308
23752SOL    HW171214   6.132   8.024   8.233
23752SOL    HW271215   6.188   7.991   8.369
23753SOL     OW71216   6.833   8.802   7.846
23753SOL    HW171217   6.889   8.871   7.880
23753SOL    HW271218   6.745   8.825   7.876
23754SOL     OW71219   6.895   8.915   8.590
23754SOL    HW171220   6.943   8.922   8.673
23754SOL    HW271221   6.844   8.835   8.598
23755SOL     OW71222   7.160   8.065   7.934
23755SOL    HW171223   7.109   8.106   8.004
23755SOL    HW271224   7.208   8.137   7.894
23756SOL     OW71225   5.930   8.979   8.750
23756SOL    HW171226   5.923   8.926   8.670
23756SOL    HW271227   6.024   8.995   8.759
23757SOL     OW71228   6.015   8.196   9.064
23757SOL    HW171229   6.076   8.239   9.004
23757SOL    HW271230   6.056   8.111   9.084
23758SOL     OW71231   7.213   8.236   9.148
23758SOL    HW171232   7.125   8.274   9.138
23758SOL    HW271233   7.264   8.274   9.077
23759SOL     OW71234   6.582   7.590   9.210
23759SOL    HW171235   6.640   7.663   9.188
23759SOL    HW271236   6.632   7.512   9.186
23760SOL     OW71237   6.082   7.483   9.211
23760SOL    HW171238   6.028   7.433   9.150
23760SOL    HW271239   6.029   7.560   9.232
23761SOL     OW71240   6.178   8.322   8.487
23761SOL    HW171241   6.216   8.410   8.490
23761SOL    HW271242   6.120   8.318   8.563
23762SOL     OW71243   6.894   8.302   8.451
23762SOL    HW171244   6.806   8.274   8.426
23762SOL    HW271245   6.949   8.225   8.432
23763SOL     OW71246   6.785   7.971   7.705
23763SOL    HW171247   6.795   7.894   7.762
23763SOL    HW271248   6.743   8.036   7.761
23764SOL     OW71249   5.878   7.642   8.687
23764SOL    HW171250   5.843   7.669   8.772
23764SOL    HW271251   5.861   7.547   8.684
23765SOL     OW71252   5.637   8.759   8.713
23765SOL    HW171253   5.666   8.703   8.785
23765SOL    HW271254   5.639   8.848   8.749
23766SOL     OW71255   6.298   8.070   8.487
23766SOL    HW171256   6.376   8.062   8.431
23766SOL    HW271257   6.270   8.160   8.477
23767SOL     OW71258   7.341   8.419   9.317
23767SOL    HW171259   7.297   8.347   9.272
23767SOL    HW271260   7.283   8.441   9.390
23768SOL     OW71261   5.911   7.508   8.076
23768SOL    HW171262   5.878   7.596   8.094
23768SOL    HW271263   5.917   7.466   8.162
23769SOL     OW71264   7.218   7.838   7.792
23769SOL    HW171265   7.250   7.772   7.854
23769SOL    HW271266   7.188   7.910   7.847
23770SOL     OW71267   6.620   8.207   8.404
23770SOL    HW171268   6.598   8.221   8.496
23770SOL    HW271269   6.590   8.117   8.386
23771SOL     OW71270   6.568   9.015   9.181
23771SOL    HW171271   6.546   9.058   9.098
23771SOL    HW271272   6.606   8.931   9.155
23772SOL     OW71273   7.424   8.942   9.049
23772SOL    HW171274   7.451   8.970   8.962
23772SOL    HW271275   7.502   8.953   9.103
23773SOL     OW71276   5.936   8.364   9.267
23773SOL    HW171277   6.016   8.384   9.316
23773SOL    HW271278   5.964   8.302   9.199
23774SOL     OW71279   7.106   7.717   7.567
23774SOL    HW171280   7.054   7.646   7.604
23774SOL    HW271281   7.146   7.760   7.643
23775SOL     OW71282   6.867   8.270   7.467
23775SOL    HW171283   6.907   8.183   7.475
23775SOL    HW271284   6.904   8.306   7.387
23776SOL     OW71285   6.656   8.801   8.315
23776SOL    HW171286   6.667   8.728   8.253
23776SOL    HW271287   6.708   8.872   8.277
23777SOL     OW71288   5.904   8.264   8.392
23777SOL    HW171289   5.999   8.277   8.390
23777SOL    HW271290   5.894   8.174   8.423
23778SOL     OW71291   5.899   7.986   8.459
23778SOL    HW171292   5.860   7.899   8.449
23778SOL    HW271293   5.976   7.984   8.403
23779SOL     OW71294   6.724   7.816   9.133
23779SOL    HW171295   6.679   7.868   9.199
23779SOL    HW271296   6.809   7.858   9.123
23780SOL     OW71297   6.741   7.637   8.922
23780SOL    HW171298   6.730   7.700   8.993
23780SOL    HW271299   6.788   7.687   8.854
23781SOL     OW71300   5.610   8.750   7.627
23781SOL    HW171301   5.521   8.773   7.602
23781SOL    HW271302   5.603   8.664   7.668
23782SOL     OW71303   5.680   9.217   8.399
23782SOL    HW171304   5.646   9.143   8.348
23782SOL    HW271305   5.766   9.234   8.361
23783SOL     OW71306   6.071   9.018   8.349
23783SOL    HW171307   6.141   9.079   8.371
23783SOL    HW271308   6.111   8.956   8.287
23784SOL     OW71309   6.534   8.229   8.662
23784SOL    HW171310   6.596   8.217   8.734
23784SOL    HW271311   6.455   8.183   8.690
23785SOL     OW71312   5.625   8.020   8.569
23785SOL    HW171313   5.706   8.017   8.518
23785SOL    HW271314   5.653   8.012   8.660
23786SOL     OW71315   5.773   7.982   9.187
23786SOL    HW171316   5.840   7.946   9.130
23786SOL    HW271317   5.738   8.057   9.139
23787SOL     OW71318   6.977   8.369   9.098
23787SOL    HW171319   6.994   8.463   9.094
23787SOL    HW271320   6.970   8.341   9.007
23788SOL     OW71321   6.404   8.017   7.820
23788SOL    HW171322   6.413   7.943   7.760
23788SOL    HW271323   6.327   8.064   7.788
23789SOL     OW71324   7.221   8.050   8.611
23789SOL    HW171325   7.211   7.990   8.685
23789SOL    HW271326   7.312   8.038   8.583
23790SOL     OW71327   5.810   8.989   9.171
23790SOL    HW171328   5.791   9.042   9.248
23790SOL    HW271329   5.821   8.900   9.205
23791SOL     OW71330   6.320   7.881   8.682
23791SOL    HW171331   6.256   7.811   8.667
23791SOL    HW271332   6.302   7.945   8.613
23792SOL     OW71333   6.488   9.129   8.938
23792SOL    HW171334   6.467   9.080   8.858
23792SOL    HW271335   6.491   9.221   8.909
23793SOL     OW71336   6.028   7.929   7.612
23793SOL    HW171337   6.093   7.995   7.637
23793SOL    HW271338   5.944   7.975   7.616
23794SOL     OW71339   5.716   8.598   8.928
23794SOL    HW171340   5.720   8.559   9.015
23794SOL    HW271341   5.737   8.526   8.868
23795SOL     OW71342   6.890   8.483   8.656
23795SOL    HW171343   6.899   8.419   8.585
23795SOL    HW271344   6.837   8.553   8.619
23796SOL     OW71345   6.912   8.308   7.740
23796SOL    HW171346   6.841   8.272   7.794
23796SOL    HW271347   6.883   8.293   7.649
23797SOL     OW71348   7.375   9.170   8.619
23797SOL    HW171349   7.436   9.196   8.549
23797SOL    HW271350   7.342   9.085   8.591
23798SOL     OW71351   6.827   9.180   8.542
23798SOL    HW171352   6.910   9.210   8.506
23798SOL    HW271353   6.841   9.089   8.565
23799SOL     OW71354   5.692   8.696   8.456
23799SOL    HW171355   5.664   8.717   8.545
23799SOL    HW271356   5.621   8.642   8.421
23800SOL     OW71357   6.277   9.128   9.199
23800SOL    HW171358   6.213   9.198   9.185
23800SOL    HW271359   6.349   9.150   9.140
23801SOL     OW71360   7.331   7.632   7.945
23801SOL    HW171361   7.390   7.612   7.872
23801SOL    HW271362   7.304   7.547   7.978
23802SOL     OW71363   6.983   9.016   7.951
23802SOL    HW171364   7.037   9.051   7.881
23802SOL    HW271365   6.928   9.090   7.979
23803SOL     OW71366   5.725   9.252   9.296
23803SOL    HW171367   5.681   9.180   9.340
23803SOL    HW271368   5.776   9.295   9.365
23804SOL     OW71369   6.865   8.384   8.113
23804SOL    HW171370   6.938   8.325   8.126
23804SOL    HW271371   6.901   8.456   8.060
23805SOL     OW71372   6.369   8.728   8.860
23805SOL    HW171373   6.342   8.775   8.939
23805SOL    HW271374   6.295   8.737   8.800
23806SOL     OW71375   6.254   9.085   7.608
23806SOL    HW171376   6.271   9.098   7.515
23806SOL    HW271377   6.202   9.004   7.612
23807SOL     OW71378   7.202   9.178   8.846
23807SOL    HW171379   7.259   9.177   8.769
23807SOL    HW271380   7.186   9.270   8.863
23808SOL     OW71381   7.431   7.608   8.413
23808SOL    HW171382   7.459   7.519   8.391
23808SOL    HW271383   7.344   7.615   8.374
23809SOL     OW71384   5.829   7.754   8.156
23809SOL    HW171385   5.743   7.791   8.135
23809SOL    HW271386   5.833   7.756   8.252
23810SOL     OW71387   6.795   9.035   7.486
23810SOL    HW171388   6.785   8.944   7.514
23810SOL    HW271389   6.725   9.048   7.422
23811SOL     OW71390   6.409   8.459   8.833
23811SOL    HW171391   6.446   8.449   8.745
23811SOL    HW271392   6.398   8.553   8.844
23812SOL     OW71393   6.507   8.360   7.742
23812SOL    HW171394   6.564   8.393   7.673
23812SOL    HW271395   6.559   8.291   7.785
23813SOL     OW71396   7.068   9.093   7.506
23813SOL    HW171397   6.976   9.072   7.488
23813SOL    HW271398   7.109   9.097   7.419
23814SOL     OW71399   5.947   8.761   8.950
23814SOL    HW171400   5.940   8.834   8.888
23814SOL    HW271401   5.870   8.708   8.933
23815SOL     OW71402   7.186   8.737   8.725
23815SOL    HW171403   7.239   8.712   8.801
23815SOL    HW271404   7.126   8.804   8.759
23816SOL     OW71405   6.663   8.568   8.178
23816SOL    HW171406   6.587   8.518   8.209
23816SOL    HW271407   6.725   8.501   8.148
23817SOL     OW71408   6.619   7.697   8.408
23817SOL    HW171409   6.618   7.655   8.322
23817SOL    HW271410   6.612   7.625   8.471
23818SOL     OW71411   6.189   8.933   7.922
23818SOL    HW171412   6.245   8.885   7.861
23818SOL    HW271413   6.107   8.945   7.875
23819SOL     OW71414   7.331   7.830   8.836
23819SOL    HW171415   7.402   7.894   8.831
23819SOL    HW271416   7.358   7.761   8.775
23820SOL     OW71417   5.866   8.789   7.747
23820SOL    HW171418   5.779   8.781   7.708
23820SOL    HW271419   5.851   8.837   7.828
23821SOL     OW71420   5.709   8.496   9.184
23821SOL    HW171421   5.631   8.468   9.232
23821SOL    HW271422   5.780   8.443   9.221
23822SOL     OW71423   6.265   7.637   8.944
23822SOL    HW171424   6.348   7.612   8.905
23822SOL    HW271425   6.287   7.670   9.031
23823SOL     OW71426   5.671   7.766   7.463
23823SOL    HW171427   5.594   7.744   7.410
23823SOL    HW271428   5.699   7.852   7.432
23824SOL     OW71429   7.002   8.302   8.835
23824SOL    HW171430   6.949   8.361   8.780
23824SOL    HW271431   7.090   8.307   8.798
23825SOL     OW71432   5.630   7.598   7.720
23825SOL    HW171433   5.617   7.667   7.655
23825SOL    HW271434   5.718   7.565   7.703
23826SOL     OW71435   6.770   8.769   7.571
23826SOL    HW171436   6.680   8.736   7.571
23826SOL    HW271437   6.793   8.773   7.664
23827SOL     OW71438   6.211   8.280   8.890
23827SOL    HW171439   6.270   8.354   8.878
23827SOL    HW271440   6.269   8.203   8.889
23828SOL     OW71441   7.071   9.243   8.438
23828SOL    HW171442   7.095   9.321   8.387
23828SOL    HW271443   7.154   9.199   8.457
23829SOL     OW71444   6.311   7.995   9.135
23829SOL    HW171445   6.357   8.049   9.199
23829SOL    HW271446   6.321   7.906   9.167
23830SOL     OW71447   7.054   8.632   9.069
23830SOL    HW171448   7.049   8.652   9.162
23830SOL    HW271449   7.144   8.656   9.045
23831SOL     OW71450   5.939   9.190   9.023
23831SOL    HW171451   5.857   9.237   9.007
23831SOL    HW271452   5.911   9.107   9.061
23832SOL     OW71453   7.242   8.323   8.701
23832SOL    HW171454   7.240   8.240   8.654
23832SOL    HW271455   7.231   8.389   8.632
23833SOL     OW71456   6.807   7.771   7.904
23833SOL    HW171457   6.866   7.696   7.903
23833SOL    HW271458   6.836   7.823   7.979
23834SOL     OW71459   6.161   8.175   8.129
23834SOL    HW171460   6.205   8.258   8.114
23834SOL    HW271461   6.100   8.166   8.056
23835SOL     OW71462   7.333   7.801   9.111
23835SOL    HW171463   7.330   7.817   9.016
23835SOL    HW271464   7.256   7.747   9.128
23836SOL     OW71465   7.346   8.372   8.952
23836SOL    HW171466   7.329   8.465   8.965
23836SOL    HW271467   7.320   8.355   8.862
23837SOL     OW71468   6.455   8.806   7.509
23837SOL    HW171469   6.418   8.824   7.596
23837SOL    HW271470   6.466   8.892   7.470
23838SOL     OW71471   6.254   9.215   8.372
23838SOL    HW171472   6.235   9.309   8.363
23838SOL    HW271473   6.350   9.210   8.371
23839SOL     OW71474   6.458   8.425   8.304
23839SOL    HW171475   6.508   8.351   8.338
23839SOL    HW271476   6.412   8.461   8.380
23840SOL     OW71477   6.661   8.435   7.535
23840SOL    HW171478   6.638   8.487   7.458
23840SOL    HW271479   6.733   8.379   7.507
23841SOL     OW71480   7.417   9.005   8.288
23841SOL    HW171481   7.340   8.996   8.231
23841SOL    HW271482   7.396   8.951   8.364
23842SOL     OW71483   5.797   8.736   9.284
23842SOL    HW171484   5.766   8.656   9.241
23842SOL    HW271485   5.735   8.750   9.355
23843SOL     OW71486   5.704   8.674   8.115
23843SOL    HW171487   5.733   8.632   8.196
23843SOL    HW271488   5.762   8.640   8.048
23844SOL     OW71489   6.274   8.867   9.077
23844SOL    HW171490   6.197   8.829   9.120
23844SOL    HW271491   6.281   8.955   9.116
23845SOL     OW71492   7.398   7.619   8.683
23845SOL    HW171493   7.399   7.524   8.696
23845SOL    HW271494   7.411   7.630   8.588
23846SOL     OW71495   6.005   7.871   7.966
23846SOL    HW171496   6.038   7.800   7.911
23846SOL    HW271497   5.953   7.826   8.033
23847SOL     OW71498   7.281   8.928   8.530
23847SOL    HW171499   7.203   8.909   8.478
23847SOL    HW271500   7.281   8.860   8.598
23848SOL     OW71501   5.939   8.014   8.740
23848SOL    HW171502   5.988   7.949   8.790
23848SOL    HW271503   5.946   7.984   8.649
23849SOL     OW71504   6.422   9.025   8.120
23849SOL    HW171505   6.387   9.088   8.057
23849SOL    HW271506   6.350   8.963   8.135
23850SOL     OW71507   7.007   7.681   8.562
23850SOL    HW171508   7.015   7.591   8.594
23850SOL    HW271509   6.961   7.727   8.632
23851SOL     OW71510   6.596   7.466   8.567
23851SOL    HW171511   6.542   7.402   8.519
23851SOL    HW271512   6.682   7.425   8.571
23852SOL     OW71513   6.367   8.780   7.776
23852SOL    HW171514   6.342   8.688   7.788
23852SOL    HW271515   6.447   8.791   7.828
23853SOL     OW71516   6.201   9.016   8.735
23853SOL    HW171517   6.196   9.099   8.781
23853SOL    HW271518   6.291   9.012   8.702
23854SOL     OW71519   6.966   7.486   7.640
23854SOL    HW171520   7.007   7.414   7.591
23854SOL    HW271521   6.875   7.460   7.651
23855SOL     OW71522   6.884   7.920   8.123
23855SOL    HW171523   6.833   8.001   8.120
23855SOL    HW271524   6.877   7.890   8.213
23856SOL     OW71525   7.169   7.636   8.341
23856SOL    HW171526   7.116   7.665   8.415
23856SOL    HW271527   7.169   7.710   8.281
23857SOL     OW71528   5.623   8.499   7.756
23857SOL    HW171529   5.716   8.487   7.738
23857SOL    HW271530   5.591   8.411   7.777
23858SOL     OW71531   6.479   9.125   7.782
23858SOL    HW171532   6.401   9.110   7.730
23858SOL    HW271533   6.456   9.197   7.841
23859SOL     OW71534   5.797   8.054   9.454
23859SOL    HW171535   5.708   8.044   9.488
23859SOL    HW271536   5.788   8.047   9.359
23860SOL     OW71537   7.392   8.018   9.521
23860SOL    HW171538   7.350   8.019   9.435
23860SOL    HW271539   7.343   7.951   9.570
23861SOL     OW71540   5.797   9.204   9.767
23861SOL    HW171541   5.820   9.278   9.823
23861SOL    HW271542   5.877   9.185   9.718
23862SOL     OW71543   5.810   8.914   9.844
23862SOL    HW171544   5.786   8.997   9.884
23862SOL    HW271545   5.743   8.853   9.872
23863SOL     OW71546   6.157   8.433   9.451
23863SOL    HW171547   6.207   8.476   9.383
23863SOL    HW271548   6.197   8.463   9.533
23864SOL     OW71549   5.651   8.124   9.883
23864SOL    HW171550   5.565   8.089   9.859
23864SOL    HW271551   5.632   8.201   9.935
23865SOL     OW71552   7.417   9.195   9.642
23865SOL    HW171553   7.494   9.179   9.697
23865SOL    HW271554   7.431   9.284   9.608
23866SOL     OW71555   5.638   9.037   9.431
23866SOL    HW171556   5.622   8.944   9.446
23866SOL    HW271557   5.601   9.080   9.508
23867SOL     OW71558   7.260   8.319   9.919
23867SOL    HW171559   7.332   8.339   9.979
23867SOL    HW271560   7.253   8.395   9.862
23868SOL     OW71561   7.279   8.548   9.758
23868SOL    HW171562   7.363   8.547   9.712
23868SOL    HW271563   7.282   8.628   9.811
23869SOL     OW71564   6.226   8.790   9.992
23869SOL    HW171565   6.170   8.713   9.990
23869SOL    HW271566   6.204   8.839   9.913
23870SOL     OW71567   6.404   7.477   9.828
23870SOL    HW171568   6.449   7.556   9.798
23870SOL    HW271569   6.312   7.502   9.829
23871SOL     OW71570   7.144   8.472   9.521
23871SOL    HW171571   7.083   8.403   9.547
23871SOL    HW271572   7.183   8.502   9.603
23872SOL     OW71573   6.171   8.147   9.583
23872SOL    HW171574   6.179   8.233   9.541
23872SOL    HW271575   6.113   8.162   9.658
23873SOL     OW71576   7.147   9.122   9.627
23873SOL    HW171577   7.241   9.140   9.634
23873SOL    HW271578   7.132   9.110   9.534
23874SOL     OW71579   6.632   8.138   9.734
23874SOL    HW171580   6.660   8.114   9.823
23874SOL    HW271581   6.547   8.096   9.724
23875SOL     OW71582   5.639   8.331   0.069
23875SOL    HW171583   5.712   8.284   0.108
23875SOL    HW271584   5.616   8.399   0.133
23876SOL     OW71585   6.477   7.795   9.503
23876SOL    HW171586   6.526   7.852   9.444
23876SOL    HW271587   6.462   7.716   9.453
23877SOL     OW71588   6.899   8.544   9.797
23877SOL    HW171589   6.952   8.573   9.872
23877SOL    HW271590   6.875   8.624   9.752
23878SOL     OW71591   6.579   8.883   9.783
23878SOL    HW171592   6.549   8.969   9.751
23878SOL    HW271593   6.552   8.881   9.874
23879SOL     OW71594   5.910   9.318   0.174
23879SOL    HW171595   5.906   9.228   0.205
23879SOL    HW271596   6.004   9.340   0.175
23880SOL     OW71597   5.902   8.406   9.575
23880SOL    HW171598   5.983   8.421   9.526
23880SOL    HW271599   5.862   8.330   9.534
23881SOL     OW71600   6.723   9.223   9.543
23881SOL    HW171601   6.644   9.189   9.586
23881SOL    HW271602   6.743   9.157   9.476
23882SOL     OW71603   7.223   8.841   9.404
23882SOL    HW171604   7.179   8.925   9.391
23882SOL    HW271605   7.157   8.775   9.380
23883SOL     OW71606   6.054   9.211   9.633
23883SOL    HW171607   6.105   9.230   9.712
23883SOL    HW271608   6.115   9.163   9.577
23884SOL     OW71609   7.010   7.599   9.737
23884SOL    HW171610   6.999   7.557   9.652
23884SOL    HW271611   7.105   7.602   9.751
23885SOL     OW71612   5.982   8.136   9.800
23885SOL    HW171613   5.986   8.043   9.820
23885SOL    HW271614   5.889   8.156   9.794
23886SOL     OW71615   6.247   7.555   9.416
23886SOL    HW171616   6.293   7.475   9.443
23886SOL    HW271617   6.186   7.527   9.349
23887SOL     OW71618   6.131   7.547   9.840
23887SOL    HW171619   6.039   7.541   9.866
23887SOL    HW271620   6.131   7.604   9.764
23888SOL     OW71621   7.026   8.656   9.345
23888SOL    HW171622   7.060   8.588   9.403
23888SOL    HW271623   6.939   8.676   9.380
23889SOL     OW71624   5.870   7.501   9.500
23889SOL    HW171625   5.920   7.567   9.452
23889SOL    HW271626   5.937   7.449   9.545
23890SOL     OW71627   6.535   7.709   9.758
23890SOL    HW171628   6.510   7.739   9.670
23890SOL    HW271629   6.628   7.728   9.764
23891SOL     OW71630   6.030   8.599   0.033
23891SOL    HW171631   5.960   8.632   0.089
23891SOL    HW271632   5.987   8.583   9.949
23892SOL     OW71633   6.883   9.283   9.904
23892SOL    HW171634   6.930   9.341   9.844
23892SOL    HW271635   6.793   9.314   9.901
23893SOL     OW71636   6.618   7.965   9.338
23893SOL    HW171637   6.575   8.048   9.319
23893SOL    HW271638   6.681   7.986   9.407
23894SOL     OW71639   6.431   7.890   9.942
23894SOL    HW171640   6.393   7.953   9.881
23894SOL    HW271641   6.463   7.819   9.886
23895SOL     OW71642   7.466   8.254   9.637
23895SOL    HW171643   7.498   8.214   9.718
23895SOL    HW271644   7.432   8.180   9.587
23896SOL     OW71645   6.080   8.875   9.464
23896SOL    HW171646   6.005   8.840   9.511
23896SOL    HW271647   6.081   8.826   9.381
23897SOL     OW71648   6.975   8.024   9.371
23897SOL    HW171649   6.919   8.001   9.445
23897SOL    HW271650   7.063   7.999   9.398
23898SOL     OW71651   6.128   7.708   9.624
23898SOL    HW171652   6.175   7.663   9.554
23898SOL    HW271653   6.091   7.785   9.582
23899SOL     OW71654   6.293   8.502   9.684
23899SOL    HW171655   6.260   8.455   9.761
23899SOL    HW271656   6.373   8.456   9.660
23900SOL     OW71657   5.896   8.574   9.797
23900SOL    HW171658   5.896   8.650   9.739
23900SOL    HW271659   5.904   8.499   9.738
23901SOL     OW71660   6.824   8.803   9.691
23901SOL    HW171661   6.880   8.874   9.723
23901SOL    HW271662   6.737   8.823   9.726
23902SOL     OW71663   7.222   8.086   9.789
23902SOL    HW171664   7.225   8.160   9.850
23902SOL    HW271665   7.174   8.118   9.713
23903SOL     OW71666   6.782   7.979   9.565
23903SOL    HW171667   6.789   7.903   9.623
23903SOL    HW271668   6.743   8.048   9.619
23904SOL     OW71669   5.868   7.537   9.928
23904SOL    HW171670   5.800   7.602   9.945
23904SOL    HW271671   5.884   7.496   0.013
23905SOL     OW71672   7.217   7.843   9.655
23905SOL    HW171673   7.240   7.767   9.709
23905SOL    HW271674   7.208   7.915   9.718
23906SOL     OW71675   7.105   7.722   9.425
23906SOL    HW171676   7.053   7.649   9.460
23906SOL    HW271677   7.142   7.763   9.503
23907SOL     OW71678   6.866   8.272   9.329
23907SOL    HW171679   6.904   8.185   9.337
23907SOL    HW271680   6.902   8.308   9.248
23908SOL     OW71681   5.610   8.763   9.484
23908SOL    HW171682   5.519   8.782   9.459
23908SOL    HW271683   5.606   8.676   9.524
23909SOL     OW71684   6.393   8.007   9.682
23909SOL    HW171685   6.406   7.938   9.617
23909SOL    HW271686   6.321   8.059   9.649
23910SOL     OW71687   6.033   7.924   9.483
23910SOL    HW171688   6.094   7.994   9.506
23910SOL    HW271689   5.947   7.967   9.481
23911SOL     OW71690   6.954   8.294   9.604
23911SOL    HW171691   6.899   8.343   9.665
23911SOL    HW271692   6.901   8.285   9.525
23912SOL     OW71693   7.293   7.605   9.771
23912SOL    HW171694   7.364   7.607   9.707
23912SOL    HW271695   7.309   7.525   9.822
23913SOL     OW71696   6.949   9.038   9.795
23913SOL    HW171697   7.019   9.056   9.733
23913SOL    HW271698   6.920   9.124   9.824
23914SOL     OW71699   6.253   9.087   9.473
23914SOL    HW171700   6.270   9.099   9.380
23914SOL    HW271701   6.200   9.008   9.478
23915SOL     OW71702   6.794   9.039   9.348
23915SOL    HW171703   6.786   8.947   9.373
23915SOL    HW271704   6.725   9.053   9.284
23916SOL     OW71705   6.510   8.362   9.614
23916SOL    HW171706   6.566   8.390   9.541
23916SOL    HW271707   6.560   8.293   9.657
23917SOL     OW71708   7.069   9.095   9.358
23917SOL    HW171709   6.977   9.073   9.342
23917SOL    HW271710   7.109   9.096   9.271
23918SOL     OW71711   6.177   8.927   9.761
23918SOL    HW171712   6.238   8.883   9.702
23918SOL    HW271713   6.094   8.928   9.714
23919SOL     OW71714   5.864   8.790   9.614
23919SOL    HW171715   5.778   8.785   9.572
23919SOL    HW271716   5.849   8.843   9.693
23920SOL     OW71717   5.669   7.764   9.323
23920SOL    HW171718   5.593   7.744   9.268
23920SOL    HW271719   5.698   7.850   9.292
23921SOL     OW71720   5.628   7.603   9.577
23921SOL    HW171721   5.620   7.668   9.507
23921SOL    HW271722   5.717   7.568   9.566
23922SOL     OW71723   6.768   8.769   9.423
23922SOL    HW171724   6.678   8.737   9.423
23922SOL    HW271725   6.791   8.775   9.515
23923SOL     OW71726   6.802   7.783   9.768
23923SOL    HW171727   6.877   7.724   9.759
23923SOL    HW271728   6.822   7.837   9.844
23924SOL     OW71729   6.193   8.297   9.889
23924SOL    HW171730   6.198   8.295   9.984
23924SOL    HW271731   6.121   8.238   9.867
23925SOL     OW71732   6.455   8.806   9.363
23925SOL    HW171733   6.420   8.822   9.451
23925SOL    HW271734   6.467   8.893   9.325
23926SOL     OW71735   6.655   8.429   9.397
23926SOL    HW171736   6.637   8.483   9.321
23926SOL    HW271737   6.730   8.375   9.370
23927SOL     OW71738   5.650   8.696   9.899
23927SOL    HW171739   5.639   8.697   9.994
23927SOL    HW271740   5.718   8.630   9.883
23928SOL     OW71741   5.996   7.873   9.865
23928SOL    HW171742   6.043   7.810   9.811
23928SOL    HW271743   6.033   7.862   9.952
23929SOL     OW71744   6.368   8.777   9.628
23929SOL    HW171745   6.342   8.686   9.644
23929SOL    HW271746   6.445   8.790   9.683
23930SOL     OW71747   6.963   7.489   9.492
23930SOL    HW171748   7.006   7.413   9.453
23930SOL    HW271749   6.873   7.461   9.508
23931SOL     OW71750   5.643   8.517   9.600
23931SOL    HW171751   5.738   8.510   9.592
23931SOL    HW271752   5.612   8.427   9.603
23932SOL     OW71753   6.481   9.122   9.665
23932SOL    HW171754   6.405   9.104   9.610
23932SOL    HW271755   6.452   9.193   9.723
23933SOL     OW71756   5.797   9.601   0.997
23933SOL    HW171757   5.828   9.560   1.077
23933SOL    HW271758   5.712   9.562   0.981
23934SOL     OW71759   5.573   9.687   0.647
23934SOL    HW171760   5.494   9.706   0.697
23934SOL    HW271761   5.548   9.615   0.588
23935SOL     OW71762   7.344   9.887   0.196
23935SOL    HW171763   7.351   9.861   0.104
23935SOL    HW271764   7.295   9.816   0.238
23936SOL     OW71765   6.007   9.722   1.498
23936SOL    HW171766   6.091   9.677   1.491
23936SOL    HW271767   5.942   9.651   1.492
23937SOL     OW71768   7.184   9.721   0.755
23937SOL    HW171769   7.122   9.740   0.685
23937SOL    HW271770   7.160   9.781   0.826
23938SOL     OW71771   7.175   9.442   1.454
23938SOL    HW171772   7.219   9.518   1.416
23938SOL    HW271773   7.142   9.473   1.538
23939SOL     OW71774   5.619   9.965   0.608
23939SOL    HW171775   5.614   9.870   0.617
23939SOL    HW271776   5.712   9.984   0.605
23940SOL     OW71777   6.419   9.337   0.522
23940SOL    HW171778   6.456   9.422   0.496
23940SOL    HW271779   6.325   9.352   0.526
23941SOL     OW71780   5.932   9.549   1.837
23941SOL    HW171781   5.956   9.635   1.803
23941SOL    HW271782   5.838   9.555   1.853
23942SOL     OW71783   6.862   9.682   0.940
23942SOL    HW171784   6.773   9.646   0.941
23942SOL    HW271785   6.911   9.625   0.999
23943SOL     OW71786   6.435   9.832   1.432
23943SOL    HW171787   6.392   9.842   1.517
23943SOL    HW271788   6.363   9.822   1.370
23944SOL     OW71789   6.992   9.786   1.679
23944SOL    HW171790   7.041   9.832   1.748
23944SOL    HW271791   7.025   9.696   1.683
23945SOL     OW71792   6.596   9.762   1.227
23945SOL    HW171793   6.544   9.781   1.305
23945SOL    HW271794   6.540   9.705   1.174
23946SOL     OW71795   6.650   9.983   0.433
23946SOL    HW171796   6.636   0.058   0.490
23946SOL    HW271797   6.562   9.958   0.404
23947SOL     OW71798   6.408   9.642   0.193
23947SOL    HW171799   6.415   9.690   0.111
23947SOL    HW271800   6.426   9.551   0.170
23948SOL     OW71801   7.261   9.899   1.809
23948SOL    HW171802   7.309   9.969   1.765
23948SOL    HW271803   7.291   9.819   1.765
23949SOL     OW71804   6.135   9.470   0.911
23949SOL    HW171805   6.140   9.498   1.003
23949SOL    HW271806   6.135   9.551   0.861
23950SOL     OW71807   7.072   0.020   0.730
23950SOL    HW171808   7.063   9.971   0.812
23950SOL    HW271809   7.112   0.103   0.757
23951SOL     OW71810   5.785   9.558   1.496
23951SOL    HW171811   5.725   9.619   1.539
23951SOL    HW271812   5.756   9.472   1.526
23952SOL     OW71813   6.982   9.406   0.447
23952SOL    HW171814   6.979   9.384   0.353
23952SOL    HW271815   7.074   9.402   0.469
23953SOL     OW71816   7.087   9.523   1.711
23953SOL    HW171817   7.099   9.539   1.804
23953SOL    HW271818   7.021   9.454   1.706
23954SOL     OW71819   6.176   9.401   0.122
23954SOL    HW171820   6.269   9.380   0.135
23954SOL    HW271821   6.166   9.406   0.027
23955SOL     OW71822   6.345   9.574   1.748
23955SOL    HW171823   6.430   9.530   1.748
23955SOL    HW271824   6.300   9.537   1.824
23956SOL     OW71825   6.964   9.899   1.424
23956SOL    HW171826   6.964   9.867   1.514
23956SOL    HW271827   7.018   9.979   1.427
23957SOL     OW71828   6.525   9.797   0.897
23957SOL    HW171829   6.494   9.783   0.808
23957SOL    HW271830   6.561   9.713   0.925
23958SOL     OW71831   6.149   9.390   0.499
23958SOL    HW171832   6.072   9.386   0.556
23958SOL    HW271833   6.145   9.477   0.459
23959SOL     OW71834   6.527   9.582   0.446
23959SOL    HW171835   6.503   9.611   0.358
23959SOL    HW271836   6.622   9.595   0.450
23960SOL     OW71837   6.659   9.949   1.564
23960SOL    HW171838   6.593   9.909   1.508
23960SOL    HW271839   6.699   0.017   1.509
23961SOL     OW71840   6.691   9.879   0.030
23961SOL    HW171841   6.602   9.841   0.025
23961SOL    HW271842   6.716   9.870   0.121
23962SOL     OW71843   5.660   9.892   1.379
23962SOL    HW171844   5.755   9.895   1.368
23962SOL    HW271845   5.636   9.981   1.406
23963SOL     OW71846   6.139   9.537   1.179
23963SOL    HW171847   6.183   9.488   1.248
23963SOL    HW271848   6.046   9.529   1.200
23964SOL     OW71849   6.446   9.772   0.644
23964SOL    HW171850   6.427   9.854   0.598
23964SOL    HW271851   6.466   9.709   0.575
23965SOL     OW71852   6.611   9.355   0.734
23965SOL    HW171853   6.546   9.354   0.664
23965SOL    HW271854   6.584   9.284   0.793
23966SOL     OW71855   7.067   9.872   0.955
23966SOL    HW171856   6.990   9.818   0.974
23966SOL    HW271857   7.108   9.885   1.040
23967SOL     OW71858   6.134   9.605   0.306
23967SOL    HW171859   6.130   9.533   0.244
23967SOL    HW271860   6.222   9.641   0.295
23968SOL     OW71861   6.508   9.391   1.381
23968SOL    HW171862   6.530   9.372   1.290
23968SOL    HW271863   6.586   9.432   1.417
23969SOL     OW71864   6.853   9.688   1.294
23969SOL    HW171865   6.892   9.765   1.336
23969SOL    HW271866   6.767   9.718   1.264
23970SOL     OW71867   6.137   9.765   0.866
23970SOL    HW171868   6.139   9.761   0.770
23970SOL    HW271869   6.205   9.829   0.888
23971SOL     OW71870   7.171   9.913   0.503
23971SOL    HW171871   7.135   9.948   0.584
23971SOL    HW271872   7.254   9.959   0.492
23972SOL     OW71873   6.585   9.446   1.763
23972SOL    HW171874   6.646   9.519   1.747
23972SOL    HW271875   6.634   9.368   1.739
23973SOL     OW71876   6.080   9.333   1.758
23973SOL    HW171877   6.028   9.281   1.697
23973SOL    HW271878   6.026   9.410   1.777
23974SOL     OW71879   6.806   9.840   0.272
23974SOL    HW171880   6.821   9.758   0.319
23974SOL    HW271881   6.759   9.895   0.334
23975SOL     OW71882   5.875   9.498   1.241
23975SOL    HW171883   5.836   9.525   1.323
23975SOL    HW271884   5.860   9.404   1.237
23976SOL     OW71885   6.313   9.935   1.002
23976SOL    HW171886   6.396   9.898   0.970
23976SOL    HW271887   6.320   0.029   0.982
23977SOL     OW71888   5.904   9.374   0.631
23977SOL    HW171889   5.875   9.463   0.652
23977SOL    HW271890   5.912   9.331   0.716
23978SOL     OW71891   7.206   9.688   0.346
23978SOL    HW171892   7.249   9.624   0.403
23978SOL    HW271893   7.183   9.760   0.404
23979SOL     OW71894   7.058   9.609   0.128
23979SOL    HW171895   7.022   9.523   0.152
23979SOL    HW271896   7.109   9.636   0.204
23980SOL     OW71897   5.906   0.056   0.900
23980SOL    HW171898   5.983   0.112   0.910
23980SOL    HW271899   5.921   9.984   0.961
23981SOL     OW71900   5.943   9.821   1.046
23981SOL    HW171901   5.889   9.743   1.031
23981SOL    HW271902   6.020   9.808   0.990
23982SOL     OW71903   6.735   9.668   1.695
23982SOL    HW171904   6.679   9.726   1.746
23982SOL    HW271905   6.816   9.719   1.681
23983SOL     OW71906   6.743   9.503   1.471
23983SOL    HW171907   6.734   9.560   1.547
23983SOL    HW271908   6.788   9.557   1.406
23984SOL     OW71909   5.612   9.845   1.110
23984SOL    HW171910   5.690   9.830   1.057
23984SOL    HW271911   5.645   9.860   1.198
23985SOL     OW71912   5.856   9.811   1.724
23985SOL    HW171913   5.903   9.796   1.642
23985SOL    HW271914   5.898   9.888   1.763
23986SOL     OW71915   6.418   9.900   0.309
23986SOL    HW171916   6.405   9.812   0.273
23986SOL    HW271917   6.330   9.933   0.325
23987SOL     OW71918   7.219   9.903   1.184
23987SOL    HW171919   7.207   9.846   1.260
23987SOL    HW271920   7.303   9.875   1.147
23988SOL     OW71921   6.259   9.786   1.229
23988SOL    HW171922   6.214   9.706   1.200
23988SOL    HW271923   6.265   9.839   1.151
23989SOL     OW71924   6.461   9.383   0.102
23989SOL    HW171925   6.458   9.361   0.009
23989SOL    HW271926   6.539   9.339   0.135
23990SOL     OW71927   7.340   9.482   0.485
23990SOL    HW171928   7.404   9.458   0.418
23990SOL    HW271929   7.312   9.399   0.523
23991SOL     OW71930   7.428   9.467   0.963
23991SOL    HW171931   7.458   9.378   0.943
23991SOL    HW271932   7.339   9.471   0.928
23992SOL     OW71933   5.832   9.624   0.716
23992SOL    HW171934   5.743   9.652   0.692
23992SOL    HW271935   5.832   9.624   0.811
23993SOL     OW71936   6.623   9.541   0.948
23993SOL    HW171937   6.622   9.491   0.867
23993SOL    HW271938   6.612   9.476   1.017
23994SOL     OW71939   7.339   9.686   1.400
23994SOL    HW171940   7.402   9.757   1.389
23994SOL    HW271941   7.366   9.620   1.336
23995SOL     OW71942   6.266   9.494   1.487
23995SOL    HW171943   6.351   9.469   1.450
23995SOL    HW271944   6.287   9.528   1.573
23996SOL     OW71945   5.661   9.609   0.028
23996SOL    HW171946   5.572   9.597   9.994
23996SOL    HW271947   5.682   9.701   0.007
23997SOL     OW71948   5.667   9.443   0.265
23997SOL    HW171949   5.655   9.509   0.197
23997SOL    HW271950   5.755   9.410   0.251
23998SOL     OW71951   6.328   9.848   1.683
23998SOL    HW171952   6.383   9.896   1.746
23998SOL    HW271953   6.331   9.757   1.714
23999SOL     OW71954   6.803   9.623   0.454
23999SOL    HW171955   6.863   9.548   0.452
23999SOL    HW271956   6.832   9.673   0.530
24000SOL     OW71957   7.326   9.668   1.674
24000SOL    HW171958   7.330   9.678   1.578
24000SOL    HW271959   7.253   9.608   1.689
24001SOL     OW71960   6.716   0.241   0.067
24001SOL    HW171961   6.715   0.334   0.047
24001SOL    HW271962   6.805   0.225   0.100
24002SOL     OW71963   7.397   9.481   1.234
24002SOL    HW171964   7.399   9.386   1.246
24002SOL    HW271965   7.408   9.494   1.140
24003SOL     OW71966   6.079   9.688   0.605
24003SOL    HW171967   6.068   9.708   0.511
24003SOL    HW271968   5.989   9.674   0.637
24004SOL     OW71969   5.921   9.909   1.306
24004SOL    HW171970   5.971   9.854   1.366
24004SOL    HW271971   5.943   9.876   1.219
24005SOL     OW71972   7.006   9.540   1.124
24005SOL    HW171973   7.020   9.455   1.166
24005SOL    HW271974   6.960   9.592   1.190
24006SOL     OW71975   6.595   9.320   1.122
24006SOL    HW171976   6.541   9.257   1.075
24006SOL    HW271977   6.682   9.281   1.124
24007SOL     OW71978   6.935   9.356   0.177
24007SOL    HW171979   6.953   9.323   0.089
24007SOL    HW271980   6.845   9.328   0.195
24008SOL     OW71981   6.898   9.762   0.673
24008SOL    HW171982   6.895   9.858   0.675
24008SOL    HW271983   6.881   9.736   0.764
24009SOL     OW71984   7.163   9.487   0.900
24009SOL    HW171985   7.111   9.520   0.973
24009SOL    HW271986   7.166   9.560   0.838
24010SOL     OW71987   5.795   9.606   2.862
24010SOL    HW171988   5.826   9.563   2.941
24010SOL    HW271989   5.710   9.564   2.843
24011SOL     OW71990   5.580   9.687   2.510
24011SOL    HW171991   5.503   9.705   2.564
24011SOL    HW271992   5.552   9.615   2.453
24012SOL     OW71993   7.212   9.912   2.079
24012SOL    HW171994   7.244   9.910   1.989
24012SOL    HW271995   7.225   9.823   2.112
24013SOL     OW71996   6.006   9.722   3.360
24013SOL    HW171997   6.091   9.677   3.353
24013SOL    HW271998   5.942   9.651   3.354
24014SOL     OW71999   7.193   9.725   2.618
24014SOL    HW172000   7.170   9.767   2.535
24014SOL    HW272001   7.157   9.783   2.685
24015SOL     OW72002   7.174   9.442   3.316
24015SOL    HW172003   7.219   9.517   3.277
24015SOL    HW272004   7.142   9.473   3.400
24016SOL     OW72005   5.616   9.973   2.467
24016SOL    HW172006   5.610   9.878   2.475
24016SOL    HW272007   5.710   9.992   2.466
24017SOL     OW72008   6.421   9.333   2.376
24017SOL    HW172009   6.457   9.419   2.351
24017SOL    HW272010   6.326   9.347   2.378
24018SOL     OW72011   5.931   9.549   3.699
24018SOL    HW172012   5.955   9.635   3.664
24018SOL    HW272013   5.837   9.554   3.716
24019SOL     OW72014   6.862   9.682   2.802
24019SOL    HW172015   6.774   9.645   2.802
24019SOL    HW272016   6.912   9.625   2.860
24020SOL     OW72017   6.434   9.832   3.294
24020SOL    HW172018   6.392   9.842   3.379
24020SOL    HW272019   6.362   9.822   3.232
24021SOL     OW72020   6.993   9.785   3.541
24021SOL    HW172021   7.041   9.831   3.610
24021SOL    HW272022   7.025   9.695   3.544
24022SOL     OW72023   6.596   9.764   3.088
24022SOL    HW172024   6.544   9.783   3.166
24022SOL    HW272025   6.542   9.704   3.037
24023SOL     OW72026   6.661   9.982   2.300
24023SOL    HW172027   6.716   0.022   2.367
24023SOL    HW272028   6.571   9.996   2.329
24024SOL     OW72029   6.474   9.660   2.049
24024SOL    HW172030   6.523   9.719   1.992
24024SOL    HW272031   6.476   9.576   2.004
24025SOL     OW72032   7.261   9.899   3.671
24025SOL    HW172033   7.309   9.969   3.627
24025SOL    HW272034   7.291   9.819   3.628
24026SOL     OW72035   6.135   9.473   2.776
24026SOL    HW172036   6.141   9.498   2.868
24026SOL    HW272037   6.135   9.556   2.728
24027SOL     OW72038   7.065   0.021   2.591
24027SOL    HW172039   7.058   9.973   2.673
24027SOL    HW272040   7.106   0.104   2.616
24028SOL     OW72041   5.785   9.558   3.358
24028SOL    HW172042   5.724   9.619   3.400
24028SOL    HW272043   5.756   9.471   3.387
24029SOL     OW72044   6.979   9.412   2.316
24029SOL    HW172045   6.979   9.388   2.224
24029SOL    HW272046   7.071   9.413   2.341
24030SOL     OW72047   7.087   9.523   3.573
24030SOL    HW172048   7.098   9.539   3.666
24030SOL    HW272049   7.022   9.453   3.568
24031SOL     OW72050   6.238   9.418   1.964
24031SOL    HW172051   6.288   9.341   1.993
24031SOL    HW272052   6.181   9.384   1.895
24032SOL     OW72053   6.345   9.574   3.611
24032SOL    HW172054   6.430   9.530   3.610
24032SOL    HW272055   6.300   9.537   3.686
24033SOL     OW72056   6.961   9.901   3.287
24033SOL    HW172057   6.963   9.868   3.377
24033SOL    HW272058   7.016   9.980   3.289
24034SOL     OW72059   6.523   9.799   2.757
24034SOL    HW172060   6.493   9.781   2.668
24034SOL    HW272061   6.562   9.717   2.786
24035SOL     OW72062   6.151   9.374   2.350
24035SOL    HW172063   6.074   9.376   2.408
24035SOL    HW272064   6.143   9.454   2.298
24036SOL     OW72065   5.872   9.363   2.046
24036SOL    HW172066   5.927   9.426   1.999
24036SOL    HW272067   5.933   9.304   2.088
24037SOL     OW72068   6.528   9.583   2.308
24037SOL    HW172069   6.506   9.611   2.219
24037SOL    HW272070   6.622   9.594   2.315
24038SOL     OW72071   6.658   9.948   3.426
24038SOL    HW172072   6.592   9.907   3.370
24038SOL    HW272073   6.702   0.012   3.370
24039SOL     OW72074   6.612   9.831   1.890
24039SOL    HW172075   6.591   9.920   1.859
24039SOL    HW272076   6.679   9.844   1.956
24040SOL     OW72077   5.661   9.892   3.240
24040SOL    HW172078   5.755   9.894   3.228
24040SOL    HW272079   5.637   9.980   3.267
24041SOL     OW72080   6.140   9.536   3.044
24041SOL    HW172081   6.183   9.486   3.113
24041SOL    HW272082   6.046   9.528   3.064
24042SOL     OW72083   6.444   9.767   2.504
24042SOL    HW172084   6.422   9.844   2.452
24042SOL    HW272085   6.467   9.700   2.440
24043SOL     OW72086   6.607   9.357   2.595
24043SOL    HW172087   6.546   9.354   2.522
24043SOL    HW272088   6.580   9.286   2.652
24044SOL     OW72089   7.064   9.872   2.814
24044SOL    HW172090   6.988   9.816   2.832
24044SOL    HW272091   7.106   9.884   2.899
24045SOL     OW72092   6.135   9.583   2.170
24045SOL    HW172093   6.169   9.530   2.097
24045SOL    HW272094   6.155   9.673   2.145
24046SOL     OW72095   6.507   9.391   3.243
24046SOL    HW172096   6.529   9.372   3.152
24046SOL    HW272097   6.586   9.432   3.278
24047SOL     OW72098   6.852   9.688   3.156
24047SOL    HW172099   6.891   9.765   3.198
24047SOL    HW272100   6.767   9.719   3.125
24048SOL     OW72101   6.134   9.764   2.714
24048SOL    HW172102   6.130   9.772   2.619
24048SOL    HW272103   6.201   9.827   2.741
24049SOL     OW72104   7.162   9.878   2.382
24049SOL    HW172105   7.124   9.939   2.445
24049SOL    HW272106   7.212   9.933   2.322
24050SOL     OW72107   6.585   9.446   3.625
24050SOL    HW172108   6.646   9.518   3.609
24050SOL    HW272109   6.634   9.367   3.601
24051SOL     OW72110   6.080   9.333   3.620
24051SOL    HW172111   6.028   9.281   3.559
24051SOL    HW272112   6.026   9.410   3.639
24052SOL     OW72113   6.783   9.841   2.107
24052SOL    HW172114   6.802   9.759   2.153
24052SOL    HW272115   6.737   9.894   2.172
24053SOL     OW72116   5.875   9.498   3.103
24053SOL    HW172117   5.836   9.525   3.186
24053SOL    HW272118   5.860   9.404   3.098
24054SOL     OW72119   6.307   9.930   2.862
24054SOL    HW172120   6.391   9.895   2.832
24054SOL    HW272121   6.315   0.025   2.848
24055SOL     OW72122   5.911   9.372   2.490
24055SOL    HW172123   5.881   9.461   2.511
24055SOL    HW272124   5.917   9.329   2.575
24056SOL     OW72125   7.200   9.666   2.213
24056SOL    HW172126   7.248   9.601   2.264
24056SOL    HW272127   7.171   9.731   2.277
24057SOL     OW72128   7.100   9.568   1.974
24057SOL    HW172129   7.046   9.495   2.006
24057SOL    HW272130   7.136   9.608   2.054
24058SOL     OW72131   5.909   0.055   2.760
24058SOL    HW172132   5.985   0.111   2.771
24058SOL    HW272133   5.923   9.984   2.822
24059SOL     OW72134   5.950   9.821   2.906
24059SOL    HW172135   5.893   9.745   2.892
24059SOL    HW272136   6.023   9.807   2.846
24060SOL     OW72137   6.736   9.668   3.557
24060SOL    HW172138   6.679   9.726   3.608
24060SOL    HW272139   6.816   9.718   3.543
24061SOL     OW72140   6.742   9.503   3.333
24061SOL    HW172141   6.734   9.560   3.409
24061SOL    HW272142   6.788   9.557   3.268
24062SOL     OW72143   5.609   9.844   2.970
24062SOL    HW172144   5.683   9.816   2.918
24062SOL    HW272145   5.645   9.859   3.057
24063SOL     OW72146   5.855   9.811   3.587
24063SOL    HW172147   5.902   9.796   3.504
24063SOL    HW272148   5.898   9.887   3.625
24064SOL     OW72149   6.310   9.884   2.112
24064SOL    HW172150   6.370   9.810   2.099
24064SOL    HW272151   6.320   9.907   2.205
24065SOL     OW72152   7.217   9.903   3.044
24065SOL    HW172153   7.204   9.846   3.119
24065SOL    HW272154   7.300   9.875   3.007
24066SOL     OW72155   6.256   9.785   3.094
24066SOL    HW172156   6.213   9.704   3.066
24066SOL    HW272157   6.262   9.837   3.013
24067SOL     OW72158   7.335   9.477   2.361
24067SOL    HW172159   7.396   9.456   2.290
24067SOL    HW272160   7.309   9.391   2.395
24068SOL     OW72161   7.428   9.467   2.825
24068SOL    HW172162   7.458   9.379   2.805
24068SOL    HW272163   7.340   9.472   2.789
24069SOL     OW72164   5.835   9.619   2.578
24069SOL    HW172165   5.747   9.649   2.553
24069SOL    HW272166   5.835   9.622   2.674
24070SOL     OW72167   6.623   9.543   2.810
24070SOL    HW172168   6.621   9.493   2.728
24070SOL    HW272169   6.613   9.476   2.879
24071SOL     OW72170   7.339   9.686   3.262
24071SOL    HW172171   7.402   9.758   3.251
24071SOL    HW272172   7.366   9.620   3.198
24072SOL     OW72173   6.266   9.494   3.349
24072SOL    HW172174   6.350   9.469   3.312
24072SOL    HW272175   6.287   9.528   3.436
24073SOL     OW72176   5.671   9.640   1.863
24073SOL    HW172177   5.592   9.637   1.810
24073SOL    HW272178   5.720   9.715   1.829
24074SOL     OW72179   5.631   9.454   2.134
24074SOL    HW172180   5.614   9.525   2.073
24074SOL    HW272181   5.720   9.426   2.114
24075SOL     OW72182   6.328   9.848   3.546
24075SOL    HW172183   6.383   9.896   3.608
24075SOL    HW272184   6.331   9.757   3.576
24076SOL     OW72185   6.801   9.632   2.309
24076SOL    HW172186   6.861   9.558   2.312
24076SOL    HW272187   6.824   9.685   2.386
24077SOL     OW72188   7.326   9.668   3.536
24077SOL    HW172189   7.330   9.678   3.441
24077SOL    HW272190   7.253   9.608   3.551
24078SOL     OW72191   6.720   0.224   1.923
24078SOL    HW172192   6.722   0.320   1.918
24078SOL    HW272193   6.793   0.202   1.981
24079SOL     OW72194   7.397   9.481   3.096
24079SOL    HW172195   7.399   9.386   3.109
24079SOL    HW272196   7.408   9.493   3.002
24080SOL     OW72197   6.059   9.716   2.443
24080SOL    HW172198   6.058   9.673   2.357
24080SOL    HW272199   5.977   9.688   2.484
24081SOL     OW72200   5.922   9.909   3.166
24081SOL    HW172201   5.971   9.854   3.227
24081SOL    HW272202   5.945   9.876   3.079
24082SOL     OW72203   7.007   9.541   2.985
24082SOL    HW172204   7.021   9.455   3.026
24082SOL    HW272205   6.961   9.591   3.052
24083SOL     OW72206   6.595   9.321   2.984
24083SOL    HW172207   6.541   9.258   2.936
24083SOL    HW272208   6.682   9.282   2.986
24084SOL     OW72209   6.963   9.342   2.049
24084SOL    HW172210   7.002   9.268   2.003
24084SOL    HW272211   6.871   9.317   2.061
24085SOL     OW72212   6.874   9.774   2.534
24085SOL    HW172213   6.914   9.861   2.542
24085SOL    HW272214   6.869   9.741   2.624
24086SOL     OW72215   7.164   9.489   2.759
24086SOL    HW172216   7.112   9.523   2.832
24086SOL    HW272217   7.167   9.561   2.697
24087SOL     OW72218   5.794   9.608   4.724
24087SOL    HW172219   5.826   9.564   4.803
24087SOL    HW272220   5.710   9.565   4.706
24088SOL     OW72221   5.580   9.687   4.372
24088SOL    HW172222   5.503   9.705   4.426
24088SOL    HW272223   5.553   9.615   4.315
24089SOL     OW72224   7.212   9.912   3.942
24089SOL    HW172225   7.244   9.910   3.852
24089SOL    HW272226   7.225   9.823   3.974
24090SOL     OW72227   6.006   9.721   5.222
24090SOL    HW172228   6.091   9.677   5.215
24090SOL    HW272229   5.941   9.651   5.216
24091SOL     OW72230   7.193   9.726   4.480
24091SOL    HW172231   7.171   9.767   4.397
24091SOL    HW272232   7.157   9.784   4.547
24092SOL     OW72233   7.175   9.442   5.178
24092SOL    HW172234   7.219   9.517   5.139
24092SOL    HW272235   7.142   9.473   5.262
24093SOL     OW72236   5.616   9.973   4.328
24093SOL    HW172237   5.610   9.878   4.337
24093SOL    HW272238   5.710   9.992   4.328
24094SOL     OW72239   6.421   9.334   4.238
24094SOL    HW172240   6.457   9.419   4.213
24094SOL    HW272241   6.326   9.347   4.240
24095SOL     OW72242   5.931   9.549   5.561
24095SOL    HW172243   5.955   9.635   5.527
24095SOL    HW272244   5.837   9.555   5.578
24096SOL     OW72245   6.862   9.682   4.664
24096SOL    HW172246   6.774   9.645   4.664
24096SOL    HW272247   6.912   9.625   4.722
24097SOL     OW72248   6.434   9.832   5.156
24097SOL    HW172249   6.391   9.842   5.241
24097SOL    HW272250   6.362   9.822   5.094
24098SOL     OW72251   6.993   9.785   5.403
24098SOL    HW172252   7.041   9.831   5.472
24098SOL    HW272253   7.025   9.695   5.406
24099SOL     OW72254   6.596   9.764   4.950
24099SOL    HW172255   6.543   9.782   5.028
24099SOL    HW272256   6.543   9.703   4.899
24100SOL     OW72257   6.661   9.982   4.161
24100SOL    HW172258   6.716   0.021   4.229
24100SOL    HW272259   6.571   9.996   4.191
24101SOL     OW72260   6.474   9.661   3.911
24101SOL    HW172261   6.523   9.719   3.854
24101SOL    HW272262   6.475   9.576   3.866
24102SOL     OW72263   7.261   9.899   5.533
24102SOL    HW172264   7.309   9.969   5.489
24102SOL    HW272265   7.291   9.819   5.490
24103SOL     OW72266   6.135   9.473   4.637
24103SOL    HW172267   6.141   9.498   4.729
24103SOL    HW272268   6.135   9.556   4.589
24104SOL     OW72269   7.065   0.021   4.453
24104SOL    HW172270   7.058   9.973   4.536
24104SOL    HW272271   7.106   0.104   4.478
24105SOL     OW72272   5.784   9.558   5.220
24105SOL    HW172273   5.723   9.618   5.263
24105SOL    HW272274   5.756   9.471   5.249
24106SOL     OW72275   6.979   9.412   4.178
24106SOL    HW172276   6.979   9.388   4.086
24106SOL    HW272277   7.071   9.412   4.203
24107SOL     OW72278   7.087   9.523   5.435
24107SOL    HW172279   7.098   9.539   5.528
24107SOL    HW272280   7.022   9.453   5.430
24108SOL     OW72281   6.238   9.417   3.826
24108SOL    HW172282   6.287   9.341   3.856
24108SOL    HW272283   6.181   9.384   3.757
24109SOL     OW72284   6.345   9.574   5.473
24109SOL    HW172285   6.430   9.530   5.472
24109SOL    HW272286   6.300   9.537   5.548
24110SOL     OW72287   6.959   9.901   5.150
24110SOL    HW172288   6.962   9.868   5.240
24110SOL    HW272289   7.014   9.980   5.152
24111SOL     OW72290   6.523   9.799   4.619
24111SOL    HW172291   6.493   9.780   4.530
24111SOL    HW272292   6.562   9.716   4.648
24112SOL     OW72293   6.151   9.374   4.213
24112SOL    HW172294   6.074   9.376   4.270
24112SOL    HW272295   6.143   9.454   4.160
24113SOL     OW72296   5.872   9.363   3.908
24113SOL    HW172297   5.927   9.426   3.861
24113SOL    HW272298   5.933   9.304   3.951
24114SOL     OW72299   6.528   9.583   4.170
24114SOL    HW172300   6.506   9.611   4.081
24114SOL    HW272301   6.623   9.594   4.177
24115SOL     OW72302   6.658   9.947   5.289
24115SOL    HW172303   6.592   9.906   5.233
24115SOL    HW272304   6.704   0.008   5.231
24116SOL     OW72305   6.612   9.832   3.751
24116SOL    HW172306   6.592   9.920   3.721
24116SOL    HW272307   6.679   9.844   3.818
24117SOL     OW72308   5.661   9.890   5.102
24117SOL    HW172309   5.756   9.893   5.089
24117SOL    HW272310   5.639   9.978   5.132
24118SOL     OW72311   6.140   9.536   4.906
24118SOL    HW172312   6.183   9.485   4.974
24118SOL    HW272313   6.047   9.528   4.926
24119SOL     OW72314   6.444   9.767   4.366
24119SOL    HW172315   6.422   9.845   4.314
24119SOL    HW272316   6.467   9.700   4.302
24120SOL     OW72317   6.607   9.358   4.456
24120SOL    HW172318   6.545   9.354   4.383
24120SOL    HW272319   6.580   9.286   4.514
24121SOL     OW72320   7.063   9.872   4.676
24121SOL    HW172321   6.988   9.816   4.694
24121SOL    HW272322   7.105   9.884   4.761
24122SOL     OW72323   6.135   9.582   4.032
24122SOL    HW172324   6.169   9.529   3.960
24122SOL    HW272325   6.154   9.673   4.007
24123SOL     OW72326   6.507   9.392   5.105
24123SOL    HW172327   6.529   9.372   5.014
24123SOL    HW272328   6.586   9.432   5.140
24124SOL     OW72329   6.853   9.688   5.018
24124SOL    HW172330   6.891   9.765   5.061
24124SOL    HW272331   6.767   9.719   4.987
24125SOL     OW72332   6.134   9.765   4.575
24125SOL    HW172333   6.130   9.773   4.480
24125SOL    HW272334   6.201   9.828   4.602
24126SOL     OW72335   7.162   9.878   4.244
24126SOL    HW172336   7.124   9.940   4.307
24126SOL    HW272337   7.211   9.933   4.183
24127SOL     OW72338   6.585   9.446   5.487
24127SOL    HW172339   6.646   9.518   5.471
24127SOL    HW272340   6.633   9.367   5.463
24128SOL     OW72341   6.080   9.334   5.482
24128SOL    HW172342   6.028   9.281   5.422
24128SOL    HW272343   6.026   9.410   5.501
24129SOL     OW72344   6.783   9.841   3.969
24129SOL    HW172345   6.802   9.759   4.014
24129SOL    HW272346   6.737   9.894   4.034
24130SOL     OW72347   5.875   9.499   4.965
24130SOL    HW172348   5.836   9.525   5.048
24130SOL    HW272349   5.861   9.404   4.960
24131SOL     OW72350   6.308   9.930   4.724
24131SOL    HW172351   6.391   9.894   4.694
24131SOL    HW272352   6.316   0.024   4.711
24132SOL     OW72353   5.911   9.373   4.352
24132SOL    HW172354   5.881   9.461   4.373
24132SOL    HW272355   5.917   9.329   4.437
24133SOL     OW72356   7.200   9.666   4.075
24133SOL    HW172357   7.248   9.601   4.126
24133SOL    HW272358   7.171   9.730   4.139
24134SOL     OW72359   7.100   9.568   3.836
24134SOL    HW172360   7.046   9.496   3.868
24134SOL    HW272361   7.136   9.608   3.916
24135SOL     OW72362   5.907   0.056   4.622
24135SOL    HW172363   5.984   0.112   4.633
24135SOL    HW272364   5.922   9.984   4.684
24136SOL     OW72365   5.950   9.821   4.768
24136SOL    HW172366   5.893   9.746   4.754
24136SOL    HW272367   6.023   9.808   4.707
24137SOL     OW72368   6.736   9.668   5.419
24137SOL    HW172369   6.679   9.726   5.470
24137SOL    HW272370   6.816   9.718   5.406
24138SOL     OW72371   6.742   9.503   5.195
24138SOL    HW172372   6.734   9.560   5.271
24138SOL    HW272373   6.788   9.557   5.130
24139SOL     OW72374   5.609   9.846   4.831
24139SOL    HW172375   5.683   9.814   4.779
24139SOL    HW272376   5.645   9.860   4.918
24140SOL     OW72377   5.855   9.811   5.448
24140SOL    HW172378   5.902   9.795   5.366
24140SOL    HW272379   5.899   9.887   5.486
24141SOL     OW72380   6.311   9.885   3.975
24141SOL    HW172381   6.370   9.811   3.961
24141SOL    HW272382   6.320   9.906   4.067
24142SOL     OW72383   7.217   9.902   4.906
24142SOL    HW172384   7.204   9.845   4.981
24142SOL    HW272385   7.300   9.875   4.869
24143SOL     OW72386   6.255   9.786   4.956
24143SOL    HW172387   6.212   9.705   4.929
24143SOL    HW272388   6.261   9.838   4.876
24144SOL     OW72389   7.336   9.477   4.223
24144SOL    HW172390   7.396   9.456   4.151
24144SOL    HW272391   7.309   9.392   4.257
24145SOL     OW72392   7.428   9.467   4.687
24145SOL    HW172393   7.458   9.378   4.667
24145SOL    HW272394   7.340   9.472   4.651
24146SOL     OW72395   5.835   9.620   4.440
24146SOL    HW172396   5.747   9.649   4.415
24146SOL    HW272397   5.835   9.623   4.536
24147SOL     OW72398   6.623   9.542   4.672
24147SOL    HW172399   6.621   9.493   4.590
24147SOL    HW272400   6.613   9.476   4.740
24148SOL     OW72401   7.339   9.686   5.124
24148SOL    HW172402   7.402   9.758   5.113
24148SOL    HW272403   7.366   9.620   5.060
24149SOL     OW72404   6.266   9.495   5.211
24149SOL    HW172405   6.350   9.469   5.174
24149SOL    HW272406   6.287   9.529   5.298
24150SOL     OW72407   5.671   9.640   3.726
24150SOL    HW172408   5.591   9.637   3.673
24150SOL    HW272409   5.720   9.715   3.691
24151SOL     OW72410   5.631   9.455   3.996
24151SOL    HW172411   5.614   9.525   3.934
24151SOL    HW272412   5.720   9.426   3.976
24152SOL     OW72413   6.327   9.849   5.408
24152SOL    HW172414   6.384   9.896   5.469
24152SOL    HW272415   6.330   9.758   5.438
24153SOL     OW72416   6.801   9.633   4.171
24153SOL    HW172417   6.861   9.558   4.174
24153SOL    HW272418   6.824   9.685   4.248
24154SOL     OW72419   7.326   9.668   5.398
24154SOL    HW172420   7.330   9.678   5.303
24154SOL    HW272421   7.253   9.608   5.413
24155SOL     OW72422   6.720   0.223   3.786
24155SOL    HW172423   6.724   0.318   3.780
24155SOL    HW272424   6.793   0.199   3.843
24156SOL     OW72425   7.397   9.481   4.959
24156SOL    HW172426   7.399   9.386   4.971
24156SOL    HW272427   7.408   9.493   4.864
24157SOL     OW72428   6.058   9.716   4.304
24157SOL    HW172429   6.058   9.673   4.219
24157SOL    HW272430   5.977   9.688   4.345
24158SOL     OW72431   5.922   9.908   5.028
24158SOL    HW172432   5.972   9.854   5.088
24158SOL    HW272433   5.946   9.876   4.941
24159SOL     OW72434   7.007   9.540   4.847
24159SOL    HW172435   7.019   9.454   4.886
24159SOL    HW272436   6.961   9.591   4.914
24160SOL     OW72437   6.594   9.321   4.846
24160SOL    HW172438   6.541   9.257   4.798
24160SOL    HW272439   6.682   9.282   4.848
24161SOL     OW72440   6.963   9.342   3.911
24161SOL    HW172441   7.002   9.268   3.865
24161SOL    HW272442   6.871   9.317   3.923
24162SOL     OW72443   6.873   9.775   4.396
24162SOL    HW172444   6.915   9.861   4.404
24162SOL    HW272445   6.869   9.742   4.486
24163SOL     OW72446   7.164   9.489   4.621
24163SOL    HW172447   7.112   9.523   4.694
24163SOL    HW272448   7.167   9.561   4.559
24164SOL     OW72449   5.794   9.607   6.586
24164SOL    HW172450   5.826   9.564   6.665
24164SOL    HW272451   5.710   9.565   6.567
24165SOL     OW72452   5.579   9.687   6.234
24165SOL    HW172453   5.502   9.705   6.288
24165SOL    HW272454   5.552   9.615   6.176
24166SOL     OW72455   7.212   9.912   5.803
24166SOL    HW172456   7.244   9.910   5.713
24166SOL    HW272457   7.225   9.823   5.836
24167SOL     OW72458   6.006   9.722   7.084
24167SOL    HW172459   6.091   9.677   7.077
24167SOL    HW272460   5.941   9.651   7.077
24168SOL     OW72461   7.193   9.726   6.342
24168SOL    HW172462   7.171   9.767   6.259
24168SOL    HW272463   7.157   9.784   6.409
24169SOL     OW72464   7.175   9.441   7.040
24169SOL    HW172465   7.219   9.517   7.001
24169SOL    HW272466   7.142   9.473   7.124
24170SOL     OW72467   5.615   9.973   6.190
24170SOL    HW172468   5.610   9.878   6.199
24170SOL    HW272469   5.709   9.992   6.190
24171SOL     OW72470   6.421   9.334   6.100
24171SOL    HW172471   6.456   9.419   6.075
24171SOL    HW272472   6.326   9.347   6.102
24172SOL     OW72473   5.931   9.549   7.423
24172SOL    HW172474   5.955   9.635   7.388
24172SOL    HW272475   5.837   9.554   7.440
24173SOL     OW72476   6.862   9.682   6.526
24173SOL    HW172477   6.774   9.645   6.526
24173SOL    HW272478   6.912   9.625   6.584
24174SOL     OW72479   6.435   9.832   7.018
24174SOL    HW172480   6.392   9.842   7.103
24174SOL    HW272481   6.362   9.822   6.956
24175SOL     OW72482   6.992   9.785   7.265
24175SOL    HW172483   7.040   9.831   7.334
24175SOL    HW272484   7.025   9.695   7.268
24176SOL     OW72485   6.596   9.764   6.812
24176SOL    HW172486   6.544   9.782   6.890
24176SOL    HW272487   6.543   9.703   6.761
24177SOL     OW72488   6.661   9.981   6.023
24177SOL    HW172489   6.716   0.021   6.091
24177SOL    HW272490   6.571   9.996   6.053
24178SOL     OW72491   6.474   9.661   5.773
24178SOL    HW172492   6.523   9.720   5.715
24178SOL    HW272493   6.475   9.577   5.728
24179SOL     OW72494   7.261   9.899   7.395
24179SOL    HW172495   7.308   9.969   7.350
24179SOL    HW272496   7.291   9.819   7.352
24180SOL     OW72497   6.135   9.473   6.499
24180SOL    HW172498   6.141   9.498   6.591
24180SOL    HW272499   6.135   9.556   6.452
24181SOL     OW72500   7.065   0.021   6.315
24181SOL    HW172501   7.058   9.973   6.397
24181SOL    HW272502   7.106   0.104   6.340
24182SOL     OW72503   5.785   9.558   7.082
24182SOL    HW172504   5.724   9.619   7.124
24182SOL    HW272505   5.756   9.471   7.111
24183SOL     OW72506   6.978   9.412   6.040
24183SOL    HW172507   6.978   9.388   5.948
24183SOL    HW272508   7.071   9.411   6.065
24184SOL     OW72509   7.087   9.523   7.297
24184SOL    HW172510   7.098   9.539   7.390
24184SOL    HW272511   7.022   9.453   7.292
24185SOL     OW72512   6.238   9.417   5.688
24185SOL    HW172513   6.288   9.341   5.717
24185SOL    HW272514   6.181   9.384   5.619
24186SOL     OW72515   6.345   9.574   7.335
24186SOL    HW172516   6.430   9.530   7.334
24186SOL    HW272517   6.300   9.537   7.410
24187SOL     OW72518   6.961   9.901   7.011
24187SOL    HW172519   6.963   9.868   7.101
24187SOL    HW272520   7.016   9.979   7.013
24188SOL     OW72521   6.523   9.799   6.481
24188SOL    HW172522   6.493   9.781   6.392
24188SOL    HW272523   6.562   9.717   6.510
24189SOL     OW72524   6.151   9.374   6.075
24189SOL    HW172525   6.074   9.376   6.132
24189SOL    HW272526   6.143   9.453   6.022
24190SOL     OW72527   5.872   9.364   5.770
24190SOL    HW172528   5.927   9.425   5.723
24190SOL    HW272529   5.933   9.304   5.812
24191SOL     OW72530   6.528   9.583   6.032
24191SOL    HW172531   6.506   9.611   5.943
24191SOL    HW272532   6.622   9.594   6.038
24192SOL     OW72533   6.659   9.947   7.150
24192SOL    HW172534   6.593   9.907   7.095
24192SOL    HW272535   6.702   0.011   7.094
24193SOL     OW72536   6.612   9.832   5.613
24193SOL    HW172537   6.592   9.920   5.582
24193SOL    HW272538   6.679   9.844   5.680
24194SOL     OW72539   5.661   9.891   6.963
24194SOL    HW172540   5.756   9.894   6.952
24194SOL    HW272541   5.637   9.980   6.992
24195SOL     OW72542   6.140   9.536   6.768
24195SOL    HW172543   6.183   9.485   6.836
24195SOL    HW272544   6.046   9.528   6.788
24196SOL     OW72545   6.444   9.767   6.228
24196SOL    HW172546   6.422   9.844   6.176
24196SOL    HW272547   6.467   9.700   6.164
24197SOL     OW72548   6.607   9.358   6.319
24197SOL    HW172549   6.545   9.354   6.245
24197SOL    HW272550   6.580   9.286   6.376
24198SOL     OW72551   7.063   9.873   6.538
24198SOL    HW172552   6.988   9.817   6.556
24198SOL    HW272553   7.105   9.885   6.623
24199SOL     OW72554   6.135   9.582   5.894
24199SOL    HW172555   6.169   9.529   5.822
24199SOL    HW272556   6.155   9.672   5.869
24200SOL     OW72557   6.507   9.391   6.967
24200SOL    HW172558   6.529   9.371   6.876
24200SOL    HW272559   6.586   9.432   7.002
24201SOL     OW72560   6.853   9.688   6.880
24201SOL    HW172561   6.891   9.764   6.922
24201SOL    HW272562   6.767   9.718   6.849
24202SOL     OW72563   6.134   9.764   6.438
24202SOL    HW172564   6.130   9.772   6.342
24202SOL    HW272565   6.201   9.827   6.464
24203SOL     OW72566   7.162   9.878   6.106
24203SOL    HW172567   7.124   9.940   6.169
24203SOL    HW272568   7.211   9.933   6.045
24204SOL     OW72569   6.585   9.446   7.349
24204SOL    HW172570   6.646   9.518   7.333
24204SOL    HW272571   6.634   9.367   7.325
24205SOL     OW72572   6.080   9.333   7.344
24205SOL    HW172573   6.028   9.281   7.283
24205SOL    HW272574   6.026   9.410   7.363
24206SOL     OW72575   6.783   9.841   5.831
24206SOL    HW172576   6.802   9.759   5.876
24206SOL    HW272577   6.737   9.894   5.896
24207SOL     OW72578   5.875   9.498   6.827
24207SOL    HW172579   5.836   9.525   6.910
24207SOL    HW272580   5.861   9.404   6.822
24208SOL     OW72581   6.307   9.930   6.586
24208SOL    HW172582   6.391   9.895   6.556
24208SOL    HW272583   6.315   0.025   6.572
24209SOL     OW72584   5.911   9.373   6.214
24209SOL    HW172585   5.881   9.461   6.235
24209SOL    HW272586   5.917   9.329   6.299
24210SOL     OW72587   7.200   9.666   5.936
24210SOL    HW172588   7.248   9.601   5.988
24210SOL    HW272589   7.171   9.730   6.001
24211SOL     OW72590   7.100   9.568   5.698
24211SOL    HW172591   7.046   9.496   5.730
24211SOL    HW272592   7.135   9.608   5.778
24212SOL     OW72593   5.908   0.056   6.484
24212SOL    HW172594   5.985   0.112   6.495
24212SOL    HW272595   5.922   9.984   6.546
24213SOL     OW72596   5.950   9.821   6.630
24213SOL    HW172597   5.893   9.746   6.616
24213SOL    HW272598   6.023   9.808   6.569
24214SOL     OW72599   6.735   9.668   7.281
24214SOL    HW172600   6.679   9.726   7.332
24214SOL    HW272601   6.816   9.718   7.267
24215SOL     OW72602   6.742   9.503   7.057
24215SOL    HW172603   6.734   9.560   7.134
24215SOL    HW272604   6.788   9.557   6.992
24216SOL     OW72605   5.608   9.845   6.693
24216SOL    HW172606   5.683   9.814   6.642
24216SOL    HW272607   5.644   9.859   6.781
24217SOL     OW72608   5.855   9.810   7.311
24217SOL    HW172609   5.902   9.796   7.228
24217SOL    HW272610   5.897   9.887   7.349
24218SOL     OW72611   6.311   9.885   5.837
24218SOL    HW172612   6.370   9.811   5.823
24218SOL    HW272613   6.320   9.906   5.929
24219SOL     OW72614   7.216   9.903   6.768
24219SOL    HW172615   7.203   9.846   6.843
24219SOL    HW272616   7.300   9.875   6.731
24220SOL     OW72617   6.256   9.785   6.818
24220SOL    HW172618   6.213   9.704   6.791
24220SOL    HW272619   6.262   9.837   6.737
24221SOL     OW72620   7.336   9.477   6.085
24221SOL    HW172621   7.396   9.457   6.013
24221SOL    HW272622   7.309   9.392   6.119
24222SOL     OW72623   7.428   9.467   6.549
24222SOL    HW172624   7.458   9.378   6.529
24222SOL    HW272625   7.340   9.472   6.513
24223SOL     OW72626   5.835   9.620   6.302
24223SOL    HW172627   5.747   9.649   6.277
24223SOL    HW272628   5.835   9.623   6.398
24224SOL     OW72629   6.623   9.542   6.534
24224SOL    HW172630   6.621   9.493   6.452
24224SOL    HW272631   6.612   9.476   6.602
24225SOL     OW72632   7.340   9.686   6.987
24225SOL    HW172633   7.402   9.758   6.975
24225SOL    HW272634   7.367   9.620   6.923
24226SOL     OW72635   6.266   9.494   7.073
24226SOL    HW172636   6.350   9.469   7.036
24226SOL    HW272637   6.287   9.529   7.160
24227SOL     OW72638   5.671   9.641   5.588
24227SOL    HW172639   5.592   9.637   5.534
24227SOL    HW272640   5.720   9.715   5.552
24228SOL     OW72641   5.631   9.455   5.858
24228SOL    HW172642   5.614   9.525   5.796
24228SOL    HW272643   5.720   9.426   5.838
24229SOL     OW72644   6.328   9.848   7.270
24229SOL    HW172645   6.383   9.895   7.332
24229SOL    HW272646   6.331   9.757   7.300
24230SOL     OW72647   6.801   9.633   6.033
24230SOL    HW172648   6.861   9.558   6.036
24230SOL    HW272649   6.824   9.685   6.110
24231SOL     OW72650   7.326   9.668   7.260
24231SOL    HW172651   7.330   9.678   7.165
24231SOL    HW272652   7.253   9.608   7.275
24232SOL     OW72653   6.721   0.222   5.647
24232SOL    HW172654   6.725   0.318   5.643
24232SOL    HW272655   6.794   0.198   5.705
24233SOL     OW72656   7.397   9.481   6.821
24233SOL    HW172657   7.398   9.386   6.833
24233SOL    HW272658   7.408   9.493   6.726
24234SOL     OW72659   6.058   9.717   6.166
24234SOL    HW172660   6.058   9.672   6.081
24234SOL    HW272661   5.976   9.689   6.207
24235SOL     OW72662   5.922   9.909   6.890
24235SOL    HW172663   5.972   9.854   6.951
24235SOL    HW272664   5.945   9.877   6.803
24236SOL     OW72665   7.007   9.540   6.709
24236SOL    HW172666   7.019   9.454   6.748
24236SOL    HW272667   6.961   9.591   6.776
24237SOL     OW72668   6.594   9.321   6.708
24237SOL    HW172669   6.541   9.257   6.660
24237SOL    HW272670   6.682   9.282   6.710
24238SOL     OW72671   6.963   9.342   5.773
24238SOL    HW172672   7.002   9.268   5.727
24238SOL    HW272673   6.871   9.317   5.785
24239SOL     OW72674   6.874   9.775   6.258
24239SOL    HW172675   6.915   9.861   6.266
24239SOL    HW272676   6.869   9.742   6.348
24240SOL     OW72677   7.164   9.489   6.483
24240SOL    HW172678   7.112   9.523   6.556
24240SOL    HW272679   7.167   9.561   6.421
24241SOL     OW72680   5.794   9.608   8.448
24241SOL    HW172681   5.826   9.564   8.527
24241SOL    HW272682   5.710   9.565   8.430
24242SOL     OW72683   5.580   9.687   8.096
24242SOL    HW172684   5.503   9.705   8.150
24242SOL    HW272685   5.553   9.615   8.039
24243SOL     OW72686   7.213   9.912   7.666
24243SOL    HW172687   7.245   9.910   7.576
24243SOL    HW272688   7.225   9.822   7.698
24244SOL     OW72689   6.006   9.720   8.947
24244SOL    HW172690   6.090   9.676   8.939
24244SOL    HW272691   5.941   9.650   8.939
24245SOL     OW72692   7.194   9.726   8.204
24245SOL    HW172693   7.171   9.767   8.121
24245SOL    HW272694   7.157   9.784   8.271
24246SOL     OW72695   7.175   9.442   8.902
24246SOL    HW172696   7.219   9.518   8.864
24246SOL    HW272697   7.142   9.473   8.987
24247SOL     OW72698   5.616   9.973   8.054
24247SOL    HW172699   5.610   9.878   8.061
24247SOL    HW272700   5.710   9.992   8.053
24248SOL     OW72701   6.421   9.334   7.962
24248SOL    HW172702   6.457   9.419   7.937
24248SOL    HW272703   6.326   9.347   7.964
24249SOL     OW72704   5.930   9.548   9.286
24249SOL    HW172705   5.952   9.634   9.249
24249SOL    HW272706   5.835   9.553   9.303
24250SOL     OW72707   6.862   9.683   8.388
24250SOL    HW172708   6.774   9.646   8.388
24250SOL    HW272709   6.912   9.625   8.446
24251SOL     OW72710   6.432   9.831   8.884
24251SOL    HW172711   6.388   9.842   8.968
24251SOL    HW272712   6.361   9.821   8.821
24252SOL     OW72713   6.990   9.782   9.127
24252SOL    HW172714   7.034   9.826   9.199
24252SOL    HW272715   7.024   9.692   9.129
24253SOL     OW72716   6.595   9.764   8.676
24253SOL    HW172717   6.543   9.782   8.754
24253SOL    HW272718   6.541   9.704   8.625
24254SOL     OW72719   6.661   9.982   7.885
24254SOL    HW172720   6.715   0.023   7.952
24254SOL    HW272721   6.571   9.996   7.915
24255SOL     OW72722   6.474   9.661   7.635
24255SOL    HW172723   6.523   9.720   7.578
24255SOL    HW272724   6.475   9.577   7.590
24256SOL     OW72725   7.267   9.901   9.256
24256SOL    HW172726   7.303   9.971   9.201
24256SOL    HW272727   7.295   9.820   9.213
24257SOL     OW72728   6.135   9.473   8.361
24257SOL    HW172729   6.142   9.499   8.453
24257SOL    HW272730   6.135   9.556   8.313
24258SOL     OW72731   7.065   0.022   8.177
24258SOL    HW172732   7.058   9.973   8.259
24258SOL    HW272733   7.107   0.104   8.201
24259SOL     OW72734   5.784   9.557   8.944
24259SOL    HW172735   5.723   9.618   8.985
24259SOL    HW272736   5.756   9.470   8.974
24260SOL     OW72737   6.978   9.412   7.902
24260SOL    HW172738   6.978   9.388   7.810
24260SOL    HW272739   7.071   9.412   7.927
24261SOL     OW72740   7.089   9.521   9.162
24261SOL    HW172741   7.099   9.541   9.255
24261SOL    HW272742   7.027   9.448   9.159
24262SOL     OW72743   6.238   9.417   7.550
24262SOL    HW172744   6.288   9.341   7.579
24262SOL    HW272745   6.181   9.384   7.481
24263SOL     OW72746   6.345   9.574   9.197
24263SOL    HW172747   6.431   9.530   9.196
24263SOL    HW272748   6.300   9.536   9.272
24264SOL     OW72749   6.964   9.899   8.873
24264SOL    HW172750   6.965   9.866   8.963
24264SOL    HW272751   7.018   9.978   8.875
24265SOL     OW72752   6.522   9.799   8.343
24265SOL    HW172753   6.492   9.781   8.254
24265SOL    HW272754   6.561   9.716   8.373
24266SOL     OW72755   6.151   9.374   7.937
24266SOL    HW172756   6.074   9.376   7.993
24266SOL    HW272757   6.143   9.454   7.883
24267SOL     OW72758   5.872   9.363   7.632
24267SOL    HW172759   5.927   9.426   7.585
24267SOL    HW272760   5.933   9.304   7.674
24268SOL     OW72761   6.528   9.583   7.894
24268SOL    HW172762   6.506   9.611   7.805
24268SOL    HW272763   6.623   9.594   7.900
24269SOL     OW72764   6.657   9.950   9.014
24269SOL    HW172765   6.591   9.908   8.958
24269SOL    HW272766   6.700   0.014   8.957
24270SOL     OW72767   6.612   9.832   7.475
24270SOL    HW172768   6.591   9.920   7.445
24270SOL    HW272769   6.679   9.844   7.542
24271SOL     OW72770   5.659   9.893   8.825
24271SOL    HW172771   5.754   9.896   8.814
24271SOL    HW272772   5.634   9.983   8.845
24272SOL     OW72773   6.140   9.537   8.630
24272SOL    HW172774   6.184   9.484   8.697
24272SOL    HW272775   6.047   9.528   8.649
24273SOL     OW72776   6.444   9.767   8.090
24273SOL    HW172777   6.423   9.845   8.038
24273SOL    HW272778   6.467   9.700   8.026
24274SOL     OW72779   6.607   9.358   8.181
24274SOL    HW172780   6.546   9.354   8.107
24274SOL    HW272781   6.580   9.286   8.238
24275SOL     OW72782   7.063   9.873   8.400
24275SOL    HW172783   6.988   9.817   8.418
24275SOL    HW272784   7.105   9.885   8.485
24276SOL     OW72785   6.135   9.582   7.756
24276SOL    HW172786   6.169   9.529   7.684
24276SOL    HW272787   6.154   9.672   7.730
24277SOL     OW72788   6.506   9.392   8.828
24277SOL    HW172789   6.528   9.372   8.737
24277SOL    HW272790   6.585   9.432   8.864
24278SOL     OW72791   6.852   9.688   8.742
24278SOL    HW172792   6.892   9.764   8.784
24278SOL    HW272793   6.767   9.719   8.712
24279SOL     OW72794   6.134   9.764   8.300
24279SOL    HW172795   6.130   9.771   8.205
24279SOL    HW272796   6.201   9.827   8.326
24280SOL     OW72797   7.162   9.878   7.968
24280SOL    HW172798   7.125   9.940   8.031
24280SOL    HW272799   7.210   9.932   7.906
24281SOL     OW72800   6.586   9.447   9.214
24281SOL    HW172801   6.646   9.519   9.195
24281SOL    HW272802   6.633   9.368   9.189
24282SOL     OW72803   6.080   9.334   9.206
24282SOL    HW172804   6.029   9.282   9.145
24282SOL    HW272805   6.025   9.410   9.225
24283SOL     OW72806   6.783   9.841   7.693
24283SOL    HW172807   6.802   9.759   7.738
24283SOL    HW272808   6.737   9.894   7.758
24284SOL     OW72809   5.876   9.498   8.688
24284SOL    HW172810   5.836   9.524   8.771
24284SOL    HW272811   5.861   9.404   8.683
24285SOL     OW72812   6.307   9.931   8.448
24285SOL    HW172813   6.391   9.895   8.418
24285SOL    HW272814   6.314   0.025   8.433
24286SOL     OW72815   5.911   9.373   8.076
24286SOL    HW172816   5.881   9.461   8.097
24286SOL    HW272817   5.918   9.329   8.161
24287SOL     OW72818   7.200   9.665   7.799
24287SOL    HW172819   7.248   9.600   7.850
24287SOL    HW272820   7.171   9.730   7.863
24288SOL     OW72821   7.100   9.568   7.560
24288SOL    HW172822   7.046   9.496   7.592
24288SOL    HW272823   7.135   9.608   7.640
24289SOL     OW72824   5.910   0.055   8.346
24289SOL    HW172825   5.986   0.111   8.356
24289SOL    HW272826   5.923   9.984   8.408
24290SOL     OW72827   5.951   9.821   8.493
24290SOL    HW172828   5.894   9.746   8.479
24290SOL    HW272829   6.024   9.807   8.432
24291SOL     OW72830   6.734   9.669   9.142
24291SOL    HW172831   6.678   9.728   9.192
24291SOL    HW272832   6.815   9.717   9.128
24292SOL     OW72833   6.742   9.503   8.919
24292SOL    HW172834   6.733   9.560   8.995
24292SOL    HW272835   6.788   9.556   8.854
24293SOL     OW72836   5.607   9.841   8.556
24293SOL    HW172837   5.681   9.811   8.503
24293SOL    HW272838   5.644   9.856   8.642
24294SOL     OW72839   5.848   9.805   9.169
24294SOL    HW172840   5.898   9.792   9.088
24294SOL    HW272841   5.883   9.887   9.205
24295SOL     OW72842   6.311   9.885   7.699
24295SOL    HW172843   6.370   9.811   7.685
24295SOL    HW272844   6.319   9.906   7.792
24296SOL     OW72845   7.216   9.903   8.630
24296SOL    HW172846   7.202   9.846   8.705
24296SOL    HW272847   7.299   9.874   8.593
24297SOL     OW72848   6.257   9.785   8.680
24297SOL    HW172849   6.214   9.705   8.653
24297SOL    HW272850   6.262   9.838   8.601
24298SOL     OW72851   7.336   9.477   7.947
24298SOL    HW172852   7.396   9.456   7.875
24298SOL    HW272853   7.309   9.392   7.981
24299SOL     OW72854   7.429   9.467   8.411
24299SOL    HW172855   7.458   9.379   8.391
24299SOL    HW272856   7.340   9.473   8.375
24300SOL     OW72857   5.835   9.620   8.164
24300SOL    HW172858   5.747   9.649   8.139
24300SOL    HW272859   5.835   9.623   8.260
24301SOL     OW72860   6.623   9.542   8.396
24301SOL    HW172861   6.621   9.493   8.314
24301SOL    HW272862   6.612   9.476   8.464
24302SOL     OW72863   7.340   9.686   8.850
24302SOL    HW172864   7.402   9.758   8.838
24302SOL    HW272865   7.367   9.620   8.786
24303SOL     OW72866   6.265   9.495   8.935
24303SOL    HW172867   6.350   9.470   8.898
24303SOL    HW272868   6.287   9.528   9.023
24304SOL     OW72869   5.671   9.640   7.450
24304SOL    HW172870   5.591   9.636   7.397
24304SOL    HW272871   5.719   9.715   7.415
24305SOL     OW72872   5.631   9.455   7.720
24305SOL    HW172873   5.614   9.525   7.658
24305SOL    HW272874   5.720   9.426   7.700
24306SOL     OW72875   6.321   9.848   9.137
24306SOL    HW172876   6.382   9.893   9.196
24306SOL    HW272877   6.326   9.756   9.163
24307SOL     OW72878   6.801   9.632   7.895
24307SOL    HW172879   6.861   9.558   7.898
24307SOL    HW272880   6.824   9.685   7.972
24308SOL     OW72881   7.325   9.668   9.123
24308SOL    HW172882   7.330   9.678   9.028
24308SOL    HW272883   7.252   9.608   9.138
24309SOL     OW72884   6.721   0.223   7.509
24309SOL    HW172885   6.723   0.319   7.504
24309SOL    HW272886   6.793   0.201   7.567
24310SOL     OW72887   7.398   9.482   8.683
24310SOL    HW172888   7.400   9.387   8.696
24310SOL    HW272889   7.408   9.494   8.588
24311SOL     OW72890   6.059   9.715   8.029
24311SOL    HW172891   6.059   9.673   7.944
24311SOL    HW272892   5.977   9.688   8.070
24312SOL     OW72893   5.921   9.909   8.753
24312SOL    HW172894   5.971   9.853   8.813
24312SOL    HW272895   5.944   9.877   8.666
24313SOL     OW72896   7.007   9.540   8.571
24313SOL    HW172897   7.019   9.454   8.610
24313SOL    HW272898   6.960   9.590   8.638
24314SOL     OW72899   6.594   9.321   8.570
24314SOL    HW172900   6.541   9.257   8.521
24314SOL    HW272901   6.682   9.282   8.572
24315SOL     OW72902   6.962   9.342   7.635
24315SOL    HW172903   7.002   9.268   7.589
24315SOL    HW272904   6.871   9.317   7.647
24316SOL     OW72905   6.874   9.774   8.120
24316SOL    HW172906   6.914   9.860   8.128
24316SOL    HW272907   6.870   9.742   8.210
24317SOL     OW72908   7.164   9.489   8.345
24317SOL    HW172909   7.112   9.523   8.418
24317SOL    HW272910   7.168   9.562   8.283
24318SOL     OW72911   7.217   9.916   9.524
24318SOL    HW172912   7.248   9.915   9.433
24318SOL    HW272913   7.227   9.826   9.554
24319SOL     OW72914   5.680   9.867   9.924
24319SOL    HW172915   5.656   9.874   9.832
24319SOL    HW272916   5.737   9.942   9.940
24320SOL     OW72917   6.408   9.348   9.826
24320SOL    HW172918   6.450   9.429   9.797
24320SOL    HW272919   6.315   9.370   9.830
24321SOL     OW72920   6.664   9.961   9.764
24321SOL    HW172921   6.695   9.947   9.853
24321SOL    HW272922   6.572   9.986   9.774
24322SOL     OW72923   6.481   9.654   9.491
24322SOL    HW172924   6.528   9.715   9.434
24322SOL    HW272925   6.485   9.570   9.445
24323SOL     OW72926   7.015   9.433   9.725
24323SOL    HW172927   7.009   9.391   9.639
24323SOL    HW272928   7.109   9.439   9.742
24324SOL     OW72929   6.242   9.412   9.411
24324SOL    HW172930   6.290   9.334   9.439
24324SOL    HW272931   6.183   9.382   9.342
24325SOL     OW72932   6.132   9.409   9.844
24325SOL    HW172933   6.039   9.409   9.866
24325SOL    HW272934   6.138   9.465   9.767
24326SOL     OW72935   5.874   9.369   9.498
24326SOL    HW172936   5.926   9.431   9.446
24326SOL    HW272937   5.939   9.315   9.543
24327SOL     OW72938   6.533   9.591   9.754
24327SOL    HW172939   6.508   9.613   9.664
24327SOL    HW272940   6.629   9.597   9.754
24328SOL     OW72941   6.614   9.834   9.337
24328SOL    HW172942   6.592   9.922   9.306
24328SOL    HW272943   6.681   9.849   9.404
24329SOL     OW72944   6.445   9.768   9.953
24329SOL    HW172945   6.416   9.846   9.907
24329SOL    HW272946   6.471   9.707   9.884
24330SOL     OW72947   6.150   9.568   9.625
24330SOL    HW172948   6.181   9.518   9.549
24330SOL    HW272949   6.162   9.660   9.599
24331SOL     OW72950   7.206   9.962   9.797
24331SOL    HW172951   7.125   0.011   9.812
24331SOL    HW272952   7.214   9.958   9.702
24332SOL     OW72953   6.786   9.849   9.554
24332SOL    HW172954   6.804   9.763   9.591
24332SOL    HW272955   6.743   9.897   9.624
24333SOL     OW72956   5.866   9.422   9.928
24333SOL    HW172957   5.799   9.490   9.940
24333SOL    HW272958   5.874   9.381   0.013
24334SOL     OW72959   7.197   9.686   9.670
24334SOL    HW172960   7.233   9.608   9.714
24334SOL    HW272961   7.171   9.744   9.741
24335SOL     OW72962   7.099   9.579   9.424
24335SOL    HW172963   7.046   9.503   9.450
24335SOL    HW272964   7.128   9.618   9.507
24336SOL     OW72965   5.934   9.803   0.274
24336SOL    HW172966   5.853   9.762   0.302
24336SOL    HW272967   6.000   9.733   0.281
24337SOL     OW72968   6.330   9.887   9.555
24337SOL    HW172969   6.381   9.808   9.540
24337SOL    HW272970   6.358   9.918   9.641
24338SOL     OW72971   7.296   9.453   9.777
24338SOL    HW172972   7.368   9.457   9.714
24338SOL    HW272973   7.312   9.372   9.826
24339SOL     OW72974   5.668   9.637   9.315
24339SOL    HW172975   5.588   9.633   9.262
24339SOL    HW272976   5.717   9.711   9.279
24340SOL     OW72977   5.628   9.459   9.581
24340SOL    HW172978   5.617   9.527   9.515
24340SOL    HW272979   5.718   9.428   9.568
24341SOL     OW72980   6.810   9.623   9.731
24341SOL    HW172981   6.876   9.554   9.718
24341SOL    HW272982   6.845   9.676   9.802
24342SOL     OW72983   6.716   0.237   9.369
24342SOL    HW172984   6.707   0.332   9.359
24342SOL    HW272985   6.781   0.227   9.439
24343SOL     OW72986   5.981   9.752   9.778
24343SOL    HW172987   6.017   9.668   9.750
24343SOL    HW272988   5.972   9.744   9.873
24344SOL     OW72989   6.964   9.342   9.473
24344SOL    HW172990   7.003   9.264   9.434
24344SOL    HW272991   6.874   9.316   9.494
24345SOL     OW72992   6.921   9.752   9.939
24345SOL    HW172993   6.849   9.795   9.986
24345SOL    HW272994   6.970   9.707   0.008
24346SOL     OW72995   7.634   0.606   0.148
24346SOL    HW172996   7.555   0.594   0.202
24346SOL    HW272997   7.619   0.551   0.071
24347SOL     OW72998   7.640   0.322   1.036
24347SOL    HW172999   7.684   0.270   1.103
24347SOL    HW273000   7.572   0.264   1.002
24348SOL     OW73001   7.436   0.420   0.654
24348SOL    HW173002   7.353   0.445   0.694
24348SOL    HW273003   7.415   0.342   0.602
24349SOL     OW73004   8.023   1.308   1.209
24349SOL    HW173005   7.941   1.311   1.160
24349SOL    HW273006   8.040   1.400   1.233
24350SOL     OW73007   9.041   1.521   0.706
24350SOL    HW173008   8.993   1.490   0.783
24350SOL    HW273009   8.975   1.525   0.637
24351SOL     OW73010   8.587   0.705   0.687
24351SOL    HW173011   8.632   0.789   0.678
24351SOL    HW273012   8.536   0.714   0.767
24352SOL     OW73013   9.224   0.574   0.214
24352SOL    HW173014   9.158   0.598   0.149
24352SOL    HW273015   9.182   0.507   0.268
24353SOL     OW73016   8.176   1.131   1.059
24353SOL    HW173017   8.117   1.171   1.123
24353SOL    HW273018   8.218   1.205   1.015
24354SOL     OW73019   8.332   0.738   1.826
24354SOL    HW173020   8.318   0.805   1.893
24354SOL    HW273021   8.350   0.788   1.746
24355SOL     OW73022   8.133   0.974   0.646
24355SOL    HW173023   8.200   0.977   0.714
24355SOL    HW273024   8.066   1.036   0.676
24356SOL     OW73025   8.159   1.149   1.834
24356SOL    HW173026   8.211   1.222   1.868
24356SOL    HW273027   8.084   1.191   1.792
24357SOL     OW73028   7.790   1.397   1.071
24357SOL    HW173029   7.714   1.355   1.031
24357SOL    HW273030   7.826   1.453   1.001
24358SOL     OW73031   8.901   1.507   1.372
24358SOL    HW173032   8.957   1.584   1.384
24358SOL    HW273033   8.829   1.519   1.435
24359SOL     OW73034   7.905   0.402   1.456
24359SOL    HW173035   7.982   0.348   1.474
24359SOL    HW273036   7.831   0.345   1.478
24360SOL     OW73037   9.028   0.461   0.749
24360SOL    HW173038   8.954   0.461   0.688
24360SOL    HW273039   9.010   0.532   0.810
24361SOL     OW73040   7.675   1.722   0.470
24361SOL    HW173041   7.692   1.796   0.527
24361SOL    HW273042   7.760   1.701   0.431
24362SOL     OW73043   8.583   1.342   1.697
24362SOL    HW173044   8.628   1.331   1.780
24362SOL    HW273045   8.530   1.262   1.688
24363SOL     OW73046   7.657   1.445   0.509
24363SOL    HW173047   7.649   1.540   0.518
24363SOL    HW273048   7.618   1.410   0.589
24364SOL     OW73049   7.728   1.088   0.881
24364SOL    HW173050   7.730   0.999   0.917
24364SOL    HW273051   7.674   1.137   0.943
24365SOL     OW73052   8.020   1.805   1.419
24365SOL    HW173053   7.945   1.785   1.474
24365SOL    HW273054   8.053   1.888   1.454
24366SOL     OW73055   8.015   0.951   0.174
24366SOL    HW173056   7.989   1.021   0.114
24366SOL    HW273057   8.073   0.993   0.237
24367SOL     OW73058   8.992   0.126   1.456
24367SOL    HW173059   9.053   0.183   1.410
24367SOL    HW273060   8.979   0.168   1.541
24368SOL     OW73061   7.570   0.658   0.576
24368SOL    HW173062   7.530   0.573   0.599
24368SOL    HW273063   7.561   0.710   0.655
24369SOL     OW73064   9.308   1.732   0.312
24369SOL    HW173065   9.378   1.709   0.373
24369SOL    HW273066   9.323   1.824   0.291
24370SOL     OW73067   7.511   1.576   0.084
24370SOL    HW173068   7.487   1.488   0.114
24370SOL    HW273069   7.487   1.633   0.156
24371SOL     OW73070   9.142   0.924   0.666
24371SOL    HW173071   9.228   0.883   0.658
24371SOL    HW273072   9.130   0.971   0.583
24372SOL     OW73073   9.108   1.094   0.441
24372SOL    HW173074   9.189   1.089   0.390
24372SOL    HW273075   9.125   1.161   0.507
24373SOL     OW73076   7.555   0.752   1.570
24373SOL    HW173077   7.637   0.801   1.569
24373SOL    HW273078   7.487   0.817   1.554
24374SOL     OW73079   8.064   1.381   0.757
24374SOL    HW173080   8.022   1.295   0.752
24374SOL    HW273081   8.060   1.415   0.667
24375SOL     OW73082   8.717   1.226   1.418
24375SOL    HW173083   8.744   1.157   1.357
24375SOL    HW273084   8.780   1.220   1.490
24376SOL     OW73085   8.259   0.054   0.581
24376SOL    HW173086   8.292   0.134   0.540
24376SOL    HW273087   8.165   0.053   0.561
24377SOL     OW73088   7.634   0.957   1.303
24377SOL    HW173089   7.723   0.926   1.285
24377SOL    HW273090   7.582   0.920   1.231
24378SOL     OW73091   8.936   1.032   0.233
24378SOL    HW173092   8.880   0.962   0.266
24378SOL    HW273093   8.999   1.048   0.303
24379SOL     OW73094   8.626   1.822   1.635
24379SOL    HW173095   8.628   1.883   1.562
24379SOL    HW273096   8.643   1.736   1.595
24380SOL     OW73097   7.767   0.258   1.772
24380SOL    HW173098   7.825   0.316   1.821
24380SOL    HW273099   7.684   0.260   1.821
24381SOL     OW73100   8.919   1.418   0.929
24381SOL    HW173101   8.856   1.437   0.999
24381SOL    HW273102   8.901   1.327   0.905
24382SOL     OW73103   9.088   1.800   0.563
24382SOL    HW173104   9.074   1.752   0.482
24382SOL    HW273105   9.092   1.732   0.631
24383SOL     OW73106   8.036   0.696   0.285
24383SOL    HW173107   8.039   0.783   0.244
24383SOL    HW273108   7.969   0.704   0.353
24384SOL     OW73109   8.730   0.391   0.940
24384SOL    HW173110   8.641   0.358   0.950
24384SOL    HW273111   8.784   0.332   0.992
24385SOL     OW73112   9.037   1.673   0.325
24385SOL    HW173113   9.132   1.684   0.312
24385SOL    HW273114   9.003   1.656   0.238
24386SOL     OW73115   8.242   0.614   1.443
24386SOL    HW173116   8.215   0.580   1.529
24386SOL    HW273117   8.218   0.546   1.381
24387SOL     OW73118   8.846   0.491   1.679
24387SOL    HW173119   8.851   0.531   1.765
24387SOL    HW273120   8.895   0.409   1.688
24388SOL     OW73121   8.393   0.879   1.594
24388SOL    HW173122   8.450   0.816   1.549
24388SOL    HW273123   8.345   0.922   1.523
24389SOL     OW73124   8.462   0.420   1.214
24389SOL    HW173125   8.370   0.429   1.240
24389SOL    HW273126   8.459   0.379   1.128
24390SOL     OW73127   8.515   0.706   0.418
24390SOL    HW173128   8.537   0.701   0.512
24390SOL    HW273129   8.428   0.666   0.412
24391SOL     OW73130   7.542   0.828   0.787
24391SOL    HW173131   7.624   0.819   0.836
24391SOL    HW273132   7.496   0.900   0.830
24392SOL     OW73133   7.557   1.879   1.587
24392SOL    HW173134   7.565   1.859   1.681
24392SOL    HW273135   7.472   1.843   1.562
24393SOL     OW73136   8.290   0.371   0.213
24393SOL    HW173137   8.273   0.417   0.131
24393SOL    HW273138   8.299   0.279   0.188
24394SOL     OW73139   9.141   0.563   1.834
24394SOL    HW173140   9.115   0.642   1.787
24394SOL    HW273141   9.163   0.500   1.765
24395SOL     OW73142   8.844   1.151   0.553
24395SOL    HW173143   8.924   1.140   0.501
24395SOL    HW273144   8.790   1.211   0.503
24396SOL     OW73145   7.984   0.222   0.927
24396SOL    HW173146   8.006   0.236   1.019
24396SOL    HW273147   7.997   0.308   0.886
24397SOL     OW73148   8.448   1.453   0.471
24397SOL    HW173149   8.424   1.529   0.419
24397SOL    HW273150   8.416   1.473   0.559
24398SOL     OW73151   7.801   1.817   0.880
24398SOL    HW173152   7.846   1.733   0.884
24398SOL    HW273153   7.869   1.881   0.902
24399SOL     OW73154   9.247   1.054   0.897
24399SOL    HW173155   9.199   1.040   0.816
24399SOL    HW273156   9.180   1.060   0.965
24400SOL     OW73157   8.664   1.544   1.517
24400SOL    HW173158   8.654   1.473   1.581
24400SOL    HW273159   8.599   1.525   1.450
24401SOL     OW73160   7.757   0.935   0.285
24401SOL    HW173161   7.841   0.941   0.239
24401SOL    HW273162   7.749   0.842   0.307
24402SOL     OW73163   8.929   0.765   0.716
24402SOL    HW173164   8.928   0.729   0.804
24402SOL    HW273165   9.008   0.819   0.714
24403SOL     OW73166   7.921   1.284   1.748
24403SOL    HW173167   7.897   1.288   1.655
24403SOL    HW273168   7.838   1.272   1.794
24404SOL     OW73169   8.553   1.784   0.180
24404SOL    HW173170   8.497   1.744   0.246
24404SOL    HW273171   8.592   1.710   0.134
24405SOL     OW73172   7.667   0.265   1.509
24405SOL    HW173173   7.598   0.332   1.511
24405SOL    HW273174   7.690   0.253   1.601
24406SOL     OW73175   9.078   1.366   0.110
24406SOL    HW173176   9.038   1.453   0.105
24406SOL    HW273177   9.010   1.307   0.077
24407SOL     OW73178   7.935   1.708   0.376
24407SOL    HW173179   7.971   1.784   0.422
24407SOL    HW273180   8.002   1.686   0.310
24408SOL     OW73181   8.849   0.143   0.406
24408SOL    HW173182   8.837   0.106   0.319
24408SOL    HW273183   8.904   0.079   0.452
24409SOL     OW73184   7.700   1.788   1.215
24409SOL    HW173185   7.749   1.714   1.250
24409SOL    HW273186   7.689   1.767   1.122
24410SOL     OW73187   8.395   1.701   0.891
24410SOL    HW173188   8.479   1.659   0.904
24410SOL    HW273189   8.353   1.650   0.821
24411SOL     OW73190   7.828   0.687   0.469
24411SOL    HW173191   7.850   0.594   0.478
24411SOL    HW273192   7.739   0.694   0.503
24412SOL     OW73193   8.951   0.227   1.719
24412SOL    HW173194   8.966   0.247   1.812
24412SOL    HW273195   8.873   0.172   1.720
24413SOL     OW73196   8.073   0.108   0.111
24413SOL    HW173197   8.168   0.109   0.107
24413SOL    HW273198   8.044   0.095   0.021
24414SOL     OW73199   8.207   0.266   1.771
24414SOL    HW173200   8.282   0.207   1.760
24414SOL    HW273201   8.158   0.230   1.845
24415SOL     OW73202   8.317   1.528   1.201
24415SOL    HW173203   8.299   1.487   1.117
24415SOL    HW273204   8.385   1.474   1.241
24416SOL     OW73205   8.787   0.593   1.431
24416SOL    HW173206   8.818   0.568   1.518
24416SOL    HW273207   8.818   0.683   1.419
24417SOL     OW73208   8.265   1.378   0.961
24417SOL    HW173209   8.351   1.374   0.919
24417SOL    HW273210   8.203   1.389   0.889
24418SOL     OW73211   8.383   0.521   0.896
24418SOL    HW173212   8.356   0.509   0.805
24418SOL    HW273213   8.406   0.433   0.925
24419SOL     OW73214   8.000   0.056   0.494
24419SOL    HW173215   7.918   0.039   0.541
24419SOL    HW273216   7.977   0.122   0.429
24420SOL     OW73217   8.870   1.197   0.029
24420SOL    HW173218   8.896   1.133   0.095
24420SOL    HW273219   8.790   1.236   0.064
24421SOL     OW73220   7.752   0.060   0.177
24421SOL    HW173221   7.795   0.119   0.238
24421SOL    HW273222   7.768   9.972   0.213
24422SOL     OW73223   8.392   0.268   0.459
24422SOL    HW173224   8.355   0.305   0.379
24422SOL    HW273225   8.485   0.291   0.456
24423SOL     OW73226   8.527   0.692   1.446
24423SOL    HW173227   8.462   0.622   1.453
24423SOL    HW273228   8.611   0.647   1.442
24424SOL     OW73229   8.653   1.588   0.801
24424SOL    HW173230   8.669   1.648   0.728
24424SOL    HW273231   8.728   1.601   0.859
24425SOL     OW73232   7.928   1.148   0.711
24425SOL    HW173233   7.864   1.127   0.779
24425SOL    HW273234   7.878   1.144   0.629
24426SOL     OW73235   8.700   1.793   0.613
24426SOL    HW173236   8.750   1.856   0.561
24426SOL    HW273237   8.632   1.844   0.655
24427SOL     OW73238   8.552   0.508   9.981
24427SOL    HW173239   8.456   0.505   9.986
24427SOL    HW273240   8.579   0.537   0.068
24428SOL     OW73241   7.550   0.537   1.397
24428SOL    HW173242   7.639   0.551   1.364
24428SOL    HW273243   7.536   0.608   1.460
24429SOL     OW73244   8.015   0.237   1.202
24429SOL    HW173245   8.057   0.189   1.274
24429SOL    HW273246   7.921   0.226   1.218
24430SOL     OW73247   8.317   0.471   0.640
24430SOL    HW173248   8.281   0.528   0.573
24430SOL    HW273249   8.338   0.389   0.594
24431SOL     OW73250   8.421   0.063   0.804
24431SOL    HW173251   8.364   0.058   0.727
24431SOL    HW273252   8.430   9.973   0.833
24432SOL     OW73253   8.878   1.153   0.854
24432SOL    HW173254   8.810   1.087   0.865
24432SOL    HW273255   8.891   1.160   0.760
24433SOL     OW73256   8.901   0.623   0.954
24433SOL    HW173257   8.840   0.549   0.961
24433SOL    HW273258   8.957   0.615   1.032
24434SOL     OW73259   9.298   0.790   0.373
24434SOL    HW173260   9.345   0.746   0.444
24434SOL    HW273261   9.260   0.719   0.321
24435SOL     OW73262   7.952   1.443   0.213
24435SOL    HW173263   7.870   1.398   0.234
24435SOL    HW273264   7.994   1.386   0.148
24436SOL     OW73265   9.163   1.269   0.634
24436SOL    HW173266   9.256   1.262   0.653
24436SOL    HW273267   9.139   1.358   0.659
24437SOL     OW73268   8.865   0.563   0.097
24437SOL    HW173269   8.791   0.552   0.157
24437SOL    HW273270   8.903   0.475   0.091
24438SOL     OW73271   7.935   0.244   0.299
24438SOL    HW173272   7.988   0.195   0.236
24438SOL    HW273273   7.919   0.328   0.256
24439SOL     OW73274   9.180   1.245   1.535
24439SOL    HW173275   9.267   1.209   1.520
24439SOL    HW273276   9.196   1.333   1.570
24440SOL     OW73277   8.490   1.358   1.337
24440SOL    HW173278   8.413   1.322   1.381
24440SOL    HW273279   8.564   1.311   1.377
24441SOL     OW73280   9.055   1.635   1.671
24441SOL    HW173281   9.045   1.671   1.583
24441SOL    HW273282   9.133   1.580   1.666
24442SOL     OW73283   8.597   1.240   1.106
24442SOL    HW173284   8.535   1.274   1.170
24442SOL    HW273285   8.565   1.271   1.022
24443SOL     OW73286   9.049   1.091   1.080
24443SOL    HW173287   9.042   1.158   1.148
24443SOL    HW273288   8.981   1.113   1.017
24444SOL     OW73289   8.334   0.163   1.373
24444SOL    HW173290   8.360   0.118   1.292
24444SOL    HW273291   8.417   0.189   1.413
24445SOL     OW73292   8.427   1.115   1.725
24445SOL    HW173293   8.337   1.132   1.751
24445SOL    HW273294   8.423   1.034   1.673
24446SOL     OW73295   8.170   1.054   0.379
24446SOL    HW173296   8.156   1.026   0.469
24446SOL    HW273297   8.250   1.010   0.352
24447SOL     OW73298   7.878   0.839   1.260
24447SOL    HW173299   7.946   0.844   1.327
24447SOL    HW273300   7.844   0.750   1.266
24448SOL     OW73301   8.720   0.374   1.284
24448SOL    HW173302   8.750   0.451   1.332
24448SOL    HW273303   8.630   0.396   1.257
24449SOL     OW73304   7.526   1.570   1.363
24449SOL    HW173305   7.496   1.642   1.306
24449SOL    HW273306   7.621   1.570   1.353
24450SOL     OW73307   7.763   1.127   0.489
24450SOL    HW173308   7.762   1.197   0.423
24450SOL    HW273309   7.769   1.046   0.437
24451SOL     OW73310   8.006   0.492   0.851
24451SOL    HW173311   8.010   0.549   0.773
24451SOL    HW273312   8.066   0.534   0.913
24452SOL     OW73313   8.697   1.349   0.416
24452SOL    HW173314   8.753   1.421   0.445
24452SOL    HW273315   8.609   1.375   0.442
24453SOL     OW73316   8.758   1.469   1.142
24453SOL    HW173317   8.805   1.476   1.225
24453SOL    HW273318   8.707   1.388   1.150
24454SOL     OW73319   8.992   0.633   0.477
24454SOL    HW173320   8.966   0.670   0.561
24454SOL    HW273321   8.963   0.698   0.413
24455SOL     OW73322   7.793   1.533   1.303
24455SOL    HW173323   7.785   1.480   1.223
24455SOL    HW273324   7.886   1.549   1.312
24456SOL     OW73325   7.893   0.728   1.626
24456SOL    HW173326   7.943   0.778   1.561
24456SOL    HW273327   7.945   0.649   1.641
24457SOL     OW73328   9.070   0.786   1.700
24457SOL    HW173329   8.983   0.825   1.691
24457SOL    HW273330   9.121   0.823   1.628
24458SOL     OW73331   8.410   0.077   1.774
24458SOL    HW173332   8.477   0.130   1.816
24458SOL    HW273333   8.452   0.041   1.696
24459SOL     OW73334   7.916   0.020   1.765
24459SOL    HW173335   7.974   0.013   1.690
24459SOL    HW273336   7.868   0.102   1.752
24460SOL     OW73337   8.039   0.881   1.036
24460SOL    HW173338   8.079   0.968   1.041
24460SOL    HW273339   7.982   0.877   1.114
24461SOL     OW73340   8.753   0.859   1.002
24461SOL    HW173341   8.664   0.832   0.978
24461SOL    HW273342   8.806   0.781   0.987
24462SOL     OW73343   8.636   0.525   0.249
24462SOL    HW173344   8.647   0.452   0.310
24462SOL    HW273345   8.597   0.595   0.301
24463SOL     OW73346   7.748   0.180   1.256
24463SOL    HW173347   7.714   0.211   1.340
24463SOL    HW273348   7.759   0.085   1.269
24464SOL     OW73349   7.495   1.313   1.267
24464SOL    HW173350   7.526   1.257   1.339
24464SOL    HW273351   7.499   1.402   1.303
24465SOL     OW73352   8.157   0.629   1.034
24465SOL    HW173353   8.238   0.625   0.983
24465SOL    HW273354   8.126   0.719   1.024
24466SOL     OW73355   9.194   0.966   1.874
24466SOL    HW173356   9.153   0.895   1.824
24466SOL    HW273357   9.130   0.987   1.941
24467SOL     OW73358   7.747   0.058   0.629
24467SOL    HW173359   7.728   0.152   0.627
24467SOL    HW273360   7.760   0.039   0.722
24468SOL     OW73361   9.074   0.398   0.365
24468SOL    HW173362   9.104   0.335   0.431
24468SOL    HW273363   9.041   0.472   0.415
24469SOL     OW73364   8.484   0.764   0.960
24469SOL    HW173365   8.462   0.779   1.052
24469SOL    HW273366   8.456   0.674   0.943
24470SOL     OW73367   8.427   1.565   1.735
24470SOL    HW173368   8.406   1.609   1.653
24470SOL    HW273369   8.467   1.482   1.708
24471SOL     OW73370   9.286   1.494   1.600
24471SOL    HW173371   9.312   1.523   1.513
24471SOL    HW273372   9.365   1.505   1.653
24472SOL     OW73373   7.798   0.913   1.809
24472SOL    HW173374   7.872   0.933   1.865
24472SOL    HW273375   7.830   0.846   1.749
24473SOL     OW73376   8.948   0.302   0.140
24473SOL    HW173377   8.912   0.215   0.154
24473SOL    HW273378   8.984   0.327   0.224
24474SOL     OW73379   8.767   0.810   0.032
24474SOL    HW173380   8.804   0.723   0.040
24474SOL    HW273381   8.830   0.859   9.979
24475SOL     OW73382   8.517   1.354   0.866
24475SOL    HW173383   8.528   1.281   0.805
24475SOL    HW273384   8.570   1.425   0.828
24476SOL     OW73385   7.770   0.815   0.945
24476SOL    HW173386   7.863   0.835   0.944
24476SOL    HW273387   7.765   0.724   0.976
24477SOL     OW73388   7.797   0.543   1.015
24477SOL    HW173389   7.739   0.467   1.012
24477SOL    HW273390   7.866   0.524   0.953
24478SOL     OW73391   8.584   0.406   1.654
24478SOL    HW173392   8.537   0.444   1.728
24478SOL    HW273393   8.672   0.444   1.659
24479SOL     OW73394   8.591   0.208   1.468
24479SOL    HW173395   8.582   0.271   1.539
24479SOL    HW273396   8.645   0.252   1.403
24480SOL     OW73397   7.465   1.291   0.171
24480SOL    HW173398   7.374   1.319   0.156
24480SOL    HW273399   7.456   1.209   0.220
24481SOL     OW73400   7.540   1.770   0.950
24481SOL    HW173401   7.507   1.696   0.900
24481SOL    HW273402   7.627   1.787   0.914
24482SOL     OW73403   7.932   1.572   0.905
24482SOL    HW173404   8.003   1.633   0.925
24482SOL    HW273405   7.974   1.504   0.851
24483SOL     OW73406   8.399   0.784   1.218
24483SOL    HW173407   8.461   0.769   1.289
24483SOL    HW273408   8.320   0.737   1.245
24484SOL     OW73409   7.465   0.523   1.129
24484SOL    HW173410   7.523   0.464   1.082
24484SOL    HW273411   7.509   0.538   1.213
24485SOL     OW73412   7.634   0.556   1.748
24485SOL    HW173413   7.720   0.549   1.706
24485SOL    HW273414   7.587   0.622   1.696
24486SOL     OW73415   8.837   0.921   1.651
24486SOL    HW173416   8.855   1.015   1.647
24486SOL    HW273417   8.829   0.893   1.560
24487SOL     OW73418   8.271   0.585   0.385
24487SOL    HW173419   8.275   0.509   0.327
24487SOL    HW273420   8.192   0.631   0.358
24488SOL     OW73421   9.069   0.604   1.169
24488SOL    HW173422   9.051   0.551   1.247
24488SOL    HW273423   9.157   0.577   1.143
24489SOL     OW73424   7.674   1.540   1.723
24489SOL    HW173425   7.650   1.589   1.802
24489SOL    HW273426   7.686   1.450   1.753
24490SOL     OW73427   8.186   0.450   1.236
24490SOL    HW173428   8.124   0.378   1.225
24490SOL    HW273429   8.166   0.510   1.164
24491SOL     OW73430   8.349   1.681   1.491
24491SOL    HW173431   8.330   1.632   1.410
24491SOL    HW273432   8.354   1.772   1.463
24492SOL     OW73433   7.898   0.484   0.159
24492SOL    HW173434   7.960   0.548   0.195
24492SOL    HW273435   7.813   0.528   0.166
24493SOL     OW73436   7.577   1.151   1.481
24493SOL    HW173437   7.582   1.112   1.568
24493SOL    HW273438   7.598   1.080   1.421
24494SOL     OW73439   8.748   1.036   1.210
24494SOL    HW173440   8.758   0.973   1.138
24494SOL    HW273441   8.695   1.106   1.172
24495SOL     OW73442   8.768   0.829   0.315
24495SOL    HW173443   8.685   0.803   0.356
24495SOL    HW273444   8.752   0.819   0.221
24496SOL     OW73445   9.239   1.723   1.171
24496SOL    HW173446   9.300   1.749   1.102
24496SOL    HW273447   9.205   1.638   1.142
24497SOL     OW73448   8.689   1.734   1.092
24497SOL    HW173449   8.773   1.764   1.057
24497SOL    HW273450   8.703   1.643   1.116
24498SOL     OW73451   7.553   1.251   1.010
24498SOL    HW173452   7.524   1.271   1.099
24498SOL    HW273453   7.482   1.196   0.975
24499SOL     OW73454   8.135   1.683   1.748
24499SOL    HW173455   8.072   1.754   1.736
24499SOL    HW273456   8.208   1.705   1.691
24500SOL     OW73457   8.343   0.116   0.126
24500SOL    HW173458   8.430   0.145   0.098
24500SOL    HW273459   8.360   0.043   0.185
24501SOL     OW73460   9.228   0.199   0.510
24501SOL    HW173461   9.244   0.188   0.416
24501SOL    HW273462   9.261   0.119   0.550
24502SOL     OW73463   8.849   1.570   0.505
24502SOL    HW173464   8.906   1.604   0.437
24502SOL    HW273465   8.796   1.645   0.532
24503SOL     OW73466   7.582   1.807   1.844
24503SOL    HW173467   7.541   1.730   1.886
24503SOL    HW273468   7.632   1.848   1.914
24504SOL     OW73469   8.725   0.938   0.668
24504SOL    HW173470   8.798   0.878   0.682
24504SOL    HW273471   8.762   1.010   0.617
24505SOL     OW73472   8.232   1.280   1.414
24505SOL    HW173473   8.205   1.327   1.493
24505SOL    HW273474   8.158   1.290   1.354
24506SOL     OW73475   8.133   1.638   0.188
24506SOL    HW173476   8.136   1.654   0.094
24506SOL    HW273477   8.077   1.560   0.197
24507SOL     OW73478   9.065   1.729   1.401
24507SOL    HW173479   9.123   1.729   1.325
24507SOL    HW273480   9.049   1.822   1.419
24508SOL     OW73481   9.299   0.151   0.966
24508SOL    HW173482   9.326   0.076   0.913
24508SOL    HW273483   9.213   0.176   0.930
24509SOL     OW73484   7.693   0.321   0.700
24509SOL    HW173485   7.607   0.361   0.688
24509SOL    HW273486   7.702   0.312   0.795
24510SOL     OW73487   8.666   1.567   0.052
24510SOL    HW173488   8.653   1.477   0.082
24510SOL    HW273489   8.678   1.559   9.957
24511SOL     OW73490   8.272   1.011   1.386
24511SOL    HW173491   8.310   1.001   1.299
24511SOL    HW273492   8.261   1.105   1.397
24512SOL     OW73493   8.390   0.927   0.295
24512SOL    HW173494   8.438   0.944   0.215
24512SOL    HW273495   8.437   0.855   0.337
24513SOL     OW73496   8.938   1.608   0.075
24513SOL    HW173497   8.843   1.601   0.081
24513SOL    HW273498   8.956   1.619   9.981
24514SOL     OW73499   7.810   1.313   1.502
24514SOL    HW173500   7.804   1.386   1.441
24514SOL    HW273501   7.732   1.260   1.485
24515SOL     OW73502   9.042   1.289   1.278
24515SOL    HW173503   9.099   1.266   1.351
24515SOL    HW273504   8.985   1.358   1.313
24516SOL     OW73505   8.522   1.121   0.729
24516SOL    HW173506   8.447   1.071   0.760
24516SOL    HW273507   8.585   1.054   0.701
24517SOL     OW73508   8.475   0.260   0.984
24517SOL    HW173509   8.459   0.210   0.903
24517SOL    HW273510   8.469   0.195   1.054
24518SOL     OW73511   8.069   1.485   0.507
24518SOL    HW173512   8.110   1.430   0.440
24518SOL    HW273513   8.000   1.532   0.460
24519SOL     OW73514   9.189   0.363   1.386
24519SOL    HW173515   9.258   0.428   1.375
24519SOL    HW273516   9.210   0.295   1.322
24520SOL     OW73517   7.717   1.315   0.283
24520SOL    HW173518   7.634   1.315   0.236
24520SOL    HW273519   7.701   1.367   0.361
24521SOL     OW73520   7.570   1.047   1.736
24521SOL    HW173521   7.493   1.018   1.785
24521SOL    HW273522   7.641   0.994   1.770
24522SOL     OW73523   8.109   0.229   1.510
24522SOL    HW173524   8.188   0.204   1.461
24522SOL    HW273525   8.140   0.247   1.598
24523SOL     OW73526   7.537   0.441   9.937
24523SOL    HW173527   7.467   0.377   9.929
24523SOL    HW273528   7.612   0.400   9.894
24524SOL     OW73529   8.861   0.856   1.388
24524SOL    HW173530   8.808   0.915   1.334
24524SOL    HW273531   8.949   0.862   1.350
24525SOL     OW73532   8.643   1.311   0.143
24525SOL    HW173533   8.550   1.286   0.136
24525SOL    HW273534   8.661   1.309   0.237
24526SOL     OW73535   8.075   0.830   1.444
24526SOL    HW173536   8.134   0.905   1.431
24526SOL    HW273537   8.134   0.755   1.445
24527SOL     OW73538   8.935   1.801   0.992
24527SOL    HW173539   8.962   1.875   0.938
24527SOL    HW273540   9.017   1.756   1.013
24528SOL     OW73541   8.166   0.541   1.695
24528SOL    HW173542   8.214   0.599   1.754
24528SOL    HW273543   8.181   0.454   1.730
24529SOL     OW73544   8.915   1.183   1.618
24529SOL    HW173545   8.907   1.205   1.711
24529SOL    HW273546   9.005   1.208   1.595
24530SOL     OW73547   7.802   1.747   1.580
24530SOL    HW173548   7.720   1.793   1.562
24530SOL    HW273549   7.775   1.663   1.617
24531SOL     OW73550   9.100   0.876   1.252
24531SOL    HW173551   9.096   0.793   1.205
24531SOL    HW273552   9.087   0.943   1.185
24532SOL     OW73553   8.661   0.337   0.451
24532SOL    HW173554   8.726   0.267   0.437
24532SOL    HW273555   8.693   0.384   0.528
24533SOL     OW73556   8.021   0.715   0.678
24533SOL    HW173557   8.066   0.799   0.667
24533SOL    HW273558   7.956   0.713   0.608
24534SOL     OW73559   9.188   0.355   1.659
24534SOL    HW173560   9.187   0.366   1.564
24534SOL    HW273561   9.109   0.303   1.677
24535SOL     OW73562   9.202   0.919   1.504
24535SOL    HW173563   9.193   1.013   1.517
24535SOL    HW273564   9.176   0.905   1.413
24536SOL     OW73565   8.349   1.414   0.047
24536SOL    HW173566   8.264   1.375   0.027
24536SOL    HW273567   8.340   1.450   0.135
24537SOL     OW73568   8.116   1.768   0.928
24537SOL    HW173569   8.098   1.862   0.919
24537SOL    HW273570   8.211   1.762   0.926
24538SOL     OW73571   8.320   0.976   0.857
24538SOL    HW173572   8.372   0.905   0.893
24538SOL    HW273573   8.275   1.014   0.932
24539SOL     OW73574   8.542   0.964   0.071
24539SOL    HW173575   8.540   1.024   9.996
24539SOL    HW273576   8.618   0.908   0.055
24540SOL     OW73577   9.285   1.559   0.839
24540SOL    HW173578   9.207   1.549   0.784
24540SOL    HW273579   9.271   1.497   0.911
24541SOL     OW73580   7.660   1.286   1.836
24541SOL    HW173581   7.629   1.206   1.793
24541SOL    HW273582   7.601   1.298   1.911
24542SOL     OW73583   7.566   1.219   0.670
24542SOL    HW173584   7.597   1.179   0.752
24542SOL    HW273585   7.626   1.185   0.603
24543SOL     OW73586   8.138   1.418   1.632
24543SOL    HW173587   8.061   1.380   1.674
24543SOL    HW273588   8.144   1.507   1.669
24544SOL     OW73589   9.228   0.136   1.235
24544SOL    HW173590   9.169   0.061   1.225
24544SOL    HW273591   9.265   0.150   1.148
24545SOL     OW73592   7.871   0.426   0.512
24545SOL    HW173593   7.897   0.353   0.457
24545SOL    HW273594   7.818   0.387   0.581
24546SOL     OW73595   9.139   1.482   1.085
24546SOL    HW173596   9.064   1.463   1.030
24546SOL    HW273597   9.139   1.414   1.152
24547SOL     OW73598   7.793   0.582   1.287
24547SOL    HW173599   7.847   0.521   1.338
24547SOL    HW273600   7.808   0.558   1.196
24548SOL     OW73601   8.283   1.596   0.663
24548SOL    HW173602   8.273   1.679   0.615
24548SOL    HW273603   8.208   1.544   0.638
24549SOL     OW73604   8.882   0.237   1.113
24549SOL    HW173605   8.912   0.158   1.158
24549SOL    HW273606   8.832   0.285   1.179
24550SOL     OW73607   8.473   0.040   1.159
24550SOL    HW173608   8.443   9.949   1.158
24550SOL    HW273609   8.567   0.034   1.177
24551SOL     OW73610   8.224   1.327   0.342
24551SOL    HW173611   8.203   1.234   0.348
24551SOL    HW273612   8.309   1.334   0.386
24552SOL     OW73613   8.063   1.570   1.288
24552SOL    HW173614   8.058   1.655   1.333
24552SOL    HW273615   8.153   1.566   1.255
24553SOL     OW73616   8.816   0.046   0.151
24553SOL    HW173617   8.829   0.021   0.060
24553SOL    HW273618   8.770   9.972   0.190
24554SOL     OW73619   8.747   0.474   0.676
24554SOL    HW173620   8.697   0.555   0.674
24554SOL    HW273621   8.738   0.442   0.765
24555SOL     OW73622   9.049   0.225   0.885
24555SOL    HW173623   8.991   0.237   0.960
24555SOL    HW273624   9.044   0.308   0.837
24556SOL     OW73625   7.491   1.042   0.295
24556SOL    HW173626   7.587   1.040   0.295
24556SOL    HW273627   7.466   0.957   0.330
24557SOL     OW73628   8.355   1.681   0.344
24557SOL    HW173629   8.276   1.665   0.292
24557SOL    HW273630   8.330   1.750   0.405
24558SOL     OW73631   7.659   0.635   2.014
24558SOL    HW173632   7.572   0.618   2.051
24558SOL    HW273633   7.648   0.622   1.920
24559SOL     OW73634   7.640   0.321   2.896
24559SOL    HW173635   7.685   0.270   2.963
24559SOL    HW273636   7.571   0.263   2.863
24560SOL     OW73637   7.436   0.409   2.501
24560SOL    HW173638   7.353   0.434   2.543
24560SOL    HW273639   7.414   0.334   2.446
24561SOL     OW73640   8.023   1.308   3.071
24561SOL    HW173641   7.941   1.311   3.022
24561SOL    HW273642   8.040   1.400   3.095
24562SOL     OW73643   9.039   1.524   2.567
24562SOL    HW173644   8.991   1.493   2.644
24562SOL    HW273645   8.972   1.527   2.498
24563SOL     OW73646   8.585   0.706   2.549
24563SOL    HW173647   8.631   0.790   2.538
24563SOL    HW273648   8.535   0.717   2.630
24564SOL     OW73649   9.255   0.584   2.077
24564SOL    HW173650   9.216   0.583   1.989
24564SOL    HW273651   9.211   0.512   2.123
24565SOL     OW73652   8.176   1.131   2.919
24565SOL    HW173653   8.117   1.172   2.984
24565SOL    HW273654   8.217   1.205   2.876
24566SOL     OW73655   8.332   0.738   3.688
24566SOL    HW173656   8.318   0.805   3.755
24566SOL    HW273657   8.350   0.788   3.608
24567SOL     OW73658   8.132   0.981   2.507
24567SOL    HW173659   8.200   0.983   2.575
24567SOL    HW273660   8.066   1.044   2.538
24568SOL     OW73661   8.159   1.150   3.696
24568SOL    HW173662   8.211   1.222   3.731
24568SOL    HW273663   8.084   1.192   3.655
24569SOL     OW73664   7.791   1.397   2.932
24569SOL    HW173665   7.715   1.355   2.892
24569SOL    HW273666   7.827   1.452   2.862
24570SOL     OW73667   8.901   1.507   3.234
24570SOL    HW173668   8.957   1.584   3.246
24570SOL    HW273669   8.830   1.519   3.297
24571SOL     OW73670   7.905   0.402   3.317
24571SOL    HW173671   7.982   0.348   3.336
24571SOL    HW273672   7.831   0.345   3.340
24572SOL     OW73673   9.033   0.458   2.607
24572SOL    HW173674   8.960   0.461   2.544
24572SOL    HW273675   9.018   0.533   2.665
24573SOL     OW73676   7.666   1.728   2.327
24573SOL    HW173677   7.693   1.799   2.385
24573SOL    HW273678   7.740   1.717   2.267
24574SOL     OW73679   8.583   1.342   3.559
24574SOL    HW173680   8.628   1.331   3.642
24574SOL    HW273681   8.530   1.262   3.550
24575SOL     OW73682   7.680   1.457   2.395
24575SOL    HW173683   7.660   1.551   2.398
24575SOL    HW273684   7.631   1.419   2.467
24576SOL     OW73685   7.732   1.090   2.740
24576SOL    HW173686   7.733   1.000   2.774
24576SOL    HW273687   7.677   1.138   2.801
24577SOL     OW73688   8.022   1.804   3.283
24577SOL    HW173689   7.945   1.784   3.337
24577SOL    HW273690   8.054   1.887   3.317
24578SOL     OW73691   8.012   0.988   2.015
24578SOL    HW173692   8.062   1.030   1.946
24578SOL    HW273693   8.052   1.019   2.096
24579SOL     OW73694   8.992   0.126   3.318
24579SOL    HW173695   9.053   0.183   3.272
24579SOL    HW273696   8.979   0.168   3.403
24580SOL     OW73697   7.567   0.663   2.428
24580SOL    HW173698   7.534   0.576   2.450
24580SOL    HW273699   7.562   0.712   2.510
24581SOL     OW73700   9.295   1.744   2.183
24581SOL    HW173701   9.368   1.728   2.243
24581SOL    HW273702   9.305   1.836   2.158
24582SOL     OW73703   7.507   1.580   1.972
24582SOL    HW173704   7.486   1.489   1.991
24582SOL    HW273705   7.476   1.628   2.049
24583SOL     OW73706   9.141   0.927   2.520
24583SOL    HW173707   9.228   0.888   2.510
24583SOL    HW273708   9.128   0.976   2.439
24584SOL     OW73709   9.104   1.105   2.297
24584SOL    HW173710   9.188   1.097   2.253
24584SOL    HW273711   9.119   1.169   2.366
24585SOL     OW73712   7.555   0.752   3.432
24585SOL    HW173713   7.637   0.801   3.431
24585SOL    HW273714   7.487   0.817   3.415
24586SOL     OW73715   8.070   1.398   2.592
24586SOL    HW173716   8.029   1.312   2.597
24586SOL    HW273717   8.055   1.427   2.503
24587SOL     OW73718   8.717   1.226   3.279
24587SOL    HW173719   8.745   1.157   3.219
24587SOL    HW273720   8.780   1.221   3.352
24588SOL     OW73721   8.266   0.034   2.399
24588SOL    HW173722   8.296   0.122   2.377
24588SOL    HW273723   8.170   0.040   2.396
24589SOL     OW73724   7.634   0.957   3.165
24589SOL    HW173725   7.723   0.926   3.148
24589SOL    HW273726   7.583   0.922   3.092
24590SOL     OW73727   8.981   1.016   2.063
24590SOL    HW173728   8.913   0.956   2.093
24590SOL    HW273729   9.023   1.047   2.144
24591SOL     OW73730   8.627   1.822   3.498
24591SOL    HW173731   8.629   1.884   3.425
24591SOL    HW273732   8.644   1.737   3.458
24592SOL     OW73733   7.766   0.258   3.634
24592SOL    HW173734   7.824   0.316   3.683
24592SOL    HW273735   7.684   0.259   3.682
24593SOL     OW73736   8.919   1.418   2.792
24593SOL    HW173737   8.857   1.438   2.861
24593SOL    HW273738   8.902   1.327   2.768
24594SOL     OW73739   9.084   1.799   2.423
24594SOL    HW173740   9.069   1.751   2.342
24594SOL    HW273741   9.087   1.731   2.491
24595SOL     OW73742   8.033   0.710   2.136
24595SOL    HW173743   8.033   0.797   2.096
24595SOL    HW273744   7.968   0.716   2.206
24596SOL     OW73745   8.730   0.390   2.800
24596SOL    HW173746   8.641   0.356   2.808
24596SOL    HW273747   8.783   0.331   2.853
24597SOL     OW73748   9.027   1.674   2.181
24597SOL    HW173749   9.121   1.689   2.170
24597SOL    HW273750   8.995   1.661   2.092
24598SOL     OW73751   8.243   0.614   3.305
24598SOL    HW173752   8.216   0.580   3.390
24598SOL    HW273753   8.219   0.545   3.243
24599SOL     OW73754   8.846   0.491   3.540
24599SOL    HW173755   8.851   0.531   3.627
24599SOL    HW273756   8.894   0.409   3.550
24600SOL     OW73757   8.393   0.880   3.456
24600SOL    HW173758   8.450   0.817   3.411
24600SOL    HW273759   8.344   0.922   3.385
24601SOL     OW73760   8.462   0.416   3.071
24601SOL    HW173761   8.371   0.426   3.099
24601SOL    HW273762   8.457   0.375   2.985
24602SOL     OW73763   8.502   0.704   2.282
24602SOL    HW173764   8.525   0.699   2.375
24602SOL    HW273765   8.417   0.661   2.276
24603SOL     OW73766   7.542   0.825   2.647
24603SOL    HW173767   7.623   0.818   2.696
24603SOL    HW273768   7.495   0.898   2.689
24604SOL     OW73769   7.557   1.879   3.450
24604SOL    HW173770   7.565   1.859   3.543
24604SOL    HW273771   7.471   1.846   3.425
24605SOL     OW73772   8.335   0.361   2.067
24605SOL    HW173773   8.377   0.419   2.003
24605SOL    HW273774   8.339   0.274   2.026
24606SOL     OW73775   9.142   0.563   3.696
24606SOL    HW173776   9.115   0.642   3.649
24606SOL    HW273777   9.163   0.500   3.627
24607SOL     OW73778   8.840   1.151   2.405
24607SOL    HW173779   8.921   1.139   2.355
24607SOL    HW273780   8.788   1.212   2.354
24608SOL     OW73781   7.989   0.221   2.789
24608SOL    HW173782   8.009   0.235   2.881
24608SOL    HW273783   8.000   0.306   2.748
24609SOL     OW73784   8.445   1.456   2.327
24609SOL    HW173785   8.421   1.530   2.272
24609SOL    HW273786   8.415   1.480   2.415
24610SOL     OW73787   7.801   1.816   2.742
24610SOL    HW173788   7.847   1.732   2.746
24610SOL    HW273789   7.868   1.881   2.764
24611SOL     OW73790   9.248   1.053   2.756
24611SOL    HW173791   9.199   1.043   2.675
24611SOL    HW273792   9.181   1.059   2.824
24612SOL     OW73793   8.665   1.544   3.379
24612SOL    HW173794   8.654   1.473   3.442
24612SOL    HW273795   8.598   1.528   3.313
24613SOL     OW73796   7.746   0.956   2.126
24613SOL    HW173797   7.829   0.977   2.082
24613SOL    HW273798   7.725   0.867   2.097
24614SOL     OW73799   8.930   0.764   2.572
24614SOL    HW173800   8.928   0.729   2.661
24614SOL    HW273801   9.008   0.819   2.571
24615SOL     OW73802   7.921   1.284   3.610
24615SOL    HW173803   7.897   1.288   3.517
24615SOL    HW273804   7.837   1.273   3.655
24616SOL     OW73805   8.587   1.776   2.088
24616SOL    HW173806   8.505   1.746   2.127
24616SOL    HW273807   8.607   1.711   2.020
24617SOL     OW73808   7.667   0.265   3.370
24617SOL    HW173809   7.598   0.332   3.372
24617SOL    HW273810   7.690   0.253   3.462
24618SOL     OW73811   9.071   1.392   1.960
24618SOL    HW173812   9.031   1.477   1.945
24618SOL    HW273813   9.004   1.329   1.932
24619SOL     OW73814   7.907   1.741   2.178
24619SOL    HW173815   7.956   1.792   2.242
24619SOL    HW273816   7.974   1.701   2.123
24620SOL     OW73817   8.854   0.163   2.278
24620SOL    HW173818   8.848   0.106   2.202
24620SOL    HW273819   8.944   0.154   2.308
24621SOL     OW73820   7.699   1.788   3.077
24621SOL    HW173821   7.748   1.714   3.111
24621SOL    HW273822   7.686   1.768   2.984
24622SOL     OW73823   8.397   1.702   2.752
24622SOL    HW173824   8.482   1.661   2.766
24622SOL    HW273825   8.357   1.652   2.681
24623SOL     OW73826   7.842   0.689   2.337
24623SOL    HW173827   7.857   0.595   2.348
24623SOL    HW273828   7.749   0.700   2.354
24624SOL     OW73829   8.951   0.227   3.581
24624SOL    HW173830   8.967   0.247   3.674
24624SOL    HW273831   8.873   0.171   3.582
24625SOL     OW73832   8.089   0.104   1.968
24625SOL    HW173833   8.125   0.030   2.016
24625SOL    HW273834   8.027   0.065   1.906
24626SOL     OW73835   8.207   0.266   3.632
24626SOL    HW173836   8.282   0.208   3.621
24626SOL    HW273837   8.159   0.230   3.707
24627SOL     OW73838   8.317   1.527   3.061
24627SOL    HW173839   8.299   1.486   2.977
24627SOL    HW273840   8.384   1.472   3.101
24628SOL     OW73841   8.786   0.593   3.293
24628SOL    HW173842   8.817   0.568   3.380
24628SOL    HW273843   8.817   0.682   3.281
24629SOL     OW73844   8.264   1.377   2.818
24629SOL    HW173845   8.352   1.372   2.779
24629SOL    HW273846   8.206   1.392   2.744
24630SOL     OW73847   8.383   0.520   2.755
24630SOL    HW173848   8.355   0.511   2.664
24630SOL    HW273849   8.406   0.431   2.783
24631SOL     OW73850   7.999   0.061   2.356
24631SOL    HW173851   7.918   0.044   2.403
24631SOL    HW273852   7.977   0.130   2.293
24632SOL     OW73853   8.876   1.209   1.892
24632SOL    HW173854   8.907   1.137   1.947
24632SOL    HW273855   8.791   1.232   1.930
24633SOL     OW73856   7.744   0.070   2.086
24633SOL    HW173857   7.813   0.134   2.106
24633SOL    HW273858   7.776   9.988   2.124
24634SOL     OW73859   8.386   0.271   2.324
24634SOL    HW173860   8.359   0.304   2.238
24634SOL    HW273861   8.480   0.288   2.328
24635SOL     OW73862   8.526   0.693   3.308
24635SOL    HW173863   8.461   0.623   3.315
24635SOL    HW273864   8.610   0.647   3.304
24636SOL     OW73865   8.654   1.587   2.664
24636SOL    HW173866   8.669   1.647   2.591
24636SOL    HW273867   8.728   1.602   2.723
24637SOL     OW73868   7.930   1.161   2.569
24637SOL    HW173869   7.868   1.137   2.638
24637SOL    HW273870   7.880   1.154   2.488
24638SOL     OW73871   8.699   1.792   2.479
24638SOL    HW173872   8.749   1.854   2.426
24638SOL    HW273873   8.628   1.843   2.518
24639SOL     OW73874   8.485   0.518   1.891
24639SOL    HW173875   8.438   0.598   1.868
24639SOL    HW273876   8.543   0.544   1.963
24640SOL     OW73877   7.550   0.537   3.259
24640SOL    HW173878   7.639   0.551   3.226
24640SOL    HW273879   7.536   0.608   3.322
24641SOL     OW73880   8.015   0.237   3.065
24641SOL    HW173881   8.057   0.191   3.138
24641SOL    HW273882   7.921   0.225   3.080
24642SOL     OW73883   8.311   0.474   2.500
24642SOL    HW173884   8.268   0.530   2.435
24642SOL    HW273885   8.333   0.394   2.452
24643SOL     OW73886   8.412   0.062   2.650
24643SOL    HW173887   8.359   0.050   2.572
24643SOL    HW273888   8.423   9.974   2.686
24644SOL     OW73889   8.880   1.154   2.717
24644SOL    HW173890   8.811   1.089   2.726
24644SOL    HW273891   8.895   1.160   2.623
24645SOL     OW73892   8.902   0.624   2.813
24645SOL    HW173893   8.842   0.550   2.819
24645SOL    HW273894   8.957   0.616   2.891
24646SOL     OW73895   9.274   0.796   2.247
24646SOL    HW173896   9.331   0.752   2.310
24646SOL    HW273897   9.263   0.732   2.177
24647SOL     OW73898   7.946   1.424   2.012
24647SOL    HW173899   7.871   1.392   2.062
24647SOL    HW273900   7.943   1.375   1.930
24648SOL     OW73901   9.158   1.269   2.500
24648SOL    HW173902   9.252   1.262   2.517
24648SOL    HW273903   9.136   1.359   2.523
24649SOL     OW73904   8.842   0.577   1.937
24649SOL    HW173905   8.783   0.557   2.009
24649SOL    HW273906   8.929   0.551   1.968
24650SOL     OW73907   7.947   0.250   2.156
24650SOL    HW173908   8.011   0.213   2.096
24650SOL    HW273909   7.926   0.335   2.119
24651SOL     OW73910   9.180   1.245   3.395
24651SOL    HW173911   9.267   1.209   3.381
24651SOL    HW273912   9.196   1.332   3.432
24652SOL     OW73913   8.489   1.356   3.198
24652SOL    HW173914   8.412   1.321   3.242
24652SOL    HW273915   8.563   1.310   3.238
24653SOL     OW73916   9.055   1.635   3.533
24653SOL    HW173917   9.045   1.671   3.445
24653SOL    HW273918   9.133   1.579   3.528
24654SOL     OW73919   8.598   1.239   2.968
24654SOL    HW173920   8.536   1.274   3.032
24654SOL    HW273921   8.565   1.271   2.884
24655SOL     OW73922   9.052   1.091   2.942
24655SOL    HW173923   9.045   1.159   3.009
24655SOL    HW273924   8.983   1.113   2.879
24656SOL     OW73925   8.334   0.162   3.233
24656SOL    HW173926   8.360   0.117   3.152
24656SOL    HW273927   8.417   0.187   3.273
24657SOL     OW73928   8.427   1.115   3.587
24657SOL    HW173929   8.337   1.132   3.614
24657SOL    HW273930   8.423   1.034   3.535
24658SOL     OW73931   8.160   1.063   2.239
24658SOL    HW173932   8.145   1.035   2.330
24658SOL    HW273933   8.234   1.010   2.210
24659SOL     OW73934   7.878   0.839   3.122
24659SOL    HW173935   7.946   0.844   3.189
24659SOL    HW273936   7.844   0.750   3.128
24660SOL     OW73937   8.719   0.374   3.145
24660SOL    HW173938   8.749   0.452   3.193
24660SOL    HW273939   8.630   0.396   3.117
24661SOL     OW73940   7.526   1.569   3.224
24661SOL    HW173941   7.496   1.641   3.168
24661SOL    HW273942   7.621   1.569   3.214
24662SOL     OW73943   7.765   1.133   2.347
24662SOL    HW173944   7.766   1.205   2.283
24662SOL    HW273945   7.762   1.054   2.294
24663SOL     OW73946   8.008   0.492   2.713
24663SOL    HW173947   8.013   0.547   2.635
24663SOL    HW273948   8.067   0.534   2.776
24664SOL     OW73949   8.695   1.355   2.260
24664SOL    HW173950   8.751   1.424   2.294
24664SOL    HW273951   8.607   1.378   2.291
24665SOL     OW73952   8.758   1.469   3.004
24665SOL    HW173953   8.805   1.476   3.087
24665SOL    HW273954   8.707   1.388   3.012
24666SOL     OW73955   9.023   0.627   2.341
24666SOL    HW173956   8.973   0.666   2.412
24666SOL    HW273957   9.072   0.700   2.303
24667SOL     OW73958   7.792   1.533   3.164
24667SOL    HW173959   7.785   1.481   3.084
24667SOL    HW273960   7.886   1.549   3.174
24668SOL     OW73961   7.893   0.728   3.488
24668SOL    HW173962   7.943   0.778   3.423
24668SOL    HW273963   7.945   0.649   3.503
24669SOL     OW73964   9.070   0.786   3.563
24669SOL    HW173965   8.983   0.825   3.553
24669SOL    HW273966   9.121   0.823   3.490
24670SOL     OW73967   8.410   0.077   3.636
24670SOL    HW173968   8.478   0.130   3.678
24670SOL    HW273969   8.452   0.041   3.558
24671SOL     OW73970   7.917   0.021   3.628
24671SOL    HW173971   7.975   0.013   3.552
24671SOL    HW273972   7.869   0.102   3.614
24672SOL     OW73973   8.039   0.881   2.899
24672SOL    HW173974   8.079   0.968   2.903
24672SOL    HW273975   7.982   0.877   2.976
24673SOL     OW73976   8.753   0.859   2.863
24673SOL    HW173977   8.664   0.832   2.840
24673SOL    HW273978   8.806   0.781   2.847
24674SOL     OW73979   8.641   0.530   2.121
24674SOL    HW173980   8.650   0.457   2.182
24674SOL    HW273981   8.600   0.600   2.173
24675SOL     OW73982   7.748   0.180   3.117
24675SOL    HW173983   7.714   0.211   3.201
24675SOL    HW273984   7.759   0.085   3.129
24676SOL     OW73985   7.496   1.312   3.128
24676SOL    HW173986   7.526   1.256   3.200
24676SOL    HW273987   7.500   1.401   3.163
24677SOL     OW73988   8.158   0.629   2.896
24677SOL    HW173989   8.238   0.626   2.843
24677SOL    HW273990   8.127   0.719   2.886
24678SOL     OW73991   9.194   0.966   3.736
24678SOL    HW173992   9.153   0.895   3.686
24678SOL    HW273993   9.130   0.988   3.803
24679SOL     OW73994   7.746   0.064   2.489
24679SOL    HW173995   7.726   0.157   2.491
24679SOL    HW273996   7.760   0.039   2.580
24680SOL     OW73997   9.085   0.398   2.202
24680SOL    HW173998   9.122   0.334   2.262
24680SOL    HW273999   9.055   0.470   2.258
24681SOL     OW74000   8.484   0.763   2.821
24681SOL    HW174001   8.462   0.778   2.913
24681SOL    HW274002   8.456   0.673   2.804
24682SOL     OW74003   8.427   1.565   3.597
24682SOL    HW174004   8.407   1.609   3.514
24682SOL    HW274005   8.467   1.482   3.571
24683SOL     OW74006   9.286   1.494   3.462
24683SOL    HW174007   9.312   1.522   3.375
24683SOL    HW274008   9.365   1.505   3.515
24684SOL     OW74009   7.798   0.913   3.671
24684SOL    HW174010   7.872   0.933   3.727
24684SOL    HW274011   7.830   0.846   3.611
24685SOL     OW74012   8.966   0.279   1.981
24685SOL    HW174013   8.926   0.200   2.019
24685SOL    HW274014   9.011   0.320   2.055
24686SOL     OW74015   8.728   0.821   1.882
24686SOL    HW174016   8.771   0.736   1.891
24686SOL    HW274017   8.763   0.858   1.801
24687SOL     OW74018   8.518   1.353   2.728
24687SOL    HW174019   8.529   1.281   2.667
24687SOL    HW274020   8.570   1.424   2.691
24688SOL     OW74021   7.770   0.816   2.806
24688SOL    HW174022   7.863   0.835   2.804
24688SOL    HW274023   7.764   0.725   2.837
24689SOL     OW74024   7.797   0.543   2.877
24689SOL    HW174025   7.740   0.467   2.873
24689SOL    HW274026   7.867   0.524   2.814
24690SOL     OW74027   8.584   0.406   3.515
24690SOL    HW174028   8.537   0.443   3.590
24690SOL    HW274029   8.672   0.444   3.521
24691SOL     OW74030   8.590   0.208   3.329
24691SOL    HW174031   8.582   0.271   3.400
24691SOL    HW274032   8.645   0.252   3.264
24692SOL     OW74033   7.472   1.303   2.041
24692SOL    HW174034   7.382   1.325   2.016
24692SOL    HW274035   7.465   1.217   2.082
24693SOL     OW74036   7.540   1.770   2.813
24693SOL    HW174037   7.507   1.696   2.762
24693SOL    HW274038   7.627   1.787   2.777
24694SOL     OW74039   7.933   1.570   2.763
24694SOL    HW174040   8.004   1.630   2.785
24694SOL    HW274041   7.973   1.508   2.701
24695SOL     OW74042   8.399   0.784   3.079
24695SOL    HW174043   8.461   0.769   3.151
24695SOL    HW274044   8.320   0.737   3.106
24696SOL     OW74045   7.465   0.522   2.991
24696SOL    HW174046   7.523   0.463   2.944
24696SOL    HW274047   7.509   0.538   3.075
24697SOL     OW74048   7.633   0.556   3.610
24697SOL    HW174049   7.719   0.549   3.568
24697SOL    HW274050   7.587   0.622   3.558
24698SOL     OW74051   8.837   0.921   3.513
24698SOL    HW174052   8.855   1.015   3.509
24698SOL    HW274053   8.829   0.893   3.422
24699SOL     OW74054   8.261   0.580   2.236
24699SOL    HW174055   8.266   0.504   2.178
24699SOL    HW274056   8.184   0.628   2.206
24700SOL     OW74057   9.069   0.604   3.029
24700SOL    HW174058   9.049   0.552   3.107
24700SOL    HW274059   9.157   0.578   3.004
24701SOL     OW74060   7.674   1.540   3.584
24701SOL    HW174061   7.651   1.590   3.662
24701SOL    HW274062   7.686   1.450   3.616
24702SOL     OW74063   8.187   0.450   3.098
24702SOL    HW174064   8.124   0.378   3.087
24702SOL    HW274065   8.167   0.510   3.026
24703SOL     OW74066   8.352   1.680   3.351
24703SOL    HW174067   8.331   1.632   3.271
24703SOL    HW274068   8.356   1.772   3.324
24704SOL     OW74069   7.893   0.488   2.034
24704SOL    HW174070   7.956   0.556   2.059
24704SOL    HW274071   7.808   0.532   2.035
24705SOL     OW74072   7.577   1.151   3.343
24705SOL    HW174073   7.582   1.112   3.430
24705SOL    HW274074   7.598   1.079   3.283
24706SOL     OW74075   8.749   1.035   3.071
24706SOL    HW174076   8.759   0.973   2.999
24706SOL    HW274077   8.696   1.106   3.034
24707SOL     OW74078   8.773   0.861   2.154
24707SOL    HW174079   8.701   0.832   2.210
24707SOL    HW274080   8.742   0.847   2.065
24708SOL     OW74081   9.238   1.723   3.033
24708SOL    HW174082   9.299   1.749   2.964
24708SOL    HW274083   9.205   1.638   3.004
24709SOL     OW74084   8.688   1.734   2.953
24709SOL    HW174085   8.773   1.763   2.919
24709SOL    HW274086   8.703   1.642   2.977
24710SOL     OW74087   7.555   1.248   2.871
24710SOL    HW174088   7.526   1.269   2.960
24710SOL    HW274089   7.484   1.195   2.835
24711SOL     OW74090   8.135   1.683   3.611
24711SOL    HW174091   8.072   1.754   3.598
24711SOL    HW274092   8.208   1.706   3.553
24712SOL     OW74093   9.211   0.188   2.347
24712SOL    HW174094   9.266   0.190   2.269
24712SOL    HW274095   9.244   0.114   2.398
24713SOL     OW74096   8.846   1.570   2.365
24713SOL    HW174097   8.901   1.604   2.295
24713SOL    HW274098   8.791   1.643   2.392
24714SOL     OW74099   7.582   1.805   3.706
24714SOL    HW174100   7.542   1.730   3.748
24714SOL    HW274101   7.632   1.847   3.776
24715SOL     OW74102   8.726   0.937   2.524
24715SOL    HW174103   8.800   0.877   2.537
24715SOL    HW274104   8.762   1.010   2.473
24716SOL     OW74105   8.231   1.280   3.276
24716SOL    HW174106   8.205   1.327   3.355
24716SOL    HW274107   8.157   1.290   3.216
24717SOL     OW74108   8.116   1.636   2.021
24717SOL    HW174109   8.131   1.650   1.927
24717SOL    HW274110   8.064   1.556   2.025
24718SOL     OW74111   9.065   1.729   3.263
24718SOL    HW174112   9.122   1.729   3.187
24718SOL    HW274113   9.049   1.822   3.281
24719SOL     OW74114   9.300   0.150   2.824
24719SOL    HW174115   9.328   0.078   2.766
24719SOL    HW274116   9.214   0.175   2.790
24720SOL     OW74117   7.693   0.324   2.565
24720SOL    HW174118   7.605   0.359   2.547
24720SOL    HW274119   7.697   0.315   2.660
24721SOL     OW74120   8.656   1.589   1.900
24721SOL    HW174121   8.646   1.498   1.928
24721SOL    HW274122   8.586   1.602   1.836
24722SOL     OW74123   8.272   1.011   3.248
24722SOL    HW174124   8.310   1.001   3.161
24722SOL    HW274125   8.261   1.105   3.259
24723SOL     OW74126   8.365   0.913   2.154
24723SOL    HW174127   8.423   0.946   2.085
24723SOL    HW274128   8.417   0.847   2.199
24724SOL     OW74129   8.929   1.648   1.919
24724SOL    HW174130   8.837   1.629   1.901
24724SOL    HW274131   8.970   1.651   1.832
24725SOL     OW74132   7.811   1.313   3.363
24725SOL    HW174133   7.803   1.386   3.303
24725SOL    HW274134   7.732   1.260   3.347
24726SOL     OW74135   9.044   1.290   3.139
24726SOL    HW174136   9.099   1.266   3.213
24726SOL    HW274137   8.986   1.358   3.173
24727SOL     OW74138   8.524   1.120   2.591
24727SOL    HW174139   8.449   1.070   2.622
24727SOL    HW274140   8.586   1.053   2.561
24728SOL     OW74141   8.472   0.256   2.837
24728SOL    HW174142   8.454   0.207   2.756
24728SOL    HW274143   8.468   0.189   2.906
24729SOL     OW74144   8.052   1.487   2.337
24729SOL    HW174145   8.107   1.438   2.276
24729SOL    HW274146   7.971   1.502   2.290
24730SOL     OW74147   9.190   0.361   3.247
24730SOL    HW174148   9.258   0.427   3.236
24730SOL    HW274149   9.210   0.293   3.183
24731SOL     OW74150   7.727   1.341   2.161
24731SOL    HW174151   7.640   1.333   2.122
24731SOL    HW274152   7.713   1.389   2.242
24732SOL     OW74153   7.570   1.047   3.598
24732SOL    HW174154   7.493   1.019   3.647
24732SOL    HW274155   7.642   0.994   3.632
24733SOL     OW74156   8.110   0.229   3.370
24733SOL    HW174157   8.188   0.203   3.322
24733SOL    HW274158   8.141   0.247   3.459
24734SOL     OW74159   7.520   0.336   1.876
24734SOL    HW174160   7.438   0.326   1.827
24734SOL    HW274161   7.556   0.420   1.848
24735SOL     OW74162   8.861   0.856   3.249
24735SOL    HW174163   8.808   0.915   3.195
24735SOL    HW274164   8.949   0.861   3.212
24736SOL     OW74165   7.507   0.201   2.127
24736SOL    HW174166   7.505   0.256   2.049
24736SOL    HW274167   7.585   0.147   2.117
24737SOL     OW74168   8.629   1.322   1.986
24737SOL    HW174169   8.538   1.293   1.985
24737SOL    HW274170   8.652   1.326   2.078
24738SOL     OW74171   8.076   0.830   3.305
24738SOL    HW174172   8.134   0.905   3.293
24738SOL    HW274173   8.134   0.754   3.307
24739SOL     OW74174   8.935   1.802   2.855
24739SOL    HW174175   8.961   1.876   2.800
24739SOL    HW274176   9.017   1.758   2.876
24740SOL     OW74177   8.166   0.541   3.557
24740SOL    HW174178   8.214   0.599   3.616
24740SOL    HW274179   8.181   0.453   3.592
24741SOL     OW74180   8.915   1.183   3.480
24741SOL    HW174181   8.907   1.205   3.573
24741SOL    HW274182   9.005   1.208   3.457
24742SOL     OW74183   7.802   1.747   3.441
24742SOL    HW174184   7.720   1.794   3.424
24742SOL    HW274185   7.775   1.664   3.479
24743SOL     OW74186   9.100   0.876   3.114
24743SOL    HW174187   9.096   0.793   3.067
24743SOL    HW274188   9.088   0.943   3.046
24744SOL     OW74189   8.655   0.338   2.319
24744SOL    HW174190   8.723   0.273   2.304
24744SOL    HW274191   8.685   0.387   2.396
24745SOL     OW74192   8.031   0.717   2.541
24745SOL    HW174193   8.072   0.803   2.529
24745SOL    HW274194   7.965   0.712   2.472
24746SOL     OW74195   9.188   0.355   3.520
24746SOL    HW174196   9.188   0.365   3.425
24746SOL    HW274197   9.109   0.303   3.539
24747SOL     OW74198   9.202   0.918   3.365
24747SOL    HW174199   9.193   1.013   3.379
24747SOL    HW274200   9.176   0.905   3.274
24748SOL     OW74201   8.318   1.357   1.924
24748SOL    HW174202   8.281   1.376   2.010
24748SOL    HW274203   8.329   1.442   1.883
24749SOL     OW74204   8.117   1.766   2.787
24749SOL    HW174205   8.097   1.860   2.780
24749SOL    HW274206   8.212   1.761   2.786
24750SOL     OW74207   8.320   0.978   2.718
24750SOL    HW174208   8.371   0.905   2.754
24750SOL    HW274209   8.275   1.015   2.793
24751SOL     OW74210   8.523   0.988   1.950
24751SOL    HW174211   8.500   1.040   1.873
24751SOL    HW274212   8.595   0.932   1.920
24752SOL     OW74213   9.283   1.557   2.700
24752SOL    HW174214   9.205   1.550   2.644
24752SOL    HW274215   9.263   1.503   2.776
24753SOL     OW74216   7.660   1.286   3.698
24753SOL    HW174217   7.629   1.206   3.655
24753SOL    HW274218   7.601   1.298   3.773
24754SOL     OW74219   7.566   1.224   2.530
24754SOL    HW174220   7.597   1.183   2.610
24754SOL    HW274221   7.624   1.191   2.461
24755SOL     OW74222   8.138   1.419   3.495
24755SOL    HW174223   8.061   1.380   3.537
24755SOL    HW274224   8.144   1.507   3.531
24756SOL     OW74225   9.228   0.135   3.094
24756SOL    HW174226   9.169   0.061   3.084
24756SOL    HW274227   9.266   0.148   3.007
24757SOL     OW74228   7.877   0.427   2.383
24757SOL    HW174229   7.901   0.354   2.327
24757SOL    HW274230   7.821   0.388   2.450
24758SOL     OW74231   9.143   1.481   2.943
24758SOL    HW174232   9.065   1.462   2.891
24758SOL    HW274233   9.144   1.413   3.011
24759SOL     OW74234   7.793   0.582   3.149
24759SOL    HW174235   7.847   0.521   3.199
24759SOL    HW274236   7.808   0.558   3.058
24760SOL     OW74237   8.286   1.584   2.532
24760SOL    HW174238   8.256   1.654   2.474
24760SOL    HW274239   8.211   1.526   2.541
24761SOL     OW74240   8.882   0.237   2.974
24761SOL    HW174241   8.912   0.158   3.018
24761SOL    HW274242   8.832   0.285   3.040
24762SOL     OW74243   8.474   0.039   3.017
24762SOL    HW174244   8.447   9.947   3.018
24762SOL    HW274245   8.567   0.037   3.039
24763SOL     OW74246   8.228   1.332   2.190
24763SOL    HW174247   8.203   1.241   2.203
24763SOL    HW274248   8.308   1.343   2.242
24764SOL     OW74249   8.063   1.570   3.150
24764SOL    HW174250   8.058   1.654   3.196
24764SOL    HW274251   8.153   1.565   3.117
24765SOL     OW74252   8.837   0.030   2.039
24765SOL    HW174253   8.921   9.984   2.046
24765SOL    HW274254   8.771   9.962   2.051
24766SOL     OW74255   8.746   0.477   2.537
24766SOL    HW174256   8.695   0.558   2.537
24766SOL    HW274257   8.738   0.444   2.627
24767SOL     OW74258   9.049   0.225   2.746
24767SOL    HW174259   8.992   0.237   2.822
24767SOL    HW274260   9.045   0.309   2.699
24768SOL     OW74261   7.484   1.051   2.170
24768SOL    HW174262   7.577   1.038   2.150
24768SOL    HW274263   7.452   0.964   2.191
24769SOL     OW74264   8.343   1.675   2.191
24769SOL    HW174265   8.265   1.660   2.139
24769SOL    HW274266   8.318   1.744   2.253
24770SOL     OW74267   7.659   0.635   3.877
24770SOL    HW174268   7.572   0.618   3.913
24770SOL    HW274269   7.648   0.622   3.782
24771SOL     OW74270   7.640   0.321   4.758
24771SOL    HW174271   7.685   0.270   4.825
24771SOL    HW274272   7.571   0.263   4.725
24772SOL     OW74273   7.436   0.409   4.363
24772SOL    HW174274   7.354   0.433   4.405
24772SOL    HW274275   7.414   0.334   4.308
24773SOL     OW74276   8.023   1.308   4.933
24773SOL    HW174277   7.941   1.311   4.884
24773SOL    HW274278   8.040   1.400   4.957
24774SOL     OW74279   9.039   1.524   4.429
24774SOL    HW174280   8.991   1.493   4.506
24774SOL    HW274281   8.972   1.527   4.360
24775SOL     OW74282   8.585   0.706   4.411
24775SOL    HW174283   8.631   0.790   4.400
24775SOL    HW274284   8.535   0.716   4.492
24776SOL     OW74285   9.255   0.584   3.939
24776SOL    HW174286   9.217   0.583   3.851
24776SOL    HW274287   9.211   0.512   3.985
24777SOL     OW74288   8.176   1.132   4.781
24777SOL    HW174289   8.117   1.172   4.846
24777SOL    HW274290   8.217   1.206   4.737
24778SOL     OW74291   8.332   0.738   5.550
24778SOL    HW174292   8.318   0.805   5.617
24778SOL    HW274293   8.350   0.788   5.470
24779SOL     OW74294   8.132   0.981   4.369
24779SOL    HW174295   8.200   0.983   4.437
24779SOL    HW274296   8.066   1.043   4.400
24780SOL     OW74297   8.159   1.150   5.558
24780SOL    HW174298   8.211   1.222   5.593
24780SOL    HW274299   8.084   1.192   5.517
24781SOL     OW74300   7.791   1.397   4.794
24781SOL    HW174301   7.715   1.355   4.754
24781SOL    HW274302   7.827   1.452   4.724
24782SOL     OW74303   8.901   1.507   5.096
24782SOL    HW174304   8.957   1.584   5.108
24782SOL    HW274305   8.830   1.519   5.159
24783SOL     OW74306   7.905   0.402   5.180
24783SOL    HW174307   7.982   0.349   5.198
24783SOL    HW274308   7.831   0.345   5.202
24784SOL     OW74309   9.033   0.458   4.469
24784SOL    HW174310   8.960   0.461   4.407
24784SOL    HW274311   9.018   0.533   4.527
24785SOL     OW74312   7.666   1.728   4.189
24785SOL    HW174313   7.693   1.799   4.247
24785SOL    HW274314   7.740   1.717   4.129
24786SOL     OW74315   8.583   1.342   5.421
24786SOL    HW174316   8.628   1.331   5.504
24786SOL    HW274317   8.530   1.262   5.412
24787SOL     OW74318   7.680   1.457   4.257
24787SOL    HW174319   7.660   1.551   4.260
24787SOL    HW274320   7.630   1.420   4.329
24788SOL     OW74321   7.732   1.090   4.602
24788SOL    HW174322   7.733   1.000   4.635
24788SOL    HW274323   7.677   1.138   4.663
24789SOL     OW74324   8.022   1.803   5.145
24789SOL    HW174325   7.945   1.784   5.199
24789SOL    HW274326   8.055   1.887   5.179
24790SOL     OW74327   8.012   0.988   3.877
24790SOL    HW174328   8.062   1.030   3.808
24790SOL    HW274329   8.052   1.019   3.958
24791SOL     OW74330   8.992   0.126   5.180
24791SOL    HW174331   9.053   0.183   5.134
24791SOL    HW274332   8.979   0.168   5.265
24792SOL     OW74333   7.567   0.662   4.290
24792SOL    HW174334   7.534   0.576   4.312
24792SOL    HW274335   7.562   0.712   4.372
24793SOL     OW74336   9.295   1.744   4.045
24793SOL    HW174337   9.368   1.728   4.105
24793SOL    HW274338   9.305   1.836   4.020
24794SOL     OW74339   7.507   1.580   3.835
24794SOL    HW174340   7.486   1.488   3.854
24794SOL    HW274341   7.475   1.628   3.911
24795SOL     OW74342   9.141   0.927   4.382
24795SOL    HW174343   9.228   0.888   4.372
24795SOL    HW274344   9.127   0.976   4.301
24796SOL     OW74345   9.104   1.105   4.159
24796SOL    HW174346   9.188   1.097   4.115
24796SOL    HW274347   9.119   1.169   4.228
24797SOL     OW74348   7.555   0.751   5.294
24797SOL    HW174349   7.637   0.801   5.293
24797SOL    HW274350   7.487   0.817   5.277
24798SOL     OW74351   8.070   1.398   4.455
24798SOL    HW174352   8.029   1.312   4.459
24798SOL    HW274353   8.055   1.427   4.365
24799SOL     OW74354   8.717   1.226   5.141
24799SOL    HW174355   8.745   1.157   5.081
24799SOL    HW274356   8.780   1.221   5.214
24800SOL     OW74357   8.266   0.034   4.261
24800SOL    HW174358   8.296   0.123   4.239
24800SOL    HW274359   8.170   0.040   4.258
24801SOL     OW74360   7.634   0.957   5.027
24801SOL    HW174361   7.723   0.926   5.010
24801SOL    HW274362   7.583   0.922   4.954
24802SOL     OW74363   8.981   1.016   3.925
24802SOL    HW174364   8.913   0.956   3.955
24802SOL    HW274365   9.023   1.047   4.006
24803SOL     OW74366   8.627   1.822   5.360
24803SOL    HW174367   8.628   1.884   5.287
24803SOL    HW274368   8.644   1.737   5.320
24804SOL     OW74369   7.766   0.258   5.495
24804SOL    HW174370   7.824   0.316   5.545
24804SOL    HW274371   7.684   0.259   5.544
24805SOL     OW74372   8.919   1.418   4.654
24805SOL    HW174373   8.857   1.438   4.723
24805SOL    HW274374   8.902   1.327   4.630
24806SOL     OW74375   9.084   1.799   4.285
24806SOL    HW174376   9.069   1.751   4.204
24806SOL    HW274377   9.087   1.731   4.353
24807SOL     OW74378   8.033   0.710   3.998
24807SOL    HW174379   8.033   0.797   3.958
24807SOL    HW274380   7.968   0.716   4.068
24808SOL     OW74381   8.729   0.390   4.662
24808SOL    HW174382   8.641   0.356   4.670
24808SOL    HW274383   8.783   0.331   4.715
24809SOL     OW74384   9.027   1.674   4.043
24809SOL    HW174385   9.121   1.689   4.032
24809SOL    HW274386   8.995   1.662   3.954
24810SOL     OW74387   8.243   0.614   5.167
24810SOL    HW174388   8.216   0.580   5.253
24810SOL    HW274389   8.219   0.545   5.105
24811SOL     OW74390   8.846   0.491   5.402
24811SOL    HW174391   8.851   0.531   5.489
24811SOL    HW274392   8.895   0.409   5.412
24812SOL     OW74393   8.393   0.880   5.318
24812SOL    HW174394   8.450   0.817   5.273
24812SOL    HW274395   8.344   0.923   5.247
24813SOL     OW74396   8.462   0.416   4.933
24813SOL    HW174397   8.371   0.426   4.961
24813SOL    HW274398   8.457   0.375   4.847
24814SOL     OW74399   8.502   0.704   4.144
24814SOL    HW174400   8.525   0.699   4.237
24814SOL    HW274401   8.417   0.661   4.138
24815SOL     OW74402   7.541   0.825   4.509
24815SOL    HW174403   7.623   0.818   4.558
24815SOL    HW274404   7.495   0.897   4.551
24816SOL     OW74405   7.557   1.879   5.312
24816SOL    HW174406   7.565   1.859   5.405
24816SOL    HW274407   7.471   1.846   5.286
24817SOL     OW74408   8.335   0.361   3.929
24817SOL    HW174409   8.377   0.419   3.865
24817SOL    HW274410   8.337   0.274   3.888
24818SOL     OW74411   9.142   0.563   5.558
24818SOL    HW174412   9.115   0.642   5.511
24818SOL    HW274413   9.163   0.500   5.489
24819SOL     OW74414   8.840   1.151   4.267
24819SOL    HW174415   8.921   1.140   4.216
24819SOL    HW274416   8.788   1.212   4.216
24820SOL     OW74417   7.989   0.220   4.651
24820SOL    HW174418   8.009   0.235   4.743
24820SOL    HW274419   8.000   0.306   4.610
24821SOL     OW74420   8.445   1.456   4.189
24821SOL    HW174421   8.420   1.530   4.134
24821SOL    HW274422   8.415   1.480   4.277
24822SOL     OW74423   7.801   1.816   4.605
24822SOL    HW174424   7.847   1.732   4.609
24822SOL    HW274425   7.868   1.881   4.626
24823SOL     OW74426   9.248   1.052   4.618
24823SOL    HW174427   9.199   1.043   4.537
24823SOL    HW274428   9.181   1.059   4.686
24824SOL     OW74429   8.665   1.544   5.241
24824SOL    HW174430   8.654   1.473   5.304
24824SOL    HW274431   8.598   1.529   5.175
24825SOL     OW74432   7.746   0.956   3.988
24825SOL    HW174433   7.829   0.977   3.944
24825SOL    HW274434   7.725   0.867   3.958
24826SOL     OW74435   8.930   0.764   4.434
24826SOL    HW174436   8.928   0.729   4.523
24826SOL    HW274437   9.008   0.819   4.433
24827SOL     OW74438   7.921   1.284   5.472
24827SOL    HW174439   7.897   1.288   5.379
24827SOL    HW274440   7.837   1.273   5.517
24828SOL     OW74441   8.588   1.776   3.950
24828SOL    HW174442   8.505   1.746   3.989
24828SOL    HW274443   8.607   1.711   3.883
24829SOL     OW74444   7.667   0.265   5.232
24829SOL    HW174445   7.598   0.332   5.233
24829SOL    HW274446   7.690   0.253   5.324
24830SOL     OW74447   9.071   1.391   3.822
24830SOL    HW174448   9.031   1.477   3.808
24830SOL    HW274449   9.004   1.329   3.793
24831SOL     OW74450   7.907   1.741   4.040
24831SOL    HW174451   7.956   1.792   4.104
24831SOL    HW274452   7.974   1.701   3.985
24832SOL     OW74453   8.854   0.163   4.140
24832SOL    HW174454   8.848   0.106   4.064
24832SOL    HW274455   8.944   0.154   4.170
24833SOL     OW74456   7.699   1.788   4.939
24833SOL    HW174457   7.748   1.713   4.973
24833SOL    HW274458   7.686   1.768   4.846
24834SOL     OW74459   8.397   1.702   4.614
24834SOL    HW174460   8.482   1.661   4.628
24834SOL    HW274461   8.357   1.652   4.543
24835SOL     OW74462   7.842   0.689   4.199
24835SOL    HW174463   7.857   0.595   4.210
24835SOL    HW274464   7.749   0.700   4.216
24836SOL     OW74465   8.951   0.227   5.443
24836SOL    HW174466   8.967   0.247   5.536
24836SOL    HW274467   8.873   0.172   5.444
24837SOL     OW74468   8.090   0.105   3.830
24837SOL    HW174469   8.126   0.031   3.878
24837SOL    HW274470   8.028   0.066   3.769
24838SOL     OW74471   8.207   0.266   5.494
24838SOL    HW174472   8.282   0.208   5.483
24838SOL    HW274473   8.159   0.230   5.569
24839SOL     OW74474   8.317   1.527   4.923
24839SOL    HW174475   8.299   1.486   4.839
24839SOL    HW274476   8.384   1.472   4.963
24840SOL     OW74477   8.786   0.593   5.155
24840SOL    HW174478   8.817   0.568   5.242
24840SOL    HW274479   8.817   0.682   5.143
24841SOL     OW74480   8.264   1.377   4.680
24841SOL    HW174481   8.352   1.373   4.641
24841SOL    HW274482   8.206   1.392   4.605
24842SOL     OW74483   8.383   0.520   4.617
24842SOL    HW174484   8.355   0.511   4.526
24842SOL    HW274485   8.406   0.431   4.645
24843SOL     OW74486   7.999   0.061   4.218
24843SOL    HW174487   7.918   0.044   4.265
24843SOL    HW274488   7.977   0.130   4.155
24844SOL     OW74489   8.875   1.209   3.754
24844SOL    HW174490   8.907   1.137   3.809
24844SOL    HW274491   8.790   1.232   3.792
24845SOL     OW74492   7.744   0.070   3.947
24845SOL    HW174493   7.813   0.133   3.968
24845SOL    HW274494   7.775   9.988   3.985
24846SOL     OW74495   8.386   0.271   4.186
24846SOL    HW174496   8.360   0.304   4.100
24846SOL    HW274497   8.480   0.288   4.190
24847SOL     OW74498   8.526   0.693   5.170
24847SOL    HW174499   8.461   0.623   5.177
24847SOL    HW274500   8.610   0.647   5.166
24848SOL     OW74501   8.654   1.587   4.526
24848SOL    HW174502   8.668   1.647   4.454
24848SOL    HW274503   8.728   1.602   4.585
24849SOL     OW74504   7.930   1.161   4.431
24849SOL    HW174505   7.868   1.137   4.500
24849SOL    HW274506   7.880   1.154   4.350
24850SOL     OW74507   8.699   1.792   4.341
24850SOL    HW174508   8.749   1.854   4.288
24850SOL    HW274509   8.628   1.843   4.380
24851SOL     OW74510   8.485   0.518   3.753
24851SOL    HW174511   8.438   0.598   3.730
24851SOL    HW274512   8.543   0.544   3.825
24852SOL     OW74513   7.550   0.537   5.122
24852SOL    HW174514   7.639   0.550   5.088
24852SOL    HW274515   7.536   0.608   5.184
24853SOL     OW74516   8.015   0.237   4.927
24853SOL    HW174517   8.057   0.191   4.999
24853SOL    HW274518   7.921   0.225   4.942
24854SOL     OW74519   8.311   0.474   4.362
24854SOL    HW174520   8.268   0.530   4.297
24854SOL    HW274521   8.333   0.394   4.314
24855SOL     OW74522   8.412   0.062   4.512
24855SOL    HW174523   8.359   0.050   4.434
24855SOL    HW274524   8.423   9.974   4.548
24856SOL     OW74525   8.880   1.154   4.579
24856SOL    HW174526   8.810   1.089   4.588
24856SOL    HW274527   8.895   1.160   4.485
24857SOL     OW74528   8.902   0.624   4.675
24857SOL    HW174529   8.842   0.550   4.681
24857SOL    HW274530   8.957   0.616   4.753
24858SOL     OW74531   9.275   0.796   4.109
24858SOL    HW174532   9.331   0.752   4.172
24858SOL    HW274533   9.264   0.732   4.039
24859SOL     OW74534   7.946   1.424   3.874
24859SOL    HW174535   7.871   1.392   3.924
24859SOL    HW274536   7.942   1.375   3.792
24860SOL     OW74537   9.158   1.269   4.362
24860SOL    HW174538   9.252   1.263   4.379
24860SOL    HW274539   9.135   1.359   4.385
24861SOL     OW74540   8.842   0.577   3.799
24861SOL    HW174541   8.783   0.557   3.871
24861SOL    HW274542   8.928   0.550   3.830
24862SOL     OW74543   7.948   0.250   4.019
24862SOL    HW174544   8.012   0.213   3.958
24862SOL    HW274545   7.926   0.335   3.982
24863SOL     OW74546   9.180   1.245   5.257
24863SOL    HW174547   9.267   1.209   5.243
24863SOL    HW274548   9.196   1.332   5.294
24864SOL     OW74549   8.489   1.356   5.059
24864SOL    HW174550   8.412   1.321   5.104
24864SOL    HW274551   8.563   1.310   5.100
24865SOL     OW74552   9.056   1.635   5.395
24865SOL    HW174553   9.045   1.671   5.307
24865SOL    HW274554   9.133   1.579   5.390
24866SOL     OW74555   8.598   1.239   4.830
24866SOL    HW174556   8.536   1.274   4.894
24866SOL    HW274557   8.565   1.271   4.745
24867SOL     OW74558   9.052   1.091   4.803
24867SOL    HW174559   9.045   1.159   4.871
24867SOL    HW274560   8.983   1.113   4.741
24868SOL     OW74561   8.335   0.162   5.095
24868SOL    HW174562   8.360   0.117   5.014
24868SOL    HW274563   8.418   0.187   5.135
24869SOL     OW74564   8.427   1.115   5.449
24869SOL    HW174565   8.337   1.132   5.476
24869SOL    HW274566   8.423   1.034   5.397
24870SOL     OW74567   8.160   1.063   4.101
24870SOL    HW174568   8.145   1.035   4.192
24870SOL    HW274569   8.234   1.010   4.072
24871SOL     OW74570   7.878   0.839   4.984
24871SOL    HW174571   7.946   0.844   5.051
24871SOL    HW274572   7.844   0.750   4.990
24872SOL     OW74573   8.719   0.374   5.007
24872SOL    HW174574   8.749   0.452   5.055
24872SOL    HW274575   8.630   0.396   4.979
24873SOL     OW74576   7.526   1.569   5.086
24873SOL    HW174577   7.496   1.641   5.030
24873SOL    HW274578   7.621   1.569   5.076
24874SOL     OW74579   7.765   1.133   4.209
24874SOL    HW174580   7.766   1.205   4.145
24874SOL    HW274581   7.762   1.054   4.156
24875SOL     OW74582   8.008   0.492   4.575
24875SOL    HW174583   8.013   0.547   4.497
24875SOL    HW274584   8.067   0.533   4.638
24876SOL     OW74585   8.695   1.355   4.122
24876SOL    HW174586   8.751   1.424   4.156
24876SOL    HW274587   8.607   1.378   4.153
24877SOL     OW74588   8.758   1.469   4.866
24877SOL    HW174589   8.805   1.476   4.949
24877SOL    HW274590   8.707   1.388   4.874
24878SOL     OW74591   9.023   0.627   4.203
24878SOL    HW174592   8.973   0.665   4.274
24878SOL    HW274593   9.071   0.700   4.165
24879SOL     OW74594   7.792   1.533   5.026
24879SOL    HW174595   7.785   1.480   4.946
24879SOL    HW274596   7.886   1.549   5.036
24880SOL     OW74597   7.892   0.728   5.349
24880SOL    HW174598   7.943   0.778   5.285
24880SOL    HW274599   7.944   0.649   5.364
24881SOL     OW74600   9.070   0.786   5.424
24881SOL    HW174601   8.983   0.825   5.415
24881SOL    HW274602   9.121   0.823   5.352
24882SOL     OW74603   8.410   0.077   5.498
24882SOL    HW174604   8.478   0.130   5.540
24882SOL    HW274605   8.452   0.041   5.420
24883SOL     OW74606   7.917   0.020   5.491
24883SOL    HW174607   7.975   0.012   5.415
24883SOL    HW274608   7.870   0.102   5.475
24884SOL     OW74609   8.039   0.881   4.761
24884SOL    HW174610   8.079   0.968   4.765
24884SOL    HW274611   7.983   0.877   4.838
24885SOL     OW74612   8.753   0.859   4.725
24885SOL    HW174613   8.664   0.832   4.702
24885SOL    HW274614   8.806   0.781   4.709
24886SOL     OW74615   8.641   0.530   3.983
24886SOL    HW174616   8.650   0.457   4.044
24886SOL    HW274617   8.600   0.600   4.035
24887SOL     OW74618   7.748   0.180   4.979
24887SOL    HW174619   7.714   0.211   5.063
24887SOL    HW274620   7.759   0.085   4.991
24888SOL     OW74621   7.496   1.312   4.990
24888SOL    HW174622   7.526   1.256   5.062
24888SOL    HW274623   7.499   1.401   5.025
24889SOL     OW74624   8.158   0.629   4.758
24889SOL    HW174625   8.238   0.626   4.705
24889SOL    HW274626   8.127   0.719   4.748
24890SOL     OW74627   9.194   0.966   5.598
24890SOL    HW174628   9.153   0.895   5.548
24890SOL    HW274629   9.130   0.987   5.665
24891SOL     OW74630   7.746   0.064   4.351
24891SOL    HW174631   7.726   0.157   4.354
24891SOL    HW274632   7.760   0.039   4.442
24892SOL     OW74633   9.085   0.398   4.064
24892SOL    HW174634   9.122   0.334   4.124
24892SOL    HW274635   9.055   0.470   4.120
24893SOL     OW74636   8.484   0.763   4.683
24893SOL    HW174637   8.462   0.778   4.775
24893SOL    HW274638   8.456   0.673   4.666
24894SOL     OW74639   8.427   1.565   5.459
24894SOL    HW174640   8.407   1.609   5.376
24894SOL    HW274641   8.467   1.482   5.432
24895SOL     OW74642   9.286   1.494   5.324
24895SOL    HW174643   9.312   1.522   5.237
24895SOL    HW274644   9.365   1.505   5.377
24896SOL     OW74645   7.798   0.913   5.533
24896SOL    HW174646   7.872   0.933   5.589
24896SOL    HW274647   7.830   0.846   5.473
24897SOL     OW74648   8.967   0.279   3.843
24897SOL    HW174649   8.926   0.200   3.881
24897SOL    HW274650   9.011   0.321   3.917
24898SOL     OW74651   8.728   0.821   3.744
24898SOL    HW174652   8.771   0.736   3.753
24898SOL    HW274653   8.763   0.857   3.663
24899SOL     OW74654   8.518   1.353   4.590
24899SOL    HW174655   8.529   1.281   4.529
24899SOL    HW274656   8.570   1.424   4.553
24900SOL     OW74657   7.770   0.816   4.668
24900SOL    HW174658   7.863   0.835   4.666
24900SOL    HW274659   7.764   0.725   4.699
24901SOL     OW74660   7.797   0.543   4.739
24901SOL    HW174661   7.740   0.467   4.735
24901SOL    HW274662   7.867   0.524   4.676
24902SOL     OW74663   8.584   0.406   5.378
24902SOL    HW174664   8.537   0.443   5.452
24902SOL    HW274665   8.672   0.444   5.384
24903SOL     OW74666   8.590   0.207   5.191
24903SOL    HW174667   8.582   0.270   5.263
24903SOL    HW274668   8.645   0.252   5.126
24904SOL     OW74669   7.472   1.303   3.904
24904SOL    HW174670   7.382   1.325   3.878
24904SOL    HW274671   7.465   1.216   3.944
24905SOL     OW74672   7.540   1.770   4.675
24905SOL    HW174673   7.507   1.696   4.624
24905SOL    HW274674   7.627   1.787   4.639
24906SOL     OW74675   7.933   1.570   4.625
24906SOL    HW174676   8.004   1.630   4.647
24906SOL    HW274677   7.973   1.508   4.564
24907SOL     OW74678   8.399   0.784   4.941
24907SOL    HW174679   8.461   0.770   5.012
24907SOL    HW274680   8.320   0.737   4.967
24908SOL     OW74681   7.465   0.522   4.853
24908SOL    HW174682   7.523   0.463   4.806
24908SOL    HW274683   7.509   0.538   4.937
24909SOL     OW74684   7.633   0.556   5.472
24909SOL    HW174685   7.719   0.549   5.430
24909SOL    HW274686   7.587   0.622   5.420
24910SOL     OW74687   8.837   0.921   5.375
24910SOL    HW174688   8.855   1.015   5.371
24910SOL    HW274689   8.829   0.893   5.284
24911SOL     OW74690   8.261   0.580   4.098
24911SOL    HW174691   8.267   0.505   4.040
24911SOL    HW274692   8.184   0.628   4.068
24912SOL     OW74693   9.069   0.605   4.891
24912SOL    HW174694   9.049   0.552   4.969
24912SOL    HW274695   9.157   0.578   4.866
24913SOL     OW74696   7.674   1.540   5.446
24913SOL    HW174697   7.651   1.590   5.524
24913SOL    HW274698   7.686   1.450   5.478
24914SOL     OW74699   8.187   0.450   4.960
24914SOL    HW174700   8.124   0.378   4.949
24914SOL    HW274701   8.167   0.511   4.888
24915SOL     OW74702   8.353   1.680   5.213
24915SOL    HW174703   8.331   1.632   5.132
24915SOL    HW274704   8.356   1.771   5.186
24916SOL     OW74705   7.893   0.488   3.896
24916SOL    HW174706   7.956   0.556   3.921
24916SOL    HW274707   7.808   0.532   3.897
24917SOL     OW74708   7.577   1.151   5.205
24917SOL    HW174709   7.582   1.112   5.292
24917SOL    HW274710   7.598   1.080   5.145
24918SOL     OW74711   8.749   1.035   4.933
24918SOL    HW174712   8.759   0.973   4.861
24918SOL    HW274713   8.696   1.106   4.896
24919SOL     OW74714   8.773   0.861   4.016
24919SOL    HW174715   8.701   0.832   4.072
24919SOL    HW274716   8.743   0.847   3.927
24920SOL     OW74717   9.238   1.723   4.895
24920SOL    HW174718   9.299   1.749   4.826
24920SOL    HW274719   9.205   1.638   4.866
24921SOL     OW74720   8.689   1.734   4.815
24921SOL    HW174721   8.773   1.763   4.781
24921SOL    HW274722   8.703   1.642   4.839
24922SOL     OW74723   7.554   1.248   4.733
24922SOL    HW174724   7.526   1.269   4.822
24922SOL    HW274725   7.484   1.194   4.697
24923SOL     OW74726   8.135   1.683   5.473
24923SOL    HW174727   8.071   1.754   5.460
24923SOL    HW274728   8.208   1.706   5.415
24924SOL     OW74729   9.211   0.188   4.209
24924SOL    HW174730   9.266   0.190   4.131
24924SOL    HW274731   9.244   0.114   4.260
24925SOL     OW74732   8.846   1.570   4.227
24925SOL    HW174733   8.901   1.604   4.157
24925SOL    HW274734   8.791   1.643   4.254
24926SOL     OW74735   7.582   1.805   5.568
24926SOL    HW174736   7.541   1.730   5.610
24926SOL    HW274737   7.632   1.847   5.638
24927SOL     OW74738   8.726   0.937   4.386
24927SOL    HW174739   8.800   0.877   4.399
24927SOL    HW274740   8.762   1.010   4.335
24928SOL     OW74741   8.231   1.280   5.138
24928SOL    HW174742   8.205   1.327   5.217
24928SOL    HW274743   8.157   1.290   5.078
24929SOL     OW74744   8.116   1.636   3.883
24929SOL    HW174745   8.131   1.650   3.790
24929SOL    HW274746   8.064   1.555   3.887
24930SOL     OW74747   9.065   1.729   5.125
24930SOL    HW174748   9.122   1.729   5.049
24930SOL    HW274749   9.049   1.822   5.143
24931SOL     OW74750   9.300   0.149   4.686
24931SOL    HW174751   9.328   0.078   4.628
24931SOL    HW274752   9.214   0.175   4.652
24932SOL     OW74753   7.693   0.323   4.427
24932SOL    HW174754   7.606   0.359   4.409
24932SOL    HW274755   7.697   0.315   4.522
24933SOL     OW74756   8.656   1.589   3.762
24933SOL    HW174757   8.646   1.498   3.790
24933SOL    HW274758   8.587   1.602   3.697
24934SOL     OW74759   8.272   1.011   5.110
24934SOL    HW174760   8.310   1.001   5.023
24934SOL    HW274761   8.261   1.105   5.121
24935SOL     OW74762   8.365   0.913   4.016
24935SOL    HW174763   8.423   0.946   3.947
24935SOL    HW274764   8.417   0.847   4.061
24936SOL     OW74765   8.929   1.648   3.781
24936SOL    HW174766   8.837   1.628   3.763
24936SOL    HW274767   8.970   1.651   3.694
24937SOL     OW74768   7.811   1.313   5.225
24937SOL    HW174769   7.803   1.386   5.165
24937SOL    HW274770   7.732   1.260   5.209
24938SOL     OW74771   9.044   1.290   5.001
24938SOL    HW174772   9.100   1.266   5.075
24938SOL    HW274773   8.986   1.358   5.035
24939SOL     OW74774   8.524   1.120   4.453
24939SOL    HW174775   8.449   1.070   4.484
24939SOL    HW274776   8.586   1.053   4.423
24940SOL     OW74777   8.472   0.256   4.699
24940SOL    HW174778   8.454   0.207   4.618
24940SOL    HW274779   8.468   0.189   4.768
24941SOL     OW74780   8.052   1.487   4.200
24941SOL    HW174781   8.107   1.438   4.138
24941SOL    HW274782   7.971   1.503   4.152
24942SOL     OW74783   9.190   0.361   5.110
24942SOL    HW174784   9.258   0.427   5.098
24942SOL    HW274785   9.210   0.293   5.045
24943SOL     OW74786   7.727   1.341   4.023
24943SOL    HW174787   7.640   1.333   3.984
24943SOL    HW274788   7.713   1.389   4.104
24944SOL     OW74789   7.570   1.047   5.460
24944SOL    HW174790   7.493   1.019   5.509
24944SOL    HW274791   7.642   0.994   5.494
24945SOL     OW74792   8.110   0.230   5.232
24945SOL    HW174793   8.188   0.204   5.184
24945SOL    HW274794   8.141   0.247   5.321
24946SOL     OW74795   7.520   0.336   3.738
24946SOL    HW174796   7.438   0.327   3.689
24946SOL    HW274797   7.556   0.420   3.710
24947SOL     OW74798   8.861   0.856   5.111
24947SOL    HW174799   8.808   0.915   5.057
24947SOL    HW274800   8.949   0.861   5.074
24948SOL     OW74801   7.507   0.201   3.989
24948SOL    HW174802   7.505   0.256   3.910
24948SOL    HW274803   7.585   0.147   3.978
24949SOL     OW74804   8.629   1.323   3.847
24949SOL    HW174805   8.537   1.294   3.847
24949SOL    HW274806   8.652   1.326   3.940
24950SOL     OW74807   8.076   0.830   5.167
24950SOL    HW174808   8.134   0.905   5.155
24950SOL    HW274809   8.135   0.754   5.169
24951SOL     OW74810   8.935   1.802   4.717
24951SOL    HW174811   8.960   1.876   4.662
24951SOL    HW274812   9.017   1.758   4.738
24952SOL     OW74813   8.166   0.541   5.419
24952SOL    HW174814   8.214   0.599   5.478
24952SOL    HW274815   8.181   0.453   5.454
24953SOL     OW74816   8.915   1.183   5.342
24953SOL    HW174817   8.907   1.205   5.435
24953SOL    HW274818   9.005   1.208   5.319
24954SOL     OW74819   7.802   1.747   5.303
24954SOL    HW174820   7.720   1.794   5.286
24954SOL    HW274821   7.774   1.664   5.341
24955SOL     OW74822   9.100   0.876   4.976
24955SOL    HW174823   9.096   0.793   4.929
24955SOL    HW274824   9.088   0.943   4.908
24956SOL     OW74825   8.655   0.338   4.181
24956SOL    HW174826   8.723   0.273   4.166
24956SOL    HW274827   8.685   0.387   4.258
24957SOL     OW74828   8.031   0.717   4.403
24957SOL    HW174829   8.072   0.803   4.391
24957SOL    HW274830   7.965   0.712   4.334
24958SOL     OW74831   9.188   0.355   5.382
24958SOL    HW174832   9.188   0.365   5.287
24958SOL    HW274833   9.109   0.303   5.401
24959SOL     OW74834   9.202   0.919   5.227
24959SOL    HW174835   9.193   1.013   5.241
24959SOL    HW274836   9.176   0.905   5.136
24960SOL     OW74837   8.319   1.357   3.787
24960SOL    HW174838   8.281   1.375   3.873
24960SOL    HW274839   8.329   1.443   3.746
24961SOL     OW74840   8.117   1.766   4.650
24961SOL    HW174841   8.097   1.860   4.642
24961SOL    HW274842   8.212   1.761   4.648
24962SOL     OW74843   8.320   0.978   4.580
24962SOL    HW174844   8.371   0.905   4.616
24962SOL    HW274845   8.275   1.015   4.655
24963SOL     OW74846   8.523   0.987   3.812
24963SOL    HW174847   8.500   1.040   3.736
24963SOL    HW274848   8.595   0.932   3.782
24964SOL     OW74849   9.283   1.558   4.562
24964SOL    HW174850   9.205   1.550   4.506
24964SOL    HW274851   9.262   1.504   4.639
24965SOL     OW74852   7.660   1.286   5.560
24965SOL    HW174853   7.629   1.206   5.517
24965SOL    HW274854   7.601   1.298   5.635
24966SOL     OW74855   7.565   1.224   4.391
24966SOL    HW174856   7.597   1.182   4.472
24966SOL    HW274857   7.624   1.191   4.323
24967SOL     OW74858   8.138   1.419   5.357
24967SOL    HW174859   8.061   1.380   5.399
24967SOL    HW274860   8.144   1.507   5.393
24968SOL     OW74861   9.228   0.135   4.956
24968SOL    HW174862   9.169   0.061   4.946
24968SOL    HW274863   9.266   0.148   4.869
24969SOL     OW74864   7.877   0.427   4.245
24969SOL    HW174865   7.901   0.354   4.189
24969SOL    HW274866   7.821   0.388   4.312
24970SOL     OW74867   9.143   1.481   4.805
24970SOL    HW174868   9.065   1.461   4.753
24970SOL    HW274869   9.144   1.413   4.873
24971SOL     OW74870   7.793   0.582   5.011
24971SOL    HW174871   7.847   0.521   5.062
24971SOL    HW274872   7.808   0.558   4.920
24972SOL     OW74873   8.286   1.585   4.394
24972SOL    HW174874   8.256   1.655   4.336
24972SOL    HW274875   8.210   1.526   4.402
24973SOL     OW74876   8.882   0.237   4.836
24973SOL    HW174877   8.912   0.158   4.880
24973SOL    HW274878   8.832   0.285   4.902
24974SOL     OW74879   8.474   0.039   4.879
24974SOL    HW174880   8.447   9.947   4.879
24974SOL    HW274881   8.567   0.037   4.901
24975SOL     OW74882   8.228   1.332   4.052
24975SOL    HW174883   8.203   1.241   4.065
24975SOL    HW274884   8.308   1.343   4.104
24976SOL     OW74885   8.063   1.570   5.012
24976SOL    HW174886   8.059   1.654   5.058
24976SOL    HW274887   8.153   1.565   4.979
24977SOL     OW74888   8.837   0.030   3.901
24977SOL    HW174889   8.921   9.984   3.908
24977SOL    HW274890   8.771   9.962   3.913
24978SOL     OW74891   8.746   0.477   4.399
24978SOL    HW174892   8.695   0.558   4.399
24978SOL    HW274893   8.738   0.444   4.489
24979SOL     OW74894   9.049   0.226   4.608
24979SOL    HW174895   8.992   0.238   4.684
24979SOL    HW274896   9.045   0.309   4.561
24980SOL     OW74897   7.484   1.051   4.032
24980SOL    HW174898   7.577   1.038   4.013
24980SOL    HW274899   7.452   0.963   4.053
24981SOL     OW74900   8.343   1.675   4.053
24981SOL    HW174901   8.265   1.660   4.001
24981SOL    HW274902   8.318   1.744   4.115
24982SOL     OW74903   7.659   0.635   5.739
24982SOL    HW174904   7.572   0.619   5.775
24982SOL    HW274905   7.648   0.622   5.644
24983SOL     OW74906   7.640   0.321   6.620
24983SOL    HW174907   7.685   0.270   6.687
24983SOL    HW274908   7.571   0.263   6.587
24984SOL     OW74909   7.436   0.409   6.225
24984SOL    HW174910   7.354   0.433   6.267
24984SOL    HW274911   7.414   0.334   6.170
24985SOL     OW74912   8.023   1.308   6.795
24985SOL    HW174913   7.941   1.311   6.746
24985SOL    HW274914   8.040   1.400   6.819
24986SOL     OW74915   9.039   1.524   6.291
24986SOL    HW174916   8.991   1.493   6.368
24986SOL    HW274917   8.972   1.527   6.222
24987SOL     OW74918   8.585   0.706   6.273
24987SOL    HW174919   8.631   0.790   6.262
24987SOL    HW274920   8.535   0.716   6.354
24988SOL     OW74921   9.255   0.584   5.801
24988SOL    HW174922   9.217   0.583   5.713
24988SOL    HW274923   9.211   0.512   5.847
24989SOL     OW74924   8.176   1.132   6.644
24989SOL    HW174925   8.117   1.172   6.708
24989SOL    HW274926   8.217   1.206   6.599
24990SOL     OW74927   8.332   0.738   7.412
24990SOL    HW174928   8.318   0.805   7.479
24990SOL    HW274929   8.350   0.788   7.332
24991SOL     OW74930   8.132   0.981   6.231
24991SOL    HW174931   8.200   0.983   6.299
24991SOL    HW274932   8.066   1.043   6.262
24992SOL     OW74933   8.159   1.150   7.420
24992SOL    HW174934   8.211   1.222   7.455
24992SOL    HW274935   8.084   1.192   7.379
24993SOL     OW74936   7.791   1.397   6.656
24993SOL    HW174937   7.715   1.355   6.616
24993SOL    HW274938   7.827   1.452   6.586
24994SOL     OW74939   8.901   1.507   6.958
24994SOL    HW174940   8.957   1.584   6.970
24994SOL    HW274941   8.830   1.519   7.021
24995SOL     OW74942   7.905   0.402   7.042
24995SOL    HW174943   7.982   0.349   7.060
24995SOL    HW274944   7.831   0.345   7.064
24996SOL     OW74945   9.033   0.458   6.331
24996SOL    HW174946   8.960   0.461   6.269
24996SOL    HW274947   9.018   0.533   6.388
24997SOL     OW74948   7.666   1.728   6.050
24997SOL    HW174949   7.693   1.799   6.109
24997SOL    HW274950   7.740   1.717   5.990
24998SOL     OW74951   8.583   1.342   7.283
24998SOL    HW174952   8.628   1.331   7.366
24998SOL    HW274953   8.530   1.262   7.274
24999SOL     OW74954   7.680   1.457   6.119
24999SOL    HW174955   7.660   1.551   6.122
24999SOL    HW274956   7.631   1.420   6.191
25000SOL     OW74957   7.732   1.090   6.464
25000SOL    HW174958   7.733   1.000   6.498
25000SOL    HW274959   7.677   1.138   6.525
25001SOL     OW74960   8.022   1.804   7.007
25001SOL    HW174961   7.945   1.784   7.061
25001SOL    HW274962   8.054   1.887   7.041
25002SOL     OW74963   8.012   0.988   5.739
25002SOL    HW174964   8.062   1.030   5.670
25002SOL    HW274965   8.052   1.019   5.820
25003SOL     OW74966   8.992   0.125   7.042
25003SOL    HW174967   9.053   0.183   6.996
25003SOL    HW274968   8.979   0.168   7.127
25004SOL     OW74969   7.567   0.663   6.152
25004SOL    HW174970   7.534   0.576   6.174
25004SOL    HW274971   7.562   0.712   6.234
25005SOL     OW74972   9.295   1.744   5.907
25005SOL    HW174973   9.368   1.728   5.967
25005SOL    HW274974   9.305   1.836   5.882
25006SOL     OW74975   7.506   1.580   5.697
25006SOL    HW174976   7.486   1.488   5.716
25006SOL    HW274977   7.475   1.628   5.773
25007SOL     OW74978   9.141   0.927   6.244
25007SOL    HW174979   9.228   0.888   6.234
25007SOL    HW274980   9.127   0.976   6.163
25008SOL     OW74981   9.104   1.105   6.021
25008SOL    HW174982   9.188   1.097   5.977
25008SOL    HW274983   9.119   1.169   6.090
25009SOL     OW74984   7.555   0.751   7.156
25009SOL    HW174985   7.637   0.801   7.155
25009SOL    HW274986   7.487   0.817   7.139
25010SOL     OW74987   8.070   1.398   6.317
25010SOL    HW174988   8.029   1.311   6.321
25010SOL    HW274989   8.055   1.427   6.227
25011SOL     OW74990   8.717   1.226   7.003
25011SOL    HW174991   8.744   1.157   6.943
25011SOL    HW274992   8.780   1.221   7.076
25012SOL     OW74993   8.266   0.034   6.124
25012SOL    HW174994   8.296   0.123   6.102
25012SOL    HW274995   8.170   0.040   6.120
25013SOL     OW74996   7.634   0.957   6.889
25013SOL    HW174997   7.723   0.926   6.872
25013SOL    HW274998   7.583   0.922   6.816
25014SOL     OW74999   8.981   1.016   5.787
25014SOL    HW175000   8.913   0.956   5.817
25014SOL    HW275001   9.023   1.047   5.868
25015SOL     OW75002   8.628   1.822   7.222
25015SOL    HW175003   8.629   1.884   7.149
25015SOL    HW275004   8.644   1.737   7.181
25016SOL     OW75005   7.766   0.258   7.358
25016SOL    HW175006   7.824   0.316   7.407
25016SOL    HW275007   7.684   0.259   7.406
25017SOL     OW75008   8.919   1.418   6.516
25017SOL    HW175009   8.857   1.438   6.585
25017SOL    HW275010   8.902   1.327   6.492
25018SOL     OW75011   9.084   1.799   6.147
25018SOL    HW175012   9.069   1.751   6.066
25018SOL    HW275013   9.087   1.731   6.214
25019SOL     OW75014   8.033   0.710   5.860
25019SOL    HW175015   8.033   0.797   5.820
25019SOL    HW275016   7.968   0.716   5.930
25020SOL     OW75017   8.729   0.390   6.524
25020SOL    HW175018   8.641   0.356   6.532
25020SOL    HW275019   8.783   0.331   6.577
25021SOL     OW75020   9.027   1.674   5.905
25021SOL    HW175021   9.121   1.689   5.894
25021SOL    HW275022   8.994   1.662   5.816
25022SOL     OW75023   8.244   0.614   7.029
25022SOL    HW175024   8.216   0.580   7.115
25022SOL    HW275025   8.219   0.545   6.967
25023SOL     OW75026   8.846   0.491   7.264
25023SOL    HW175027   8.851   0.531   7.351
25023SOL    HW275028   8.895   0.409   7.273
25024SOL     OW75029   8.393   0.880   7.180
25024SOL    HW175030   8.449   0.817   7.135
25024SOL    HW275031   8.344   0.923   7.109
25025SOL     OW75032   8.462   0.416   6.796
25025SOL    HW175033   8.371   0.426   6.823
25025SOL    HW275034   8.457   0.375   6.710
25026SOL     OW75035   8.502   0.704   6.006
25026SOL    HW175036   8.525   0.699   6.099
25026SOL    HW275037   8.417   0.661   6.000
25027SOL     OW75038   7.541   0.825   6.371
25027SOL    HW175039   7.623   0.818   6.420
25027SOL    HW275040   7.495   0.897   6.413
25028SOL     OW75041   7.557   1.879   7.173
25028SOL    HW175042   7.565   1.859   7.267
25028SOL    HW275043   7.472   1.845   7.148
25029SOL     OW75044   8.335   0.361   5.791
25029SOL    HW175045   8.377   0.419   5.727
25029SOL    HW275046   8.338   0.274   5.750
25030SOL     OW75047   9.142   0.563   7.420
25030SOL    HW175048   9.115   0.642   7.373
25030SOL    HW275049   9.163   0.500   7.351
25031SOL     OW75050   8.840   1.151   6.129
25031SOL    HW175051   8.920   1.140   6.078
25031SOL    HW275052   8.788   1.212   6.078
25032SOL     OW75053   7.990   0.220   6.513
25032SOL    HW175054   8.009   0.235   6.606
25032SOL    HW275055   8.001   0.306   6.472
25033SOL     OW75056   8.445   1.456   6.051
25033SOL    HW175057   8.420   1.530   5.996
25033SOL    HW275058   8.415   1.480   6.139
25034SOL     OW75059   7.801   1.816   6.467
25034SOL    HW175060   7.847   1.732   6.471
25034SOL    HW275061   7.868   1.881   6.488
25035SOL     OW75062   9.248   1.052   6.480
25035SOL    HW175063   9.199   1.043   6.399
25035SOL    HW275064   9.181   1.059   6.548
25036SOL     OW75065   8.665   1.544   7.103
25036SOL    HW175066   8.654   1.473   7.166
25036SOL    HW275067   8.598   1.528   7.037
25037SOL     OW75068   7.746   0.956   5.850
25037SOL    HW175069   7.829   0.977   5.806
25037SOL    HW275070   7.725   0.867   5.820
25038SOL     OW75071   8.931   0.764   6.296
25038SOL    HW175072   8.927   0.729   6.385
25038SOL    HW275073   9.008   0.819   6.295
25039SOL     OW75074   7.921   1.284   7.334
25039SOL    HW175075   7.897   1.288   7.241
25039SOL    HW275076   7.837   1.273   7.380
25040SOL     OW75077   8.588   1.776   5.812
25040SOL    HW175078   8.505   1.746   5.851
25040SOL    HW275079   8.607   1.711   5.745
25041SOL     OW75080   7.667   0.265   7.094
25041SOL    HW175081   7.598   0.332   7.095
25041SOL    HW275082   7.690   0.253   7.186
25042SOL     OW75083   9.071   1.391   5.684
25042SOL    HW175084   9.031   1.477   5.669
25042SOL    HW275085   9.004   1.329   5.655
25043SOL     OW75086   7.907   1.741   5.901
25043SOL    HW175087   7.956   1.792   5.966
25043SOL    HW275088   7.974   1.701   5.847
25044SOL     OW75089   8.854   0.163   6.002
25044SOL    HW175090   8.848   0.106   5.926
25044SOL    HW275091   8.944   0.154   6.032
25045SOL     OW75092   7.699   1.788   6.801
25045SOL    HW175093   7.748   1.713   6.835
25045SOL    HW275094   7.686   1.768   6.708
25046SOL     OW75095   8.397   1.702   6.476
25046SOL    HW175096   8.482   1.661   6.490
25046SOL    HW275097   8.357   1.652   6.405
25047SOL     OW75098   7.842   0.689   6.061
25047SOL    HW175099   7.858   0.595   6.072
25047SOL    HW275100   7.749   0.700   6.078
25048SOL     OW75101   8.951   0.227   7.305
25048SOL    HW175102   8.967   0.247   7.397
25048SOL    HW275103   8.872   0.172   7.305
25049SOL     OW75104   8.090   0.105   5.692
25049SOL    HW175105   8.127   0.031   5.741
25049SOL    HW275106   8.028   0.066   5.631
25050SOL     OW75107   8.207   0.266   7.356
25050SOL    HW175108   8.282   0.207   7.345
25050SOL    HW275109   8.159   0.230   7.431
25051SOL     OW75110   8.316   1.527   6.785
25051SOL    HW175111   8.299   1.486   6.701
25051SOL    HW275112   8.384   1.472   6.825
25052SOL     OW75113   8.785   0.593   7.017
25052SOL    HW175114   8.817   0.568   7.104
25052SOL    HW275115   8.817   0.682   7.005
25053SOL     OW75116   8.264   1.377   6.542
25053SOL    HW175117   8.352   1.373   6.503
25053SOL    HW275118   8.206   1.392   6.467
25054SOL     OW75119   8.383   0.520   6.479
25054SOL    HW175120   8.355   0.511   6.388
25054SOL    HW275121   8.406   0.431   6.507
25055SOL     OW75122   7.999   0.061   6.080
25055SOL    HW175123   7.918   0.044   6.127
25055SOL    HW275124   7.977   0.130   6.017
25056SOL     OW75125   8.875   1.209   5.616
25056SOL    HW175126   8.907   1.137   5.671
25056SOL    HW275127   8.790   1.232   5.654
25057SOL     OW75128   7.744   0.070   5.809
25057SOL    HW175129   7.813   0.133   5.828
25057SOL    HW275130   7.775   9.988   5.847
25058SOL     OW75131   8.386   0.271   6.048
25058SOL    HW175132   8.360   0.304   5.962
25058SOL    HW275133   8.480   0.288   6.052
25059SOL     OW75134   8.526   0.693   7.032
25059SOL    HW175135   8.461   0.623   7.039
25059SOL    HW275136   8.610   0.647   7.027
25060SOL     OW75137   8.654   1.587   6.389
25060SOL    HW175138   8.668   1.647   6.316
25060SOL    HW275139   8.728   1.602   6.447
25061SOL     OW75140   7.930   1.161   6.293
25061SOL    HW175141   7.868   1.137   6.362
25061SOL    HW275142   7.880   1.154   6.212
25062SOL     OW75143   8.699   1.792   6.203
25062SOL    HW175144   8.749   1.854   6.150
25062SOL    HW275145   8.628   1.843   6.242
25063SOL     OW75146   8.485   0.518   5.615
25063SOL    HW175147   8.438   0.598   5.592
25063SOL    HW275148   8.543   0.544   5.687
25064SOL     OW75149   7.550   0.536   6.984
25064SOL    HW175150   7.639   0.550   6.950
25064SOL    HW275151   7.536   0.608   7.046
25065SOL     OW75152   8.015   0.237   6.789
25065SOL    HW175153   8.057   0.191   6.861
25065SOL    HW275154   7.921   0.226   6.804
25066SOL     OW75155   8.311   0.475   6.224
25066SOL    HW175156   8.267   0.530   6.159
25066SOL    HW275157   8.333   0.394   6.176
25067SOL     OW75158   8.412   0.062   6.374
25067SOL    HW175159   8.359   0.050   6.296
25067SOL    HW275160   8.423   9.974   6.410
25068SOL     OW75161   8.880   1.154   6.441
25068SOL    HW175162   8.810   1.089   6.450
25068SOL    HW275163   8.895   1.160   6.347
25069SOL     OW75164   8.902   0.624   6.537
25069SOL    HW175165   8.842   0.550   6.543
25069SOL    HW275166   8.957   0.617   6.615
25070SOL     OW75167   9.275   0.796   5.971
25070SOL    HW175168   9.331   0.752   6.034
25070SOL    HW275169   9.264   0.732   5.901
25071SOL     OW75170   7.946   1.424   5.736
25071SOL    HW175171   7.871   1.392   5.786
25071SOL    HW275172   7.942   1.375   5.654
25072SOL     OW75173   9.158   1.269   6.224
25072SOL    HW175174   9.252   1.263   6.241
25072SOL    HW275175   9.135   1.359   6.247
25073SOL     OW75176   8.842   0.577   5.661
25073SOL    HW175177   8.783   0.557   5.733
25073SOL    HW275178   8.928   0.550   5.692
25074SOL     OW75179   7.948   0.250   5.881
25074SOL    HW175180   8.012   0.213   5.820
25074SOL    HW275181   7.926   0.336   5.844
25075SOL     OW75182   9.180   1.245   7.120
25075SOL    HW175183   9.267   1.209   7.105
25075SOL    HW275184   9.196   1.332   7.156
25076SOL     OW75185   8.489   1.356   6.922
25076SOL    HW175186   8.412   1.321   6.966
25076SOL    HW275187   8.563   1.310   6.962
25077SOL     OW75188   9.056   1.635   7.257
25077SOL    HW175189   9.045   1.671   7.169
25077SOL    HW275190   9.133   1.579   7.252
25078SOL     OW75191   8.598   1.239   6.692
25078SOL    HW175192   8.536   1.274   6.756
25078SOL    HW275193   8.565   1.271   6.608
25079SOL     OW75194   9.052   1.091   6.665
25079SOL    HW175195   9.045   1.159   6.733
25079SOL    HW275196   8.983   1.113   6.603
25080SOL     OW75197   8.335   0.162   6.957
25080SOL    HW175198   8.360   0.118   6.876
25080SOL    HW275199   8.418   0.187   6.998
25081SOL     OW75200   8.427   1.115   7.311
25081SOL    HW175201   8.337   1.132   7.338
25081SOL    HW275202   8.423   1.034   7.259
25082SOL     OW75203   8.160   1.063   5.964
25082SOL    HW175204   8.145   1.035   6.054
25082SOL    HW275205   8.234   1.010   5.934
25083SOL     OW75206   7.878   0.839   6.846
25083SOL    HW175207   7.946   0.844   6.913
25083SOL    HW275208   7.844   0.750   6.852
25084SOL     OW75209   8.719   0.374   6.870
25084SOL    HW175210   8.749   0.451   6.917
25084SOL    HW275211   8.630   0.395   6.841
25085SOL     OW75212   7.526   1.569   6.948
25085SOL    HW175213   7.495   1.641   6.892
25085SOL    HW275214   7.621   1.570   6.938
25086SOL     OW75215   7.765   1.133   6.071
25086SOL    HW175216   7.766   1.205   6.007
25086SOL    HW275217   7.762   1.054   6.018
25087SOL     OW75218   8.008   0.492   6.437
25087SOL    HW175219   8.013   0.547   6.359
25087SOL    HW275220   8.067   0.533   6.500
25088SOL     OW75221   8.695   1.355   5.984
25088SOL    HW175222   8.751   1.424   6.018
25088SOL    HW275223   8.607   1.378   6.015
25089SOL     OW75224   8.758   1.469   6.728
25089SOL    HW175225   8.805   1.476   6.811
25089SOL    HW275226   8.707   1.388   6.736
25090SOL     OW75227   9.023   0.627   6.065
25090SOL    HW175228   8.973   0.665   6.136
25090SOL    HW275229   9.071   0.700   6.027
25091SOL     OW75230   7.792   1.533   6.888
25091SOL    HW175231   7.785   1.480   6.808
25091SOL    HW275232   7.886   1.549   6.898
25092SOL     OW75233   7.893   0.728   7.211
25092SOL    HW175234   7.942   0.778   7.147
25092SOL    HW275235   7.944   0.649   7.226
25093SOL     OW75236   9.070   0.786   7.286
25093SOL    HW175237   8.983   0.825   7.277
25093SOL    HW275238   9.121   0.823   7.214
25094SOL     OW75239   8.410   0.077   7.360
25094SOL    HW175240   8.477   0.130   7.401
25094SOL    HW275241   8.452   0.041   7.282
25095SOL     OW75242   7.918   0.021   7.353
25095SOL    HW175243   7.975   0.012   7.277
25095SOL    HW275244   7.870   0.102   7.338
25096SOL     OW75245   8.040   0.881   6.623
25096SOL    HW175246   8.079   0.968   6.627
25096SOL    HW275247   7.983   0.877   6.700
25097SOL     OW75248   8.752   0.859   6.587
25097SOL    HW175249   8.664   0.832   6.564
25097SOL    HW275250   8.806   0.781   6.571
25098SOL     OW75251   8.641   0.530   5.845
25098SOL    HW175252   8.649   0.457   5.906
25098SOL    HW275253   8.600   0.600   5.897
25099SOL     OW75254   7.748   0.180   6.841
25099SOL    HW175255   7.713   0.211   6.925
25099SOL    HW275256   7.759   0.085   6.853
25100SOL     OW75257   7.496   1.312   6.852
25100SOL    HW175258   7.526   1.256   6.924
25100SOL    HW275259   7.500   1.401   6.887
25101SOL     OW75260   8.158   0.629   6.620
25101SOL    HW175261   8.238   0.626   6.567
25101SOL    HW275262   8.127   0.719   6.610
25102SOL     OW75263   9.194   0.966   7.460
25102SOL    HW175264   9.153   0.895   7.410
25102SOL    HW275265   9.130   0.987   7.527
25103SOL     OW75266   7.746   0.064   6.213
25103SOL    HW175267   7.726   0.157   6.216
25103SOL    HW275268   7.760   0.039   6.305
25104SOL     OW75269   9.085   0.398   5.926
25104SOL    HW175270   9.122   0.334   5.986
25104SOL    HW275271   9.055   0.470   5.982
25105SOL     OW75272   8.484   0.763   6.545
25105SOL    HW175273   8.462   0.778   6.637
25105SOL    HW275274   8.456   0.673   6.528
25106SOL     OW75275   8.428   1.565   7.321
25106SOL    HW175276   8.407   1.609   7.238
25106SOL    HW275277   8.467   1.482   7.294
25107SOL     OW75278   9.286   1.494   7.186
25107SOL    HW175279   9.312   1.522   7.099
25107SOL    HW275280   9.365   1.505   7.239
25108SOL     OW75281   7.798   0.913   7.395
25108SOL    HW175282   7.872   0.933   7.451
25108SOL    HW275283   7.830   0.846   7.335
25109SOL     OW75284   8.966   0.279   5.705
25109SOL    HW175285   8.926   0.200   5.743
25109SOL    HW275286   9.011   0.321   5.779
25110SOL     OW75287   8.728   0.821   5.606
25110SOL    HW175288   8.771   0.736   5.615
25110SOL    HW275289   8.763   0.857   5.525
25111SOL     OW75290   8.518   1.353   6.452
25111SOL    HW175291   8.529   1.281   6.391
25111SOL    HW275292   8.570   1.424   6.415
25112SOL     OW75293   7.770   0.816   6.530
25112SOL    HW175294   7.863   0.835   6.528
25112SOL    HW275295   7.764   0.725   6.561
25113SOL     OW75296   7.797   0.543   6.601
25113SOL    HW175297   7.740   0.467   6.597
25113SOL    HW275298   7.867   0.524   6.538
25114SOL     OW75299   8.584   0.405   7.240
25114SOL    HW175300   8.537   0.444   7.314
25114SOL    HW275301   8.672   0.444   7.246
25115SOL     OW75302   8.591   0.207   7.053
25115SOL    HW175303   8.582   0.270   7.125
25115SOL    HW275304   8.645   0.252   6.988
25116SOL     OW75305   7.472   1.303   5.766
25116SOL    HW175306   7.382   1.325   5.740
25116SOL    HW275307   7.465   1.216   5.806
25117SOL     OW75308   7.540   1.770   6.537
25117SOL    HW175309   7.507   1.696   6.486
25117SOL    HW275310   7.627   1.787   6.501
25118SOL     OW75311   7.933   1.570   6.487
25118SOL    HW175312   8.004   1.630   6.509
25118SOL    HW275313   7.973   1.508   6.426
25119SOL     OW75314   8.399   0.784   6.803
25119SOL    HW175315   8.461   0.770   6.874
25119SOL    HW275316   8.320   0.737   6.829
25120SOL     OW75317   7.465   0.522   6.715
25120SOL    HW175318   7.523   0.463   6.668
25120SOL    HW275319   7.509   0.538   6.799
25121SOL     OW75320   7.633   0.556   7.334
25121SOL    HW175321   7.719   0.549   7.292
25121SOL    HW275322   7.587   0.622   7.282
25122SOL     OW75323   8.837   0.921   7.237
25122SOL    HW175324   8.855   1.015   7.233
25122SOL    HW275325   8.829   0.893   7.146
25123SOL     OW75326   8.261   0.580   5.960
25123SOL    HW175327   8.267   0.505   5.902
25123SOL    HW275328   8.184   0.628   5.930
25124SOL     OW75329   9.069   0.605   6.753
25124SOL    HW175330   9.049   0.552   6.831
25124SOL    HW275331   9.157   0.578   6.728
25125SOL     OW75332   7.674   1.540   7.309
25125SOL    HW175333   7.650   1.589   7.387
25125SOL    HW275334   7.686   1.450   7.340
25126SOL     OW75335   8.187   0.450   6.822
25126SOL    HW175336   8.124   0.379   6.811
25126SOL    HW275337   8.167   0.511   6.750
25127SOL     OW75338   8.352   1.680   7.075
25127SOL    HW175339   8.331   1.632   6.995
25127SOL    HW275340   8.355   1.772   7.048
25128SOL     OW75341   7.893   0.488   5.758
25128SOL    HW175342   7.956   0.556   5.783
25128SOL    HW275343   7.808   0.532   5.759
25129SOL     OW75344   7.577   1.151   7.067
25129SOL    HW175345   7.582   1.112   7.154
25129SOL    HW275346   7.598   1.079   7.007
25130SOL     OW75347   8.749   1.035   6.795
25130SOL    HW175348   8.759   0.973   6.723
25130SOL    HW275349   8.696   1.106   6.758
25131SOL     OW75350   8.773   0.861   5.878
25131SOL    HW175351   8.701   0.832   5.934
25131SOL    HW275352   8.743   0.847   5.789
25132SOL     OW75353   9.238   1.723   6.757
25132SOL    HW175354   9.299   1.749   6.689
25132SOL    HW275355   9.205   1.638   6.728
25133SOL     OW75356   8.689   1.734   6.678
25133SOL    HW175357   8.773   1.764   6.643
25133SOL    HW275358   8.703   1.642   6.701
25134SOL     OW75359   7.554   1.248   6.595
25134SOL    HW175360   7.526   1.270   6.684
25134SOL    HW275361   7.484   1.195   6.559
25135SOL     OW75362   8.135   1.683   7.335
25135SOL    HW175363   8.072   1.754   7.322
25135SOL    HW275364   8.208   1.706   7.277
25136SOL     OW75365   9.211   0.188   6.071
25136SOL    HW175366   9.266   0.190   5.993
25136SOL    HW275367   9.244   0.114   6.122
25137SOL     OW75368   8.846   1.570   6.089
25137SOL    HW175369   8.901   1.604   6.019
25137SOL    HW275370   8.791   1.643   6.116
25138SOL     OW75371   7.582   1.806   7.430
25138SOL    HW175372   7.541   1.730   7.472
25138SOL    HW275373   7.632   1.848   7.500
25139SOL     OW75374   8.726   0.937   6.248
25139SOL    HW175375   8.800   0.877   6.261
25139SOL    HW275376   8.762   1.010   6.197
25140SOL     OW75377   8.231   1.280   7.000
25140SOL    HW175378   8.205   1.327   7.079
25140SOL    HW275379   8.157   1.290   6.940
25141SOL     OW75380   8.116   1.635   5.745
25141SOL    HW175381   8.131   1.650   5.651
25141SOL    HW275382   8.064   1.555   5.749
25142SOL     OW75383   9.065   1.729   6.987
25142SOL    HW175384   9.122   1.729   6.911
25142SOL    HW275385   9.049   1.822   7.005
25143SOL     OW75386   9.300   0.149   6.548
25143SOL    HW175387   9.328   0.078   6.490
25143SOL    HW275388   9.214   0.175   6.514
25144SOL     OW75389   7.693   0.323   6.289
25144SOL    HW175390   7.606   0.359   6.271
25144SOL    HW275391   7.697   0.315   6.384
25145SOL     OW75392   8.656   1.589   5.623
25145SOL    HW175393   8.646   1.498   5.651
25145SOL    HW275394   8.587   1.602   5.559
25146SOL     OW75395   8.272   1.011   6.972
25146SOL    HW175396   8.310   1.001   6.885
25146SOL    HW275397   8.261   1.105   6.983
25147SOL     OW75398   8.365   0.914   5.878
25147SOL    HW175399   8.423   0.947   5.809
25147SOL    HW275400   8.417   0.847   5.923
25148SOL     OW75401   8.929   1.648   5.643
25148SOL    HW175402   8.837   1.628   5.625
25148SOL    HW275403   8.970   1.651   5.556
25149SOL     OW75404   7.811   1.313   7.088
25149SOL    HW175405   7.803   1.386   7.027
25149SOL    HW275406   7.732   1.260   7.071
25150SOL     OW75407   9.044   1.290   6.863
25150SOL    HW175408   9.100   1.266   6.937
25150SOL    HW275409   8.986   1.358   6.897
25151SOL     OW75410   8.524   1.120   6.315
25151SOL    HW175411   8.449   1.070   6.346
25151SOL    HW275412   8.586   1.053   6.285
25152SOL     OW75413   8.472   0.256   6.561
25152SOL    HW175414   8.454   0.208   6.480
25152SOL    HW275415   8.468   0.190   6.630
25153SOL     OW75416   8.052   1.487   6.062
25153SOL    HW175417   8.107   1.438   6.000
25153SOL    HW275418   7.971   1.503   6.014
25154SOL     OW75419   9.190   0.361   6.972
25154SOL    HW175420   9.258   0.427   6.960
25154SOL    HW275421   9.210   0.293   6.907
25155SOL     OW75422   7.728   1.340   5.885
25155SOL    HW175423   7.640   1.333   5.846
25155SOL    HW275424   7.713   1.389   5.966
25156SOL     OW75425   7.570   1.047   7.322
25156SOL    HW175426   7.493   1.018   7.371
25156SOL    HW275427   7.642   0.994   7.356
25157SOL     OW75428   8.110   0.230   7.094
25157SOL    HW175429   8.188   0.204   7.046
25157SOL    HW275430   8.141   0.247   7.183
25158SOL     OW75431   7.520   0.336   5.600
25158SOL    HW175432   7.438   0.326   5.550
25158SOL    HW275433   7.556   0.420   5.572
25159SOL     OW75434   8.861   0.856   6.973
25159SOL    HW175435   8.808   0.915   6.919
25159SOL    HW275436   8.949   0.861   6.936
25160SOL     OW75437   7.507   0.201   5.851
25160SOL    HW175438   7.505   0.256   5.773
25160SOL    HW275439   7.585   0.147   5.840
25161SOL     OW75440   8.629   1.323   5.709
25161SOL    HW175441   8.537   1.294   5.708
25161SOL    HW275442   8.652   1.326   5.802
25162SOL     OW75443   8.076   0.830   7.029
25162SOL    HW175444   8.134   0.905   7.017
25162SOL    HW275445   8.135   0.754   7.031
25163SOL     OW75446   8.935   1.802   6.579
25163SOL    HW175447   8.960   1.876   6.524
25163SOL    HW275448   9.017   1.758   6.600
25164SOL     OW75449   8.166   0.541   7.281
25164SOL    HW175450   8.214   0.599   7.340
25164SOL    HW275451   8.181   0.453   7.316
25165SOL     OW75452   8.915   1.183   7.204
25165SOL    HW175453   8.907   1.205   7.297
25165SOL    HW275454   9.005   1.208   7.181
25166SOL     OW75455   7.802   1.747   7.166
25166SOL    HW175456   7.720   1.794   7.148
25166SOL    HW275457   7.775   1.664   7.203
25167SOL     OW75458   9.100   0.876   6.838
25167SOL    HW175459   9.096   0.793   6.791
25167SOL    HW275460   9.088   0.943   6.770
25168SOL     OW75461   8.655   0.338   6.043
25168SOL    HW175462   8.723   0.273   6.028
25168SOL    HW275463   8.685   0.387   6.120
25169SOL     OW75464   8.031   0.717   6.265
25169SOL    HW175465   8.072   0.803   6.253
25169SOL    HW275466   7.965   0.712   6.196
25170SOL     OW75467   9.188   0.355   7.245
25170SOL    HW175468   9.188   0.365   7.149
25170SOL    HW275469   9.109   0.303   7.263
25171SOL     OW75470   9.202   0.918   7.089
25171SOL    HW175471   9.193   1.013   7.103
25171SOL    HW275472   9.176   0.905   6.998
25172SOL     OW75473   8.319   1.357   5.649
25172SOL    HW175474   8.281   1.375   5.734
25172SOL    HW275475   8.329   1.443   5.607
25173SOL     OW75476   8.117   1.766   6.512
25173SOL    HW175477   8.097   1.860   6.504
25173SOL    HW275478   8.212   1.761   6.510
25174SOL     OW75479   8.320   0.978   6.442
25174SOL    HW175480   8.371   0.905   6.478
25174SOL    HW275481   8.275   1.015   6.517
25175SOL     OW75482   8.523   0.987   5.674
25175SOL    HW175483   8.500   1.040   5.598
25175SOL    HW275484   8.595   0.932   5.644
25176SOL     OW75485   9.283   1.558   6.424
25176SOL    HW175486   9.205   1.550   6.368
25176SOL    HW275487   9.263   1.504   6.501
25177SOL     OW75488   7.660   1.286   7.422
25177SOL    HW175489   7.629   1.206   7.379
25177SOL    HW275490   7.601   1.298   7.496
25178SOL     OW75491   7.565   1.224   6.253
25178SOL    HW175492   7.597   1.182   6.334
25178SOL    HW275493   7.624   1.191   6.185
25179SOL     OW75494   8.138   1.419   7.219
25179SOL    HW175495   8.061   1.380   7.261
25179SOL    HW275496   8.144   1.507   7.255
25180SOL     OW75497   9.228   0.135   6.818
25180SOL    HW175498   9.169   0.061   6.807
25180SOL    HW275499   9.266   0.148   6.731
25181SOL     OW75500   7.877   0.427   6.107
25181SOL    HW175501   7.902   0.354   6.051
25181SOL    HW275502   7.821   0.388   6.175
25182SOL     OW75503   9.143   1.481   6.667
25182SOL    HW175504   9.065   1.462   6.615
25182SOL    HW275505   9.143   1.413   6.735
25183SOL     OW75506   7.793   0.582   6.873
25183SOL    HW175507   7.847   0.521   6.924
25183SOL    HW275508   7.808   0.558   6.782
25184SOL     OW75509   8.286   1.585   6.256
25184SOL    HW175510   8.257   1.655   6.198
25184SOL    HW275511   8.210   1.527   6.263
25185SOL     OW75512   8.881   0.237   6.698
25185SOL    HW175513   8.911   0.158   6.742
25185SOL    HW275514   8.832   0.285   6.764
25186SOL     OW75515   8.474   0.039   6.741
25186SOL    HW175516   8.446   9.948   6.741
25186SOL    HW275517   8.567   0.036   6.762
25187SOL     OW75518   8.228   1.332   5.914
25187SOL    HW175519   8.203   1.241   5.927
25187SOL    HW275520   8.308   1.343   5.966
25188SOL     OW75521   8.063   1.570   6.874
25188SOL    HW175522   8.058   1.654   6.920
25188SOL    HW275523   8.153   1.566   6.841
25189SOL     OW75524   8.837   0.031   5.763
25189SOL    HW175525   8.921   9.985   5.770
25189SOL    HW275526   8.771   9.962   5.775
25190SOL     OW75527   8.746   0.477   6.261
25190SOL    HW175528   8.695   0.558   6.261
25190SOL    HW275529   8.738   0.444   6.351
25191SOL     OW75530   9.049   0.226   6.470
25191SOL    HW175531   8.992   0.238   6.546
25191SOL    HW275532   9.045   0.309   6.423
25192SOL     OW75533   7.484   1.051   5.894
25192SOL    HW175534   7.577   1.038   5.875
25192SOL    HW275535   7.452   0.963   5.915
25193SOL     OW75536   8.343   1.675   5.915
25193SOL    HW175537   8.265   1.660   5.863
25193SOL    HW275538   8.318   1.744   5.977
25194SOL     OW75539   7.659   0.635   7.600
25194SOL    HW175540   7.572   0.618   7.637
25194SOL    HW275541   7.648   0.622   7.506
25195SOL     OW75542   7.640   0.321   8.482
25195SOL    HW175543   7.685   0.270   8.549
25195SOL    HW275544   7.572   0.263   8.448
25196SOL     OW75545   7.436   0.409   8.088
25196SOL    HW175546   7.353   0.434   8.129
25196SOL    HW275547   7.414   0.334   8.032
25197SOL     OW75548   8.023   1.309   8.657
25197SOL    HW175549   7.941   1.311   8.609
25197SOL    HW275550   8.040   1.400   8.681
25198SOL     OW75551   9.038   1.524   8.153
25198SOL    HW175552   8.991   1.493   8.230
25198SOL    HW275553   8.972   1.527   8.084
25199SOL     OW75554   8.585   0.706   8.135
25199SOL    HW175555   8.631   0.789   8.124
25199SOL    HW275556   8.536   0.717   8.216
25200SOL     OW75557   9.255   0.584   7.663
25200SOL    HW175558   9.217   0.583   7.575
25200SOL    HW275559   9.211   0.512   7.709
25201SOL     OW75560   8.176   1.132   8.505
25201SOL    HW175561   8.117   1.172   8.570
25201SOL    HW275562   8.218   1.206   8.462
25202SOL     OW75563   8.334   0.737   9.272
25202SOL    HW175564   8.324   0.803   9.340
25202SOL    HW275565   8.351   0.786   9.192
25203SOL     OW75566   8.132   0.981   8.093
25203SOL    HW175567   8.200   0.983   8.161
25203SOL    HW275568   8.066   1.043   8.124
25204SOL     OW75569   8.159   1.151   9.273
25204SOL    HW175570   8.211   1.224   9.308
25204SOL    HW275571   8.082   1.193   9.235
25205SOL     OW75572   7.791   1.397   8.517
25205SOL    HW175573   7.715   1.355   8.478
25205SOL    HW275574   7.827   1.452   8.448
25206SOL     OW75575   8.901   1.508   8.819
25206SOL    HW175576   8.956   1.585   8.830
25206SOL    HW275577   8.830   1.520   8.882
25207SOL     OW75578   7.905   0.401   8.903
25207SOL    HW175579   7.983   0.348   8.922
25207SOL    HW275580   7.831   0.345   8.926
25208SOL     OW75581   9.033   0.458   8.193
25208SOL    HW175582   8.960   0.461   8.131
25208SOL    HW275583   9.018   0.533   8.250
25209SOL     OW75584   7.666   1.728   7.913
25209SOL    HW175585   7.693   1.799   7.971
25209SOL    HW275586   7.740   1.717   7.853
25210SOL     OW75587   8.582   1.343   9.142
25210SOL    HW175588   8.625   1.334   9.227
25210SOL    HW275589   8.530   1.263   9.132
25211SOL     OW75590   7.681   1.457   7.981
25211SOL    HW175591   7.660   1.551   7.984
25211SOL    HW275592   7.631   1.419   8.053
25212SOL     OW75593   7.733   1.090   8.326
25212SOL    HW175594   7.733   1.001   8.360
25212SOL    HW275595   7.677   1.138   8.387
25213SOL     OW75596   8.021   1.805   8.867
25213SOL    HW175597   7.946   1.784   8.922
25213SOL    HW275598   8.055   1.888   8.902
25214SOL     OW75599   8.012   0.988   7.601
25214SOL    HW175600   8.062   1.030   7.532
25214SOL    HW275601   8.052   1.019   7.682
25215SOL     OW75602   8.994   0.123   8.903
25215SOL    HW175603   9.055   0.180   8.856
25215SOL    HW275604   8.982   0.165   8.988
25216SOL     OW75605   7.568   0.662   8.014
25216SOL    HW175606   7.534   0.576   8.036
25216SOL    HW275607   7.562   0.712   8.096
25217SOL     OW75608   9.295   1.744   7.769
25217SOL    HW175609   9.368   1.728   7.828
25217SOL    HW275610   9.305   1.836   7.743
25218SOL     OW75611   7.507   1.580   7.559
25218SOL    HW175612   7.486   1.488   7.578
25218SOL    HW275613   7.475   1.628   7.635
25219SOL     OW75614   9.141   0.928   8.105
25219SOL    HW175615   9.227   0.888   8.095
25219SOL    HW275616   9.127   0.977   8.024
25220SOL     OW75617   9.104   1.105   7.883
25220SOL    HW175618   9.188   1.097   7.838
25220SOL    HW275619   9.119   1.170   7.952
25221SOL     OW75620   7.553   0.751   9.018
25221SOL    HW175621   7.634   0.802   9.019
25221SOL    HW275622   7.484   0.816   9.002
25222SOL     OW75623   8.071   1.398   8.178
25222SOL    HW175624   8.029   1.312   8.183
25222SOL    HW275625   8.055   1.427   8.089
25223SOL     OW75626   8.718   1.227   8.865
25223SOL    HW175627   8.746   1.158   8.805
25223SOL    HW275628   8.779   1.222   8.939
25224SOL     OW75629   8.266   0.035   7.986
25224SOL    HW175630   8.296   0.123   7.964
25224SOL    HW275631   8.170   0.040   7.982
25225SOL     OW75632   7.634   0.957   8.750
25225SOL    HW175633   7.723   0.926   8.733
25225SOL    HW275634   7.583   0.922   8.677
25226SOL     OW75635   8.981   1.016   7.649
25226SOL    HW175636   8.913   0.956   7.679
25226SOL    HW275637   9.023   1.047   7.729
25227SOL     OW75638   8.626   1.823   9.084
25227SOL    HW175639   8.627   1.885   9.011
25227SOL    HW275640   8.643   1.738   9.044
25228SOL     OW75641   7.764   0.258   9.223
25228SOL    HW175642   7.821   0.318   9.270
25228SOL    HW275643   7.680   0.263   9.269
25229SOL     OW75644   8.920   1.418   8.378
25229SOL    HW175645   8.857   1.438   8.447
25229SOL    HW275646   8.902   1.327   8.354
25230SOL     OW75647   9.084   1.799   8.009
25230SOL    HW175648   9.069   1.751   7.928
25230SOL    HW275649   9.086   1.731   8.077
25231SOL     OW75650   8.033   0.710   7.722
25231SOL    HW175651   8.033   0.797   7.682
25231SOL    HW275652   7.968   0.716   7.792
25232SOL     OW75653   8.729   0.390   8.386
25232SOL    HW175654   8.641   0.356   8.394
25232SOL    HW275655   8.783   0.331   8.439
25233SOL     OW75656   9.027   1.674   7.767
25233SOL    HW175657   9.121   1.689   7.756
25233SOL    HW275658   8.994   1.662   7.678
25234SOL     OW75659   8.243   0.613   8.892
25234SOL    HW175660   8.215   0.579   8.977
25234SOL    HW275661   8.219   0.545   8.829
25235SOL     OW75662   8.845   0.493   9.123
25235SOL    HW175663   8.847   0.535   9.209
25235SOL    HW275664   8.899   0.415   9.133
25236SOL     OW75665   8.393   0.879   9.041
25236SOL    HW175666   8.450   0.817   8.996
25236SOL    HW275667   8.345   0.922   8.970
25237SOL     OW75668   8.462   0.415   8.658
25237SOL    HW175669   8.371   0.426   8.685
25237SOL    HW275670   8.456   0.375   8.571
25238SOL     OW75671   8.502   0.704   7.868
25238SOL    HW175672   8.525   0.699   7.961
25238SOL    HW275673   8.417   0.661   7.862
25239SOL     OW75674   7.542   0.825   8.233
25239SOL    HW175675   7.623   0.818   8.283
25239SOL    HW275676   7.495   0.897   8.275
25240SOL     OW75677   7.558   1.878   9.040
25240SOL    HW175678   7.567   1.857   9.133
25240SOL    HW275679   7.473   1.842   9.016
25241SOL     OW75680   8.335   0.361   7.653
25241SOL    HW175681   8.377   0.419   7.589
25241SOL    HW275682   8.338   0.274   7.612
25242SOL     OW75683   9.128   0.556   9.283
25242SOL    HW175684   9.108   0.637   9.237
25242SOL    HW275685   9.159   0.496   9.215
25243SOL     OW75686   8.840   1.151   7.992
25243SOL    HW175687   8.921   1.140   7.941
25243SOL    HW275688   8.788   1.212   7.940
25244SOL     OW75689   7.991   0.220   8.375
25244SOL    HW175690   8.010   0.235   8.467
25244SOL    HW275691   8.002   0.305   8.334
25245SOL     OW75692   8.445   1.456   7.913
25245SOL    HW175693   8.420   1.530   7.858
25245SOL    HW275694   8.415   1.480   8.001
25246SOL     OW75695   7.801   1.816   8.328
25246SOL    HW175696   7.847   1.732   8.332
25246SOL    HW275697   7.869   1.880   8.350
25247SOL     OW75698   9.248   1.052   8.342
25247SOL    HW175699   9.199   1.042   8.260
25247SOL    HW275700   9.181   1.060   8.410
25248SOL     OW75701   8.666   1.546   8.965
25248SOL    HW175702   8.655   1.474   9.027
25248SOL    HW275703   8.597   1.532   8.900
25249SOL     OW75704   7.746   0.956   7.712
25249SOL    HW175705   7.829   0.977   7.668
25249SOL    HW275706   7.725   0.867   7.682
25250SOL     OW75707   8.931   0.763   8.158
25250SOL    HW175708   8.927   0.729   8.247
25250SOL    HW275709   9.008   0.819   8.157
25251SOL     OW75710   7.919   1.286   9.195
25251SOL    HW175711   7.895   1.289   9.103
25251SOL    HW275712   7.836   1.276   9.241
25252SOL     OW75713   8.588   1.776   7.674
25252SOL    HW175714   8.505   1.746   7.713
25252SOL    HW275715   8.607   1.711   7.607
25253SOL     OW75716   7.666   0.267   8.956
25253SOL    HW175717   7.600   0.336   8.955
25253SOL    HW275718   7.687   0.256   9.049
25254SOL     OW75719   9.071   1.391   7.546
25254SOL    HW175720   9.031   1.477   7.532
25254SOL    HW275721   9.004   1.329   7.517
25255SOL     OW75722   7.907   1.741   7.763
25255SOL    HW175723   7.956   1.792   7.828
25255SOL    HW275724   7.974   1.701   7.709
25256SOL     OW75725   8.853   0.163   7.865
25256SOL    HW175726   8.847   0.106   7.788
25256SOL    HW275727   8.944   0.154   7.894
25257SOL     OW75728   7.700   1.788   8.662
25257SOL    HW175729   7.749   1.714   8.697
25257SOL    HW275730   7.687   1.767   8.570
25258SOL     OW75731   8.396   1.702   8.338
25258SOL    HW175732   8.481   1.661   8.353
25258SOL    HW275733   8.357   1.652   8.267
25259SOL     OW75734   7.842   0.689   7.923
25259SOL    HW175735   7.858   0.595   7.934
25259SOL    HW275736   7.749   0.700   7.940
25260SOL     OW75737   8.951   0.230   9.164
25260SOL    HW175738   8.968   0.246   9.257
25260SOL    HW275739   8.866   0.186   9.162
25261SOL     OW75740   8.091   0.106   7.555
25261SOL    HW175741   8.127   0.031   7.603
25261SOL    HW275742   8.029   0.067   7.493
25262SOL     OW75743   8.204   0.265   9.223
25262SOL    HW175744   8.278   0.205   9.213
25262SOL    HW275745   8.158   0.233   9.300
25263SOL     OW75746   8.317   1.527   8.647
25263SOL    HW175747   8.299   1.486   8.563
25263SOL    HW275748   8.384   1.472   8.687
25264SOL     OW75749   8.786   0.594   8.875
25264SOL    HW175750   8.817   0.569   8.963
25264SOL    HW275751   8.817   0.683   8.864
25265SOL     OW75752   8.264   1.377   8.404
25265SOL    HW175753   8.352   1.373   8.365
25265SOL    HW275754   8.206   1.392   8.330
25266SOL     OW75755   8.383   0.520   8.341
25266SOL    HW175756   8.355   0.511   8.250
25266SOL    HW275757   8.406   0.431   8.368
25267SOL     OW75758   7.999   0.061   7.942
25267SOL    HW175759   7.918   0.044   7.989
25267SOL    HW275760   7.977   0.130   7.879
25268SOL     OW75761   8.875   1.209   7.478
25268SOL    HW175762   8.907   1.137   7.533
25268SOL    HW275763   8.790   1.232   7.516
25269SOL     OW75764   7.744   0.069   7.670
25269SOL    HW175765   7.814   0.132   7.688
25269SOL    HW275766   7.775   9.987   7.709
25270SOL     OW75767   8.386   0.271   7.910
25270SOL    HW175768   8.359   0.304   7.824
25270SOL    HW275769   8.480   0.289   7.914
25271SOL     OW75770   8.526   0.692   8.892
25271SOL    HW175771   8.462   0.622   8.901
25271SOL    HW275772   8.610   0.647   8.888
25272SOL     OW75773   8.654   1.587   8.250
25272SOL    HW175774   8.669   1.647   8.177
25272SOL    HW275775   8.727   1.603   8.310
25273SOL     OW75776   7.930   1.161   8.155
25273SOL    HW175777   7.868   1.137   8.224
25273SOL    HW275778   7.880   1.154   8.074
25274SOL     OW75779   8.699   1.792   8.065
25274SOL    HW175780   8.748   1.854   8.012
25274SOL    HW275781   8.628   1.843   8.104
25275SOL     OW75782   8.485   0.518   7.477
25275SOL    HW175783   8.438   0.598   7.454
25275SOL    HW275784   8.543   0.544   7.549
25276SOL     OW75785   7.551   0.535   8.847
25276SOL    HW175786   7.640   0.550   8.813
25276SOL    HW275787   7.536   0.607   8.908
25277SOL     OW75788   8.015   0.237   8.650
25277SOL    HW175789   8.057   0.190   8.723
25277SOL    HW275790   7.921   0.226   8.666
25278SOL     OW75791   8.311   0.474   8.086
25278SOL    HW175792   8.267   0.530   8.022
25278SOL    HW275793   8.332   0.395   8.038
25279SOL     OW75794   8.412   0.062   8.237
25279SOL    HW175795   8.359   0.050   8.158
25279SOL    HW275796   8.423   9.973   8.272
25280SOL     OW75797   8.880   1.154   8.303
25280SOL    HW175798   8.811   1.088   8.313
25280SOL    HW275799   8.894   1.160   8.209
25281SOL     OW75800   8.902   0.624   8.399
25281SOL    HW175801   8.842   0.550   8.405
25281SOL    HW275802   8.957   0.617   8.476
25282SOL     OW75803   9.275   0.796   7.833
25282SOL    HW175804   9.332   0.752   7.896
25282SOL    HW275805   9.264   0.732   7.763
25283SOL     OW75806   7.946   1.424   7.598
25283SOL    HW175807   7.871   1.392   7.648
25283SOL    HW275808   7.942   1.375   7.516
25284SOL     OW75809   9.158   1.269   8.085
25284SOL    HW175810   9.252   1.263   8.103
25284SOL    HW275811   9.135   1.359   8.109
25285SOL     OW75812   8.842   0.577   7.523
25285SOL    HW175813   8.783   0.557   7.595
25285SOL    HW275814   8.928   0.550   7.554
25286SOL     OW75815   7.948   0.250   7.743
25286SOL    HW175816   8.013   0.214   7.683
25286SOL    HW275817   7.926   0.336   7.706
25287SOL     OW75818   9.180   1.244   8.981
25287SOL    HW175819   9.267   1.208   8.968
25287SOL    HW275820   9.196   1.331   9.018
25288SOL     OW75821   8.489   1.355   8.783
25288SOL    HW175822   8.412   1.321   8.828
25288SOL    HW275823   8.563   1.311   8.824
25289SOL     OW75824   9.055   1.635   9.112
25289SOL    HW175825   9.048   1.671   9.023
25289SOL    HW275826   9.132   1.579   9.108
25290SOL     OW75827   8.598   1.239   8.553
25290SOL    HW175828   8.536   1.273   8.618
25290SOL    HW275829   8.565   1.271   8.469
25291SOL     OW75830   9.053   1.093   8.528
25291SOL    HW175831   9.046   1.160   8.596
25291SOL    HW275832   8.983   1.114   8.466
25292SOL     OW75833   8.335   0.162   8.820
25292SOL    HW175834   8.360   0.118   8.739
25292SOL    HW275835   8.418   0.187   8.860
25293SOL     OW75836   8.428   1.115   9.171
25293SOL    HW175837   8.338   1.132   9.196
25293SOL    HW275838   8.424   1.033   9.121
25294SOL     OW75839   8.160   1.063   7.826
25294SOL    HW175840   8.145   1.035   7.916
25294SOL    HW275841   8.234   1.010   7.796
25295SOL     OW75842   7.878   0.839   8.707
25295SOL    HW175843   7.946   0.844   8.775
25295SOL    HW275844   7.844   0.750   8.715
25296SOL     OW75845   8.719   0.373   8.731
25296SOL    HW175846   8.749   0.451   8.778
25296SOL    HW275847   8.630   0.395   8.703
25297SOL     OW75848   7.526   1.570   8.809
25297SOL    HW175849   7.496   1.641   8.753
25297SOL    HW275850   7.621   1.570   8.800
25298SOL     OW75851   7.765   1.133   7.933
25298SOL    HW175852   7.766   1.205   7.869
25298SOL    HW275853   7.762   1.054   7.880
25299SOL     OW75854   8.008   0.491   8.299
25299SOL    HW175855   8.013   0.546   8.221
25299SOL    HW275856   8.067   0.533   8.362
25300SOL     OW75857   8.695   1.355   7.846
25300SOL    HW175858   8.751   1.424   7.880
25300SOL    HW275859   8.607   1.378   7.877
25301SOL     OW75860   8.757   1.469   8.590
25301SOL    HW175861   8.804   1.476   8.673
25301SOL    HW275862   8.706   1.388   8.598
25302SOL     OW75863   9.023   0.626   7.926
25302SOL    HW175864   8.973   0.665   7.998
25302SOL    HW275865   9.070   0.700   7.888
25303SOL     OW75866   7.792   1.533   8.750
25303SOL    HW175867   7.785   1.481   8.670
25303SOL    HW275868   7.886   1.550   8.760
25304SOL     OW75869   7.893   0.725   9.074
25304SOL    HW175870   7.942   0.776   9.009
25304SOL    HW275871   7.948   0.648   9.089
25305SOL     OW75872   9.070   0.785   9.152
25305SOL    HW175873   8.983   0.823   9.141
25305SOL    HW275874   9.121   0.822   9.080
25306SOL     OW75875   8.411   0.080   9.224
25306SOL    HW175876   8.478   0.135   9.264
25306SOL    HW275877   8.453   0.044   9.146
25307SOL     OW75878   7.916   0.024   9.233
25307SOL    HW175879   7.974   0.003   9.159
25307SOL    HW275880   7.871   0.104   9.206
25308SOL     OW75881   8.040   0.881   8.485
25308SOL    HW175882   8.079   0.968   8.489
25308SOL    HW275883   7.983   0.877   8.562
25309SOL     OW75884   8.752   0.860   8.448
25309SOL    HW175885   8.663   0.833   8.425
25309SOL    HW275886   8.806   0.781   8.432
25310SOL     OW75887   8.641   0.530   7.707
25310SOL    HW175888   8.649   0.457   7.768
25310SOL    HW275889   8.600   0.600   7.759
25311SOL     OW75890   7.748   0.180   8.704
25311SOL    HW175891   7.713   0.211   8.787
25311SOL    HW275892   7.758   0.085   8.716
25312SOL     OW75893   7.498   1.312   8.713
25312SOL    HW175894   7.527   1.256   8.786
25312SOL    HW275895   7.500   1.401   8.749
25313SOL     OW75896   8.158   0.629   8.482
25313SOL    HW175897   8.238   0.626   8.430
25313SOL    HW275898   8.127   0.719   8.472
25314SOL     OW75899   9.197   0.970   9.320
25314SOL    HW175900   9.152   0.898   9.275
25314SOL    HW275901   9.139   0.994   9.392
25315SOL     OW75902   7.747   0.064   8.075
25315SOL    HW175903   7.727   0.157   8.078
25315SOL    HW275904   7.760   0.039   8.167
25316SOL     OW75905   9.085   0.398   7.787
25316SOL    HW175906   9.122   0.334   7.848
25316SOL    HW275907   9.055   0.469   7.844
25317SOL     OW75908   8.484   0.763   8.406
25317SOL    HW175909   8.462   0.778   8.499
25317SOL    HW275910   8.456   0.673   8.389
25318SOL     OW75911   8.427   1.567   9.180
25318SOL    HW175912   8.408   1.610   9.096
25318SOL    HW275913   8.467   1.484   9.155
25319SOL     OW75914   9.287   1.493   9.048
25319SOL    HW175915   9.313   1.522   8.960
25319SOL    HW275916   9.365   1.504   9.101
25320SOL     OW75917   7.799   0.910   9.258
25320SOL    HW175918   7.876   0.933   9.311
25320SOL    HW275919   7.831   0.843   9.198
25321SOL     OW75920   8.966   0.278   7.567
25321SOL    HW175921   8.927   0.200   7.604
25321SOL    HW275922   9.011   0.320   7.641
25322SOL     OW75923   8.728   0.821   7.468
25322SOL    HW175924   8.771   0.736   7.477
25322SOL    HW275925   8.763   0.858   7.386
25323SOL     OW75926   8.518   1.353   8.314
25323SOL    HW175927   8.529   1.281   8.253
25323SOL    HW275928   8.570   1.424   8.277
25324SOL     OW75929   7.770   0.815   8.392
25324SOL    HW175930   7.863   0.835   8.390
25324SOL    HW275931   7.765   0.725   8.423
25325SOL     OW75932   7.797   0.543   8.463
25325SOL    HW175933   7.740   0.467   8.459
25325SOL    HW275934   7.867   0.524   8.400
25326SOL     OW75935   8.583   0.410   9.096
25326SOL    HW175936   8.536   0.448   9.170
25326SOL    HW275937   8.672   0.446   9.102
25327SOL     OW75938   8.591   0.207   8.915
25327SOL    HW175939   8.582   0.272   8.984
25327SOL    HW275940   8.646   0.251   8.849
25328SOL     OW75941   7.472   1.303   7.627
25328SOL    HW175942   7.382   1.325   7.602
25328SOL    HW275943   7.465   1.216   7.668
25329SOL     OW75944   7.540   1.770   8.398
25329SOL    HW175945   7.507   1.696   8.347
25329SOL    HW275946   7.628   1.787   8.362
25330SOL     OW75947   7.933   1.570   8.349
25330SOL    HW175948   8.004   1.630   8.371
25330SOL    HW275949   7.973   1.508   8.287
25331SOL     OW75950   8.399   0.784   8.664
25331SOL    HW175951   8.460   0.769   8.736
25331SOL    HW275952   8.319   0.739   8.691
25332SOL     OW75953   7.465   0.521   8.578
25332SOL    HW175954   7.523   0.462   8.530
25332SOL    HW275955   7.510   0.538   8.661
25333SOL     OW75956   7.632   0.553   9.191
25333SOL    HW175957   7.719   0.551   9.152
25333SOL    HW275958   7.584   0.620   9.142
25334SOL     OW75959   8.838   0.920   9.097
25334SOL    HW175960   8.855   1.014   9.093
25334SOL    HW275961   8.831   0.893   9.005
25335SOL     OW75962   8.261   0.580   7.822
25335SOL    HW175963   8.266   0.505   7.764
25335SOL    HW275964   8.184   0.628   7.792
25336SOL     OW75965   9.069   0.605   8.615
25336SOL    HW175966   9.049   0.553   8.693
25336SOL    HW275967   9.157   0.577   8.590
25337SOL     OW75968   7.673   1.543   9.169
25337SOL    HW175969   7.654   1.599   9.244
25337SOL    HW275970   7.683   1.455   9.206
25338SOL     OW75971   8.187   0.450   8.684
25338SOL    HW175972   8.124   0.379   8.673
25338SOL    HW275973   8.167   0.511   8.612
25339SOL     OW75974   8.356   1.679   8.933
25339SOL    HW175975   8.332   1.632   8.853
25339SOL    HW275976   8.357   1.771   8.907
25340SOL     OW75977   7.893   0.488   7.620
25340SOL    HW175978   7.956   0.556   7.645
25340SOL    HW275979   7.808   0.532   7.621
25341SOL     OW75980   7.577   1.151   8.928
25341SOL    HW175981   7.582   1.112   9.016
25341SOL    HW275982   7.598   1.079   8.869
25342SOL     OW75983   8.750   1.036   8.656
25342SOL    HW175984   8.759   0.973   8.584
25342SOL    HW275985   8.697   1.107   8.620
25343SOL     OW75986   8.774   0.861   7.740
25343SOL    HW175987   8.701   0.833   7.796
25343SOL    HW275988   8.743   0.847   7.651
25344SOL     OW75989   9.238   1.722   8.618
25344SOL    HW175990   9.300   1.749   8.549
25344SOL    HW275991   9.205   1.637   8.589
25345SOL     OW75992   8.688   1.734   8.538
25345SOL    HW175993   8.772   1.763   8.504
25345SOL    HW275994   8.703   1.642   8.563
25346SOL     OW75995   7.554   1.249   8.456
25346SOL    HW175996   7.526   1.270   8.545
25346SOL    HW275997   7.484   1.195   8.421
25347SOL     OW75998   8.135   1.682   9.201
25347SOL    HW175999   8.073   1.754   9.187
25347SOL    HW276000   8.211   1.705   9.147
25348SOL     OW76001   9.211   0.188   7.933
25348SOL    HW176002   9.266   0.190   7.855
25348SOL    HW276003   9.244   0.114   7.984
25349SOL     OW76004   8.846   1.570   7.951
25349SOL    HW176005   8.901   1.604   7.881
25349SOL    HW276006   8.791   1.643   7.978
25350SOL     OW76007   7.589   1.801   9.296
25350SOL    HW176008   7.543   1.730   9.341
25350SOL    HW276009   7.638   1.845   9.365
25351SOL     OW76010   8.726   0.937   8.109
25351SOL    HW176011   8.800   0.877   8.122
25351SOL    HW276012   8.762   1.010   8.059
25352SOL     OW76013   8.230   1.280   8.862
25352SOL    HW176014   8.204   1.328   8.940
25352SOL    HW276015   8.156   1.290   8.802
25353SOL     OW76016   8.116   1.636   7.607
25353SOL    HW176017   8.131   1.650   7.513
25353SOL    HW276018   8.064   1.555   7.611
25354SOL     OW76019   9.065   1.731   8.845
25354SOL    HW176020   9.123   1.731   8.769
25354SOL    HW276021   9.049   1.823   8.863
25355SOL     OW76022   9.300   0.149   8.409
25355SOL    HW176023   9.329   0.080   8.350
25355SOL    HW276024   9.214   0.175   8.376
25356SOL     OW76025   7.692   0.323   8.151
25356SOL    HW176026   7.605   0.359   8.133
25356SOL    HW276027   7.696   0.316   8.246
25357SOL     OW76028   8.656   1.589   7.486
25357SOL    HW176029   8.646   1.498   7.514
25357SOL    HW276030   8.587   1.602   7.421
25358SOL     OW76031   8.272   1.011   8.834
25358SOL    HW176032   8.310   1.002   8.747
25358SOL    HW276033   8.260   1.105   8.845
25359SOL     OW76034   8.365   0.913   7.740
25359SOL    HW176035   8.423   0.947   7.671
25359SOL    HW276036   8.417   0.847   7.785
25360SOL     OW76037   8.929   1.648   7.505
25360SOL    HW176038   8.837   1.628   7.487
25360SOL    HW276039   8.970   1.651   7.418
25361SOL     OW76040   7.810   1.312   8.948
25361SOL    HW176041   7.802   1.386   8.888
25361SOL    HW276042   7.731   1.260   8.933
25362SOL     OW76043   9.045   1.291   8.726
25362SOL    HW176044   9.099   1.266   8.802
25362SOL    HW276045   8.987   1.359   8.760
25363SOL     OW76046   8.525   1.120   8.177
25363SOL    HW176047   8.449   1.070   8.208
25363SOL    HW276048   8.586   1.053   8.147
25364SOL     OW76049   8.472   0.256   8.423
25364SOL    HW176050   8.454   0.208   8.342
25364SOL    HW276051   8.467   0.190   8.492
25365SOL     OW76052   8.052   1.487   7.923
25365SOL    HW176053   8.107   1.438   7.862
25365SOL    HW276054   7.971   1.502   7.876
25366SOL     OW76055   9.191   0.360   8.834
25366SOL    HW176056   9.259   0.427   8.821
25366SOL    HW276057   9.211   0.293   8.768
25367SOL     OW76058   7.728   1.340   7.747
25367SOL    HW176059   7.640   1.333   7.708
25367SOL    HW276060   7.713   1.389   7.828
25368SOL     OW76061   7.573   1.048   9.183
25368SOL    HW176062   7.495   1.021   9.232
25368SOL    HW276063   7.644   0.995   9.219
25369SOL     OW76064   8.110   0.230   8.958
25369SOL    HW176065   8.189   0.204   8.910
25369SOL    HW276066   8.141   0.246   9.047
25370SOL     OW76067   7.520   0.336   7.463
25370SOL    HW176068   7.438   0.326   7.413
25370SOL    HW276069   7.555   0.420   7.434
25371SOL     OW76070   8.862   0.856   8.833
25371SOL    HW176071   8.809   0.916   8.779
25371SOL    HW276072   8.950   0.862   8.796
25372SOL     OW76073   7.508   0.201   7.713
25372SOL    HW176074   7.505   0.256   7.635
25372SOL    HW276075   7.586   0.147   7.702
25373SOL     OW76076   8.629   1.323   7.571
25373SOL    HW176077   8.537   1.294   7.571
25373SOL    HW276078   8.652   1.326   7.664
25374SOL     OW76079   8.076   0.830   8.891
25374SOL    HW176080   8.133   0.905   8.879
25374SOL    HW276081   8.135   0.754   8.894
25375SOL     OW76082   8.935   1.802   8.440
25375SOL    HW176083   8.960   1.876   8.386
25375SOL    HW276084   9.017   1.758   8.462
25376SOL     OW76085   8.164   0.541   9.144
25376SOL    HW176086   8.212   0.600   9.202
25376SOL    HW276087   8.179   0.454   9.180
25377SOL     OW76088   8.915   1.183   9.068
25377SOL    HW176089   8.908   1.202   9.162
25377SOL    HW276090   9.004   1.208   9.045
25378SOL     OW76091   7.803   1.748   9.026
25378SOL    HW176092   7.721   1.794   9.011
25378SOL    HW276093   7.777   1.664   9.063
25379SOL     OW76094   9.102   0.877   8.700
25379SOL    HW176095   9.098   0.794   8.652
25379SOL    HW276096   9.090   0.944   8.632
25380SOL     OW76097   8.654   0.338   7.905
25380SOL    HW176098   8.723   0.273   7.890
25380SOL    HW276099   8.685   0.387   7.982
25381SOL     OW76100   8.031   0.717   8.127
25381SOL    HW176101   8.072   0.803   8.116
25381SOL    HW276102   7.965   0.712   8.058
25382SOL     OW76103   9.191   0.351   9.106
25382SOL    HW176104   9.192   0.362   9.011
25382SOL    HW276105   9.111   0.302   9.124
25383SOL     OW76106   9.201   0.917   8.953
25383SOL    HW176107   9.191   1.011   8.967
25383SOL    HW276108   9.176   0.904   8.861
25384SOL     OW76109   8.319   1.357   7.511
25384SOL    HW176110   8.281   1.375   7.597
25384SOL    HW276111   8.329   1.443   7.470
25385SOL     OW76112   8.117   1.766   8.373
25385SOL    HW176113   8.097   1.860   8.366
25385SOL    HW276114   8.212   1.761   8.372
25386SOL     OW76115   8.320   0.978   8.304
25386SOL    HW176116   8.371   0.905   8.340
25386SOL    HW276117   8.275   1.016   8.379
25387SOL     OW76118   8.523   0.988   7.536
25387SOL    HW176119   8.500   1.040   7.460
25387SOL    HW276120   8.596   0.932   7.506
25388SOL     OW76121   9.282   1.558   8.287
25388SOL    HW176122   9.205   1.550   8.231
25388SOL    HW276123   9.262   1.504   8.364
25389SOL     OW76124   7.659   1.290   9.284
25389SOL    HW176125   7.628   1.209   9.242
25389SOL    HW276126   7.598   1.305   9.356
25390SOL     OW76127   7.565   1.224   8.115
25390SOL    HW176128   7.597   1.183   8.196
25390SOL    HW276129   7.624   1.191   8.047
25391SOL     OW76130   8.136   1.421   9.079
25391SOL    HW176131   8.059   1.382   9.120
25391SOL    HW276132   8.142   1.508   9.117
25392SOL     OW76133   9.228   0.135   8.679
25392SOL    HW176134   9.169   0.060   8.669
25392SOL    HW276135   9.266   0.148   8.592
25393SOL     OW76136   7.877   0.427   7.969
25393SOL    HW176137   7.902   0.354   7.913
25393SOL    HW276138   7.821   0.388   8.037
25394SOL     OW76139   9.144   1.480   8.529
25394SOL    HW176140   9.066   1.461   8.477
25394SOL    HW276141   9.144   1.413   8.598
25395SOL     OW76142   7.793   0.581   8.735
25395SOL    HW176143   7.847   0.520   8.785
25395SOL    HW276144   7.809   0.557   8.644
25396SOL     OW76145   8.286   1.584   8.118
25396SOL    HW176146   8.256   1.654   8.060
25396SOL    HW276147   8.211   1.525   8.127
25397SOL     OW76148   8.882   0.237   8.559
25397SOL    HW176149   8.912   0.158   8.604
25397SOL    HW276150   8.832   0.285   8.626
25398SOL     OW76151   8.473   0.039   8.603
25398SOL    HW176152   8.444   9.948   8.604
25398SOL    HW276153   8.566   0.036   8.622
25399SOL     OW76154   8.228   1.332   7.776
25399SOL    HW176155   8.203   1.241   7.789
25399SOL    HW276156   8.308   1.343   7.828
25400SOL     OW76157   8.063   1.570   8.735
25400SOL    HW176158   8.058   1.655   8.781
25400SOL    HW276159   8.153   1.566   8.703
25401SOL     OW76160   8.838   0.030   7.626
25401SOL    HW176161   8.921   9.984   7.633
25401SOL    HW276162   8.772   9.962   7.638
25402SOL     OW76163   8.746   0.477   8.123
25402SOL    HW176164   8.695   0.558   8.123
25402SOL    HW276165   8.738   0.444   8.213
25403SOL     OW76166   9.050   0.226   8.332
25403SOL    HW176167   8.992   0.237   8.408
25403SOL    HW276168   9.045   0.309   8.285
25404SOL     OW76169   7.484   1.051   7.756
25404SOL    HW176170   7.577   1.038   7.736
25404SOL    HW276171   7.452   0.964   7.777
25405SOL     OW76172   8.343   1.675   7.777
25405SOL    HW176173   8.265   1.660   7.725
25405SOL    HW276174   8.318   1.744   7.839
25406SOL     OW76175   7.660   0.617   9.461
25406SOL    HW176176   7.572   0.606   9.497
25406SOL    HW276177   7.647   0.613   9.366
25407SOL     OW76178   9.255   0.580   9.519
25407SOL    HW176179   9.208   0.570   9.436
25407SOL    HW276180   9.206   0.525   9.580
25408SOL     OW76181   7.657   1.747   9.761
25408SOL    HW176182   7.680   1.817   9.822
25408SOL    HW276183   7.738   1.729   9.713
25409SOL     OW76184   7.674   1.463   9.846
25409SOL    HW176185   7.648   1.548   9.880
25409SOL    HW276186   7.606   1.403   9.875
25410SOL     OW76187   8.017   0.984   9.451
25410SOL    HW176188   8.067   1.028   9.382
25410SOL    HW276189   8.056   1.015   9.532
25411SOL     OW76190   7.570   0.702   9.849
25411SOL    HW176191   7.543   0.614   9.876
25411SOL    HW276192   7.539   0.759   9.919
25412SOL     OW76193   9.274   1.756   9.641
25412SOL    HW176194   9.350   1.734   9.695
25412SOL    HW276195   9.293   1.843   9.606
25413SOL     OW76196   7.496   1.590   9.432
25413SOL    HW176197   7.482   1.497   9.449
25413SOL    HW276198   7.459   1.634   9.509
25414SOL     OW76199   9.113   0.849   9.910
25414SOL    HW176200   9.188   0.859   9.968
25414SOL    HW276201   9.110   0.931   9.860
25415SOL     OW76202   9.133   1.092   9.763
25415SOL    HW176203   9.218   1.098   9.719
25415SOL    HW276204   9.125   1.174   9.812
25416SOL     OW76205   8.092   1.340   9.992
25416SOL    HW176206   8.033   1.264   9.990
25416SOL    HW276207   8.070   1.390   9.914
25417SOL     OW76208   8.250   0.009   9.804
25417SOL    HW176209   8.288   0.097   9.803
25417SOL    HW276210   8.157   0.023   9.821
25418SOL     OW76211   9.004   1.023   9.521
25418SOL    HW176212   8.941   0.956   9.546
25418SOL    HW276213   9.043   1.052   9.603
25419SOL     OW76214   8.031   0.707   9.585
25419SOL    HW176215   8.034   0.794   9.545
25419SOL    HW276216   7.971   0.717   9.659
25420SOL     OW76217   9.009   1.672   9.625
25420SOL    HW176218   9.101   1.697   9.633
25420SOL    HW276219   8.994   1.661   9.531
25421SOL     OW76220   8.494   0.687   9.734
25421SOL    HW176221   8.525   0.665   9.822
25421SOL    HW276222   8.406   0.649   9.730
25422SOL     OW76223   7.490   0.854   0.065
25422SOL    HW176224   7.545   0.791   0.113
25422SOL    HW276225   7.478   0.927   0.127
25423SOL     OW76226   8.331   0.363   9.516
25423SOL    HW176227   8.373   0.421   9.453
25423SOL    HW276228   8.332   0.277   9.474
25424SOL     OW76229   8.764   1.092   9.786
25424SOL    HW176230   8.813   1.119   9.863
25424SOL    HW276231   8.736   1.174   9.745
25425SOL     OW76232   8.439   1.434   9.783
25425SOL    HW176233   8.410   1.519   9.751
25425SOL    HW276234   8.413   1.432   9.875
25426SOL     OW76235   7.800   1.853   0.167
25426SOL    HW176236   7.805   1.772   0.218
25426SOL    HW276237   7.891   1.884   0.163
25427SOL     OW76238   7.762   0.956   9.575
25427SOL    HW176239   7.841   0.970   9.524
25427SOL    HW276240   7.725   0.874   9.541
25428SOL     OW76241   8.585   1.776   9.545
25428SOL    HW176242   8.506   1.742   9.587
25428SOL    HW276243   8.606   1.712   9.477
25429SOL     OW76244   9.070   1.396   9.398
25429SOL    HW176245   9.027   1.480   9.386
25429SOL    HW276246   9.003   1.331   9.374
25430SOL     OW76247   7.916   1.762   9.634
25430SOL    HW176248   7.966   1.789   9.711
25430SOL    HW276249   7.980   1.714   9.581
25431SOL     OW76250   8.864   0.160   9.755
25431SOL    HW176251   8.845   0.120   9.671
25431SOL    HW276252   8.924   0.232   9.735
25432SOL     OW76253   7.845   0.668   9.803
25432SOL    HW176254   7.839   0.573   9.818
25432SOL    HW276255   7.755   0.699   9.808
25433SOL     OW76256   8.090   0.110   9.431
25433SOL    HW176257   8.130   0.035   9.473
25433SOL    HW276258   8.031   0.073   9.365
25434SOL     OW76259   7.992   0.085   9.843
25434SOL    HW176260   7.901   0.060   9.859
25434SOL    HW276261   7.987   0.149   9.772
25435SOL     OW76262   8.880   1.204   9.343
25435SOL    HW176263   8.916   1.138   9.403
25435SOL    HW276264   8.794   1.225   9.379
25436SOL     OW76265   7.744   0.044   9.515
25436SOL    HW176266   7.811   0.051   9.447
25436SOL    HW276267   7.781   9.982   9.578
25437SOL     OW76268   8.369   0.257   9.770
25437SOL    HW176269   8.347   0.298   9.686
25437SOL    HW276270   8.464   0.267   9.777
25438SOL     OW76271   7.891   1.154   0.033
25438SOL    HW176272   7.821   1.186   0.090
25438SOL    HW276273   7.849   1.138   9.949
25439SOL     OW76274   8.748   1.834   9.899
25439SOL    HW176275   8.792   1.899   9.845
25439SOL    HW276276   8.656   1.860   9.899
25440SOL     OW76277   8.486   0.516   9.338
25440SOL    HW176278   8.438   0.595   9.314
25440SOL    HW276279   8.544   0.543   9.409
25441SOL     OW76280   8.282   0.456   9.948
25441SOL    HW176281   8.248   0.515   9.880
25441SOL    HW276282   8.301   0.375   9.901
25442SOL     OW76283   9.362   0.810   9.620
25442SOL    HW176284   9.379   0.771   9.706
25442SOL    HW276285   9.314   0.743   9.572
25443SOL     OW76286   7.943   1.427   9.463
25443SOL    HW176287   7.868   1.393   9.512
25443SOL    HW276288   7.942   1.378   9.381
25444SOL     OW76289   8.838   0.585   9.378
25444SOL    HW176290   8.782   0.563   9.453
25444SOL    HW276291   8.927   0.565   9.408
25445SOL     OW76292   7.984   0.272   9.641
25445SOL    HW176293   8.029   0.221   9.574
25445SOL    HW276294   7.946   0.346   9.593
25446SOL     OW76295   8.152   1.051   9.684
25446SOL    HW176296   8.118   1.004   9.760
25446SOL    HW276297   8.232   1.004   9.661
25447SOL     OW76298   7.759   1.126   9.797
25447SOL    HW176299   7.759   1.201   9.738
25447SOL    HW276300   7.765   1.050   9.739
25448SOL     OW76301   8.684   1.353   9.691
25448SOL    HW176302   8.740   1.424   9.722
25448SOL    HW276303   8.598   1.373   9.726
25449SOL     OW76304   9.048   0.621   9.759
25449SOL    HW176305   9.070   0.674   9.836
25449SOL    HW276306   9.011   0.683   9.697
25450SOL     OW76307   8.643   0.530   9.565
25450SOL    HW176308   8.647   0.456   9.626
25450SOL    HW276309   8.605   0.601   9.617
25451SOL     OW76310   7.719   0.098   9.916
25451SOL    HW176311   7.728   0.192   9.901
25451SOL    HW276312   7.728   0.088   0.011
25452SOL     OW76313   9.045   0.359   9.684
25452SOL    HW176314   9.117   0.319   9.733
25452SOL    HW276315   9.037   0.447   9.720
25453SOL     OW76316   8.968   0.271   9.429
25453SOL    HW176317   8.923   0.191   9.458
25453SOL    HW276318   9.005   0.308   9.509
25454SOL     OW76319   8.722   0.827   9.326
25454SOL    HW176320   8.765   0.743   9.338
25454SOL    HW276321   8.758   0.862   9.245
25455SOL     OW76322   7.472   1.316   9.484
25455SOL    HW176323   7.382   1.334   9.459
25455SOL    HW276324   7.469   1.230   9.525
25456SOL     OW76325   8.248   0.569   9.693
25456SOL    HW176326   8.258   0.499   9.629
25456SOL    HW276327   8.177   0.623   9.659
25457SOL     OW76328   7.895   0.484   9.492
25457SOL    HW176329   7.954   0.556   9.513
25457SOL    HW276330   7.809   0.524   9.487
25458SOL     OW76331   8.809   0.854   9.606
25458SOL    HW176332   8.768   0.913   9.669
25458SOL    HW276333   8.749   0.851   9.532
25459SOL     OW76334   9.245   0.217   9.812
25459SOL    HW176335   9.299   0.204   9.734
25459SOL    HW276336   9.201   0.133   9.824
25460SOL     OW76337   8.811   1.587   9.793
25460SOL    HW176338   8.882   1.604   9.731
25460SOL    HW276339   8.784   1.674   9.822
25461SOL     OW76340   8.115   1.639   9.475
25461SOL    HW176341   8.131   1.652   9.381
25461SOL    HW276342   8.062   1.560   9.479
25462SOL     OW76343   9.250   0.156   0.243
25462SOL    HW176344   9.247   0.062   0.229
25462SOL    HW276345   9.184   0.191   0.183
25463SOL     OW76346   8.654   1.594   9.348
25463SOL    HW176347   8.646   1.502   9.373
25463SOL    HW276348   8.585   1.608   9.284
25464SOL     OW76349   8.370   0.910   9.612
25464SOL    HW176350   8.426   0.942   9.542
25464SOL    HW276351   8.422   0.843   9.656
25465SOL     OW76352   8.930   1.650   9.357
25465SOL    HW176353   8.837   1.632   9.341
25465SOL    HW276354   8.969   1.652   9.270
25466SOL     OW76355   8.040   1.479   9.763
25466SOL    HW176356   8.098   1.434   9.701
25466SOL    HW276357   7.956   1.483   9.719
25467SOL     OW76358   7.727   1.343   9.614
25467SOL    HW176359   7.641   1.337   9.573
25467SOL    HW276360   7.713   1.394   9.694
25468SOL     OW76361   7.519   0.332   9.327
25468SOL    HW176362   7.439   0.320   9.276
25468SOL    HW276363   7.553   0.417   9.300
25469SOL     OW76364   7.528   0.201   9.590
25469SOL    HW176365   7.518   0.253   9.511
25469SOL    HW276366   7.603   0.144   9.573
25470SOL     OW76367   8.626   1.323   9.422
25470SOL    HW176368   8.534   1.296   9.422
25470SOL    HW276369   8.649   1.328   9.515
25471SOL     OW76370   8.641   0.337   9.761
25471SOL    HW176371   8.708   0.271   9.780
25471SOL    HW276372   8.638   0.391   9.840
25472SOL     OW76373   8.048   0.848   9.884
25472SOL    HW176374   8.056   0.850   9.979
25472SOL    HW276375   7.980   0.783   9.867
25473SOL     OW76376   8.320   1.356   9.365
25473SOL    HW176377   8.283   1.371   9.452
25473SOL    HW276378   8.328   1.444   9.327
25474SOL     OW76379   8.517   0.986   9.400
25474SOL    HW176380   8.495   1.041   9.325
25474SOL    HW276381   8.590   0.931   9.370
25475SOL     OW76382   7.510   1.246   9.900
25475SOL    HW176383   7.500   1.249   9.995
25475SOL    HW276384   7.579   1.181   9.886
25476SOL     OW76385   7.830   0.382   9.873
25476SOL    HW176386   7.893   0.350   9.808
25476SOL    HW276387   7.882   0.396   9.952
25477SOL     OW76388   8.229   1.326   9.627
25477SOL    HW176389   8.203   1.236   9.645
25477SOL    HW276390   8.305   1.341   9.683
25478SOL     OW76391   8.841   0.041   9.507
25478SOL    HW176392   8.923   9.991   9.508
25478SOL    HW276393   8.772   9.975   9.512
25479SOL     OW76394   7.505   1.070   9.598
25479SOL    HW176395   7.599   1.058   9.591
25479SOL    HW276396   7.469   0.981   9.600
25480SOL     OW76397   8.342   1.671   9.664
25480SOL    HW176398   8.267   1.654   9.608
25480SOL    HW276399   8.313   1.741   9.723
25481SOL     OW76400   7.646   2.474   0.127
25481SOL    HW176401   7.562   2.458   0.171
25481SOL    HW276402   7.622   2.485   0.035
25482SOL     OW76403   7.667   2.151   0.990
25482SOL    HW176404   7.697   2.115   1.073
25482SOL    HW276405   7.580   2.113   0.978
25483SOL     OW76406   7.432   2.260   0.647
25483SOL    HW176407   7.351   2.282   0.692
25483SOL    HW276408   7.409   2.185   0.593
25484SOL     OW76409   8.023   3.170   1.209
25484SOL    HW176410   7.941   3.173   1.160
25484SOL    HW276411   8.041   3.261   1.232
25485SOL     OW76412   9.040   3.384   0.707
25485SOL    HW176413   8.993   3.353   0.783
25485SOL    HW276414   8.974   3.387   0.637
25486SOL     OW76415   8.587   2.564   0.686
25486SOL    HW176416   8.633   2.647   0.676
25486SOL    HW276417   8.537   2.573   0.767
25487SOL     OW76418   9.222   2.441   0.196
25487SOL    HW176419   9.147   2.470   0.144
25487SOL    HW276420   9.189   2.369   0.250
25488SOL     OW76421   8.174   2.991   1.058
25488SOL    HW176422   8.116   3.031   1.122
25488SOL    HW276423   8.217   3.064   1.015
25489SOL     OW76424   8.335   2.604   1.828
25489SOL    HW176425   8.328   2.671   1.896
25489SOL    HW276426   8.352   2.653   1.748
25490SOL     OW76427   8.133   2.839   0.646
25490SOL    HW176428   8.201   2.841   0.713
25490SOL    HW276429   8.067   2.901   0.676
25491SOL     OW76430   8.160   3.011   1.832
25491SOL    HW176431   8.211   3.084   1.868
25491SOL    HW276432   8.084   3.053   1.792
25492SOL     OW76433   7.790   3.259   1.071
25492SOL    HW176434   7.714   3.217   1.031
25492SOL    HW276435   7.826   3.315   1.002
25493SOL     OW76436   8.901   3.370   1.372
25493SOL    HW176437   8.957   3.446   1.384
25493SOL    HW276438   8.830   3.381   1.435
25494SOL     OW76439   7.906   2.236   1.455
25494SOL    HW176440   7.981   2.178   1.471
25494SOL    HW276441   7.830   2.185   1.483
25495SOL     OW76442   9.025   2.292   0.753
25495SOL    HW176443   8.951   2.301   0.693
25495SOL    HW276444   9.013   2.363   0.817
25496SOL     OW76445   7.676   3.582   0.470
25496SOL    HW176446   7.692   3.657   0.528
25496SOL    HW276447   7.761   3.562   0.431
25497SOL     OW76448   8.582   3.204   1.697
25497SOL    HW176449   8.629   3.193   1.780
25497SOL    HW276450   8.529   3.125   1.688
25498SOL     OW76451   7.656   3.306   0.507
25498SOL    HW176452   7.650   3.401   0.516
25498SOL    HW276453   7.617   3.272   0.588
25499SOL     OW76454   7.727   2.949   0.880
25499SOL    HW176455   7.730   2.860   0.916
25499SOL    HW276456   7.674   2.998   0.942
25500SOL     OW76457   8.020   3.667   1.418
25500SOL    HW176458   7.944   3.646   1.474
25500SOL    HW276459   8.053   3.749   1.454
25501SOL     OW76460   8.016   2.809   0.174
25501SOL    HW176461   7.990   2.879   0.114
25501SOL    HW276462   8.075   2.852   0.237
25502SOL     OW76463   9.039   1.994   1.460
25502SOL    HW176464   9.078   2.070   1.417
25502SOL    HW276465   9.006   2.028   1.543
25503SOL     OW76466   7.562   2.516   0.573
25503SOL    HW176467   7.527   2.430   0.597
25503SOL    HW276468   7.555   2.569   0.652
25504SOL     OW76469   9.308   3.593   0.311
25504SOL    HW176470   9.378   3.571   0.372
25504SOL    HW276471   9.323   3.686   0.291
25505SOL     OW76472   7.500   3.437   0.084
25505SOL    HW176473   7.482   3.349   0.119
25505SOL    HW276474   7.482   3.496   0.156
25506SOL     OW76475   9.140   2.784   0.666
25506SOL    HW176476   9.226   2.743   0.658
25506SOL    HW276477   9.128   2.831   0.584
25507SOL     OW76478   9.108   2.956   0.444
25507SOL    HW176479   9.189   2.951   0.394
25507SOL    HW276480   9.124   3.023   0.510
25508SOL     OW76481   7.570   2.611   1.578
25508SOL    HW176482   7.655   2.654   1.583
25508SOL    HW276483   7.508   2.683   1.565
25509SOL     OW76484   8.063   3.243   0.757
25509SOL    HW176485   8.021   3.157   0.752
25509SOL    HW276486   8.060   3.277   0.667
25510SOL     OW76487   8.718   3.088   1.417
25510SOL    HW176488   8.745   3.018   1.357
25510SOL    HW276489   8.780   3.082   1.489
25511SOL     OW76490   8.280   1.877   0.529
25511SOL    HW176491   8.321   1.958   0.497
25511SOL    HW276492   8.186   1.897   0.529
25512SOL     OW76493   7.635   2.818   1.302
25512SOL    HW176494   7.722   2.783   1.285
25512SOL    HW276495   7.580   2.781   1.232
25513SOL     OW76496   8.942   2.890   0.233
25513SOL    HW176497   8.884   2.821   0.266
25513SOL    HW276498   9.002   2.908   0.306
25514SOL     OW76499   8.626   3.684   1.636
25514SOL    HW176500   8.628   3.746   1.562
25514SOL    HW276501   8.643   3.599   1.595
25515SOL     OW76502   7.808   2.115   1.875
25515SOL    HW176503   7.843   2.195   1.913
25515SOL    HW276504   7.713   2.130   1.873
25516SOL     OW76505   8.918   3.279   0.929
25516SOL    HW176506   8.856   3.298   0.999
25516SOL    HW276507   8.901   3.188   0.906
25517SOL     OW76508   9.088   3.661   0.564
25517SOL    HW176509   9.074   3.613   0.482
25517SOL    HW276510   9.092   3.594   0.631
25518SOL     OW76511   8.041   2.553   0.285
25518SOL    HW176512   8.047   2.639   0.244
25518SOL    HW276513   7.975   2.563   0.353
25519SOL     OW76514   8.729   2.253   0.941
25519SOL    HW176515   8.640   2.218   0.947
25519SOL    HW276516   8.782   2.195   0.996
25520SOL     OW76517   9.037   3.536   0.325
25520SOL    HW176518   9.132   3.546   0.312
25520SOL    HW276519   9.003   3.518   0.238
25521SOL     OW76520   8.237   2.476   1.430
25521SOL    HW176521   8.214   2.447   1.518
25521SOL    HW276522   8.212   2.403   1.374
25522SOL     OW76523   8.839   2.339   1.674
25522SOL    HW176524   8.844   2.382   1.759
25522SOL    HW276525   8.889   2.257   1.685
25523SOL     OW76526   8.392   2.742   1.593
25523SOL    HW176527   8.449   2.679   1.549
25523SOL    HW276528   8.344   2.785   1.522
25524SOL     OW76529   8.455   2.259   1.210
25524SOL    HW176530   8.363   2.273   1.232
25524SOL    HW276531   8.453   2.215   1.125
25525SOL     OW76532   8.515   2.559   0.416
25525SOL    HW176533   8.534   2.556   0.510
25525SOL    HW276534   8.430   2.516   0.408
25526SOL     OW76535   7.540   2.691   0.783
25526SOL    HW176536   7.623   2.683   0.830
25526SOL    HW276537   7.494   2.761   0.827
25527SOL     OW76538   7.557   3.741   1.588
25527SOL    HW176539   7.565   3.721   1.681
25527SOL    HW276540   7.471   3.706   1.563
25528SOL     OW76541   8.309   2.201   0.200
25528SOL    HW176542   8.295   2.250   0.118
25528SOL    HW276543   8.318   2.110   0.171
25529SOL     OW76544   9.134   2.425   1.840
25529SOL    HW176545   9.111   2.503   1.790
25529SOL    HW276546   9.161   2.361   1.775
25530SOL     OW76547   8.844   3.011   0.556
25530SOL    HW176548   8.923   3.000   0.503
25530SOL    HW276549   8.790   3.072   0.505
25531SOL     OW76550   7.999   2.025   0.915
25531SOL    HW176551   8.005   2.052   1.006
25531SOL    HW276552   7.995   2.107   0.865
25532SOL     OW76553   8.447   3.314   0.471
25532SOL    HW176554   8.424   3.391   0.419
25532SOL    HW276555   8.416   3.334   0.559
25533SOL     OW76556   7.801   3.679   0.881
25533SOL    HW176557   7.846   3.595   0.885
25533SOL    HW276558   7.868   3.744   0.902
25534SOL     OW76559   9.247   2.915   0.896
25534SOL    HW176560   9.197   2.901   0.816
25534SOL    HW276561   9.181   2.922   0.965
25535SOL     OW76562   8.665   3.406   1.517
25535SOL    HW176563   8.654   3.335   1.581
25535SOL    HW276564   8.599   3.388   1.450
25536SOL     OW76565   7.761   2.790   0.289
25536SOL    HW176566   7.842   2.797   0.239
25536SOL    HW276567   7.763   2.701   0.326
25537SOL     OW76568   8.931   2.617   0.713
25537SOL    HW176569   8.931   2.578   0.800
25537SOL    HW276570   9.008   2.674   0.711
25538SOL     OW76571   7.921   3.146   1.748
25538SOL    HW176572   7.897   3.150   1.655
25538SOL    HW276573   7.838   3.134   1.794
25539SOL     OW76574   8.552   3.646   0.180
25539SOL    HW176575   8.497   3.606   0.246
25539SOL    HW276576   8.592   3.572   0.134
25540SOL     OW76577   7.656   2.118   1.499
25540SOL    HW176578   7.585   2.178   1.519
25540SOL    HW276579   7.626   2.033   1.532
25541SOL     OW76580   9.081   3.231   0.111
25541SOL    HW176581   9.040   3.317   0.105
25541SOL    HW276582   9.014   3.171   0.079
25542SOL     OW76583   7.935   3.571   0.375
25542SOL    HW176584   7.971   3.646   0.422
25542SOL    HW276585   8.002   3.549   0.310
25543SOL     OW76586   8.844   1.965   0.449
25543SOL    HW176587   8.843   1.945   0.355
25543SOL    HW276588   8.935   1.949   0.475
25544SOL     OW76589   7.699   3.650   1.215
25544SOL    HW176590   7.749   3.576   1.252
25544SOL    HW276591   7.691   3.629   1.122
25545SOL     OW76592   8.395   3.563   0.891
25545SOL    HW176593   8.479   3.521   0.905
25545SOL    HW276594   8.353   3.512   0.821
25546SOL     OW76595   7.821   2.555   0.463
25546SOL    HW176596   7.844   2.463   0.475
25546SOL    HW276597   7.732   2.563   0.498
25547SOL     OW76598   8.954   2.084   1.717
25547SOL    HW176599   8.967   2.103   1.810
25547SOL    HW276600   8.889   2.014   1.716
25548SOL     OW76601   8.056   1.954   0.117
25548SOL    HW176602   8.150   1.944   0.127
25548SOL    HW276603   8.042   1.961   0.023
25549SOL     OW76604   8.207   2.136   1.752
25549SOL    HW176605   8.291   2.091   1.750
25549SOL    HW276606   8.160   2.097   1.826
25550SOL     OW76607   8.318   3.390   1.201
25550SOL    HW176608   8.299   3.348   1.117
25550SOL    HW276609   8.385   3.335   1.241
25551SOL     OW76610   8.778   2.453   1.433
25551SOL    HW176611   8.811   2.423   1.518
25551SOL    HW276612   8.817   2.540   1.422
25552SOL     OW76613   8.265   3.239   0.961
25552SOL    HW176614   8.351   3.235   0.919
25552SOL    HW276615   8.203   3.251   0.889
25553SOL     OW76616   8.378   2.376   0.891
25553SOL    HW176617   8.353   2.364   0.799
25553SOL    HW276618   8.406   2.290   0.920
25554SOL     OW76619   8.012   1.938   0.502
25554SOL    HW176620   7.933   1.936   0.556
25554SOL    HW276621   7.999   2.010   0.442
25555SOL     OW76622   8.875   3.060   0.034
25555SOL    HW176623   8.900   2.994   0.098
25555SOL    HW276624   8.794   3.098   0.068
25556SOL     OW76625   8.400   2.112   0.449
25556SOL    HW176626   8.369   2.149   0.367
25556SOL    HW276627   8.494   2.134   0.451
25557SOL     OW76628   8.524   2.555   1.445
25557SOL    HW176629   8.462   2.482   1.450
25557SOL    HW276630   8.610   2.513   1.442
25558SOL     OW76631   8.653   3.450   0.801
25558SOL    HW176632   8.669   3.509   0.728
25558SOL    HW276633   8.727   3.463   0.860
25559SOL     OW76634   7.927   3.011   0.710
25559SOL    HW176635   7.863   2.989   0.778
25559SOL    HW276636   7.877   3.006   0.629
25560SOL     OW76637   8.700   3.655   0.613
25560SOL    HW176638   8.750   3.718   0.561
25560SOL    HW276639   8.632   3.706   0.655
25561SOL     OW76640   8.542   2.423   9.980
25561SOL    HW176641   8.454   2.386   9.986
25561SOL    HW276642   8.577   2.416   0.068
25562SOL     OW76643   7.547   2.414   1.390
25562SOL    HW176644   7.639   2.415   1.365
25562SOL    HW276645   7.540   2.483   1.457
25563SOL     OW76646   8.007   2.083   1.185
25563SOL    HW176647   8.044   2.018   1.245
25563SOL    HW276648   7.913   2.083   1.206
25564SOL     OW76649   8.320   2.313   0.633
25564SOL    HW176650   8.286   2.370   0.564
25564SOL    HW276651   8.345   2.233   0.587
25565SOL     OW76652   8.472   1.920   0.743
25565SOL    HW176653   8.409   1.915   0.671
25565SOL    HW276654   8.448   1.847   0.800
25566SOL     OW76655   8.878   3.015   0.854
25566SOL    HW176656   8.811   2.948   0.866
25566SOL    HW276657   8.890   3.022   0.760
25567SOL     OW76658   8.907   2.478   0.952
25567SOL    HW176659   8.844   2.406   0.962
25567SOL    HW276660   8.964   2.471   1.029
25568SOL     OW76661   9.300   2.649   0.367
25568SOL    HW176662   9.343   2.602   0.439
25568SOL    HW276663   9.264   2.580   0.311
25569SOL     OW76664   7.952   3.305   0.213
25569SOL    HW176665   7.871   3.259   0.234
25569SOL    HW276666   7.994   3.250   0.147
25570SOL     OW76667   9.163   3.132   0.635
25570SOL    HW176668   9.256   3.125   0.655
25570SOL    HW276669   9.139   3.221   0.661
25571SOL     OW76670   8.865   2.427   0.093
25571SOL    HW176671   8.789   2.416   0.150
25571SOL    HW276672   8.902   2.340   0.085
25572SOL     OW76673   7.956   2.126   0.309
25572SOL    HW176674   7.994   2.067   0.244
25572SOL    HW276675   7.934   2.205   0.261
25573SOL     OW76676   9.180   3.107   1.534
25573SOL    HW176677   9.267   3.070   1.520
25573SOL    HW276678   9.196   3.194   1.570
25574SOL     OW76679   8.490   3.218   1.336
25574SOL    HW176680   8.413   3.183   1.380
25574SOL    HW276681   8.564   3.172   1.376
25575SOL     OW76682   9.055   3.498   1.671
25575SOL    HW176683   9.045   3.534   1.583
25575SOL    HW276684   9.133   3.442   1.666
25576SOL     OW76685   8.598   3.100   1.105
25576SOL    HW176686   8.536   3.135   1.170
25576SOL    HW276687   8.565   3.132   1.021
25577SOL     OW76688   9.051   2.953   1.081
25577SOL    HW176689   9.043   3.020   1.149
25577SOL    HW276690   8.982   2.975   1.018
25578SOL     OW76691   8.367   1.943   1.383
25578SOL    HW176692   8.388   1.928   1.291
25578SOL    HW276693   8.445   1.984   1.419
25579SOL     OW76694   8.427   2.977   1.724
25579SOL    HW176695   8.337   2.994   1.751
25579SOL    HW276696   8.423   2.897   1.673
25580SOL     OW76697   8.171   2.915   0.378
25580SOL    HW176698   8.157   2.888   0.469
25580SOL    HW276699   8.251   2.869   0.351
25581SOL     OW76700   7.874   2.689   1.259
25581SOL    HW176701   7.941   2.700   1.326
25581SOL    HW276702   7.844   2.599   1.269
25582SOL     OW76703   8.712   2.230   1.292
25582SOL    HW176704   8.740   2.310   1.336
25582SOL    HW276705   8.623   2.248   1.262
25583SOL     OW76706   7.526   3.432   1.362
25583SOL    HW176707   7.498   3.505   1.307
25583SOL    HW276708   7.622   3.431   1.353
25584SOL     OW76709   7.763   2.987   0.487
25584SOL    HW176710   7.763   3.057   0.423
25584SOL    HW276711   7.772   2.907   0.436
25585SOL     OW76712   7.981   2.376   0.857
25585SOL    HW176713   7.991   2.434   0.782
25585SOL    HW276714   8.049   2.402   0.919
25586SOL     OW76715   8.698   3.210   0.418
25586SOL    HW176716   8.753   3.283   0.446
25586SOL    HW276717   8.609   3.236   0.443
25587SOL     OW76718   8.757   3.330   1.143
25587SOL    HW176719   8.805   3.338   1.225
25587SOL    HW276720   8.707   3.249   1.151
25588SOL     OW76721   8.999   2.481   0.477
25588SOL    HW176722   8.971   2.517   0.562
25588SOL    HW276723   8.967   2.544   0.413
25589SOL     OW76724   7.793   3.394   1.304
25589SOL    HW176725   7.785   3.342   1.224
25589SOL    HW276726   7.887   3.411   1.313
25590SOL     OW76727   7.881   2.608   1.619
25590SOL    HW176728   7.939   2.651   1.557
25590SOL    HW276729   7.926   2.526   1.640
25591SOL     OW76730   9.071   2.648   1.700
25591SOL    HW176731   8.984   2.686   1.690
25591SOL    HW276732   9.121   2.685   1.628
25592SOL     OW76733   8.443   2.003   1.758
25592SOL    HW176734   8.502   2.076   1.739
25592SOL    HW276735   8.494   1.925   1.736
25593SOL     OW76736   7.943   1.897   1.762
25593SOL    HW176737   7.888   1.847   1.702
25593SOL    HW276738   7.891   1.974   1.784
25594SOL     OW76739   8.037   2.737   1.037
25594SOL    HW176740   8.076   2.824   1.041
25594SOL    HW276741   7.981   2.733   1.115
25595SOL     OW76742   8.756   2.716   1.003
25595SOL    HW176743   8.668   2.689   0.977
25595SOL    HW276744   8.811   2.639   0.986
25596SOL     OW76745   8.640   2.381   0.246
25596SOL    HW176746   8.652   2.306   0.303
25596SOL    HW276747   8.599   2.448   0.302
25597SOL     OW76748   7.739   2.056   1.239
25597SOL    HW176749   7.705   2.084   1.324
25597SOL    HW276750   7.723   1.961   1.237
25598SOL     OW76751   7.496   3.175   1.267
25598SOL    HW176752   7.526   3.119   1.339
25598SOL    HW276753   7.500   3.264   1.303
25599SOL     OW76754   8.157   2.483   1.037
25599SOL    HW176755   8.236   2.476   0.985
25599SOL    HW276756   8.130   2.574   1.028
25600SOL     OW76757   9.193   2.828   1.873
25600SOL    HW176758   9.153   2.757   1.824
25600SOL    HW276759   9.129   2.849   1.941
25601SOL     OW76760   7.767   1.926   0.631
25601SOL    HW176761   7.736   2.014   0.650
25601SOL    HW276762   7.774   1.884   0.716
25602SOL     OW76763   9.087   2.252   0.351
25602SOL    HW176764   9.122   2.187   0.411
25602SOL    HW276765   9.054   2.322   0.407
25603SOL     OW76766   8.482   2.620   0.957
25603SOL    HW176767   8.460   2.635   1.049
25603SOL    HW276768   8.452   2.531   0.940
25604SOL     OW76769   8.427   3.427   1.735
25604SOL    HW176770   8.407   3.471   1.652
25604SOL    HW276771   8.467   3.344   1.709
25605SOL     OW76772   9.286   3.356   1.601
25605SOL    HW176773   9.312   3.385   1.513
25605SOL    HW276774   9.365   3.367   1.654
25606SOL     OW76775   7.797   2.781   1.816
25606SOL    HW176776   7.874   2.799   1.871
25606SOL    HW276777   7.829   2.718   1.751
25607SOL     OW76778   8.948   2.167   0.128
25607SOL    HW176779   8.900   2.087   0.149
25607SOL    HW276780   8.996   2.188   0.208
25608SOL     OW76781   8.766   2.680   0.037
25608SOL    HW176782   8.802   2.591   0.039
25608SOL    HW276783   8.824   2.727   9.977
25609SOL     OW76784   8.517   3.215   0.865
25609SOL    HW176785   8.529   3.142   0.805
25609SOL    HW276786   8.570   3.286   0.828
25610SOL     OW76787   7.766   2.676   0.943
25610SOL    HW176788   7.860   2.692   0.945
25610SOL    HW276789   7.756   2.587   0.975
25611SOL     OW76790   7.761   2.400   1.010
25611SOL    HW176791   7.721   2.313   1.002
25611SOL    HW276792   7.838   2.397   0.954
25612SOL     OW76793   8.586   2.230   1.685
25612SOL    HW176794   8.541   2.281   1.752
25612SOL    HW276795   8.671   2.272   1.676
25613SOL     OW76796   8.604   2.051   1.474
25613SOL    HW176797   8.592   2.113   1.546
25613SOL    HW276798   8.650   2.101   1.406
25614SOL     OW76799   7.466   3.153   0.171
25614SOL    HW176800   7.376   3.182   0.154
25614SOL    HW276801   7.456   3.073   0.222
25615SOL     OW76802   7.539   3.633   0.949
25615SOL    HW176803   7.507   3.558   0.899
25615SOL    HW276804   7.627   3.649   0.914
25616SOL     OW76805   7.932   3.434   0.905
25616SOL    HW176806   8.003   3.495   0.925
25616SOL    HW276807   7.974   3.366   0.851
25617SOL     OW76808   8.396   2.642   1.216
25617SOL    HW176809   8.460   2.631   1.286
25617SOL    HW276810   8.317   2.597   1.247
25618SOL     OW76811   7.488   2.436   1.120
25618SOL    HW176812   7.570   2.432   1.071
25618SOL    HW276813   7.515   2.428   1.212
25619SOL     OW76814   7.634   2.400   1.743
25619SOL    HW176815   7.708   2.369   1.692
25619SOL    HW276816   7.599   2.473   1.693
25620SOL     OW76817   8.837   2.783   1.651
25620SOL    HW176818   8.855   2.877   1.646
25620SOL    HW276819   8.830   2.755   1.560
25621SOL     OW76820   8.276   2.426   0.374
25621SOL    HW176821   8.281   2.350   0.315
25621SOL    HW276822   8.197   2.473   0.347
25622SOL     OW76823   9.082   2.461   1.163
25622SOL    HW176824   9.073   2.403   1.239
25622SOL    HW276825   9.172   2.451   1.135
25623SOL     OW76826   7.674   3.402   1.722
25623SOL    HW176827   7.650   3.451   1.801
25623SOL    HW276828   7.686   3.312   1.753
25624SOL     OW76829   8.181   2.295   1.233
25624SOL    HW176830   8.118   2.225   1.219
25624SOL    HW276831   8.163   2.359   1.164
25625SOL     OW76832   8.351   3.542   1.489
25625SOL    HW176833   8.331   3.494   1.409
25625SOL    HW276834   8.355   3.634   1.462
25626SOL     OW76835   7.900   2.348   0.155
25626SOL    HW176836   7.959   2.414   0.191
25626SOL    HW276837   7.815   2.392   0.151
25627SOL     OW76838   7.577   3.013   1.480
25627SOL    HW176839   7.582   2.973   1.567
25627SOL    HW276840   7.599   2.941   1.420
25628SOL     OW76841   8.749   2.896   1.209
25628SOL    HW176842   8.760   2.832   1.138
25628SOL    HW276843   8.696   2.966   1.171
25629SOL     OW76844   8.769   2.690   0.316
25629SOL    HW176845   8.687   2.661   0.355
25629SOL    HW276846   8.755   2.683   0.222
25630SOL     OW76847   9.238   3.585   1.170
25630SOL    HW176848   9.300   3.611   1.102
25630SOL    HW276849   9.205   3.500   1.142
25631SOL     OW76850   8.689   3.596   1.091
25631SOL    HW176851   8.773   3.625   1.057
25631SOL    HW276852   8.703   3.504   1.115
25632SOL     OW76853   7.553   3.111   1.011
25632SOL    HW176854   7.525   3.133   1.100
25632SOL    HW276855   7.482   3.058   0.976
25633SOL     OW76856   8.135   3.545   1.749
25633SOL    HW176857   8.073   3.616   1.736
25633SOL    HW276858   8.209   3.568   1.693
25634SOL     OW76859   8.334   1.941   0.098
25634SOL    HW176860   8.328   1.914   0.007
25634SOL    HW276861   8.412   1.895   0.132
25635SOL     OW76862   9.207   2.044   0.494
25635SOL    HW176863   9.271   2.019   0.427
25635SOL    HW276864   9.175   1.960   0.528
25636SOL     OW76865   8.848   3.432   0.505
25636SOL    HW176866   8.906   3.466   0.437
25636SOL    HW276867   8.796   3.507   0.532
25637SOL     OW76868   7.582   3.668   1.844
25637SOL    HW176869   7.542   3.592   1.886
25637SOL    HW276870   7.633   3.710   1.914
25638SOL     OW76871   8.727   2.795   0.669
25638SOL    HW176872   8.800   2.735   0.681
25638SOL    HW276873   8.764   2.868   0.618
25639SOL     OW76874   8.232   3.142   1.414
25639SOL    HW176875   8.206   3.189   1.493
25639SOL    HW276876   8.158   3.152   1.354
25640SOL     OW76877   8.133   3.500   0.189
25640SOL    HW176878   8.138   3.516   0.094
25640SOL    HW276879   8.077   3.423   0.198
25641SOL     OW76880   9.065   3.592   1.401
25641SOL    HW176881   9.123   3.591   1.324
25641SOL    HW276882   9.049   3.685   1.419
25642SOL     OW76883   9.290   2.021   0.965
25642SOL    HW176884   9.321   1.933   0.945
25642SOL    HW276885   9.203   2.025   0.926
25643SOL     OW76886   7.691   2.174   0.709
25643SOL    HW176887   7.604   2.210   0.689
25643SOL    HW276888   7.695   2.174   0.805
25644SOL     OW76889   8.665   3.429   0.052
25644SOL    HW176890   8.653   3.339   0.083
25644SOL    HW276891   8.678   3.420   9.958
25645SOL     OW76892   8.272   2.873   1.385
25645SOL    HW176893   8.310   2.864   1.298
25645SOL    HW276894   8.261   2.967   1.397
25646SOL     OW76895   8.389   2.783   0.295
25646SOL    HW176896   8.438   2.804   0.216
25646SOL    HW276897   8.437   2.710   0.334
25647SOL     OW76898   8.939   3.471   0.075
25647SOL    HW176899   8.843   3.463   0.082
25647SOL    HW276900   8.955   3.480   9.981
25648SOL     OW76901   7.811   3.174   1.502
25648SOL    HW176902   7.804   3.247   1.441
25648SOL    HW276903   7.733   3.121   1.485
25649SOL     OW76904   9.043   3.152   1.278
25649SOL    HW176905   9.099   3.128   1.352
25649SOL    HW276906   8.986   3.220   1.312
25650SOL     OW76907   8.524   2.981   0.730
25650SOL    HW176908   8.449   2.931   0.761
25650SOL    HW276909   8.587   2.914   0.701
25651SOL     OW76910   8.481   2.111   0.962
25651SOL    HW176911   8.480   2.068   0.876
25651SOL    HW276912   8.474   2.038   1.025
25652SOL     OW76913   8.069   3.347   0.507
25652SOL    HW176914   8.110   3.292   0.440
25652SOL    HW276915   8.000   3.394   0.460
25653SOL     OW76916   9.190   2.243   1.388
25653SOL    HW176917   9.259   2.309   1.383
25653SOL    HW276918   9.218   2.174   1.327
25654SOL     OW76919   7.717   3.175   0.283
25654SOL    HW176920   7.635   3.177   0.235
25654SOL    HW276921   7.701   3.228   0.361
25655SOL     OW76922   7.569   2.909   1.735
25655SOL    HW176923   7.492   2.881   1.785
25655SOL    HW276924   7.641   2.858   1.772
25656SOL     OW76925   8.127   2.050   1.495
25656SOL    HW176926   8.211   2.025   1.456
25656SOL    HW276927   8.150   2.084   1.582
25657SOL     OW76928   7.537   2.138   0.020
25657SOL    HW176929   7.447   2.154   9.990
25657SOL    HW276930   7.585   2.217   9.998
25658SOL     OW76931   8.862   2.715   1.388
25658SOL    HW176932   8.810   2.774   1.333
25658SOL    HW276933   8.950   2.720   1.350
25659SOL     OW76934   7.523   2.004   0.278
25659SOL    HW176935   7.516   2.053   0.196
25659SOL    HW276936   7.617   1.991   0.291
25660SOL     OW76937   8.646   3.173   0.145
25660SOL    HW176938   8.558   3.136   0.137
25660SOL    HW276939   8.664   3.172   0.239
25661SOL     OW76940   8.073   2.694   1.441
25661SOL    HW176941   8.132   2.769   1.430
25661SOL    HW276942   8.130   2.618   1.440
25662SOL     OW76943   8.935   3.663   0.993
25662SOL    HW176944   8.962   3.737   0.939
25662SOL    HW276945   9.017   3.618   1.014
25663SOL     OW76946   8.172   2.411   1.686
25663SOL    HW176947   8.219   2.464   1.749
25663SOL    HW276948   8.183   2.321   1.718
25664SOL     OW76949   8.915   3.046   1.618
25664SOL    HW176950   8.907   3.067   1.711
25664SOL    HW276951   9.005   3.070   1.595
25665SOL     OW76952   7.802   3.609   1.579
25665SOL    HW176953   7.720   3.655   1.562
25665SOL    HW276954   7.775   3.525   1.617
25666SOL     OW76955   9.101   2.736   1.251
25666SOL    HW176956   9.099   2.653   1.204
25666SOL    HW276957   9.088   2.803   1.184
25667SOL     OW76958   8.669   2.186   0.451
25667SOL    HW176959   8.729   2.111   0.449
25667SOL    HW276960   8.697   2.237   0.527
25668SOL     OW76961   8.013   2.585   0.677
25668SOL    HW176962   8.061   2.668   0.666
25668SOL    HW276963   7.950   2.584   0.605
25669SOL     OW76964   9.190   2.218   1.664
25669SOL    HW176965   9.188   2.234   1.570
25669SOL    HW276966   9.113   2.164   1.681
25670SOL     OW76967   9.201   2.783   1.503
25670SOL    HW176968   9.190   2.877   1.515
25670SOL    HW276969   9.176   2.767   1.412
25671SOL     OW76970   8.346   3.280   0.043
25671SOL    HW176971   8.260   3.240   0.026
25671SOL    HW276972   8.340   3.311   0.133
25672SOL     OW76973   8.115   3.631   0.928
25672SOL    HW176974   8.098   3.724   0.919
25672SOL    HW276975   8.211   3.624   0.926
25673SOL     OW76976   8.320   2.837   0.856
25673SOL    HW176977   8.371   2.765   0.892
25673SOL    HW276978   8.276   2.875   0.932
25674SOL     OW76979   8.542   2.835   0.073
25674SOL    HW176980   8.536   2.884   9.991
25674SOL    HW276981   8.616   2.776   0.060
25675SOL     OW76982   9.283   3.421   0.840
25675SOL    HW176983   9.206   3.411   0.784
25675SOL    HW276984   9.266   3.363   0.915
25676SOL     OW76985   7.660   3.148   1.836
25676SOL    HW176986   7.628   3.068   1.793
25676SOL    HW276987   7.601   3.160   1.910
25677SOL     OW76988   7.566   3.079   0.670
25677SOL    HW176989   7.597   3.039   0.751
25677SOL    HW276990   7.626   3.046   0.603
25678SOL     OW76991   8.138   3.281   1.632
25678SOL    HW176992   8.062   3.242   1.675
25678SOL    HW276993   8.143   3.369   1.669
25679SOL     OW76994   9.259   2.033   1.235
25679SOL    HW176995   9.267   1.938   1.250
25679SOL    HW276996   9.271   2.044   1.141
25680SOL     OW76997   7.860   2.296   0.515
25680SOL    HW176998   7.894   2.226   0.459
25680SOL    HW276999   7.813   2.251   0.585
25681SOL     OW77000   9.141   3.343   1.083
25681SOL    HW177001   9.064   3.323   1.030
25681SOL    HW277002   9.141   3.275   1.151
25682SOL     OW77003   7.800   2.427   1.292
25682SOL    HW177004   7.849   2.363   1.343
25682SOL    HW277005   7.808   2.397   1.201
25683SOL     OW77006   8.283   3.459   0.663
25683SOL    HW177007   8.273   3.541   0.615
25683SOL    HW277008   8.207   3.407   0.637
25684SOL     OW77009   8.870   2.095   1.115
25684SOL    HW177010   8.881   2.006   1.149
25684SOL    HW277011   8.824   2.141   1.185
25685SOL     OW77012   8.458   1.879   1.120
25685SOL    HW177013   8.404   1.815   1.072
25685SOL    HW277014   8.545   1.839   1.124
25686SOL     OW77015   8.224   3.188   0.343
25686SOL    HW177016   8.204   3.095   0.347
25686SOL    HW277017   8.309   3.196   0.386
25687SOL     OW77018   8.063   3.432   1.288
25687SOL    HW177019   8.058   3.516   1.333
25687SOL    HW277020   8.153   3.427   1.255
25688SOL     OW77021   8.802   1.919   0.177
25688SOL    HW177022   8.827   1.880   0.093
25688SOL    HW277023   8.712   1.890   0.192
25689SOL     OW77024   8.746   2.330   0.675
25689SOL    HW177025   8.698   2.412   0.671
25689SOL    HW277026   8.738   2.301   0.766
25690SOL     OW77027   9.028   2.048   0.892
25690SOL    HW177028   8.977   2.078   0.967
25690SOL    HW277029   9.027   2.122   0.832
25691SOL     OW77030   7.490   2.906   0.301
25691SOL    HW177031   7.586   2.907   0.307
25691SOL    HW277032   7.466   2.818   0.330
25692SOL     OW77033   8.355   3.543   0.345
25692SOL    HW177034   8.276   3.528   0.292
25692SOL    HW277035   8.330   3.612   0.405
25693SOL     OW77036   7.656   2.484   2.010
25693SOL    HW177037   7.568   2.471   2.046
25693SOL    HW277038   7.644   2.470   1.916
25694SOL     OW77039   7.667   2.150   2.851
25694SOL    HW177040   7.697   2.115   2.935
25694SOL    HW277041   7.580   2.113   2.840
25695SOL     OW77042   7.434   2.258   2.508
25695SOL    HW177043   7.355   2.283   2.555
25695SOL    HW277044   7.407   2.184   2.453
25696SOL     OW77045   8.023   3.170   3.071
25696SOL    HW177046   7.941   3.173   3.022
25696SOL    HW277047   8.040   3.261   3.095
25697SOL     OW77048   9.038   3.386   2.567
25697SOL    HW177049   8.991   3.355   2.644
25697SOL    HW277050   8.972   3.389   2.498
25698SOL     OW77051   8.585   2.566   2.548
25698SOL    HW177052   8.632   2.649   2.537
25698SOL    HW277053   8.537   2.576   2.630
25699SOL     OW77054   9.249   2.440   2.082
25699SOL    HW177055   9.210   2.441   1.994
25699SOL    HW277056   9.205   2.369   2.127
25700SOL     OW77057   8.175   2.992   2.919
25700SOL    HW177058   8.116   3.032   2.984
25700SOL    HW277059   8.217   3.065   2.875
25701SOL     OW77060   8.335   2.604   3.690
25701SOL    HW177061   8.327   2.671   3.757
25701SOL    HW277062   8.352   2.653   3.609
25702SOL     OW77063   8.133   2.847   2.506
25702SOL    HW177064   8.201   2.847   2.574
25702SOL    HW277065   8.068   2.909   2.537
25703SOL     OW77066   8.160   3.012   3.695
25703SOL    HW177067   8.212   3.085   3.730
25703SOL    HW277068   8.084   3.054   3.654
25704SOL     OW77069   7.791   3.259   2.932
25704SOL    HW177070   7.715   3.216   2.892
25704SOL    HW277071   7.827   3.314   2.862
25705SOL     OW77072   8.901   3.369   3.234
25705SOL    HW177073   8.957   3.446   3.246
25705SOL    HW277074   8.830   3.381   3.297
25706SOL     OW77075   7.906   2.236   3.317
25706SOL    HW177076   7.981   2.178   3.333
25706SOL    HW277077   7.830   2.185   3.344
25707SOL     OW77078   9.027   2.294   2.617
25707SOL    HW177079   8.958   2.303   2.552
25707SOL    HW277080   9.011   2.364   2.680
25708SOL     OW77081   7.666   3.590   2.327
25708SOL    HW177082   7.692   3.661   2.385
25708SOL    HW277083   7.740   3.579   2.267
25709SOL     OW77084   8.582   3.204   3.558
25709SOL    HW177085   8.628   3.193   3.642
25709SOL    HW277086   8.529   3.124   3.550
25710SOL     OW77087   7.680   3.319   2.395
25710SOL    HW177088   7.659   3.412   2.399
25710SOL    HW277089   7.630   3.280   2.467
25711SOL     OW77090   7.733   2.951   2.740
25711SOL    HW177091   7.734   2.862   2.774
25711SOL    HW277092   7.677   2.999   2.801
25712SOL     OW77093   8.022   3.665   3.283
25712SOL    HW177094   7.946   3.645   3.337
25712SOL    HW277095   8.055   3.748   3.317
25713SOL     OW77096   8.013   2.850   2.014
25713SOL    HW177097   8.064   2.892   1.945
25713SOL    HW277098   8.054   2.879   2.096
25714SOL     OW77099   9.039   1.994   3.322
25714SOL    HW177100   9.078   2.070   3.279
25714SOL    HW277101   9.007   2.027   3.406
25715SOL     OW77102   7.566   2.521   2.429
25715SOL    HW177103   7.535   2.434   2.453
25715SOL    HW277104   7.561   2.572   2.510
25716SOL     OW77105   9.295   3.606   2.183
25716SOL    HW177106   9.368   3.590   2.243
25716SOL    HW277107   9.305   3.698   2.158
25717SOL     OW77108   7.507   3.442   1.972
25717SOL    HW177109   7.486   3.350   1.991
25717SOL    HW277110   7.475   3.490   2.049
25718SOL     OW77111   9.141   2.788   2.518
25718SOL    HW177112   9.227   2.748   2.507
25718SOL    HW277113   9.126   2.837   2.437
25719SOL     OW77114   9.103   2.967   2.297
25719SOL    HW177115   9.188   2.958   2.252
25719SOL    HW277116   9.119   3.031   2.366
25720SOL     OW77117   7.569   2.612   3.440
25720SOL    HW177118   7.654   2.656   3.444
25720SOL    HW277119   7.506   2.683   3.426
25721SOL     OW77120   8.071   3.260   2.592
25721SOL    HW177121   8.029   3.174   2.597
25721SOL    HW277122   8.055   3.289   2.502
25722SOL     OW77123   8.718   3.088   3.278
25722SOL    HW177124   8.745   3.018   3.218
25722SOL    HW277125   8.780   3.082   3.351
25723SOL     OW77126   8.279   1.873   2.381
25723SOL    HW177127   8.319   1.955   2.353
25723SOL    HW277128   8.185   1.891   2.381
25724SOL     OW77129   7.635   2.818   3.164
25724SOL    HW177130   7.722   2.783   3.147
25724SOL    HW277131   7.581   2.784   3.092
25725SOL     OW77132   8.980   2.878   2.063
25725SOL    HW177133   8.912   2.818   2.093
25725SOL    HW277134   9.022   2.908   2.144
25726SOL     OW77135   8.628   3.684   3.499
25726SOL    HW177136   8.629   3.746   3.425
25726SOL    HW277137   8.645   3.599   3.458
25727SOL     OW77138   7.808   2.115   3.738
25727SOL    HW177139   7.843   2.195   3.776
25727SOL    HW277140   7.713   2.130   3.734
25728SOL     OW77141   8.919   3.280   2.792
25728SOL    HW177142   8.856   3.299   2.862
25728SOL    HW277143   8.902   3.189   2.768
25729SOL     OW77144   9.084   3.661   2.423
25729SOL    HW177145   9.069   3.613   2.342
25729SOL    HW277146   9.086   3.593   2.491
25730SOL     OW77147   8.035   2.561   2.133
25730SOL    HW177148   8.039   2.648   2.095
25730SOL    HW277149   7.970   2.568   2.204
25731SOL     OW77150   8.729   2.255   2.803
25731SOL    HW177151   8.641   2.219   2.808
25731SOL    HW277152   8.782   2.197   2.858
25732SOL     OW77153   9.027   3.536   2.181
25732SOL    HW177154   9.121   3.551   2.170
25732SOL    HW277155   8.994   3.524   2.092
25733SOL     OW77156   8.238   2.475   3.293
25733SOL    HW177157   8.215   2.446   3.381
25733SOL    HW277158   8.213   2.402   3.236
25734SOL     OW77159   8.839   2.339   3.536
25734SOL    HW177160   8.844   2.382   3.621
25734SOL    HW277161   8.889   2.258   3.547
25735SOL     OW77162   8.392   2.742   3.455
25735SOL    HW177163   8.448   2.679   3.411
25735SOL    HW277164   8.343   2.785   3.384
25736SOL     OW77165   8.455   2.259   3.071
25736SOL    HW177166   8.363   2.272   3.094
25736SOL    HW277167   8.453   2.216   2.986
25737SOL     OW77168   8.506   2.559   2.280
25737SOL    HW177169   8.527   2.556   2.374
25737SOL    HW277170   8.421   2.515   2.273
25738SOL     OW77171   7.541   2.687   2.645
25738SOL    HW177172   7.623   2.682   2.694
25738SOL    HW277173   7.493   2.759   2.686
25739SOL     OW77174   7.557   3.742   3.450
25739SOL    HW177175   7.565   3.721   3.543
25739SOL    HW277176   7.471   3.709   3.425
25740SOL     OW77177   8.337   2.212   2.062
25740SOL    HW177178   8.388   2.266   2.001
25740SOL    HW277179   8.316   2.134   2.011
25741SOL     OW77180   9.134   2.426   3.702
25741SOL    HW177181   9.111   2.503   3.652
25741SOL    HW277182   9.161   2.361   3.637
25742SOL     OW77183   8.840   3.012   2.406
25742SOL    HW177184   8.920   3.000   2.355
25742SOL    HW277185   8.787   3.073   2.355
25743SOL     OW77186   7.999   2.022   2.777
25743SOL    HW177187   8.005   2.051   2.869
25743SOL    HW277188   7.995   2.104   2.727
25744SOL     OW77189   8.445   3.318   2.327
25744SOL    HW177190   8.421   3.392   2.272
25744SOL    HW277191   8.415   3.342   2.415
25745SOL     OW77192   7.801   3.678   2.742
25745SOL    HW177193   7.847   3.594   2.746
25745SOL    HW277194   7.868   3.743   2.764
25746SOL     OW77195   9.248   2.913   2.754
25746SOL    HW177196   9.199   2.902   2.673
25746SOL    HW277197   9.182   2.920   2.823
25747SOL     OW77198   8.666   3.406   3.380
25747SOL    HW177199   8.654   3.335   3.442
25747SOL    HW277200   8.597   3.393   3.315
25748SOL     OW77201   7.748   2.821   2.128
25748SOL    HW177202   7.831   2.842   2.084
25748SOL    HW277203   7.726   2.733   2.096
25749SOL     OW77204   8.930   2.623   2.572
25749SOL    HW177205   8.933   2.581   2.658
25749SOL    HW277206   9.009   2.678   2.570
25750SOL     OW77207   7.921   3.146   3.610
25750SOL    HW177208   7.897   3.150   3.517
25750SOL    HW277209   7.837   3.134   3.655
25751SOL     OW77210   8.587   3.638   2.087
25751SOL    HW177211   8.505   3.608   2.127
25751SOL    HW277212   8.607   3.573   2.020
25752SOL     OW77213   7.657   2.118   3.360
25752SOL    HW177214   7.585   2.179   3.378
25752SOL    HW277215   7.626   2.034   3.394
25753SOL     OW77216   9.071   3.254   1.960
25753SOL    HW177217   9.031   3.339   1.945
25753SOL    HW277218   9.005   3.191   1.931
25754SOL     OW77219   7.907   3.603   2.178
25754SOL    HW177220   7.956   3.654   2.243
25754SOL    HW277221   7.974   3.563   2.123
25755SOL     OW77222   8.845   1.967   2.321
25755SOL    HW177223   8.845   1.943   2.228
25755SOL    HW277224   8.935   1.952   2.350
25756SOL     OW77225   7.699   3.650   3.077
25756SOL    HW177226   7.748   3.576   3.111
25756SOL    HW277227   7.685   3.629   2.985
25757SOL     OW77228   8.397   3.564   2.752
25757SOL    HW177229   8.482   3.523   2.767
25757SOL    HW277230   8.357   3.514   2.681
25758SOL     OW77231   7.843   2.547   2.334
25758SOL    HW177232   7.855   2.453   2.347
25758SOL    HW277233   7.750   2.562   2.352
25759SOL     OW77234   8.953   2.084   3.579
25759SOL    HW177235   8.966   2.102   3.672
25759SOL    HW277236   8.888   2.014   3.577
25760SOL     OW77237   8.111   1.971   1.965
25760SOL    HW177238   8.159   1.893   1.991
25760SOL    HW277239   8.050   1.941   1.897
25761SOL     OW77240   8.207   2.135   3.614
25761SOL    HW177241   8.291   2.090   3.613
25761SOL    HW277242   8.160   2.097   3.688
25762SOL     OW77243   8.317   3.389   3.061
25762SOL    HW177244   8.299   3.347   2.977
25762SOL    HW277245   8.384   3.333   3.101
25763SOL     OW77246   8.777   2.453   3.295
25763SOL    HW177247   8.810   2.423   3.379
25763SOL    HW277248   8.816   2.540   3.283
25764SOL     OW77249   8.264   3.238   2.818
25764SOL    HW177250   8.352   3.233   2.780
25764SOL    HW277251   8.206   3.254   2.744
25765SOL     OW77252   8.378   2.377   2.750
25765SOL    HW177253   8.353   2.365   2.658
25765SOL    HW277254   8.406   2.290   2.778
25766SOL     OW77255   8.012   1.925   2.352
25766SOL    HW177256   7.934   1.926   2.408
25766SOL    HW277257   8.000   2.000   2.294
25767SOL     OW77258   8.876   3.071   1.892
25767SOL    HW177259   8.907   2.999   1.946
25767SOL    HW277260   8.791   3.094   1.930
25768SOL     OW77261   7.731   1.910   2.051
25768SOL    HW177262   7.783   1.977   2.007
25768SOL    HW277263   7.794   1.852   2.092
25769SOL     OW77264   8.400   2.112   2.313
25769SOL    HW177265   8.374   2.148   2.227
25769SOL    HW277266   8.494   2.129   2.319
25770SOL     OW77267   8.523   2.556   3.307
25770SOL    HW177268   8.460   2.484   3.311
25770SOL    HW277269   8.609   2.513   3.303
25771SOL     OW77270   8.654   3.449   2.664
25771SOL    HW177271   8.669   3.509   2.591
25771SOL    HW277272   8.728   3.463   2.723
25772SOL     OW77273   7.930   3.024   2.570
25772SOL    HW177274   7.868   2.999   2.638
25772SOL    HW277275   7.880   3.017   2.488
25773SOL     OW77276   8.699   3.654   2.479
25773SOL    HW177277   8.748   3.716   2.426
25773SOL    HW277278   8.628   3.705   2.518
25774SOL     OW77279   8.480   2.377   1.892
25774SOL    HW177280   8.437   2.461   1.873
25774SOL    HW277281   8.544   2.397   1.960
25775SOL     OW77282   7.548   2.413   3.253
25775SOL    HW177283   7.640   2.415   3.227
25775SOL    HW277284   7.540   2.483   3.319
25776SOL     OW77285   8.007   2.083   3.047
25776SOL    HW177286   8.044   2.020   3.108
25776SOL    HW277287   7.914   2.084   3.067
25777SOL     OW77288   8.318   2.316   2.492
25777SOL    HW177289   8.278   2.372   2.425
25777SOL    HW277290   8.343   2.237   2.445
25778SOL     OW77291   8.470   1.921   2.602
25778SOL    HW177292   8.409   1.915   2.528
25778SOL    HW277293   8.445   1.848   2.659
25779SOL     OW77294   8.881   3.016   2.716
25779SOL    HW177295   8.811   2.951   2.725
25779SOL    HW277296   8.896   3.022   2.622
25780SOL     OW77297   8.909   2.478   2.811
25780SOL    HW177298   8.845   2.408   2.821
25780SOL    HW277299   8.964   2.472   2.888
25781SOL     OW77300   9.277   2.656   2.248
25781SOL    HW177301   9.334   2.612   2.311
25781SOL    HW277302   9.263   2.591   2.179
25782SOL     OW77303   7.946   3.286   2.013
25782SOL    HW177304   7.871   3.255   2.063
25782SOL    HW277305   7.943   3.237   1.931
25783SOL     OW77306   9.158   3.131   2.499
25783SOL    HW177307   9.252   3.125   2.517
25783SOL    HW277308   9.136   3.221   2.523
25784SOL     OW77309   8.840   2.437   1.928
25784SOL    HW177310   8.784   2.410   2.001
25784SOL    HW277311   8.929   2.413   1.956
25785SOL     OW77312   7.975   2.119   2.164
25785SOL    HW177313   8.029   2.077   2.097
25785SOL    HW277314   7.943   2.199   2.123
25786SOL     OW77315   9.180   3.107   3.395
25786SOL    HW177316   9.267   3.070   3.381
25786SOL    HW277317   9.196   3.194   3.431
25787SOL     OW77318   8.489   3.217   3.196
25787SOL    HW177319   8.412   3.182   3.242
25787SOL    HW277320   8.563   3.172   3.237
25788SOL     OW77321   9.056   3.498   3.533
25788SOL    HW177322   9.045   3.533   3.445
25788SOL    HW277323   9.133   3.441   3.528
25789SOL     OW77324   8.599   3.099   2.967
25789SOL    HW177325   8.537   3.134   3.032
25789SOL    HW277326   8.566   3.132   2.883
25790SOL     OW77327   9.053   2.953   2.941
25790SOL    HW177328   9.046   3.020   3.009
25790SOL    HW277329   8.984   2.975   2.879
25791SOL     OW77330   8.367   1.943   3.245
25791SOL    HW177331   8.388   1.928   3.153
25791SOL    HW277332   8.446   1.984   3.281
25792SOL     OW77333   8.427   2.977   3.586
25792SOL    HW177334   8.337   2.994   3.614
25792SOL    HW277335   8.423   2.897   3.535
25793SOL     OW77336   8.162   2.924   2.238
25793SOL    HW177337   8.147   2.898   2.329
25793SOL    HW277338   8.236   2.871   2.210
25794SOL     OW77339   7.874   2.690   3.121
25794SOL    HW177340   7.942   2.700   3.188
25794SOL    HW277341   7.844   2.600   3.131
25795SOL     OW77342   8.712   2.229   3.154
25795SOL    HW177343   8.740   2.310   3.198
25795SOL    HW277344   8.623   2.248   3.124
25796SOL     OW77345   7.526   3.431   3.224
25796SOL    HW177346   7.496   3.504   3.169
25796SOL    HW277347   7.621   3.431   3.214
25797SOL     OW77348   7.765   2.997   2.348
25797SOL    HW177349   7.766   3.068   2.285
25797SOL    HW277350   7.762   2.917   2.294
25798SOL     OW77351   7.982   2.378   2.721
25798SOL    HW177352   7.994   2.437   2.646
25798SOL    HW277353   8.050   2.404   2.783
25799SOL     OW77354   8.695   3.217   2.260
25799SOL    HW177355   8.751   3.286   2.294
25799SOL    HW277356   8.607   3.240   2.291
25800SOL     OW77357   8.757   3.330   3.005
25800SOL    HW177358   8.805   3.337   3.087
25800SOL    HW277359   8.707   3.249   3.013
25801SOL     OW77360   9.021   2.480   2.347
25801SOL    HW177361   8.971   2.519   2.418
25801SOL    HW277362   9.067   2.553   2.306
25802SOL     OW77363   7.792   3.395   3.164
25802SOL    HW177364   7.785   3.342   3.084
25802SOL    HW277365   7.886   3.411   3.174
25803SOL     OW77366   7.881   2.608   3.481
25803SOL    HW177367   7.939   2.651   3.418
25803SOL    HW277368   7.926   2.525   3.501
25804SOL     OW77369   9.071   2.648   3.562
25804SOL    HW177370   8.984   2.686   3.552
25804SOL    HW277371   9.121   2.685   3.489
25805SOL     OW77372   8.443   2.003   3.620
25805SOL    HW177373   8.502   2.076   3.602
25805SOL    HW277374   8.494   1.925   3.599
25806SOL     OW77375   7.943   1.897   3.625
25806SOL    HW177376   7.888   1.847   3.564
25806SOL    HW277377   7.890   1.974   3.646
25807SOL     OW77378   8.039   2.737   2.901
25807SOL    HW177379   8.077   2.825   2.904
25807SOL    HW277380   7.981   2.733   2.977
25808SOL     OW77381   8.756   2.715   2.865
25808SOL    HW177382   8.668   2.688   2.839
25808SOL    HW277383   8.811   2.639   2.846
25809SOL     OW77384   8.646   2.384   2.119
25809SOL    HW177385   8.657   2.308   2.176
25809SOL    HW277386   8.605   2.450   2.175
25810SOL     OW77387   7.739   2.056   3.101
25810SOL    HW177388   7.705   2.084   3.185
25810SOL    HW277389   7.722   1.961   3.099
25811SOL     OW77390   7.498   3.174   3.128
25811SOL    HW177391   7.527   3.118   3.200
25811SOL    HW277392   7.500   3.263   3.163
25812SOL     OW77393   8.159   2.484   2.901
25812SOL    HW177394   8.237   2.477   2.846
25812SOL    HW277395   8.131   2.575   2.891
25813SOL     OW77396   9.193   2.828   3.735
25813SOL    HW177397   9.153   2.757   3.686
25813SOL    HW277398   9.129   2.849   3.803
25814SOL     OW77399   7.773   1.922   2.490
25814SOL    HW177400   7.739   2.009   2.508
25814SOL    HW277401   7.779   1.880   2.576
25815SOL     OW77402   9.079   2.252   2.205
25815SOL    HW177403   9.112   2.187   2.267
25815SOL    HW277404   9.049   2.325   2.261
25816SOL     OW77405   8.482   2.620   2.818
25816SOL    HW177406   8.460   2.635   2.910
25816SOL    HW277407   8.452   2.531   2.800
25817SOL     OW77408   8.427   3.427   3.596
25817SOL    HW177409   8.407   3.471   3.513
25817SOL    HW277410   8.467   3.344   3.571
25818SOL     OW77411   9.286   3.356   3.463
25818SOL    HW177412   9.312   3.384   3.375
25818SOL    HW277413   9.365   3.367   3.515
25819SOL     OW77414   7.797   2.780   3.678
25819SOL    HW177415   7.874   2.798   3.732
25819SOL    HW277416   7.828   2.717   3.613
25820SOL     OW77417   8.969   2.131   1.980
25820SOL    HW177418   8.917   2.060   2.018
25820SOL    HW277419   9.009   2.174   2.056
25821SOL     OW77420   8.728   2.683   1.881
25821SOL    HW177421   8.768   2.596   1.889
25821SOL    HW277422   8.764   2.719   1.800
25822SOL     OW77423   8.518   3.215   2.728
25822SOL    HW177424   8.529   3.142   2.667
25822SOL    HW277425   8.570   3.286   2.691
25823SOL     OW77426   7.766   2.678   2.806
25823SOL    HW177427   7.861   2.692   2.805
25823SOL    HW277428   7.756   2.588   2.837
25824SOL     OW77429   7.761   2.400   2.873
25824SOL    HW177430   7.722   2.313   2.863
25824SOL    HW277431   7.838   2.398   2.817
25825SOL     OW77432   8.586   2.229   3.548
25825SOL    HW177433   8.541   2.281   3.615
25825SOL    HW277434   8.671   2.272   3.539
25826SOL     OW77435   8.604   2.051   3.336
25826SOL    HW177436   8.592   2.113   3.408
25826SOL    HW277437   8.650   2.101   3.269
25827SOL     OW77438   7.472   3.165   2.041
25827SOL    HW177439   7.382   3.187   2.016
25827SOL    HW277440   7.464   3.079   2.082
25828SOL     OW77441   7.541   3.632   2.813
25828SOL    HW177442   7.507   3.558   2.762
25828SOL    HW277443   7.627   3.649   2.777
25829SOL     OW77444   7.933   3.432   2.763
25829SOL    HW177445   8.003   3.493   2.785
25829SOL    HW277446   7.973   3.370   2.701
25830SOL     OW77447   8.397   2.642   3.076
25830SOL    HW177448   8.459   2.631   3.148
25830SOL    HW277449   8.318   2.597   3.106
25831SOL     OW77450   7.487   2.433   2.983
25831SOL    HW177451   7.569   2.430   2.933
25831SOL    HW277452   7.515   2.426   3.074
25832SOL     OW77453   7.634   2.401   3.605
25832SOL    HW177454   7.708   2.369   3.552
25832SOL    HW277455   7.598   2.474   3.556
25833SOL     OW77456   8.837   2.782   3.513
25833SOL    HW177457   8.854   2.876   3.508
25833SOL    HW277458   8.830   2.754   3.421
25834SOL     OW77459   8.266   2.430   2.234
25834SOL    HW177460   8.275   2.356   2.174
25834SOL    HW277461   8.189   2.478   2.202
25835SOL     OW77462   9.081   2.463   3.024
25835SOL    HW177463   9.071   2.404   3.099
25835SOL    HW277464   9.171   2.451   2.996
25836SOL     OW77465   7.674   3.402   3.584
25836SOL    HW177466   7.651   3.452   3.662
25836SOL    HW277467   7.686   3.312   3.616
25837SOL     OW77468   8.182   2.295   3.096
25837SOL    HW177469   8.118   2.225   3.081
25837SOL    HW277470   8.164   2.359   3.027
25838SOL     OW77471   8.355   3.541   3.349
25838SOL    HW177472   8.332   3.493   3.269
25838SOL    HW277473   8.357   3.633   3.323
25839SOL     OW77474   7.891   2.343   2.026
25839SOL    HW177475   7.955   2.409   2.051
25839SOL    HW277476   7.807   2.389   2.029
25840SOL     OW77477   7.578   3.012   3.343
25840SOL    HW177478   7.582   2.973   3.430
25840SOL    HW277479   7.599   2.941   3.283
25841SOL     OW77480   8.750   2.895   3.071
25841SOL    HW177481   8.760   2.832   3.000
25841SOL    HW277482   8.697   2.965   3.033
25842SOL     OW77483   8.773   2.722   2.154
25842SOL    HW177484   8.703   2.686   2.208
25842SOL    HW277485   8.744   2.706   2.064
25843SOL     OW77486   9.237   3.584   3.033
25843SOL    HW177487   9.299   3.611   2.964
25843SOL    HW277488   9.205   3.499   3.004
25844SOL     OW77489   8.688   3.595   2.953
25844SOL    HW177490   8.773   3.625   2.919
25844SOL    HW277491   8.703   3.504   2.977
25845SOL     OW77492   7.555   3.108   2.872
25845SOL    HW177493   7.527   3.130   2.960
25845SOL    HW277494   7.483   3.056   2.836
25846SOL     OW77495   8.134   3.545   3.611
25846SOL    HW177496   8.071   3.616   3.599
25846SOL    HW277497   8.208   3.569   3.555
25847SOL     OW77498   9.197   2.047   2.355
25847SOL    HW177499   9.256   2.026   2.283
25847SOL    HW277500   9.168   1.962   2.389
25848SOL     OW77501   8.846   3.432   2.365
25848SOL    HW177502   8.901   3.466   2.295
25848SOL    HW277503   8.791   3.505   2.392
25849SOL     OW77504   7.583   3.667   3.706
25849SOL    HW177505   7.542   3.591   3.748
25849SOL    HW277506   7.633   3.709   3.776
25850SOL     OW77507   8.726   2.798   2.526
25850SOL    HW177508   8.800   2.738   2.539
25850SOL    HW277509   8.763   2.870   2.474
25851SOL     OW77510   8.231   3.142   3.277
25851SOL    HW177511   8.205   3.190   3.356
25851SOL    HW277512   8.157   3.152   3.217
25852SOL     OW77513   8.116   3.498   2.021
25852SOL    HW177514   8.131   3.512   1.928
25852SOL    HW277515   8.064   3.418   2.025
25853SOL     OW77516   9.065   3.592   3.263
25853SOL    HW177517   9.122   3.591   3.186
25853SOL    HW277518   9.049   3.684   3.281
25854SOL     OW77519   9.290   2.021   2.828
25854SOL    HW177520   9.320   1.933   2.807
25854SOL    HW277521   9.203   2.026   2.788
25855SOL     OW77522   7.691   2.168   2.570
25855SOL    HW177523   7.605   2.205   2.549
25855SOL    HW277524   7.695   2.170   2.666
25856SOL     OW77525   8.656   3.450   1.899
25856SOL    HW177526   8.646   3.359   1.928
25856SOL    HW277527   8.586   3.463   1.835
25857SOL     OW77528   8.271   2.873   3.247
25857SOL    HW177529   8.309   2.865   3.159
25857SOL    HW277530   8.260   2.968   3.259
25858SOL     OW77531   8.367   2.772   2.156
25858SOL    HW177532   8.424   2.805   2.087
25858SOL    HW277533   8.420   2.705   2.200
25859SOL     OW77534   8.929   3.510   1.919
25859SOL    HW177535   8.837   3.491   1.901
25859SOL    HW277536   8.970   3.514   1.832
25860SOL     OW77537   7.811   3.174   3.363
25860SOL    HW177538   7.803   3.248   3.303
25860SOL    HW277539   7.733   3.121   3.347
25861SOL     OW77540   9.045   3.153   3.139
25861SOL    HW177541   9.099   3.128   3.214
25861SOL    HW277542   8.987   3.220   3.173
25862SOL     OW77543   8.525   2.981   2.591
25862SOL    HW177544   8.449   2.932   2.622
25862SOL    HW277545   8.587   2.915   2.561
25863SOL     OW77546   8.481   2.111   2.822
25863SOL    HW177547   8.480   2.068   2.737
25863SOL    HW277548   8.474   2.039   2.885
25864SOL     OW77549   8.052   3.348   2.337
25864SOL    HW177550   8.107   3.299   2.276
25864SOL    HW277551   7.971   3.364   2.289
25865SOL     OW77552   9.190   2.242   3.251
25865SOL    HW177553   9.259   2.309   3.245
25865SOL    HW277554   9.218   2.174   3.189
25866SOL     OW77555   7.727   3.203   2.161
25866SOL    HW177556   7.640   3.196   2.122
25866SOL    HW277557   7.713   3.251   2.242
25867SOL     OW77558   7.569   2.909   3.598
25867SOL    HW177559   7.492   2.880   3.647
25867SOL    HW277560   7.641   2.858   3.635
25868SOL     OW77561   8.127   2.050   3.357
25868SOL    HW177562   8.211   2.025   3.318
25868SOL    HW277563   8.150   2.084   3.443
25869SOL     OW77564   7.534   2.179   1.876
25869SOL    HW177565   7.456   2.158   1.824
25869SOL    HW277566   7.562   2.265   1.845
25870SOL     OW77567   8.862   2.715   3.250
25870SOL    HW177568   8.810   2.774   3.195
25870SOL    HW277569   8.950   2.719   3.212
25871SOL     OW77570   7.492   2.011   2.135
25871SOL    HW177571   7.479   2.081   2.071
25871SOL    HW277572   7.580   1.979   2.118
25872SOL     OW77573   8.629   3.184   1.986
25872SOL    HW177574   8.538   3.154   1.985
25872SOL    HW277575   8.653   3.188   2.078
25873SOL     OW77576   8.074   2.693   3.303
25873SOL    HW177577   8.133   2.768   3.292
25873SOL    HW277578   8.132   2.617   3.302
25874SOL     OW77579   8.935   3.664   2.855
25874SOL    HW177580   8.961   3.738   2.800
25874SOL    HW277581   9.017   3.620   2.877
25875SOL     OW77582   8.172   2.410   3.548
25875SOL    HW177583   8.219   2.464   3.612
25875SOL    HW277584   8.183   2.321   3.580
25876SOL     OW77585   8.915   3.045   3.480
25876SOL    HW177586   8.907   3.067   3.573
25876SOL    HW277587   9.004   3.070   3.457
25877SOL     OW77588   7.802   3.609   3.441
25877SOL    HW177589   7.720   3.656   3.423
25877SOL    HW277590   7.774   3.526   3.479
25878SOL     OW77591   9.101   2.736   3.113
25878SOL    HW177592   9.099   2.653   3.065
25878SOL    HW277593   9.089   2.803   3.045
25879SOL     OW77594   8.669   2.184   2.318
25879SOL    HW177595   8.729   2.110   2.317
25879SOL    HW277596   8.697   2.236   2.393
25880SOL     OW77597   8.024   2.588   2.542
25880SOL    HW177598   8.068   2.672   2.528
25880SOL    HW277599   7.963   2.579   2.469
25881SOL     OW77600   9.190   2.218   3.526
25881SOL    HW177601   9.188   2.234   3.432
25881SOL    HW277602   9.113   2.164   3.544
25882SOL     OW77603   9.201   2.782   3.365
25882SOL    HW177604   9.189   2.877   3.377
25882SOL    HW277605   9.176   2.766   3.274
25883SOL     OW77606   8.317   3.219   1.924
25883SOL    HW177607   8.280   3.237   2.010
25883SOL    HW277608   8.328   3.305   1.884
25884SOL     OW77609   8.117   3.628   2.787
25884SOL    HW177610   8.097   3.722   2.780
25884SOL    HW277611   8.212   3.624   2.786
25885SOL     OW77612   8.320   2.839   2.718
25885SOL    HW177613   8.370   2.766   2.753
25885SOL    HW277614   8.275   2.876   2.793
25886SOL     OW77615   8.520   2.846   1.948
25886SOL    HW177616   8.500   2.900   1.872
25886SOL    HW277617   8.594   2.792   1.920
25887SOL     OW77618   9.282   3.420   2.701
25887SOL    HW177619   9.205   3.412   2.645
25887SOL    HW277620   9.261   3.367   2.778
25888SOL     OW77621   7.660   3.148   3.698
25888SOL    HW177622   7.628   3.068   3.655
25888SOL    HW277623   7.601   3.160   3.772
25889SOL     OW77624   7.565   3.086   2.530
25889SOL    HW177625   7.595   3.045   2.611
25889SOL    HW277626   7.624   3.053   2.462
25890SOL     OW77627   8.138   3.281   3.495
25890SOL    HW177628   8.061   3.242   3.537
25890SOL    HW277629   8.143   3.369   3.532
25891SOL     OW77630   9.260   2.033   3.098
25891SOL    HW177631   9.268   1.939   3.112
25891SOL    HW277632   9.271   2.044   3.003
25892SOL     OW77633   7.865   2.285   2.380
25892SOL    HW177634   7.900   2.214   2.326
25892SOL    HW277635   7.814   2.241   2.447
25893SOL     OW77636   9.143   3.342   2.943
25893SOL    HW177637   9.065   3.323   2.891
25893SOL    HW277638   9.144   3.275   3.011
25894SOL     OW77639   7.800   2.428   3.153
25894SOL    HW177640   7.849   2.363   3.204
25894SOL    HW277641   7.807   2.398   3.063
25895SOL     OW77642   8.286   3.446   2.532
25895SOL    HW177643   8.255   3.515   2.475
25895SOL    HW277644   8.211   3.387   2.542
25896SOL     OW77645   8.869   2.095   2.977
25896SOL    HW177646   8.879   2.006   3.010
25896SOL    HW277647   8.823   2.142   3.047
25897SOL     OW77648   8.458   1.879   2.981
25897SOL    HW177649   8.405   1.816   2.933
25897SOL    HW277650   8.545   1.839   2.985
25898SOL     OW77651   8.228   3.194   2.190
25898SOL    HW177652   8.204   3.102   2.202
25898SOL    HW277653   8.308   3.205   2.242
25899SOL     OW77654   8.063   3.431   3.150
25899SOL    HW177655   8.059   3.515   3.196
25899SOL    HW277656   8.153   3.427   3.117
25900SOL     OW77657   8.828   1.901   2.054
25900SOL    HW177658   8.869   1.828   2.006
25900SOL    HW277659   8.737   1.874   2.065
25901SOL     OW77660   8.746   2.333   2.537
25901SOL    HW177661   8.695   2.414   2.534
25901SOL    HW277662   8.738   2.304   2.628
25902SOL     OW77663   9.028   2.049   2.754
25902SOL    HW177664   8.976   2.079   2.829
25902SOL    HW277665   9.028   2.123   2.694
25903SOL     OW77666   7.485   2.913   2.170
25903SOL    HW177667   7.578   2.902   2.152
25903SOL    HW277668   7.453   2.825   2.190
25904SOL     OW77669   8.343   3.538   2.191
25904SOL    HW177670   8.265   3.522   2.139
25904SOL    HW277671   8.318   3.606   2.253
25905SOL     OW77672   7.656   2.483   3.872
25905SOL    HW177673   7.568   2.471   3.908
25905SOL    HW277674   7.644   2.470   3.778
25906SOL     OW77675   7.667   2.150   4.713
25906SOL    HW177676   7.697   2.115   4.797
25906SOL    HW277677   7.580   2.113   4.702
25907SOL     OW77678   7.435   2.257   4.370
25907SOL    HW177679   7.355   2.283   4.417
25907SOL    HW277680   7.407   2.184   4.315
25908SOL     OW77681   8.023   3.170   4.933
25908SOL    HW177682   7.941   3.173   4.884
25908SOL    HW277683   8.040   3.261   4.957
25909SOL     OW77684   9.038   3.386   4.429
25909SOL    HW177685   8.991   3.355   4.506
25909SOL    HW277686   8.972   3.389   4.360
25910SOL     OW77687   8.586   2.566   4.410
25910SOL    HW177688   8.632   2.649   4.398
25910SOL    HW277689   8.537   2.576   4.492
25911SOL     OW77690   9.250   2.440   3.944
25911SOL    HW177691   9.210   2.441   3.856
25911SOL    HW277692   9.205   2.369   3.989
25912SOL     OW77693   8.175   2.992   4.781
25912SOL    HW177694   8.117   3.032   4.846
25912SOL    HW277695   8.217   3.066   4.737
25913SOL     OW77696   8.335   2.604   5.551
25913SOL    HW177697   8.327   2.671   5.619
25913SOL    HW277698   8.352   2.653   5.471
25914SOL     OW77699   8.134   2.847   4.368
25914SOL    HW177700   8.201   2.847   4.436
25914SOL    HW277701   8.068   2.909   4.399
25915SOL     OW77702   8.160   3.013   5.557
25915SOL    HW177703   8.212   3.085   5.592
25915SOL    HW277704   8.085   3.055   5.517
25916SOL     OW77705   7.791   3.259   4.794
25916SOL    HW177706   7.716   3.216   4.754
25916SOL    HW277707   7.827   3.314   4.724
25917SOL     OW77708   8.901   3.369   5.096
25917SOL    HW177709   8.957   3.446   5.108
25917SOL    HW277710   8.830   3.381   5.158
25918SOL     OW77711   7.907   2.236   5.179
25918SOL    HW177712   7.981   2.178   5.195
25918SOL    HW277713   7.830   2.186   5.206
25919SOL     OW77714   9.027   2.293   4.479
25919SOL    HW177715   8.957   2.303   4.414
25919SOL    HW277716   9.011   2.364   4.542
25920SOL     OW77717   7.666   3.590   4.189
25920SOL    HW177718   7.692   3.661   4.247
25920SOL    HW277719   7.740   3.579   4.129
25921SOL     OW77720   8.582   3.204   5.420
25921SOL    HW177721   8.628   3.193   5.503
25921SOL    HW277722   8.529   3.124   5.411
25922SOL     OW77723   7.680   3.319   4.257
25922SOL    HW177724   7.660   3.413   4.260
25922SOL    HW277725   7.630   3.282   4.329
25923SOL     OW77726   7.733   2.951   4.602
25923SOL    HW177727   7.734   2.861   4.636
25923SOL    HW277728   7.677   2.999   4.663
25924SOL     OW77729   8.024   3.664   5.147
25924SOL    HW177730   7.946   3.645   5.200
25924SOL    HW277731   8.055   3.748   5.180
25925SOL     OW77732   8.013   2.850   3.876
25925SOL    HW177733   8.065   2.892   3.807
25925SOL    HW277734   8.054   2.879   3.957
25926SOL     OW77735   9.040   1.994   5.185
25926SOL    HW177736   9.078   2.070   5.141
25926SOL    HW277737   9.007   2.027   5.268
25927SOL     OW77738   7.567   2.520   4.291
25927SOL    HW177739   7.535   2.433   4.315
25927SOL    HW277740   7.561   2.571   4.372
25928SOL     OW77741   9.295   3.606   4.045
25928SOL    HW177742   9.368   3.590   4.104
25928SOL    HW277743   9.305   3.698   4.019
25929SOL     OW77744   7.507   3.442   3.834
25929SOL    HW177745   7.486   3.350   3.853
25929SOL    HW277746   7.475   3.490   3.911
25930SOL     OW77747   9.141   2.788   4.380
25930SOL    HW177748   9.227   2.748   4.367
25930SOL    HW277749   9.125   2.838   4.299
25931SOL     OW77750   9.103   2.967   4.159
25931SOL    HW177751   9.188   2.958   4.114
25931SOL    HW277752   9.119   3.031   4.227
25932SOL     OW77753   7.568   2.612   5.302
25932SOL    HW177754   7.653   2.656   5.305
25932SOL    HW277755   7.505   2.682   5.287
25933SOL     OW77756   8.071   3.260   4.455
25933SOL    HW177757   8.029   3.174   4.459
25933SOL    HW277758   8.055   3.289   4.365
25934SOL     OW77759   8.718   3.088   5.140
25934SOL    HW177760   8.745   3.018   5.080
25934SOL    HW277761   8.780   3.082   5.213
25935SOL     OW77762   8.279   1.873   4.243
25935SOL    HW177763   8.319   1.955   4.215
25935SOL    HW277764   8.185   1.891   4.243
25936SOL     OW77765   7.635   2.818   5.027
25936SOL    HW177766   7.722   2.783   5.010
25936SOL    HW277767   7.582   2.786   4.954
25937SOL     OW77768   8.980   2.878   3.925
25937SOL    HW177769   8.912   2.818   3.955
25937SOL    HW277770   9.022   2.909   4.006
25938SOL     OW77771   8.629   3.685   5.361
25938SOL    HW177772   8.629   3.746   5.288
25938SOL    HW277773   8.645   3.599   5.320
25939SOL     OW77774   7.807   2.115   5.600
25939SOL    HW177775   7.843   2.195   5.638
25939SOL    HW277776   7.713   2.130   5.596
25940SOL     OW77777   8.919   3.280   4.654
25940SOL    HW177778   8.857   3.299   4.723
25940SOL    HW277779   8.902   3.189   4.630
25941SOL     OW77780   9.085   3.661   4.285
25941SOL    HW177781   9.069   3.613   4.204
25941SOL    HW277782   9.086   3.593   4.353
25942SOL     OW77783   8.035   2.561   3.995
25942SOL    HW177784   8.038   2.649   3.957
25942SOL    HW277785   7.970   2.568   4.066
25943SOL     OW77786   8.730   2.255   4.665
25943SOL    HW177787   8.641   2.219   4.670
25943SOL    HW277788   8.782   2.197   4.721
25944SOL     OW77789   9.027   3.536   4.043
25944SOL    HW177790   9.121   3.551   4.032
25944SOL    HW277791   8.994   3.524   3.954
25945SOL     OW77792   8.239   2.475   5.155
25945SOL    HW177793   8.215   2.446   5.243
25945SOL    HW277794   8.213   2.402   5.098
25946SOL     OW77795   8.839   2.339   5.398
25946SOL    HW177796   8.844   2.382   5.483
25946SOL    HW277797   8.889   2.258   5.409
25947SOL     OW77798   8.392   2.743   5.317
25947SOL    HW177799   8.448   2.679   5.272
25947SOL    HW277800   8.343   2.785   5.246
25948SOL     OW77801   8.455   2.259   4.933
25948SOL    HW177802   8.363   2.272   4.956
25948SOL    HW277803   8.453   2.216   4.847
25949SOL     OW77804   8.506   2.559   4.142
25949SOL    HW177805   8.527   2.556   4.236
25949SOL    HW277806   8.421   2.515   4.135
25950SOL     OW77807   7.541   2.686   4.507
25950SOL    HW177808   7.623   2.681   4.556
25950SOL    HW277809   7.492   2.758   4.548
25951SOL     OW77810   7.557   3.743   5.312
25951SOL    HW177811   7.565   3.721   5.405
25951SOL    HW277812   7.470   3.711   5.287
25952SOL     OW77813   8.337   2.212   3.924
25952SOL    HW177814   8.388   2.267   3.864
25952SOL    HW277815   8.315   2.134   3.873
25953SOL     OW77816   9.134   2.426   5.564
25953SOL    HW177817   9.111   2.503   5.514
25953SOL    HW277818   9.161   2.361   5.499
25954SOL     OW77819   8.840   3.012   4.268
25954SOL    HW177820   8.920   3.000   4.217
25954SOL    HW277821   8.787   3.073   4.217
25955SOL     OW77822   7.999   2.022   4.639
25955SOL    HW177823   8.005   2.051   4.730
25955SOL    HW277824   7.995   2.104   4.589
25956SOL     OW77825   8.445   3.318   4.189
25956SOL    HW177826   8.420   3.392   4.134
25956SOL    HW277827   8.415   3.342   4.277
25957SOL     OW77828   7.801   3.678   4.604
25957SOL    HW177829   7.847   3.594   4.608
25957SOL    HW277830   7.868   3.743   4.625
25958SOL     OW77831   9.248   2.912   4.616
25958SOL    HW177832   9.199   2.902   4.535
25958SOL    HW277833   9.182   2.920   4.684
25959SOL     OW77834   8.666   3.406   5.242
25959SOL    HW177835   8.654   3.334   5.304
25959SOL    HW277836   8.597   3.393   5.177
25960SOL     OW77837   7.748   2.821   3.989
25960SOL    HW177838   7.831   2.842   3.946
25960SOL    HW277839   7.725   2.734   3.957
25961SOL     OW77840   8.930   2.623   4.434
25961SOL    HW177841   8.933   2.581   4.520
25961SOL    HW277842   9.009   2.678   4.432
25962SOL     OW77843   7.920   3.146   5.472
25962SOL    HW177844   7.897   3.151   5.379
25962SOL    HW277845   7.837   3.135   5.518
25963SOL     OW77846   8.588   3.638   3.950
25963SOL    HW177847   8.506   3.608   3.989
25963SOL    HW277848   8.607   3.573   3.882
25964SOL     OW77849   7.657   2.118   5.222
25964SOL    HW177850   7.585   2.179   5.239
25964SOL    HW277851   7.626   2.034   5.256
25965SOL     OW77852   9.071   3.253   3.822
25965SOL    HW177853   9.031   3.339   3.807
25965SOL    HW277854   9.005   3.191   3.793
25966SOL     OW77855   7.907   3.604   4.040
25966SOL    HW177856   7.956   3.654   4.104
25966SOL    HW277857   7.974   3.563   3.985
25967SOL     OW77858   8.845   1.967   4.183
25967SOL    HW177859   8.845   1.943   4.090
25967SOL    HW277860   8.935   1.952   4.211
25968SOL     OW77861   7.698   3.650   4.939
25968SOL    HW177862   7.748   3.575   4.972
25968SOL    HW277863   7.682   3.630   4.846
25969SOL     OW77864   8.397   3.564   4.614
25969SOL    HW177865   8.482   3.523   4.628
25969SOL    HW277866   8.357   3.514   4.543
25970SOL     OW77867   7.843   2.547   4.197
25970SOL    HW177868   7.855   2.453   4.209
25970SOL    HW277869   7.750   2.562   4.214
25971SOL     OW77870   8.953   2.084   5.441
25971SOL    HW177871   8.966   2.102   5.534
25971SOL    HW277872   8.887   2.015   5.439
25972SOL     OW77873   8.111   1.971   3.827
25972SOL    HW177874   8.159   1.892   3.852
25972SOL    HW277875   8.050   1.941   3.759
25973SOL     OW77876   8.207   2.135   5.476
25973SOL    HW177877   8.291   2.090   5.475
25973SOL    HW277878   8.160   2.097   5.550
25974SOL     OW77879   8.317   3.388   4.923
25974SOL    HW177880   8.299   3.348   4.839
25974SOL    HW277881   8.384   3.333   4.963
25975SOL     OW77882   8.777   2.453   5.156
25975SOL    HW177883   8.810   2.423   5.241
25975SOL    HW277884   8.816   2.540   5.145
25976SOL     OW77885   8.264   3.238   4.680
25976SOL    HW177886   8.351   3.234   4.642
25976SOL    HW277887   8.206   3.254   4.606
25977SOL     OW77888   8.378   2.377   4.612
25977SOL    HW177889   8.353   2.365   4.520
25977SOL    HW277890   8.406   2.290   4.640
25978SOL     OW77891   8.012   1.925   4.214
25978SOL    HW177892   7.934   1.926   4.270
25978SOL    HW277893   8.000   2.000   4.156
25979SOL     OW77894   8.875   3.071   3.754
25979SOL    HW177895   8.907   2.999   3.808
25979SOL    HW277896   8.790   3.094   3.792
25980SOL     OW77897   7.730   1.910   3.912
25980SOL    HW177898   7.783   1.977   3.869
25980SOL    HW277899   7.794   1.852   3.954
25981SOL     OW77900   8.400   2.112   4.175
25981SOL    HW177901   8.374   2.148   4.089
25981SOL    HW277902   8.494   2.129   4.181
25982SOL     OW77903   8.523   2.556   5.169
25982SOL    HW177904   8.460   2.484   5.173
25982SOL    HW277905   8.608   2.513   5.165
25983SOL     OW77906   8.654   3.449   4.526
25983SOL    HW177907   8.668   3.509   4.454
25983SOL    HW277908   8.728   3.464   4.585
25984SOL     OW77909   7.930   3.023   4.432
25984SOL    HW177910   7.868   2.999   4.500
25984SOL    HW277911   7.880   3.017   4.350
25985SOL     OW77912   8.699   3.654   4.341
25985SOL    HW177913   8.748   3.716   4.288
25985SOL    HW277914   8.628   3.705   4.380
25986SOL     OW77915   8.480   2.377   3.754
25986SOL    HW177916   8.437   2.461   3.735
25986SOL    HW277917   8.543   2.397   3.822
25987SOL     OW77918   7.548   2.413   5.116
25987SOL    HW177919   7.640   2.415   5.089
25987SOL    HW277920   7.540   2.482   5.181
25988SOL     OW77921   8.007   2.083   4.909
25988SOL    HW177922   8.044   2.020   4.970
25988SOL    HW277923   7.914   2.084   4.929
25989SOL     OW77924   8.318   2.316   4.354
25989SOL    HW177925   8.278   2.372   4.287
25989SOL    HW277926   8.343   2.237   4.306
25990SOL     OW77927   8.470   1.921   4.464
25990SOL    HW177928   8.409   1.915   4.390
25990SOL    HW277929   8.445   1.848   4.521
25991SOL     OW77930   8.881   3.016   4.578
25991SOL    HW177931   8.811   2.952   4.587
25991SOL    HW277932   8.896   3.022   4.484
25992SOL     OW77933   8.909   2.478   4.673
25992SOL    HW177934   8.845   2.408   4.683
25992SOL    HW277935   8.964   2.472   4.750
25993SOL     OW77936   9.278   2.656   4.110
25993SOL    HW177937   9.335   2.612   4.173
25993SOL    HW277938   9.264   2.591   4.041
25994SOL     OW77939   7.946   3.286   3.874
25994SOL    HW177940   7.871   3.254   3.925
25994SOL    HW277941   7.942   3.237   3.792
25995SOL     OW77942   9.158   3.131   4.361
25995SOL    HW177943   9.252   3.125   4.379
25995SOL    HW277944   9.135   3.221   4.385
25996SOL     OW77945   8.840   2.437   3.790
25996SOL    HW177946   8.784   2.411   3.863
25996SOL    HW277947   8.929   2.413   3.818
25997SOL     OW77948   7.975   2.119   4.026
25997SOL    HW177949   8.029   2.077   3.959
25997SOL    HW277950   7.943   2.199   3.985
25998SOL     OW77951   9.180   3.107   5.257
25998SOL    HW177952   9.267   3.070   5.244
25998SOL    HW277953   9.196   3.194   5.293
25999SOL     OW77954   8.489   3.216   5.058
25999SOL    HW177955   8.412   3.182   5.103
25999SOL    HW277956   8.563   3.172   5.099
26000SOL     OW77957   9.056   3.498   5.396
26000SOL    HW177958   9.045   3.533   5.307
26000SOL    HW277959   9.133   3.441   5.390
26001SOL     OW77960   8.599   3.099   4.829
26001SOL    HW177961   8.537   3.133   4.894
26001SOL    HW277962   8.566   3.132   4.745
26002SOL     OW77963   9.053   2.953   4.803
26002SOL    HW177964   9.046   3.020   4.871
26002SOL    HW277965   8.984   2.975   4.740
26003SOL     OW77966   8.367   1.943   5.107
26003SOL    HW177967   8.388   1.928   5.015
26003SOL    HW277968   8.446   1.984   5.143
26004SOL     OW77969   8.427   2.977   5.448
26004SOL    HW177970   8.337   2.994   5.476
26004SOL    HW277971   8.422   2.897   5.397
26005SOL     OW77972   8.162   2.924   4.100
26005SOL    HW177973   8.147   2.898   4.191
26005SOL    HW277974   8.236   2.871   4.072
26006SOL     OW77975   7.874   2.690   4.984
26006SOL    HW177976   7.942   2.700   5.050
26006SOL    HW277977   7.844   2.600   4.993
26007SOL     OW77978   8.712   2.229   5.016
26007SOL    HW177979   8.740   2.310   5.060
26007SOL    HW277980   8.623   2.248   4.986
26008SOL     OW77981   7.525   3.431   5.086
26008SOL    HW177982   7.495   3.503   5.031
26008SOL    HW277983   7.621   3.432   5.076
26009SOL     OW77984   7.765   2.997   4.210
26009SOL    HW177985   7.766   3.069   4.147
26009SOL    HW277986   7.762   2.918   4.156
26010SOL     OW77987   7.982   2.378   4.583
26010SOL    HW177988   7.994   2.437   4.508
26010SOL    HW277989   8.050   2.404   4.645
26011SOL     OW77990   8.694   3.216   4.122
26011SOL    HW177991   8.751   3.286   4.156
26011SOL    HW277992   8.607   3.240   4.153
26012SOL     OW77993   8.757   3.330   4.866
26012SOL    HW177994   8.805   3.337   4.949
26012SOL    HW277995   8.707   3.249   4.875
26013SOL     OW77996   9.021   2.480   4.208
26013SOL    HW177997   8.971   2.519   4.280
26013SOL    HW277998   9.066   2.554   4.167
26014SOL     OW77999   7.792   3.395   5.025
26014SOL    HW178000   7.785   3.342   4.946
26014SOL    HW278001   7.886   3.412   5.035
26015SOL     OW78002   7.881   2.608   5.343
26015SOL    HW178003   7.939   2.651   5.280
26015SOL    HW278004   7.926   2.525   5.363
26016SOL     OW78005   9.071   2.648   5.424
26016SOL    HW178006   8.984   2.686   5.414
26016SOL    HW278007   9.121   2.685   5.351
26017SOL     OW78008   8.443   2.003   5.483
26017SOL    HW178009   8.502   2.076   5.464
26017SOL    HW278010   8.494   1.925   5.461
26018SOL     OW78011   7.942   1.897   5.487
26018SOL    HW178012   7.888   1.847   5.426
26018SOL    HW278013   7.890   1.974   5.509
26019SOL     OW78014   8.040   2.737   4.763
26019SOL    HW178015   8.077   2.825   4.766
26019SOL    HW278016   7.982   2.733   4.839
26020SOL     OW78017   8.756   2.715   4.727
26020SOL    HW178018   8.668   2.688   4.701
26020SOL    HW278019   8.811   2.639   4.708
26021SOL     OW78020   8.646   2.384   3.981
26021SOL    HW178021   8.657   2.308   4.038
26021SOL    HW278022   8.605   2.450   4.037
26022SOL     OW78023   7.740   2.055   4.963
26022SOL    HW178024   7.705   2.084   5.047
26022SOL    HW278025   7.722   1.961   4.960
26023SOL     OW78026   7.498   3.173   4.990
26023SOL    HW178027   7.527   3.118   5.063
26023SOL    HW278028   7.500   3.263   5.025
26024SOL     OW78029   8.160   2.484   4.763
26024SOL    HW178030   8.237   2.477   4.708
26024SOL    HW278031   8.131   2.575   4.754
26025SOL     OW78032   9.193   2.828   5.597
26025SOL    HW178033   9.153   2.757   5.547
26025SOL    HW278034   9.129   2.849   5.665
26026SOL     OW78035   7.773   1.921   4.352
26026SOL    HW178036   7.739   2.009   4.370
26026SOL    HW278037   7.779   1.880   4.438
26027SOL     OW78038   9.079   2.252   4.067
26027SOL    HW178039   9.112   2.187   4.129
26027SOL    HW278040   9.049   2.325   4.123
26028SOL     OW78041   8.482   2.620   4.680
26028SOL    HW178042   8.460   2.635   4.772
26028SOL    HW278043   8.452   2.531   4.662
26029SOL     OW78044   8.427   3.427   5.458
26029SOL    HW178045   8.407   3.471   5.375
26029SOL    HW278046   8.467   3.344   5.432
26030SOL     OW78047   9.286   3.356   5.325
26030SOL    HW178048   9.312   3.384   5.237
26030SOL    HW278049   9.365   3.366   5.377
26031SOL     OW78050   7.797   2.779   5.541
26031SOL    HW178051   7.874   2.798   5.594
26031SOL    HW278052   7.828   2.717   5.475
26032SOL     OW78053   8.969   2.130   3.843
26032SOL    HW178054   8.917   2.060   3.880
26032SOL    HW278055   9.009   2.174   3.918
26033SOL     OW78056   8.729   2.683   3.743
26033SOL    HW178057   8.769   2.596   3.751
26033SOL    HW278058   8.764   2.719   3.662
26034SOL     OW78059   8.518   3.215   4.590
26034SOL    HW178060   8.529   3.142   4.529
26034SOL    HW278061   8.570   3.286   4.553
26035SOL     OW78062   7.766   2.678   4.668
26035SOL    HW178063   7.861   2.692   4.666
26035SOL    HW278064   7.756   2.588   4.699
26036SOL     OW78065   7.761   2.400   4.735
26036SOL    HW178066   7.722   2.313   4.725
26036SOL    HW278067   7.838   2.398   4.679
26037SOL     OW78068   8.586   2.229   5.410
26037SOL    HW178069   8.541   2.281   5.477
26037SOL    HW278070   8.671   2.272   5.401
26038SOL     OW78071   8.604   2.051   5.198
26038SOL    HW178072   8.592   2.113   5.270
26038SOL    HW278073   8.650   2.101   5.131
26039SOL     OW78074   7.472   3.165   3.903
26039SOL    HW178075   7.382   3.187   3.878
26039SOL    HW278076   7.465   3.078   3.944
26040SOL     OW78077   7.541   3.631   4.676
26040SOL    HW178078   7.507   3.558   4.625
26040SOL    HW278079   7.628   3.649   4.639
26041SOL     OW78080   7.933   3.432   4.625
26041SOL    HW178081   8.003   3.493   4.647
26041SOL    HW278082   7.973   3.370   4.564
26042SOL     OW78083   8.397   2.642   4.938
26042SOL    HW178084   8.459   2.631   5.010
26042SOL    HW278085   8.318   2.597   4.968
26043SOL     OW78086   7.487   2.432   4.846
26043SOL    HW178087   7.568   2.430   4.795
26043SOL    HW278088   7.515   2.426   4.937
26044SOL     OW78089   7.634   2.401   5.467
26044SOL    HW178090   7.708   2.370   5.414
26044SOL    HW278091   7.598   2.475   5.418
26045SOL     OW78092   8.837   2.782   5.375
26045SOL    HW178093   8.854   2.876   5.370
26045SOL    HW278094   8.830   2.754   5.283
26046SOL     OW78095   8.266   2.430   4.096
26046SOL    HW178096   8.275   2.356   4.036
26046SOL    HW278097   8.189   2.478   4.065
26047SOL     OW78098   9.081   2.463   4.886
26047SOL    HW178099   9.071   2.404   4.961
26047SOL    HW278100   9.171   2.451   4.858
26048SOL     OW78101   7.674   3.402   5.445
26048SOL    HW178102   7.652   3.453   5.523
26048SOL    HW278103   7.685   3.313   5.478
26049SOL     OW78104   8.182   2.295   4.958
26049SOL    HW178105   8.118   2.226   4.943
26049SOL    HW278106   8.164   2.359   4.889
26050SOL     OW78107   8.356   3.540   5.210
26050SOL    HW178108   8.332   3.493   5.130
26050SOL    HW278109   8.357   3.632   5.184
26051SOL     OW78110   7.891   2.343   3.888
26051SOL    HW178111   7.955   2.409   3.913
26051SOL    HW278112   7.807   2.388   3.892
26052SOL     OW78113   7.578   3.012   5.205
26052SOL    HW178114   7.582   2.973   5.292
26052SOL    HW278115   7.599   2.941   5.145
26053SOL     OW78116   8.750   2.895   4.933
26053SOL    HW178117   8.760   2.832   4.862
26053SOL    HW278118   8.697   2.965   4.895
26054SOL     OW78119   8.774   2.721   4.016
26054SOL    HW178120   8.703   2.687   4.070
26054SOL    HW278121   8.745   2.706   3.926
26055SOL     OW78122   9.238   3.584   4.895
26055SOL    HW178123   9.299   3.611   4.826
26055SOL    HW278124   9.205   3.499   4.866
26056SOL     OW78125   8.689   3.596   4.815
26056SOL    HW178126   8.773   3.625   4.781
26056SOL    HW278127   8.703   3.504   4.839
26057SOL     OW78128   7.555   3.107   4.734
26057SOL    HW178129   7.527   3.130   4.823
26057SOL    HW278130   7.483   3.056   4.698
26058SOL     OW78131   8.134   3.545   5.473
26058SOL    HW178132   8.070   3.616   5.461
26058SOL    HW278133   8.207   3.569   5.416
26059SOL     OW78134   9.196   2.047   4.217
26059SOL    HW178135   9.256   2.026   4.145
26059SOL    HW278136   9.168   1.962   4.251
26060SOL     OW78137   8.846   3.432   4.227
26060SOL    HW178138   8.901   3.466   4.157
26060SOL    HW278139   8.791   3.505   4.254
26061SOL     OW78140   7.583   3.666   5.567
26061SOL    HW178141   7.542   3.591   5.610
26061SOL    HW278142   7.633   3.709   5.637
26062SOL     OW78143   8.726   2.798   4.387
26062SOL    HW178144   8.800   2.738   4.401
26062SOL    HW278145   8.763   2.870   4.336
26063SOL     OW78146   8.231   3.142   5.139
26063SOL    HW178147   8.205   3.190   5.218
26063SOL    HW278148   8.157   3.152   5.079
26064SOL     OW78149   8.116   3.497   3.883
26064SOL    HW178150   8.130   3.512   3.790
26064SOL    HW278151   8.064   3.417   3.887
26065SOL     OW78152   9.065   3.591   5.125
26065SOL    HW178153   9.122   3.591   5.048
26065SOL    HW278154   9.049   3.684   5.143
26066SOL     OW78155   9.290   2.021   4.690
26066SOL    HW178156   9.320   1.933   4.669
26066SOL    HW278157   9.203   2.027   4.650
26067SOL     OW78158   7.691   2.168   4.432
26067SOL    HW178159   7.605   2.205   4.411
26067SOL    HW278160   7.695   2.170   4.528
26068SOL     OW78161   8.656   3.451   3.761
26068SOL    HW178162   8.646   3.360   3.789
26068SOL    HW278163   8.587   3.464   3.697
26069SOL     OW78164   8.271   2.873   5.109
26069SOL    HW178165   8.308   2.865   5.021
26069SOL    HW278166   8.260   2.968   5.121
26070SOL     OW78167   8.367   2.772   4.018
26070SOL    HW178168   8.424   2.805   3.949
26070SOL    HW278169   8.420   2.705   4.062
26071SOL     OW78170   8.929   3.510   3.781
26071SOL    HW178171   8.837   3.491   3.763
26071SOL    HW278172   8.970   3.514   3.694
26072SOL     OW78173   7.811   3.174   5.225
26072SOL    HW178174   7.803   3.248   5.165
26072SOL    HW278175   7.733   3.122   5.209
26073SOL     OW78176   9.045   3.153   5.001
26073SOL    HW178177   9.100   3.128   5.076
26073SOL    HW278178   8.987   3.220   5.035
26074SOL     OW78179   8.525   2.981   4.453
26074SOL    HW178180   8.449   2.932   4.485
26074SOL    HW278181   8.587   2.915   4.423
26075SOL     OW78182   8.481   2.111   4.684
26075SOL    HW178183   8.480   2.068   4.598
26075SOL    HW278184   8.474   2.039   4.747
26076SOL     OW78185   8.052   3.348   4.200
26076SOL    HW178186   8.107   3.299   4.138
26076SOL    HW278187   7.971   3.365   4.152
26077SOL     OW78188   9.191   2.242   5.113
26077SOL    HW178189   9.259   2.309   5.107
26077SOL    HW278190   9.218   2.174   5.051
26078SOL     OW78191   7.727   3.203   4.023
26078SOL    HW178192   7.640   3.196   3.983
26078SOL    HW278193   7.713   3.251   4.104
26079SOL     OW78194   7.569   2.909   5.461
26079SOL    HW178195   7.492   2.880   5.509
26079SOL    HW278196   7.641   2.857   5.497
26080SOL     OW78197   8.127   2.050   5.219
26080SOL    HW178198   8.211   2.025   5.180
26080SOL    HW278199   8.150   2.084   5.305
26081SOL     OW78200   7.534   2.180   3.737
26081SOL    HW178201   7.457   2.159   3.685
26081SOL    HW278202   7.562   2.266   3.706
26082SOL     OW78203   8.862   2.715   5.112
26082SOL    HW178204   8.810   2.774   5.057
26082SOL    HW278205   8.950   2.719   5.074
26083SOL     OW78206   7.491   2.011   3.996
26083SOL    HW178207   7.479   2.081   3.932
26083SOL    HW278208   7.580   1.979   3.979
26084SOL     OW78209   8.628   3.185   3.847
26084SOL    HW178210   8.537   3.157   3.846
26084SOL    HW278211   8.651   3.188   3.940
26085SOL     OW78212   8.074   2.693   5.165
26085SOL    HW178213   8.133   2.768   5.154
26085SOL    HW278214   8.132   2.617   5.164
26086SOL     OW78215   8.935   3.664   4.717
26086SOL    HW178216   8.960   3.738   4.662
26086SOL    HW278217   9.017   3.620   4.738
26087SOL     OW78218   8.172   2.410   5.410
26087SOL    HW178219   8.219   2.464   5.474
26087SOL    HW278220   8.182   2.321   5.442
26088SOL     OW78221   8.915   3.045   5.342
26088SOL    HW178222   8.907   3.067   5.435
26088SOL    HW278223   9.004   3.070   5.319
26089SOL     OW78224   7.802   3.610   5.303
26089SOL    HW178225   7.720   3.656   5.285
26089SOL    HW278226   7.774   3.526   5.340
26090SOL     OW78227   9.101   2.736   4.975
26090SOL    HW178228   9.099   2.653   4.927
26090SOL    HW278229   9.088   2.803   4.907
26091SOL     OW78230   8.669   2.184   4.180
26091SOL    HW178231   8.728   2.110   4.179
26091SOL    HW278232   8.697   2.236   4.255
26092SOL     OW78233   8.024   2.587   4.405
26092SOL    HW178234   8.068   2.672   4.390
26092SOL    HW278235   7.963   2.579   4.332
26093SOL     OW78236   9.190   2.218   5.388
26093SOL    HW178237   9.188   2.234   5.294
26093SOL    HW278238   9.112   2.164   5.406
26094SOL     OW78239   9.202   2.782   5.227
26094SOL    HW178240   9.189   2.877   5.239
26094SOL    HW278241   9.176   2.766   5.136
26095SOL     OW78242   8.320   3.219   3.787
26095SOL    HW178243   8.281   3.237   3.873
26095SOL    HW278244   8.329   3.305   3.746
26096SOL     OW78245   8.117   3.628   4.649
26096SOL    HW178246   8.097   3.722   4.642
26096SOL    HW278247   8.212   3.624   4.648
26097SOL     OW78248   8.320   2.839   4.580
26097SOL    HW178249   8.370   2.766   4.615
26097SOL    HW278250   8.275   2.876   4.655
26098SOL     OW78251   8.520   2.846   3.811
26098SOL    HW178252   8.500   2.900   3.735
26098SOL    HW278253   8.594   2.792   3.782
26099SOL     OW78254   9.281   3.420   4.563
26099SOL    HW178255   9.204   3.412   4.507
26099SOL    HW278256   9.260   3.368   4.641
26100SOL     OW78257   7.660   3.148   5.560
26100SOL    HW178258   7.628   3.069   5.517
26100SOL    HW278259   7.600   3.161   5.634
26101SOL     OW78260   7.564   3.086   4.392
26101SOL    HW178261   7.595   3.044   4.472
26101SOL    HW278262   7.623   3.054   4.324
26102SOL     OW78263   8.138   3.281   5.358
26102SOL    HW178264   8.061   3.242   5.399
26102SOL    HW278265   8.143   3.369   5.394
26103SOL     OW78266   9.260   2.033   4.960
26103SOL    HW178267   9.268   1.939   4.974
26103SOL    HW278268   9.271   2.044   4.865
26104SOL     OW78269   7.866   2.284   4.242
26104SOL    HW178270   7.900   2.213   4.187
26104SOL    HW278271   7.814   2.240   4.309
26105SOL     OW78272   9.144   3.342   4.804
26105SOL    HW178273   9.065   3.323   4.753
26105SOL    HW278274   9.144   3.274   4.872
26106SOL     OW78275   7.800   2.428   5.016
26106SOL    HW178276   7.849   2.363   5.066
26106SOL    HW278277   7.807   2.398   4.925
26107SOL     OW78278   8.286   3.447   4.394
26107SOL    HW178279   8.256   3.517   4.336
26107SOL    HW278280   8.211   3.389   4.402
26108SOL     OW78281   8.869   2.095   4.839
26108SOL    HW178282   8.879   2.005   4.872
26108SOL    HW278283   8.823   2.141   4.909
26109SOL     OW78284   8.458   1.879   4.843
26109SOL    HW178285   8.405   1.816   4.795
26109SOL    HW278286   8.545   1.839   4.847
26110SOL     OW78287   8.228   3.194   4.052
26110SOL    HW178288   8.204   3.102   4.065
26110SOL    HW278289   8.308   3.205   4.104
26111SOL     OW78290   8.064   3.431   5.013
26111SOL    HW178291   8.059   3.514   5.059
26111SOL    HW278292   8.153   3.427   4.979
26112SOL     OW78293   8.828   1.901   3.916
26112SOL    HW178294   8.869   1.828   3.868
26112SOL    HW278295   8.737   1.874   3.927
26113SOL     OW78296   8.746   2.333   4.399
26113SOL    HW178297   8.696   2.414   4.396
26113SOL    HW278298   8.738   2.303   4.490
26114SOL     OW78299   9.028   2.049   4.616
26114SOL    HW178300   8.976   2.079   4.691
26114SOL    HW278301   9.028   2.123   4.556
26115SOL     OW78302   7.485   2.913   4.032
26115SOL    HW178303   7.578   2.902   4.014
26115SOL    HW278304   7.453   2.825   4.053
26116SOL     OW78305   8.343   3.538   4.053
26116SOL    HW178306   8.265   3.522   4.001
26116SOL    HW278307   8.318   3.606   4.115
26117SOL     OW78308   7.656   2.483   5.734
26117SOL    HW178309   7.568   2.471   5.770
26117SOL    HW278310   7.645   2.470   5.640
26118SOL     OW78311   7.667   2.151   6.576
26118SOL    HW178312   7.697   2.115   6.659
26118SOL    HW278313   7.580   2.113   6.564
26119SOL     OW78314   7.435   2.257   6.232
26119SOL    HW178315   7.355   2.283   6.279
26119SOL    HW278316   7.408   2.184   6.177
26120SOL     OW78317   8.023   3.170   6.795
26120SOL    HW178318   7.941   3.173   6.746
26120SOL    HW278319   8.040   3.261   6.819
26121SOL     OW78320   9.038   3.386   6.291
26121SOL    HW178321   8.991   3.355   6.368
26121SOL    HW278322   8.972   3.389   6.222
26122SOL     OW78323   8.586   2.566   6.272
26122SOL    HW178324   8.632   2.649   6.260
26122SOL    HW278325   8.537   2.577   6.354
26123SOL     OW78326   9.250   2.440   5.806
26123SOL    HW178327   9.210   2.441   5.718
26123SOL    HW278328   9.205   2.369   5.851
26124SOL     OW78329   8.175   2.992   6.643
26124SOL    HW178330   8.117   3.032   6.708
26124SOL    HW278331   8.217   3.066   6.599
26125SOL     OW78332   8.335   2.604   7.413
26125SOL    HW178333   8.328   2.671   7.481
26125SOL    HW278334   8.352   2.652   7.333
26126SOL     OW78335   8.133   2.847   6.230
26126SOL    HW178336   8.201   2.847   6.298
26126SOL    HW278337   8.067   2.909   6.261
26127SOL     OW78338   8.160   3.012   7.419
26127SOL    HW178339   8.212   3.085   7.454
26127SOL    HW278340   8.084   3.054   7.378
26128SOL     OW78341   7.791   3.259   6.656
26128SOL    HW178342   7.715   3.216   6.616
26128SOL    HW278343   7.827   3.314   6.586
26129SOL     OW78344   8.901   3.369   6.958
26129SOL    HW178345   8.957   3.446   6.970
26129SOL    HW278346   8.830   3.381   7.021
26130SOL     OW78347   7.907   2.237   7.041
26130SOL    HW178348   7.981   2.178   7.057
26130SOL    HW278349   7.830   2.185   7.068
26131SOL     OW78350   9.027   2.294   6.341
26131SOL    HW178351   8.958   2.303   6.276
26131SOL    HW278352   9.011   2.364   6.404
26132SOL     OW78353   7.666   3.590   6.050
26132SOL    HW178354   7.693   3.661   6.109
26132SOL    HW278355   7.740   3.579   5.990
26133SOL     OW78356   8.583   3.203   7.282
26133SOL    HW178357   8.628   3.192   7.366
26133SOL    HW278358   8.530   3.124   7.273
26134SOL     OW78359   7.680   3.320   6.119
26134SOL    HW178360   7.660   3.413   6.121
26134SOL    HW278361   7.629   3.283   6.192
26135SOL     OW78362   7.732   2.951   6.464
26135SOL    HW178363   7.733   2.862   6.498
26135SOL    HW278364   7.676   2.999   6.525
26136SOL     OW78365   8.022   3.665   7.008
26136SOL    HW178366   7.946   3.646   7.061
26136SOL    HW278367   8.055   3.749   7.041
26137SOL     OW78368   8.014   2.850   5.738
26137SOL    HW178369   8.065   2.892   5.669
26137SOL    HW278370   8.054   2.879   5.820
26138SOL     OW78371   9.040   1.993   7.047
26138SOL    HW178372   9.078   2.070   7.004
26138SOL    HW278373   9.007   2.027   7.130
26139SOL     OW78374   7.567   2.520   6.153
26139SOL    HW178375   7.535   2.433   6.177
26139SOL    HW278376   7.561   2.571   6.234
26140SOL     OW78377   9.295   3.606   5.907
26140SOL    HW178378   9.368   3.590   5.966
26140SOL    HW278379   9.305   3.698   5.881
26141SOL     OW78380   7.506   3.442   5.697
26141SOL    HW178381   7.485   3.350   5.716
26141SOL    HW278382   7.475   3.490   5.773
26142SOL     OW78383   9.141   2.788   6.242
26142SOL    HW178384   9.227   2.748   6.229
26142SOL    HW278385   9.125   2.838   6.161
26143SOL     OW78386   9.103   2.967   6.021
26143SOL    HW178387   9.188   2.958   5.976
26143SOL    HW278388   9.119   3.031   6.090
26144SOL     OW78389   7.569   2.612   7.164
26144SOL    HW178390   7.654   2.655   7.167
26144SOL    HW278391   7.506   2.682   7.149
26145SOL     OW78392   8.070   3.260   6.317
26145SOL    HW178393   8.029   3.174   6.322
26145SOL    HW278394   8.055   3.289   6.227
26146SOL     OW78395   8.718   3.088   7.002
26146SOL    HW178396   8.745   3.018   6.942
26146SOL    HW278397   8.780   3.082   7.075
26147SOL     OW78398   8.279   1.873   6.105
26147SOL    HW178399   8.319   1.955   6.077
26147SOL    HW278400   8.185   1.891   6.105
26148SOL     OW78401   7.635   2.818   6.888
26148SOL    HW178402   7.722   2.783   6.872
26148SOL    HW278403   7.582   2.785   6.815
26149SOL     OW78404   8.980   2.878   5.787
26149SOL    HW178405   8.912   2.818   5.817
26149SOL    HW278406   9.022   2.909   5.868
26150SOL     OW78407   8.628   3.684   7.222
26150SOL    HW178408   8.628   3.746   7.149
26150SOL    HW278409   8.644   3.599   7.182
26151SOL     OW78410   7.807   2.115   7.462
26151SOL    HW178411   7.843   2.195   7.499
26151SOL    HW278412   7.713   2.130   7.458
26152SOL     OW78413   8.919   3.281   6.516
26152SOL    HW178414   8.856   3.300   6.585
26152SOL    HW278415   8.902   3.190   6.491
26153SOL     OW78416   9.085   3.661   6.147
26153SOL    HW178417   9.069   3.613   6.065
26153SOL    HW278418   9.086   3.593   6.214
26154SOL     OW78419   8.035   2.561   5.858
26154SOL    HW178420   8.038   2.649   5.819
26154SOL    HW278421   7.970   2.569   5.928
26155SOL     OW78422   8.729   2.255   6.527
26155SOL    HW178423   8.641   2.219   6.532
26155SOL    HW278424   8.782   2.197   6.583
26156SOL     OW78425   9.027   3.536   5.905
26156SOL    HW178426   9.121   3.551   5.894
26156SOL    HW278427   8.994   3.524   5.816
26157SOL     OW78428   8.238   2.475   7.017
26157SOL    HW178429   8.215   2.446   7.105
26157SOL    HW278430   8.213   2.402   6.960
26158SOL     OW78431   8.839   2.339   7.260
26158SOL    HW178432   8.844   2.382   7.345
26158SOL    HW278433   8.888   2.258   7.271
26159SOL     OW78434   8.392   2.743   7.179
26159SOL    HW178435   8.448   2.679   7.134
26159SOL    HW278436   8.343   2.785   7.108
26160SOL     OW78437   8.455   2.259   6.795
26160SOL    HW178438   8.363   2.272   6.818
26160SOL    HW278439   8.453   2.216   6.710
26161SOL     OW78440   8.506   2.559   6.004
26161SOL    HW178441   8.527   2.556   6.098
26161SOL    HW278442   8.421   2.515   5.997
26162SOL     OW78443   7.540   2.686   6.370
26162SOL    HW178444   7.623   2.681   6.418
26162SOL    HW278445   7.492   2.758   6.410
26163SOL     OW78446   7.557   3.742   7.174
26163SOL    HW178447   7.564   3.721   7.267
26163SOL    HW278448   7.471   3.708   7.148
26164SOL     OW78449   8.337   2.212   5.786
26164SOL    HW178450   8.388   2.267   5.726
26164SOL    HW278451   8.315   2.134   5.735
26165SOL     OW78452   9.134   2.426   7.427
26165SOL    HW178453   9.111   2.503   7.376
26165SOL    HW278454   9.160   2.361   7.361
26166SOL     OW78455   8.840   3.012   6.130
26166SOL    HW178456   8.920   3.000   6.078
26166SOL    HW278457   8.787   3.073   6.078
26167SOL     OW78458   7.999   2.022   6.501
26167SOL    HW178459   8.005   2.051   6.592
26167SOL    HW278460   7.995   2.103   6.451
26168SOL     OW78461   8.445   3.318   6.051
26168SOL    HW178462   8.420   3.392   5.996
26168SOL    HW278463   8.415   3.342   6.138
26169SOL     OW78464   7.801   3.678   6.466
26169SOL    HW178465   7.847   3.594   6.470
26169SOL    HW278466   7.868   3.743   6.487
26170SOL     OW78467   9.248   2.912   6.478
26170SOL    HW178468   9.199   2.902   6.397
26170SOL    HW278469   9.182   2.920   6.546
26171SOL     OW78470   8.665   3.406   7.103
26171SOL    HW178471   8.654   3.334   7.166
26171SOL    HW278472   8.598   3.390   7.037
26172SOL     OW78473   7.748   2.821   5.851
26172SOL    HW178474   7.831   2.843   5.808
26172SOL    HW278475   7.725   2.735   5.818
26173SOL     OW78476   8.930   2.623   6.296
26173SOL    HW178477   8.933   2.581   6.382
26173SOL    HW278478   9.009   2.678   6.294
26174SOL     OW78479   7.920   3.146   7.334
26174SOL    HW178480   7.897   3.151   7.242
26174SOL    HW278481   7.837   3.134   7.380
26175SOL     OW78482   8.588   3.638   5.813
26175SOL    HW178483   8.505   3.608   5.851
26175SOL    HW278484   8.607   3.573   5.745
26176SOL     OW78485   7.657   2.118   7.084
26176SOL    HW178486   7.585   2.179   7.101
26176SOL    HW278487   7.626   2.034   7.118
26177SOL     OW78488   9.071   3.254   5.684
26177SOL    HW178489   9.031   3.339   5.669
26177SOL    HW278490   9.005   3.191   5.656
26178SOL     OW78491   7.907   3.604   5.901
26178SOL    HW178492   7.956   3.655   5.966
26178SOL    HW278493   7.974   3.563   5.846
26179SOL     OW78494   8.845   1.967   6.045
26179SOL    HW178495   8.845   1.943   5.952
26179SOL    HW278496   8.935   1.952   6.073
26180SOL     OW78497   7.699   3.650   6.801
26180SOL    HW178498   7.748   3.575   6.834
26180SOL    HW278499   7.684   3.630   6.708
26181SOL     OW78500   8.397   3.564   6.476
26181SOL    HW178501   8.482   3.523   6.489
26181SOL    HW278502   8.357   3.514   6.405
26182SOL     OW78503   7.843   2.547   6.059
26182SOL    HW178504   7.856   2.453   6.071
26182SOL    HW278505   7.750   2.562   6.076
26183SOL     OW78506   8.953   2.084   7.303
26183SOL    HW178507   8.966   2.102   7.396
26183SOL    HW278508   8.887   2.014   7.302
26184SOL     OW78509   8.111   1.971   5.689
26184SOL    HW178510   8.159   1.892   5.714
26184SOL    HW278511   8.049   1.941   5.621
26185SOL     OW78512   8.207   2.135   7.338
26185SOL    HW178513   8.291   2.090   7.337
26185SOL    HW278514   8.160   2.096   7.412
26186SOL     OW78515   8.317   3.388   6.785
26186SOL    HW178516   8.299   3.347   6.700
26186SOL    HW278517   8.384   3.334   6.825
26187SOL     OW78518   8.777   2.453   7.018
26187SOL    HW178519   8.810   2.423   7.103
26187SOL    HW278520   8.816   2.540   7.007
26188SOL     OW78521   8.264   3.238   6.542
26188SOL    HW178522   8.351   3.234   6.503
26188SOL    HW278523   8.206   3.254   6.467
26189SOL     OW78524   8.378   2.377   6.474
26189SOL    HW178525   8.353   2.365   6.382
26189SOL    HW278526   8.406   2.290   6.502
26190SOL     OW78527   8.012   1.925   6.076
26190SOL    HW178528   7.934   1.925   6.132
26190SOL    HW278529   8.000   2.000   6.018
26191SOL     OW78530   8.875   3.071   5.616
26191SOL    HW178531   8.907   2.999   5.670
26191SOL    HW278532   8.790   3.094   5.654
26192SOL     OW78533   7.730   1.910   5.774
26192SOL    HW178534   7.782   1.977   5.731
26192SOL    HW278535   7.794   1.852   5.816
26193SOL     OW78536   8.400   2.112   6.037
26193SOL    HW178537   8.374   2.148   5.952
26193SOL    HW278538   8.494   2.129   6.043
26194SOL     OW78539   8.523   2.556   7.031
26194SOL    HW178540   8.460   2.484   7.035
26194SOL    HW278541   8.608   2.513   7.027
26195SOL     OW78542   8.653   3.449   6.389
26195SOL    HW178543   8.668   3.510   6.316
26195SOL    HW278544   8.728   3.464   6.447
26196SOL     OW78545   7.930   3.023   6.294
26196SOL    HW178546   7.868   2.999   6.362
26196SOL    HW278547   7.880   3.017   6.212
26197SOL     OW78548   8.699   3.654   6.203
26197SOL    HW178549   8.748   3.716   6.150
26197SOL    HW278550   8.628   3.705   6.242
26198SOL     OW78551   8.479   2.377   5.616
26198SOL    HW178552   8.437   2.461   5.597
26198SOL    HW278553   8.543   2.398   5.684
26199SOL     OW78554   7.548   2.413   6.978
26199SOL    HW178555   7.640   2.415   6.951
26199SOL    HW278556   7.540   2.482   7.043
26200SOL     OW78557   8.007   2.083   6.771
26200SOL    HW178558   8.045   2.020   6.832
26200SOL    HW278559   7.914   2.084   6.791
26201SOL     OW78560   8.318   2.316   6.216
26201SOL    HW178561   8.278   2.372   6.149
26201SOL    HW278562   8.343   2.237   6.169
26202SOL     OW78563   8.470   1.921   6.326
26202SOL    HW178564   8.409   1.915   6.252
26202SOL    HW278565   8.445   1.848   6.383
26203SOL     OW78566   8.881   3.017   6.440
26203SOL    HW178567   8.811   2.952   6.448
26203SOL    HW278568   8.897   3.023   6.346
26204SOL     OW78569   8.909   2.478   6.535
26204SOL    HW178570   8.845   2.408   6.545
26204SOL    HW278571   8.964   2.472   6.612
26205SOL     OW78572   9.278   2.656   5.972
26205SOL    HW178573   9.335   2.612   6.035
26205SOL    HW278574   9.264   2.591   5.903
26206SOL     OW78575   7.946   3.286   5.736
26206SOL    HW178576   7.871   3.254   5.786
26206SOL    HW278577   7.942   3.237   5.654
26207SOL     OW78578   9.158   3.131   6.224
26207SOL    HW178579   9.252   3.125   6.241
26207SOL    HW278580   9.135   3.221   6.247
26208SOL     OW78581   8.840   2.437   5.652
26208SOL    HW178582   8.784   2.410   5.724
26208SOL    HW278583   8.929   2.413   5.680
26209SOL     OW78584   7.975   2.119   5.888
26209SOL    HW178585   8.029   2.077   5.821
26209SOL    HW278586   7.943   2.199   5.847
26210SOL     OW78587   9.180   3.107   7.119
26210SOL    HW178588   9.267   3.070   7.106
26210SOL    HW278589   9.196   3.194   7.155
26211SOL     OW78590   8.489   3.217   6.921
26211SOL    HW178591   8.412   3.183   6.966
26211SOL    HW278592   8.563   3.172   6.961
26212SOL     OW78593   9.056   3.498   7.258
26212SOL    HW178594   9.045   3.533   7.169
26212SOL    HW278595   9.133   3.441   7.252
26213SOL     OW78596   8.599   3.100   6.691
26213SOL    HW178597   8.537   3.134   6.756
26213SOL    HW278598   8.566   3.132   6.607
26214SOL     OW78599   9.053   2.953   6.665
26214SOL    HW178600   9.046   3.020   6.733
26214SOL    HW278601   8.984   2.975   6.602
26215SOL     OW78602   8.367   1.943   6.969
26215SOL    HW178603   8.388   1.928   6.877
26215SOL    HW278604   8.446   1.984   7.005
26216SOL     OW78605   8.427   2.977   7.310
26216SOL    HW178606   8.337   2.994   7.338
26216SOL    HW278607   8.423   2.897   7.259
26217SOL     OW78608   8.162   2.924   5.962
26217SOL    HW178609   8.147   2.898   6.053
26217SOL    HW278610   8.236   2.871   5.934
26218SOL     OW78611   7.874   2.690   6.846
26218SOL    HW178612   7.942   2.700   6.912
26218SOL    HW278613   7.844   2.600   6.855
26219SOL     OW78614   8.712   2.229   6.878
26219SOL    HW178615   8.740   2.310   6.922
26219SOL    HW278616   8.623   2.248   6.848
26220SOL     OW78617   7.526   3.431   6.948
26220SOL    HW178618   7.495   3.502   6.892
26220SOL    HW278619   7.621   3.432   6.938
26221SOL     OW78620   7.765   2.997   6.072
26221SOL    HW178621   7.766   3.069   6.009
26221SOL    HW278622   7.762   2.917   6.018
26222SOL     OW78623   7.982   2.379   6.445
26222SOL    HW178624   7.994   2.437   6.370
26222SOL    HW278625   8.050   2.404   6.507
26223SOL     OW78626   8.694   3.216   5.984
26223SOL    HW178627   8.751   3.286   6.018
26223SOL    HW278628   8.607   3.240   6.014
26224SOL     OW78629   8.757   3.330   6.728
26224SOL    HW178630   8.805   3.337   6.811
26224SOL    HW278631   8.707   3.250   6.736
26225SOL     OW78632   9.021   2.480   6.071
26225SOL    HW178633   8.971   2.519   6.142
26225SOL    HW278634   9.065   2.553   6.029
26226SOL     OW78635   7.792   3.395   6.888
26226SOL    HW178636   7.785   3.342   6.808
26226SOL    HW278637   7.886   3.411   6.897
26227SOL     OW78638   7.880   2.608   7.204
26227SOL    HW178639   7.939   2.652   7.142
26227SOL    HW278640   7.924   2.525   7.224
26228SOL     OW78641   9.071   2.648   7.286
26228SOL    HW178642   8.984   2.686   7.276
26228SOL    HW278643   9.121   2.685   7.213
26229SOL     OW78644   8.443   2.002   7.344
26229SOL    HW178645   8.502   2.076   7.325
26229SOL    HW278646   8.495   1.925   7.322
26230SOL     OW78647   7.943   1.897   7.349
26230SOL    HW178648   7.888   1.847   7.288
26230SOL    HW278649   7.890   1.974   7.370
26231SOL     OW78650   8.040   2.737   6.625
26231SOL    HW178651   8.078   2.825   6.628
26231SOL    HW278652   7.982   2.733   6.701
26232SOL     OW78653   8.756   2.715   6.589
26232SOL    HW178654   8.668   2.688   6.564
26232SOL    HW278655   8.811   2.639   6.570
26233SOL     OW78656   8.647   2.384   5.843
26233SOL    HW178657   8.657   2.308   5.900
26233SOL    HW278658   8.605   2.450   5.899
26234SOL     OW78659   7.740   2.055   6.825
26234SOL    HW178660   7.705   2.084   6.909
26234SOL    HW278661   7.723   1.961   6.822
26235SOL     OW78662   7.496   3.173   6.852
26235SOL    HW178663   7.527   3.118   6.924
26235SOL    HW278664   7.500   3.262   6.888
26236SOL     OW78665   8.160   2.484   6.625
26236SOL    HW178666   8.237   2.477   6.570
26236SOL    HW278667   8.131   2.575   6.616
26237SOL     OW78668   9.193   2.828   7.459
26237SOL    HW178669   9.153   2.757   7.409
26237SOL    HW278670   9.129   2.849   7.527
26238SOL     OW78671   7.773   1.921   6.214
26238SOL    HW178672   7.739   2.009   6.232
26238SOL    HW278673   7.779   1.880   6.300
26239SOL     OW78674   9.079   2.252   5.929
26239SOL    HW178675   9.112   2.187   5.991
26239SOL    HW278676   9.049   2.325   5.985
26240SOL     OW78677   8.482   2.620   6.542
26240SOL    HW178678   8.460   2.635   6.634
26240SOL    HW278679   8.452   2.531   6.524
26241SOL     OW78680   8.428   3.427   7.321
26241SOL    HW178681   8.407   3.471   7.238
26241SOL    HW278682   8.467   3.344   7.294
26242SOL     OW78683   9.286   3.356   7.187
26242SOL    HW178684   9.312   3.384   7.099
26242SOL    HW278685   9.365   3.367   7.240
26243SOL     OW78686   7.797   2.780   7.402
26243SOL    HW178687   7.874   2.798   7.456
26243SOL    HW278688   7.828   2.717   7.337
26244SOL     OW78689   8.969   2.130   5.705
26244SOL    HW178690   8.917   2.060   5.742
26244SOL    HW278691   9.009   2.174   5.780
26245SOL     OW78692   8.729   2.683   5.606
26245SOL    HW178693   8.769   2.596   5.613
26245SOL    HW278694   8.764   2.719   5.524
26246SOL     OW78695   8.518   3.215   6.453
26246SOL    HW178696   8.529   3.142   6.391
26246SOL    HW278697   8.569   3.286   6.415
26247SOL     OW78698   7.766   2.678   6.530
26247SOL    HW178699   7.861   2.692   6.528
26247SOL    HW278700   7.756   2.588   6.561
26248SOL     OW78701   7.761   2.400   6.597
26248SOL    HW178702   7.722   2.313   6.587
26248SOL    HW278703   7.838   2.398   6.541
26249SOL     OW78704   8.586   2.229   7.272
26249SOL    HW178705   8.541   2.281   7.338
26249SOL    HW278706   8.671   2.272   7.263
26250SOL     OW78707   8.604   2.051   7.060
26250SOL    HW178708   8.592   2.113   7.132
26250SOL    HW278709   8.650   2.101   6.993
26251SOL     OW78710   7.472   3.165   5.766
26251SOL    HW178711   7.382   3.187   5.740
26251SOL    HW278712   7.465   3.078   5.806
26252SOL     OW78713   7.541   3.632   6.538
26252SOL    HW178714   7.507   3.559   6.487
26252SOL    HW278715   7.628   3.649   6.501
26253SOL     OW78716   7.933   3.432   6.487
26253SOL    HW178717   8.004   3.493   6.510
26253SOL    HW278718   7.973   3.370   6.426
26254SOL     OW78719   8.397   2.642   6.800
26254SOL    HW178720   8.459   2.631   6.872
26254SOL    HW278721   8.318   2.597   6.830
26255SOL     OW78722   7.487   2.433   6.707
26255SOL    HW178723   7.568   2.430   6.657
26255SOL    HW278724   7.515   2.426   6.799
26256SOL     OW78725   7.634   2.401   7.330
26256SOL    HW178726   7.707   2.369   7.276
26256SOL    HW278727   7.599   2.474   7.280
26257SOL     OW78728   8.837   2.782   7.237
26257SOL    HW178729   8.855   2.876   7.232
26257SOL    HW278730   8.830   2.754   7.145
26258SOL     OW78731   8.266   2.431   5.958
26258SOL    HW178732   8.275   2.357   5.898
26258SOL    HW278733   8.189   2.478   5.927
26259SOL     OW78734   9.081   2.463   6.748
26259SOL    HW178735   9.071   2.404   6.823
26259SOL    HW278736   9.171   2.451   6.720
26260SOL     OW78737   7.674   3.402   7.308
26260SOL    HW178738   7.651   3.452   7.386
26260SOL    HW278739   7.686   3.312   7.340
26261SOL     OW78740   8.182   2.295   6.820
26261SOL    HW178741   8.118   2.225   6.805
26261SOL    HW278742   8.164   2.359   6.751
26262SOL     OW78743   8.352   3.542   7.075
26262SOL    HW178744   8.331   3.494   6.995
26262SOL    HW278745   8.355   3.633   7.048
26263SOL     OW78746   7.891   2.343   5.750
26263SOL    HW178747   7.955   2.409   5.775
26263SOL    HW278748   7.807   2.389   5.754
26264SOL     OW78749   7.578   3.012   7.067
26264SOL    HW178750   7.582   2.973   7.154
26264SOL    HW278751   7.599   2.941   7.007
26265SOL     OW78752   8.750   2.895   6.795
26265SOL    HW178753   8.760   2.832   6.724
26265SOL    HW278754   8.697   2.966   6.757
26266SOL     OW78755   8.773   2.721   5.878
26266SOL    HW178756   8.703   2.686   5.932
26266SOL    HW278757   8.745   2.706   5.788
26267SOL     OW78758   9.238   3.584   6.757
26267SOL    HW178759   9.299   3.611   6.689
26267SOL    HW278760   9.205   3.499   6.728
26268SOL     OW78761   8.689   3.596   6.678
26268SOL    HW178762   8.773   3.625   6.644
26268SOL    HW278763   8.703   3.504   6.702
26269SOL     OW78764   7.555   3.108   6.596
26269SOL    HW178765   7.526   3.130   6.685
26269SOL    HW278766   7.483   3.056   6.560
26270SOL     OW78767   8.135   3.546   7.335
26270SOL    HW178768   8.071   3.616   7.322
26270SOL    HW278769   8.207   3.568   7.277
26271SOL     OW78770   9.196   2.047   6.079
26271SOL    HW178771   9.256   2.026   6.007
26271SOL    HW278772   9.168   1.962   6.113
26272SOL     OW78773   8.846   3.432   6.089
26272SOL    HW178774   8.901   3.466   6.019
26272SOL    HW278775   8.791   3.505   6.115
26273SOL     OW78776   7.582   3.667   7.430
26273SOL    HW178777   7.541   3.592   7.472
26273SOL    HW278778   7.632   3.709   7.500
26274SOL     OW78779   8.726   2.798   6.250
26274SOL    HW178780   8.800   2.738   6.263
26274SOL    HW278781   8.762   2.870   6.198
26275SOL     OW78782   8.231   3.142   7.001
26275SOL    HW178783   8.205   3.189   7.080
26275SOL    HW278784   8.157   3.152   6.941
26276SOL     OW78785   8.116   3.497   5.745
26276SOL    HW178786   8.130   3.512   5.652
26276SOL    HW278787   8.064   3.417   5.749
26277SOL     OW78788   9.065   3.591   6.987
26277SOL    HW178789   9.122   3.591   6.911
26277SOL    HW278790   9.049   3.684   7.005
26278SOL     OW78791   9.290   2.021   6.552
26278SOL    HW178792   9.320   1.933   6.531
26278SOL    HW278793   9.203   2.027   6.512
26279SOL     OW78794   7.691   2.168   6.294
26279SOL    HW178795   7.605   2.204   6.273
26279SOL    HW278796   7.695   2.170   6.390
26280SOL     OW78797   8.656   3.451   5.623
26280SOL    HW178798   8.646   3.360   5.651
26280SOL    HW278799   8.587   3.464   5.559
26281SOL     OW78800   8.271   2.873   6.971
26281SOL    HW178801   8.308   2.864   6.883
26281SOL    HW278802   8.260   2.968   6.983
26282SOL     OW78803   8.368   2.772   5.881
26282SOL    HW178804   8.424   2.805   5.811
26282SOL    HW278805   8.420   2.705   5.924
26283SOL     OW78806   8.929   3.510   5.643
26283SOL    HW178807   8.837   3.491   5.625
26283SOL    HW278808   8.970   3.514   5.556
26284SOL     OW78809   7.811   3.175   7.088
26284SOL    HW178810   7.803   3.248   7.027
26284SOL    HW278811   7.733   3.122   7.071
26285SOL     OW78812   9.045   3.153   6.863
26285SOL    HW178813   9.100   3.128   6.938
26285SOL    HW278814   8.987   3.220   6.897
26286SOL     OW78815   8.525   2.982   6.316
26286SOL    HW178816   8.449   2.932   6.347
26286SOL    HW278817   8.587   2.915   6.285
26287SOL     OW78818   8.481   2.111   6.546
26287SOL    HW178819   8.480   2.069   6.461
26287SOL    HW278820   8.474   2.039   6.609
26288SOL     OW78821   8.053   3.349   6.062
26288SOL    HW178822   8.107   3.299   6.000
26288SOL    HW278823   7.971   3.365   6.014
26289SOL     OW78824   9.191   2.242   6.975
26289SOL    HW178825   9.259   2.309   6.969
26289SOL    HW278826   9.218   2.174   6.913
26290SOL     OW78827   7.727   3.203   5.885
26290SOL    HW178828   7.641   3.196   5.845
26290SOL    HW278829   7.713   3.251   5.966
26291SOL     OW78830   7.569   2.909   7.322
26291SOL    HW178831   7.492   2.880   7.371
26291SOL    HW278832   7.641   2.857   7.359
26292SOL     OW78833   8.127   2.050   7.081
26292SOL    HW178834   8.211   2.025   7.042
26292SOL    HW278835   8.150   2.084   7.168
26293SOL     OW78836   7.534   2.180   5.599
26293SOL    HW178837   7.457   2.160   5.546
26293SOL    HW278838   7.562   2.266   5.568
26294SOL     OW78839   8.862   2.715   6.974
26294SOL    HW178840   8.810   2.774   6.919
26294SOL    HW278841   8.950   2.719   6.936
26295SOL     OW78842   7.491   2.011   5.858
26295SOL    HW178843   7.478   2.081   5.794
26295SOL    HW278844   7.580   1.979   5.841
26296SOL     OW78845   8.628   3.185   5.709
26296SOL    HW178846   8.536   3.158   5.707
26296SOL    HW278847   8.651   3.187   5.801
26297SOL     OW78848   8.074   2.693   7.027
26297SOL    HW178849   8.133   2.768   7.016
26297SOL    HW278850   8.132   2.617   7.026
26298SOL     OW78851   8.935   3.664   6.579
26298SOL    HW178852   8.960   3.739   6.524
26298SOL    HW278853   9.017   3.620   6.599
26299SOL     OW78854   8.172   2.410   7.272
26299SOL    HW178855   8.219   2.464   7.336
26299SOL    HW278856   8.183   2.320   7.304
26300SOL     OW78857   8.915   3.045   7.204
26300SOL    HW178858   8.907   3.067   7.297
26300SOL    HW278859   9.005   3.070   7.181
26301SOL     OW78860   7.802   3.610   7.165
26301SOL    HW178861   7.720   3.656   7.147
26301SOL    HW278862   7.774   3.526   7.203
26302SOL     OW78863   9.101   2.736   6.837
26302SOL    HW178864   9.099   2.653   6.789
26302SOL    HW278865   9.088   2.803   6.769
26303SOL     OW78866   8.669   2.184   6.042
26303SOL    HW178867   8.728   2.110   6.041
26303SOL    HW278868   8.697   2.236   6.117
26304SOL     OW78869   8.024   2.588   6.267
26304SOL    HW178870   8.068   2.672   6.252
26304SOL    HW278871   7.963   2.579   6.194
26305SOL     OW78872   9.190   2.218   7.251
26305SOL    HW178873   9.188   2.234   7.156
26305SOL    HW278874   9.112   2.164   7.268
26306SOL     OW78875   9.202   2.782   7.089
26306SOL    HW178876   9.190   2.876   7.101
26306SOL    HW278877   9.176   2.766   6.998
26307SOL     OW78878   8.321   3.219   5.650
26307SOL    HW178879   8.282   3.238   5.735
26307SOL    HW278880   8.329   3.305   5.608
26308SOL     OW78881   8.117   3.628   6.512
26308SOL    HW178882   8.097   3.722   6.504
26308SOL    HW278883   8.212   3.624   6.510
26309SOL     OW78884   8.320   2.839   6.442
26309SOL    HW178885   8.370   2.766   6.477
26309SOL    HW278886   8.275   2.876   6.518
26310SOL     OW78887   8.520   2.845   5.672
26310SOL    HW178888   8.499   2.900   5.597
26310SOL    HW278889   8.594   2.791   5.644
26311SOL     OW78890   9.282   3.420   6.425
26311SOL    HW178891   9.205   3.412   6.368
26311SOL    HW278892   9.261   3.367   6.502
26312SOL     OW78893   7.659   3.148   7.422
26312SOL    HW178894   7.628   3.068   7.379
26312SOL    HW278895   7.600   3.160   7.496
26313SOL     OW78896   7.564   3.085   6.254
26313SOL    HW178897   7.595   3.044   6.334
26313SOL    HW278898   7.623   3.054   6.185
26314SOL     OW78899   8.138   3.281   7.220
26314SOL    HW178900   8.061   3.242   7.261
26314SOL    HW278901   8.143   3.369   7.256
26315SOL     OW78902   9.260   2.033   6.822
26315SOL    HW178903   9.268   1.938   6.836
26315SOL    HW278904   9.271   2.044   6.727
26316SOL     OW78905   7.866   2.284   6.104
26316SOL    HW178906   7.900   2.214   6.050
26316SOL    HW278907   7.814   2.240   6.171
26317SOL     OW78908   9.143   3.342   6.667
26317SOL    HW178909   9.065   3.323   6.615
26317SOL    HW278910   9.144   3.275   6.735
26318SOL     OW78911   7.800   2.428   6.877
26318SOL    HW178912   7.850   2.363   6.928
26318SOL    HW278913   7.807   2.399   6.787
26319SOL     OW78914   8.286   3.448   6.255
26319SOL    HW178915   8.257   3.519   6.198
26319SOL    HW278916   8.210   3.390   6.262
26320SOL     OW78917   8.869   2.095   6.701
26320SOL    HW178918   8.879   2.005   6.734
26320SOL    HW278919   8.823   2.141   6.771
26321SOL     OW78920   8.458   1.879   6.705
26321SOL    HW178921   8.405   1.816   6.657
26321SOL    HW278922   8.545   1.839   6.709
26322SOL     OW78923   8.228   3.194   5.914
26322SOL    HW178924   8.204   3.102   5.926
26322SOL    HW278925   8.308   3.205   5.966
26323SOL     OW78926   8.063   3.431   6.875
26323SOL    HW178927   8.059   3.515   6.920
26323SOL    HW278928   8.153   3.427   6.841
26324SOL     OW78929   8.828   1.901   5.778
26324SOL    HW178930   8.869   1.828   5.730
26324SOL    HW278931   8.737   1.874   5.789
26325SOL     OW78932   8.746   2.333   6.261
26325SOL    HW178933   8.696   2.414   6.258
26325SOL    HW278934   8.738   2.304   6.352
26326SOL     OW78935   9.028   2.049   6.478
26326SOL    HW178936   8.976   2.079   6.553
26326SOL    HW278937   9.028   2.123   6.418
26327SOL     OW78938   7.485   2.913   5.895
26327SOL    HW178939   7.578   2.902   5.877
26327SOL    HW278940   7.453   2.825   5.915
26328SOL     OW78941   8.343   3.537   5.915
26328SOL    HW178942   8.265   3.522   5.863
26328SOL    HW278943   8.317   3.606   5.977
26329SOL     OW78944   7.655   2.483   7.596
26329SOL    HW178945   7.568   2.471   7.632
26329SOL    HW278946   7.645   2.470   7.502
26330SOL     OW78947   7.667   2.151   8.438
26330SOL    HW178948   7.697   2.115   8.521
26330SOL    HW278949   7.580   2.113   8.426
26331SOL     OW78950   7.435   2.258   8.094
26331SOL    HW178951   7.356   2.283   8.141
26331SOL    HW278952   7.408   2.184   8.039
26332SOL     OW78953   8.023   3.170   8.657
26332SOL    HW178954   7.941   3.173   8.608
26332SOL    HW278955   8.040   3.261   8.680
26333SOL     OW78956   9.038   3.386   8.153
26333SOL    HW178957   8.991   3.355   8.230
26333SOL    HW278958   8.972   3.389   8.084
26334SOL     OW78959   8.586   2.566   8.134
26334SOL    HW178960   8.632   2.649   8.123
26334SOL    HW278961   8.537   2.576   8.216
26335SOL     OW78962   9.250   2.441   7.668
26335SOL    HW178963   9.210   2.441   7.581
26335SOL    HW278964   9.205   2.369   7.714
26336SOL     OW78965   8.174   2.992   8.505
26336SOL    HW178966   8.116   3.032   8.570
26336SOL    HW278967   8.216   3.065   8.461
26337SOL     OW78968   8.336   2.606   9.275
26337SOL    HW178969   8.337   2.674   9.342
26337SOL    HW278970   8.352   2.653   9.193
26338SOL     OW78971   8.133   2.847   8.092
26338SOL    HW178972   8.201   2.847   8.160
26338SOL    HW278973   8.067   2.909   8.124
26339SOL     OW78974   8.160   3.013   9.273
26339SOL    HW178975   8.212   3.086   9.307
26339SOL    HW278976   8.083   3.055   9.234
26340SOL     OW78977   7.790   3.259   8.517
26340SOL    HW178978   7.715   3.217   8.477
26340SOL    HW278979   7.827   3.314   8.448
26341SOL     OW78980   8.901   3.370   8.819
26341SOL    HW178981   8.956   3.447   8.830
26341SOL    HW278982   8.830   3.381   8.882
26342SOL     OW78983   7.905   2.236   8.904
26342SOL    HW178984   7.980   2.179   8.920
26342SOL    HW278985   7.829   2.184   8.931
26343SOL     OW78986   9.027   2.293   8.203
26343SOL    HW178987   8.957   2.303   8.138
26343SOL    HW278988   9.011   2.364   8.266
26344SOL     OW78989   7.666   3.590   7.912
26344SOL    HW178990   7.693   3.661   7.971
26344SOL    HW278991   7.740   3.579   7.852
26345SOL     OW78992   8.582   3.205   9.142
26345SOL    HW178993   8.626   3.195   9.226
26345SOL    HW278994   8.530   3.125   9.132
26346SOL     OW78995   7.679   3.320   7.981
26346SOL    HW178996   7.659   3.413   7.983
26346SOL    HW278997   7.629   3.283   8.054
26347SOL     OW78998   7.731   2.952   8.326
26347SOL    HW178999   7.733   2.862   8.360
26347SOL    HW279000   7.676   3.000   8.387
26348SOL     OW79001   8.021   3.668   8.866
26348SOL    HW179002   7.946   3.647   8.921
26348SOL    HW279003   8.055   3.750   8.901
26349SOL     OW79004   8.013   2.850   7.600
26349SOL    HW179005   8.064   2.892   7.531
26349SOL    HW279006   8.054   2.879   7.682
26350SOL     OW79007   9.038   1.994   8.905
26350SOL    HW179008   9.076   2.072   8.864
26350SOL    HW279009   9.005   2.026   8.989
26351SOL     OW79010   7.566   2.521   8.015
26351SOL    HW179011   7.535   2.433   8.039
26351SOL    HW279012   7.561   2.571   8.096
26352SOL     OW79013   9.295   3.606   7.769
26352SOL    HW179014   9.368   3.590   7.828
26352SOL    HW279015   9.305   3.698   7.743
26353SOL     OW79016   7.507   3.442   7.559
26353SOL    HW179017   7.486   3.350   7.578
26353SOL    HW279018   7.475   3.490   7.636
26354SOL     OW79019   9.140   2.788   8.104
26354SOL    HW179020   9.226   2.748   8.091
26354SOL    HW279021   9.125   2.838   8.023
26355SOL     OW79022   9.103   2.967   7.883
26355SOL    HW179023   9.188   2.958   7.838
26355SOL    HW279024   9.119   3.031   7.951
26356SOL     OW79025   7.570   2.610   9.027
26356SOL    HW179026   7.656   2.653   9.031
26356SOL    HW279027   7.508   2.682   9.015
26357SOL     OW79028   8.070   3.260   8.179
26357SOL    HW179029   8.028   3.174   8.183
26357SOL    HW279030   8.055   3.289   8.089
26358SOL     OW79031   8.718   3.088   8.865
26358SOL    HW179032   8.746   3.019   8.805
26358SOL    HW279033   8.780   3.083   8.938
26359SOL     OW79034   8.279   1.873   7.967
26359SOL    HW179035   8.320   1.955   7.939
26359SOL    HW279036   8.185   1.891   7.967
26360SOL     OW79037   7.635   2.818   8.748
26360SOL    HW179038   7.722   2.783   8.733
26360SOL    HW279039   7.581   2.783   8.677
26361SOL     OW79040   8.980   2.878   7.649
26361SOL    HW179041   8.912   2.818   7.679
26361SOL    HW279042   9.022   2.908   7.730
26362SOL     OW79043   8.624   3.685   9.084
26362SOL    HW179044   8.626   3.747   9.011
26362SOL    HW279045   8.642   3.600   9.044
26363SOL     OW79046   7.808   2.116   9.322
26363SOL    HW179047   7.844   2.195   9.363
26363SOL    HW279048   7.714   2.132   9.319
26364SOL     OW79049   8.919   3.281   8.378
26364SOL    HW179050   8.856   3.299   8.447
26364SOL    HW279051   8.902   3.190   8.354
26365SOL     OW79052   9.084   3.661   8.009
26365SOL    HW179053   9.069   3.613   7.927
26365SOL    HW279054   9.086   3.593   8.076
26366SOL     OW79055   8.035   2.561   7.720
26366SOL    HW179056   8.038   2.649   7.681
26366SOL    HW279057   7.970   2.568   7.790
26367SOL     OW79058   8.729   2.255   8.389
26367SOL    HW179059   8.641   2.219   8.394
26367SOL    HW279060   8.782   2.196   8.444
26368SOL     OW79061   9.027   3.536   7.767
26368SOL    HW179062   9.121   3.551   7.756
26368SOL    HW279063   8.994   3.524   7.678
26369SOL     OW79064   8.237   2.475   8.879
26369SOL    HW179065   8.214   2.446   8.967
26369SOL    HW279066   8.213   2.402   8.823
26370SOL     OW79067   8.839   2.337   9.118
26370SOL    HW179068   8.844   2.381   9.204
26370SOL    HW279069   8.888   2.256   9.131
26371SOL     OW79070   8.392   2.742   9.040
26371SOL    HW179071   8.449   2.678   8.995
26371SOL    HW279072   8.344   2.785   8.969
26372SOL     OW79073   8.455   2.259   8.657
26372SOL    HW179074   8.363   2.273   8.680
26372SOL    HW279075   8.453   2.216   8.572
26373SOL     OW79076   8.506   2.559   7.866
26373SOL    HW179077   8.527   2.556   7.960
26373SOL    HW279078   8.421   2.515   7.859
26374SOL     OW79079   7.541   2.687   8.231
26374SOL    HW179080   7.623   2.681   8.280
26374SOL    HW279081   7.493   2.758   8.273
26375SOL     OW79082   7.559   3.741   9.041
26375SOL    HW179083   7.568   3.719   9.133
26375SOL    HW279084   7.474   3.704   9.016
26376SOL     OW79085   8.337   2.212   7.648
26376SOL    HW179086   8.388   2.267   7.588
26376SOL    HW279087   8.314   2.134   7.597
26377SOL     OW79088   9.130   2.424   9.285
26377SOL    HW179089   9.109   2.502   9.235
26377SOL    HW279090   9.157   2.360   9.219
26378SOL     OW79091   8.840   3.012   7.992
26378SOL    HW179092   8.920   3.000   7.941
26378SOL    HW279093   8.787   3.073   7.941
26379SOL     OW79094   7.999   2.022   8.363
26379SOL    HW179095   8.005   2.051   8.455
26379SOL    HW279096   7.995   2.104   8.313
26380SOL     OW79097   8.445   3.318   7.913
26380SOL    HW179098   8.421   3.392   7.858
26380SOL    HW279099   8.415   3.342   8.001
26381SOL     OW79100   7.801   3.678   8.329
26381SOL    HW179101   7.847   3.594   8.333
26381SOL    HW279102   7.869   3.743   8.350
26382SOL     OW79103   9.249   2.913   8.340
26382SOL    HW179104   9.199   2.901   8.259
26382SOL    HW279105   9.182   2.920   8.408
26383SOL     OW79106   8.666   3.407   8.964
26383SOL    HW179107   8.654   3.335   9.027
26383SOL    HW279108   8.598   3.391   8.898
26384SOL     OW79109   7.748   2.821   7.713
26384SOL    HW179110   7.831   2.842   7.670
26384SOL    HW279111   7.725   2.734   7.680
26385SOL     OW79112   8.930   2.623   8.158
26385SOL    HW179113   8.933   2.581   8.244
26385SOL    HW279114   9.009   2.678   8.156
26386SOL     OW79115   7.919   3.148   9.196
26386SOL    HW179116   7.895   3.152   9.103
26386SOL    HW279117   7.836   3.138   9.242
26387SOL     OW79118   8.588   3.638   7.675
26387SOL    HW179119   8.505   3.608   7.713
26387SOL    HW279120   8.607   3.573   7.607
26388SOL     OW79121   7.656   2.117   8.947
26388SOL    HW179122   7.583   2.177   8.963
26388SOL    HW279123   7.626   2.033   8.982
26389SOL     OW79124   9.071   3.254   7.546
26389SOL    HW179125   9.031   3.339   7.532
26389SOL    HW279126   9.005   3.191   7.518
26390SOL     OW79127   7.907   3.603   7.763
26390SOL    HW179128   7.956   3.654   7.828
26390SOL    HW279129   7.974   3.563   7.708
26391SOL     OW79130   8.845   1.967   7.907
26391SOL    HW179131   8.845   1.943   7.814
26391SOL    HW279132   8.935   1.952   7.935
26392SOL     OW79133   7.699   3.650   8.663
26392SOL    HW179134   7.749   3.576   8.698
26392SOL    HW279135   7.689   3.630   8.570
26393SOL     OW79136   8.396   3.564   8.338
26393SOL    HW179137   8.481   3.523   8.352
26393SOL    HW279138   8.357   3.514   8.267
26394SOL     OW79139   7.843   2.547   7.921
26394SOL    HW179140   7.855   2.453   7.933
26394SOL    HW279141   7.750   2.562   7.938
26395SOL     OW79142   8.952   2.081   9.163
26395SOL    HW179143   8.965   2.102   9.255
26395SOL    HW279144   8.889   2.010   9.163
26396SOL     OW79145   8.111   1.971   7.551
26396SOL    HW179146   8.159   1.893   7.577
26396SOL    HW279147   8.050   1.941   7.484
26397SOL     OW79148   8.205   2.134   9.202
26397SOL    HW179149   8.290   2.090   9.200
26397SOL    HW279150   8.159   2.096   9.276
26398SOL     OW79151   8.317   3.389   8.647
26398SOL    HW179152   8.299   3.347   8.563
26398SOL    HW279153   8.384   3.334   8.687
26399SOL     OW79154   8.778   2.454   8.879
26399SOL    HW179155   8.811   2.423   8.963
26399SOL    HW279156   8.817   2.541   8.868
26400SOL     OW79157   8.264   3.238   8.404
26400SOL    HW179158   8.351   3.234   8.366
26400SOL    HW279159   8.206   3.254   8.329
26401SOL     OW79160   8.378   2.377   8.336
26401SOL    HW179161   8.353   2.365   8.244
26401SOL    HW279162   8.405   2.290   8.364
26402SOL     OW79163   8.012   1.925   7.938
26402SOL    HW179164   7.934   1.926   7.994
26402SOL    HW279165   8.000   2.000   7.880
26403SOL     OW79166   8.876   3.071   7.478
26403SOL    HW179167   8.907   2.999   7.532
26403SOL    HW279168   8.791   3.094   7.516
26404SOL     OW79169   7.730   1.910   7.636
26404SOL    HW179170   7.783   1.977   7.593
26404SOL    HW279171   7.794   1.852   7.678
26405SOL     OW79172   8.400   2.112   7.899
26405SOL    HW179173   8.374   2.148   7.813
26405SOL    HW279174   8.494   2.129   7.904
26406SOL     OW79175   8.523   2.555   8.892
26406SOL    HW179176   8.461   2.483   8.897
26406SOL    HW279177   8.609   2.513   8.888
26407SOL     OW79178   8.653   3.449   8.251
26407SOL    HW179179   8.668   3.509   8.178
26407SOL    HW279180   8.728   3.463   8.309
26408SOL     OW79181   7.929   3.023   8.156
26408SOL    HW179182   7.867   2.999   8.224
26408SOL    HW279183   7.880   3.017   8.074
26409SOL     OW79184   8.699   3.654   8.065
26409SOL    HW179185   8.748   3.716   8.012
26409SOL    HW279186   8.628   3.705   8.104
26410SOL     OW79187   8.480   2.377   7.478
26410SOL    HW179188   8.437   2.461   7.459
26410SOL    HW279189   8.543   2.397   7.546
26411SOL     OW79190   7.548   2.413   8.839
26411SOL    HW179191   7.640   2.415   8.813
26411SOL    HW279192   7.541   2.482   8.905
26412SOL     OW79193   8.007   2.083   8.633
26412SOL    HW179194   8.044   2.019   8.694
26412SOL    HW279195   7.914   2.084   8.653
26413SOL     OW79196   8.318   2.316   8.078
26413SOL    HW179197   8.278   2.372   8.011
26413SOL    HW279198   8.343   2.237   8.031
26414SOL     OW79199   8.470   1.921   8.188
26414SOL    HW179200   8.409   1.915   8.114
26414SOL    HW279201   8.445   1.848   8.245
26415SOL     OW79202   8.881   3.016   8.302
26415SOL    HW179203   8.811   2.951   8.311
26415SOL    HW279204   8.896   3.022   8.208
26416SOL     OW79205   8.908   2.478   8.397
26416SOL    HW179206   8.845   2.408   8.407
26416SOL    HW279207   8.964   2.472   8.474
26417SOL     OW79208   9.278   2.656   7.834
26417SOL    HW179209   9.335   2.611   7.897
26417SOL    HW279210   9.264   2.591   7.765
26418SOL     OW79211   7.946   3.286   7.598
26418SOL    HW179212   7.871   3.254   7.648
26418SOL    HW279213   7.942   3.237   7.516
26419SOL     OW79214   9.158   3.131   8.085
26419SOL    HW179215   9.252   3.125   8.103
26419SOL    HW279216   9.135   3.221   8.109
26420SOL     OW79217   8.840   2.437   7.514
26420SOL    HW179218   8.784   2.410   7.586
26420SOL    HW279219   8.929   2.413   7.542
26421SOL     OW79220   7.975   2.119   7.750
26421SOL    HW179221   8.029   2.077   7.683
26421SOL    HW279222   7.943   2.199   7.709
26422SOL     OW79223   9.180   3.106   8.980
26422SOL    HW179224   9.268   3.069   8.968
26422SOL    HW279225   9.195   3.193   9.017
26423SOL     OW79226   8.490   3.217   8.783
26423SOL    HW179227   8.413   3.183   8.828
26423SOL    HW279228   8.563   3.172   8.823
26424SOL     OW79229   9.055   3.498   9.112
26424SOL    HW179230   9.048   3.533   9.023
26424SOL    HW279231   9.132   3.441   9.109
26425SOL     OW79232   8.599   3.100   8.553
26425SOL    HW179233   8.537   3.134   8.618
26425SOL    HW279234   8.566   3.132   8.469
26426SOL     OW79235   9.054   2.954   8.527
26426SOL    HW179236   9.047   3.021   8.595
26426SOL    HW279237   8.984   2.976   8.465
26427SOL     OW79238   8.366   1.944   8.831
26427SOL    HW179239   8.388   1.929   8.738
26427SOL    HW279240   8.445   1.984   8.867
26428SOL     OW79241   8.429   2.976   9.171
26428SOL    HW179242   8.339   2.994   9.197
26428SOL    HW279243   8.425   2.896   9.120
26429SOL     OW79244   8.162   2.924   7.824
26429SOL    HW179245   8.147   2.898   7.915
26429SOL    HW279246   8.236   2.871   7.796
26430SOL     OW79247   7.874   2.690   8.708
26430SOL    HW179248   7.942   2.700   8.774
26430SOL    HW279249   7.844   2.600   8.717
26431SOL     OW79250   8.712   2.230   8.739
26431SOL    HW179251   8.740   2.310   8.783
26431SOL    HW279252   8.623   2.248   8.710
26432SOL     OW79253   7.526   3.431   8.808
26432SOL    HW179254   7.497   3.503   8.753
26432SOL    HW279255   7.621   3.431   8.799
26433SOL     OW79256   7.765   2.997   7.934
26433SOL    HW179257   7.766   3.068   7.870
26433SOL    HW279258   7.762   2.917   7.880
26434SOL     OW79259   7.982   2.379   8.307
26434SOL    HW179260   7.994   2.437   8.232
26434SOL    HW279261   8.050   2.404   8.369
26435SOL     OW79262   8.695   3.216   7.846
26435SOL    HW179263   8.751   3.286   7.880
26435SOL    HW279264   8.607   3.240   7.876
26436SOL     OW79265   8.757   3.330   8.590
26436SOL    HW179266   8.805   3.338   8.673
26436SOL    HW279267   8.706   3.250   8.598
26437SOL     OW79268   9.020   2.480   7.932
26437SOL    HW179269   8.971   2.519   8.004
26437SOL    HW279270   9.065   2.553   7.891
26438SOL     OW79271   7.793   3.394   8.750
26438SOL    HW179272   7.785   3.342   8.670
26438SOL    HW279273   7.886   3.411   8.760
26439SOL     OW79274   7.878   2.609   9.065
26439SOL    HW179275   7.938   2.653   9.004
26439SOL    HW279276   7.921   2.526   9.086
26440SOL     OW79277   9.070   2.650   9.150
26440SOL    HW179278   8.983   2.687   9.139
26440SOL    HW279279   9.121   2.687   9.078
26441SOL     OW79280   8.443   2.004   9.209
26441SOL    HW179281   8.501   2.077   9.188
26441SOL    HW279282   8.494   1.926   9.186
26442SOL     OW79283   7.944   1.897   9.211
26442SOL    HW179284   7.890   1.847   9.150
26442SOL    HW279285   7.892   1.975   9.231
26443SOL     OW79286   8.039   2.737   8.487
26443SOL    HW179287   8.078   2.825   8.490
26443SOL    HW279288   7.982   2.733   8.563
26444SOL     OW79289   8.756   2.715   8.451
26444SOL    HW179290   8.667   2.688   8.425
26444SOL    HW279291   8.811   2.639   8.432
26445SOL     OW79292   8.646   2.385   7.705
26445SOL    HW179293   8.657   2.308   7.762
26445SOL    HW279294   8.605   2.450   7.761
26446SOL     OW79295   7.740   2.056   8.687
26446SOL    HW179296   7.705   2.084   8.772
26446SOL    HW279297   7.723   1.961   8.684
26447SOL     OW79298   7.495   3.173   8.714
26447SOL    HW179299   7.525   3.118   8.785
26447SOL    HW279300   7.499   3.262   8.749
26448SOL     OW79301   8.159   2.484   8.487
26448SOL    HW179302   8.237   2.477   8.432
26448SOL    HW279303   8.131   2.575   8.477
26449SOL     OW79304   9.197   2.831   9.321
26449SOL    HW179305   9.152   2.760   9.275
26449SOL    HW279306   9.137   2.855   9.392
26450SOL     OW79307   7.773   1.922   8.076
26450SOL    HW179308   7.740   2.009   8.095
26450SOL    HW279309   7.779   1.880   8.162
26451SOL     OW79310   9.079   2.252   7.791
26451SOL    HW179311   9.112   2.187   7.853
26451SOL    HW279312   9.049   2.325   7.847
26452SOL     OW79313   8.482   2.620   8.404
26452SOL    HW179314   8.460   2.635   8.496
26452SOL    HW279315   8.452   2.531   8.386
26453SOL     OW79316   8.427   3.428   9.180
26453SOL    HW179317   8.407   3.472   9.097
26453SOL    HW279318   8.467   3.345   9.155
26454SOL     OW79319   9.287   3.355   9.048
26454SOL    HW179320   9.313   3.383   8.961
26454SOL    HW279321   9.365   3.366   9.102
26455SOL     OW79322   7.798   2.779   9.267
26455SOL    HW179323   7.877   2.799   9.317
26455SOL    HW279324   7.827   2.717   9.200
26456SOL     OW79325   8.969   2.131   7.567
26456SOL    HW179326   8.917   2.060   7.604
26456SOL    HW279327   9.009   2.174   7.642
26457SOL     OW79328   8.729   2.683   7.468
26457SOL    HW179329   8.769   2.596   7.475
26457SOL    HW279330   8.764   2.719   7.386
26458SOL     OW79331   8.518   3.215   8.315
26458SOL    HW179332   8.529   3.142   8.253
26458SOL    HW279333   8.569   3.286   8.277
26459SOL     OW79334   7.767   2.678   8.392
26459SOL    HW179335   7.861   2.693   8.391
26459SOL    HW279336   7.756   2.588   8.423
26460SOL     OW79337   7.761   2.400   8.459
26460SOL    HW179338   7.722   2.314   8.449
26460SOL    HW279339   7.838   2.398   8.403
26461SOL     OW79340   8.586   2.230   9.133
26461SOL    HW179341   8.541   2.282   9.199
26461SOL    HW279342   8.671   2.272   9.123
26462SOL     OW79343   8.603   2.052   8.922
26462SOL    HW179344   8.592   2.114   8.994
26462SOL    HW279345   8.650   2.101   8.854
26463SOL     OW79346   7.472   3.165   7.628
26463SOL    HW179347   7.382   3.187   7.602
26463SOL    HW279348   7.465   3.078   7.668
26464SOL     OW79349   7.540   3.633   8.397
26464SOL    HW179350   7.507   3.559   8.346
26464SOL    HW279351   7.627   3.650   8.362
26465SOL     OW79352   7.933   3.432   8.349
26465SOL    HW179353   8.004   3.492   8.372
26465SOL    HW279354   7.973   3.370   8.288
26466SOL     OW79355   8.396   2.643   8.662
26466SOL    HW179356   8.459   2.631   8.734
26466SOL    HW279357   8.317   2.597   8.692
26467SOL     OW79358   7.487   2.435   8.569
26467SOL    HW179359   7.569   2.431   8.518
26467SOL    HW279360   7.515   2.427   8.660
26468SOL     OW79361   7.635   2.396   9.187
26468SOL    HW179362   7.705   2.361   9.131
26468SOL    HW279363   7.601   2.471   9.139
26469SOL     OW79364   8.836   2.782   9.098
26469SOL    HW179365   8.853   2.876   9.093
26469SOL    HW279366   8.830   2.755   9.006
26470SOL     OW79367   8.266   2.431   7.820
26470SOL    HW179368   8.275   2.357   7.760
26470SOL    HW279369   8.189   2.478   7.788
26471SOL     OW79370   9.080   2.463   8.610
26471SOL    HW179371   9.071   2.404   8.685
26471SOL    HW279372   9.171   2.451   8.582
26472SOL     OW79373   7.672   3.405   9.168
26472SOL    HW179374   7.655   3.462   9.243
26472SOL    HW279375   7.682   3.318   9.205
26473SOL     OW79376   8.182   2.295   8.682
26473SOL    HW179377   8.118   2.225   8.667
26473SOL    HW279378   8.164   2.359   8.613
26474SOL     OW79379   8.353   3.542   8.935
26474SOL    HW179380   8.331   3.494   8.855
26474SOL    HW279381   8.355   3.634   8.908
26475SOL     OW79382   7.891   2.343   7.612
26475SOL    HW179383   7.955   2.409   7.637
26475SOL    HW279384   7.807   2.389   7.616
26476SOL     OW79385   7.577   3.012   8.928
26476SOL    HW179386   7.583   2.973   9.015
26476SOL    HW279387   7.599   2.940   8.868
26477SOL     OW79388   8.751   2.896   8.656
26477SOL    HW179389   8.760   2.832   8.585
26477SOL    HW279390   8.698   2.966   8.619
26478SOL     OW79391   8.773   2.721   7.740
26478SOL    HW179392   8.703   2.686   7.794
26478SOL    HW279393   8.745   2.706   7.650
26479SOL     OW79394   9.238   3.584   8.618
26479SOL    HW179395   9.300   3.610   8.549
26479SOL    HW279396   9.205   3.499   8.589
26480SOL     OW79397   8.688   3.596   8.540
26480SOL    HW179398   8.773   3.625   8.505
26480SOL    HW279399   8.703   3.504   8.563
26481SOL     OW79400   7.553   3.110   8.457
26481SOL    HW179401   7.524   3.131   8.546
26481SOL    HW279402   7.483   3.056   8.421
26482SOL     OW79403   8.136   3.545   9.201
26482SOL    HW179404   8.074   3.616   9.187
26482SOL    HW279405   8.211   3.567   9.145
26483SOL     OW79406   9.197   2.047   7.941
26483SOL    HW179407   9.256   2.026   7.869
26483SOL    HW279408   9.168   1.962   7.975
26484SOL     OW79409   8.846   3.432   7.952
26484SOL    HW179410   8.901   3.466   7.881
26484SOL    HW279411   8.791   3.505   7.978
26485SOL     OW79412   7.589   3.662   9.296
26485SOL    HW179413   7.543   3.591   9.341
26485SOL    HW279414   7.638   3.707   9.365
26486SOL     OW79415   8.726   2.798   8.112
26486SOL    HW179416   8.800   2.738   8.125
26486SOL    HW279417   8.762   2.870   8.060
26487SOL     OW79418   8.231   3.142   8.861
26487SOL    HW179419   8.204   3.190   8.940
26487SOL    HW279420   8.157   3.152   8.801
26488SOL     OW79421   8.116   3.498   7.607
26488SOL    HW179422   8.131   3.512   7.513
26488SOL    HW279423   8.064   3.417   7.611
26489SOL     OW79424   9.065   3.592   8.845
26489SOL    HW179425   9.122   3.592   8.769
26489SOL    HW279426   9.049   3.685   8.863
26490SOL     OW79427   9.290   2.021   8.413
26490SOL    HW179428   9.320   1.932   8.392
26490SOL    HW279429   9.203   2.026   8.374
26491SOL     OW79430   7.691   2.168   8.156
26491SOL    HW179431   7.605   2.205   8.135
26491SOL    HW279432   7.695   2.170   8.252
26492SOL     OW79433   8.656   3.451   7.486
26492SOL    HW179434   8.647   3.360   7.513
26492SOL    HW279435   8.587   3.464   7.421
26493SOL     OW79436   8.271   2.873   8.833
26493SOL    HW179437   8.309   2.864   8.745
26493SOL    HW279438   8.260   2.968   8.844
26494SOL     OW79439   8.368   2.772   7.743
26494SOL    HW179440   8.424   2.805   7.673
26494SOL    HW279441   8.420   2.705   7.786
26495SOL     OW79442   8.929   3.511   7.505
26495SOL    HW179443   8.837   3.491   7.487
26495SOL    HW279444   8.970   3.514   7.418
26496SOL     OW79445   7.810   3.174   8.949
26496SOL    HW179446   7.802   3.248   8.888
26496SOL    HW279447   7.732   3.122   8.933
26497SOL     OW79448   9.046   3.153   8.726
26497SOL    HW179449   9.099   3.128   8.801
26497SOL    HW279450   8.987   3.220   8.759
26498SOL     OW79451   8.525   2.981   8.178
26498SOL    HW179452   8.449   2.932   8.209
26498SOL    HW279453   8.587   2.915   8.147
26499SOL     OW79454   8.481   2.111   8.408
26499SOL    HW179455   8.480   2.068   8.322
26499SOL    HW279456   8.474   2.039   8.471
26500SOL     OW79457   8.053   3.349   7.924
26500SOL    HW179458   8.107   3.299   7.862
26500SOL    HW279459   7.972   3.365   7.875
26501SOL     OW79460   9.190   2.243   8.835
26501SOL    HW179461   9.258   2.310   8.830
26501SOL    HW279462   9.218   2.175   8.774
26502SOL     OW79463   7.727   3.203   7.747
26502SOL    HW179464   7.641   3.196   7.707
26502SOL    HW279465   7.713   3.251   7.828
26503SOL     OW79466   7.572   2.910   9.183
26503SOL    HW179467   7.494   2.883   9.232
26503SOL    HW279468   7.643   2.859   9.221
26504SOL     OW79469   8.127   2.051   8.944
26504SOL    HW179470   8.211   2.026   8.905
26504SOL    HW279471   8.149   2.084   9.030
26505SOL     OW79472   7.534   2.180   7.461
26505SOL    HW179473   7.457   2.159   7.408
26505SOL    HW279474   7.562   2.266   7.430
26506SOL     OW79475   8.863   2.716   8.835
26506SOL    HW179476   8.811   2.775   8.780
26506SOL    HW279477   8.951   2.720   8.797
26507SOL     OW79478   7.491   2.011   7.720
26507SOL    HW179479   7.479   2.081   7.656
26507SOL    HW279480   7.580   1.979   7.703
26508SOL     OW79481   8.628   3.184   7.571
26508SOL    HW179482   8.537   3.157   7.570
26508SOL    HW279483   8.652   3.187   7.664
26509SOL     OW79484   8.073   2.694   8.890
26509SOL    HW179485   8.132   2.768   8.878
26509SOL    HW279486   8.131   2.617   8.889
26510SOL     OW79487   8.934   3.664   8.441
26510SOL    HW179488   8.960   3.738   8.386
26510SOL    HW279489   9.016   3.619   8.461
26511SOL     OW79490   8.172   2.410   9.135
26511SOL    HW179491   8.218   2.464   9.199
26511SOL    HW279492   8.182   2.321   9.168
26512SOL     OW79493   8.915   3.045   9.068
26512SOL    HW179494   8.908   3.064   9.161
26512SOL    HW279495   9.004   3.069   9.045
26513SOL     OW79496   7.803   3.610   9.026
26513SOL    HW179497   7.721   3.657   9.010
26513SOL    HW279498   7.777   3.526   9.062
26514SOL     OW79499   9.102   2.737   8.699
26514SOL    HW179500   9.100   2.654   8.651
26514SOL    HW279501   9.090   2.803   8.631
26515SOL     OW79502   8.669   2.184   7.904
26515SOL    HW179503   8.728   2.110   7.903
26515SOL    HW279504   8.697   2.236   7.979
26516SOL     OW79505   8.024   2.588   8.129
26516SOL    HW179506   8.068   2.672   8.114
26516SOL    HW279507   7.963   2.580   8.055
26517SOL     OW79508   9.188   2.216   9.110
26517SOL    HW179509   9.186   2.232   9.016
26517SOL    HW279510   9.111   2.162   9.127
26518SOL     OW79511   9.201   2.783   8.952
26518SOL    HW179512   9.188   2.877   8.964
26518SOL    HW279513   9.176   2.767   8.861
26519SOL     OW79514   8.320   3.219   7.511
26519SOL    HW179515   8.281   3.238   7.596
26519SOL    HW279516   8.329   3.305   7.469
26520SOL     OW79517   8.117   3.628   8.374
26520SOL    HW179518   8.097   3.722   8.366
26520SOL    HW279519   8.212   3.623   8.372
26521SOL     OW79520   8.320   2.839   8.304
26521SOL    HW179521   8.370   2.766   8.339
26521SOL    HW279522   8.275   2.876   8.380
26522SOL     OW79523   8.520   2.845   7.535
26522SOL    HW179524   8.500   2.900   7.459
26522SOL    HW279525   8.594   2.792   7.506
26523SOL     OW79526   9.282   3.420   8.287
26523SOL    HW179527   9.205   3.412   8.231
26523SOL    HW279528   9.262   3.366   8.363
26524SOL     OW79529   7.659   3.152   9.284
26524SOL    HW179530   7.628   3.072   9.242
26524SOL    HW279531   7.597   3.166   9.356
26525SOL     OW79532   7.564   3.085   8.115
26525SOL    HW179533   7.597   3.043   8.195
26525SOL    HW279534   7.623   3.053   8.047
26526SOL     OW79535   8.135   3.283   9.078
26526SOL    HW179536   8.059   3.244   9.120
26526SOL    HW279537   8.142   3.370   9.116
26527SOL     OW79538   9.262   2.034   8.683
26527SOL    HW179539   9.270   1.940   8.698
26527SOL    HW279540   9.273   2.044   8.589
26528SOL     OW79541   7.866   2.285   7.966
26528SOL    HW179542   7.900   2.214   7.912
26528SOL    HW279543   7.814   2.240   8.033
26529SOL     OW79544   9.143   3.342   8.530
26529SOL    HW179545   9.065   3.323   8.477
26529SOL    HW279546   9.143   3.275   8.598
26530SOL     OW79547   7.800   2.427   8.740
26530SOL    HW179548   7.849   2.363   8.790
26530SOL    HW279549   7.808   2.398   8.649
26531SOL     OW79550   8.286   3.447   8.118
26531SOL    HW179551   8.257   3.518   8.060
26531SOL    HW279552   8.210   3.389   8.125
26532SOL     OW79553   8.869   2.095   8.563
26532SOL    HW179554   8.879   2.006   8.597
26532SOL    HW279555   8.823   2.142   8.633
26533SOL     OW79556   8.458   1.880   8.567
26533SOL    HW179557   8.404   1.817   8.519
26533SOL    HW279558   8.545   1.839   8.571
26534SOL     OW79559   8.228   3.194   7.777
26534SOL    HW179560   8.204   3.102   7.788
26534SOL    HW279561   8.308   3.205   7.828
26535SOL     OW79562   8.063   3.432   8.735
26535SOL    HW179563   8.058   3.517   8.780
26535SOL    HW279564   8.153   3.427   8.702
26536SOL     OW79565   8.828   1.901   7.640
26536SOL    HW179566   8.869   1.828   7.592
26536SOL    HW279567   8.737   1.874   7.651
26537SOL     OW79568   8.746   2.333   8.123
26537SOL    HW179569   8.696   2.414   8.120
26537SOL    HW279570   8.738   2.303   8.214
26538SOL     OW79571   9.028   2.049   8.340
26538SOL    HW179572   8.976   2.078   8.415
26538SOL    HW279573   9.028   2.123   8.280
26539SOL     OW79574   7.485   2.913   7.757
26539SOL    HW179575   7.578   2.902   7.738
26539SOL    HW279576   7.453   2.825   7.777
26540SOL     OW79577   8.343   3.537   7.777
26540SOL    HW179578   8.265   3.522   7.725
26540SOL    HW279579   8.317   3.606   7.839
26541SOL     OW79580   7.658   2.468   9.455
26541SOL    HW179581   7.569   2.458   9.488
26541SOL    HW279582   7.650   2.461   9.359
26542SOL     OW79583   9.250   2.439   9.522
26542SOL    HW179584   9.209   2.439   9.436
26542SOL    HW279585   9.204   2.372   9.572
26543SOL     OW79586   7.662   3.601   9.765
26543SOL    HW179587   7.681   3.674   9.824
26543SOL    HW279588   7.741   3.591   9.712
26544SOL     OW79589   7.667   3.325   9.844
26544SOL    HW179590   7.653   3.419   9.858
26544SOL    HW279591   7.590   3.284   9.884
26545SOL     OW79592   8.018   2.848   9.452
26545SOL    HW179593   8.069   2.891   9.383
26545SOL    HW279594   8.059   2.877   9.533
26546SOL     OW79595   7.516   2.538   9.882
26546SOL    HW179596   7.429   2.504   9.859
26546SOL    HW279597   7.498   2.616   9.935
26547SOL     OW79598   9.275   3.617   9.642
26547SOL    HW179599   9.351   3.596   9.695
26547SOL    HW279600   9.294   3.704   9.607
26548SOL     OW79601   7.495   3.453   9.434
26548SOL    HW179602   7.481   3.360   9.450
26548SOL    HW279603   7.459   3.496   9.511
26549SOL     OW79604   9.123   2.732   9.916
26549SOL    HW179605   9.190   2.753   9.980
26549SOL    HW279606   9.114   2.811   9.863
26550SOL     OW79607   9.135   2.963   9.761
26550SOL    HW179608   9.220   2.965   9.716
26550SOL    HW279609   9.132   3.046   9.809
26551SOL     OW79610   8.089   3.202   9.993
26551SOL    HW179611   8.032   3.125   9.990
26551SOL    HW279612   8.067   3.251   9.914
26552SOL     OW79613   8.266   1.891   9.827
26552SOL    HW179614   8.312   1.970   9.798
26552SOL    HW279615   8.174   1.915   9.829
26553SOL     OW79616   9.002   2.887   9.522
26553SOL    HW179617   8.942   2.817   9.548
26553SOL    HW279618   9.040   2.918   9.605
26554SOL     OW79619   8.033   2.561   9.583
26554SOL    HW179620   8.042   2.647   9.542
26554SOL    HW279621   7.975   2.576   9.658
26555SOL     OW79622   9.010   3.534   9.626
26555SOL    HW179623   9.102   3.559   9.633
26555SOL    HW279624   8.995   3.523   9.532
26556SOL     OW79625   8.494   2.552   9.734
26556SOL    HW179626   8.522   2.528   9.823
26556SOL    HW279627   8.408   2.510   9.724
26557SOL     OW79628   7.500   2.742   0.069
26557SOL    HW179629   7.572   2.696   0.111
26557SOL    HW279630   7.479   2.814   0.129
26558SOL     OW79631   8.339   2.209   9.503
26558SOL    HW179632   8.388   2.266   9.444
26558SOL    HW279633   8.324   2.129   9.453
26559SOL     OW79634   8.764   2.957   9.795
26559SOL    HW179635   8.814   2.986   9.871
26559SOL    HW279636   8.738   3.037   9.750
26560SOL     OW79637   8.440   3.297   9.782
26560SOL    HW179638   8.411   3.382   9.751
26560SOL    HW279639   8.413   3.294   9.874
26561SOL     OW79640   7.803   3.714   0.165
26561SOL    HW179641   7.808   3.635   0.220
26561SOL    HW279642   7.892   3.747   0.161
26562SOL     OW79643   7.764   2.822   9.577
26562SOL    HW179644   7.846   2.837   9.529
26562SOL    HW279645   7.726   2.745   9.535
26563SOL     OW79646   8.585   3.638   9.545
26563SOL    HW179647   8.506   3.604   9.587
26563SOL    HW279648   8.606   3.574   9.477
26564SOL     OW79649   9.070   3.258   9.399
26564SOL    HW179650   9.027   3.342   9.386
26564SOL    HW279651   9.004   3.193   9.375
26565SOL     OW79652   7.916   3.624   9.634
26565SOL    HW179653   7.966   3.654   9.710
26565SOL    HW279654   7.980   3.577   9.581
26566SOL     OW79655   8.873   2.013   9.738
26566SOL    HW179656   8.862   1.971   9.653
26566SOL    HW279657   8.968   2.016   9.751
26567SOL     OW79658   7.842   2.550   9.801
26567SOL    HW179659   7.847   2.456   9.821
26567SOL    HW279660   7.749   2.569   9.797
26568SOL     OW79661   8.109   1.970   9.417
26568SOL    HW179662   8.153   1.889   9.445
26568SOL    HW279663   8.048   1.941   9.348
26569SOL     OW79664   7.994   1.961   9.840
26569SOL    HW179665   7.902   1.955   9.866
26569SOL    HW279666   7.994   2.019   9.764
26570SOL     OW79667   8.881   3.066   9.343
26570SOL    HW179668   8.916   3.000   9.402
26570SOL    HW279669   8.794   3.087   9.379
26571SOL     OW79670   7.733   1.916   9.499
26571SOL    HW179671   7.784   1.981   9.452
26571SOL    HW279672   7.798   1.863   9.546
26572SOL     OW79673   8.397   2.123   9.758
26572SOL    HW179674   8.372   2.153   9.670
26572SOL    HW279675   8.490   2.141   9.764
26573SOL     OW79676   7.890   3.012   0.034
26573SOL    HW179677   7.822   3.047   0.091
26573SOL    HW279678   7.846   2.998   9.950
26574SOL     OW79679   8.749   3.697   9.900
26574SOL    HW179680   8.792   3.762   9.845
26574SOL    HW279681   8.656   3.722   9.899
26575SOL     OW79682   8.480   2.379   9.338
26575SOL    HW179683   8.437   2.462   9.318
26575SOL    HW279684   8.542   2.400   9.407
26576SOL     OW79685   8.293   2.303   9.942
26576SOL    HW179686   8.255   2.366   9.881
26576SOL    HW279687   8.325   2.232   9.886
26577SOL     OW79688   9.360   2.667   9.633
26577SOL    HW179689   9.366   2.630   9.720
26577SOL    HW279690   9.314   2.601   9.581
26578SOL     OW79691   7.942   3.289   9.465
26578SOL    HW179692   7.867   3.255   9.513
26578SOL    HW279693   7.943   3.240   9.383
26579SOL     OW79694   8.837   2.437   9.371
26579SOL    HW179695   8.781   2.415   9.445
26579SOL    HW279696   8.925   2.412   9.399
26580SOL     OW79697   7.990   2.122   9.624
26580SOL    HW179698   8.037   2.078   9.554
26580SOL    HW279699   7.952   2.200   9.582
26581SOL     OW79700   8.155   2.915   9.685
26581SOL    HW179701   8.122   2.868   9.761
26581SOL    HW279702   8.235   2.869   9.661
26582SOL     OW79703   7.752   2.990   9.799
26582SOL    HW179704   7.755   3.066   9.741
26582SOL    HW279705   7.761   2.915   9.741
26583SOL     OW79706   8.686   3.216   9.691
26583SOL    HW179707   8.741   3.287   9.722
26583SOL    HW279708   8.599   3.236   9.726
26584SOL     OW79709   9.079   2.500   9.788
26584SOL    HW179710   9.085   2.576   9.847
26584SOL    HW279711   9.023   2.530   9.716
26585SOL     OW79712   8.644   2.393   9.565
26585SOL    HW179713   8.651   2.317   9.623
26585SOL    HW279714   8.605   2.461   9.619
26586SOL     OW79715   7.731   1.952   9.928
26586SOL    HW179716   7.663   2.017   9.946
26586SOL    HW279717   7.747   1.910   0.013
26587SOL     OW79718   9.080   2.258   9.654
26587SOL    HW179719   9.104   2.182   9.706
26587SOL    HW279720   9.070   2.329   9.718
26588SOL     OW79721   8.967   2.136   9.425
26588SOL    HW179722   8.915   2.064   9.460
26588SOL    HW279723   9.006   2.178   9.502
26589SOL     OW79724   8.729   2.686   9.331
26589SOL    HW179725   8.767   2.599   9.337
26589SOL    HW279726   8.763   2.722   9.249
26590SOL     OW79727   7.473   3.178   9.485
26590SOL    HW179728   7.382   3.197   9.460
26590SOL    HW279729   7.469   3.091   9.525
26591SOL     OW79730   8.255   2.421   9.683
26591SOL    HW179731   8.267   2.352   9.617
26591SOL    HW279732   8.182   2.473   9.649
26592SOL     OW79733   7.894   2.339   9.483
26592SOL    HW179734   7.956   2.408   9.506
26592SOL    HW279735   7.809   2.382   9.481
26593SOL     OW79736   8.816   2.705   9.606
26593SOL    HW179737   8.762   2.757   9.667
26593SOL    HW279738   8.763   2.698   9.527
26594SOL     OW79739   9.158   2.021   9.769
26594SOL    HW179740   9.228   2.022   9.704
26594SOL    HW279741   9.174   1.942   9.821
26595SOL     OW79742   8.812   3.450   9.794
26595SOL    HW179743   8.882   3.467   9.731
26595SOL    HW279744   8.784   3.537   9.823
26596SOL     OW79745   8.115   3.502   9.474
26596SOL    HW179746   8.131   3.514   9.381
26596SOL    HW279747   8.061   3.422   9.479
26597SOL     OW79748   8.654   3.456   9.348
26597SOL    HW179749   8.646   3.363   9.373
26597SOL    HW279750   8.585   3.469   9.284
26598SOL     OW79751   8.371   2.774   9.613
26598SOL    HW179752   8.427   2.803   9.541
26598SOL    HW279753   8.422   2.706   9.657
26599SOL     OW79754   8.930   3.512   9.358
26599SOL    HW179755   8.837   3.494   9.342
26599SOL    HW279756   8.969   3.514   9.271
26600SOL     OW79757   8.040   3.338   9.762
26600SOL    HW179758   8.101   3.295   9.702
26600SOL    HW279759   7.958   3.345   9.712
26601SOL     OW79760   7.726   3.205   9.615
26601SOL    HW179761   7.640   3.199   9.572
26601SOL    HW279762   7.709   3.254   9.695
26602SOL     OW79763   7.532   2.178   9.323
26602SOL    HW179764   7.455   2.158   9.269
26602SOL    HW279765   7.561   2.263   9.292
26603SOL     OW79766   7.490   2.017   9.576
26603SOL    HW179767   7.483   2.083   9.506
26603SOL    HW279768   7.578   1.982   9.567
26604SOL     OW79769   8.627   3.185   9.423
26604SOL    HW179770   8.536   3.156   9.423
26604SOL    HW279771   8.651   3.190   9.515
26605SOL     OW79772   8.664   2.197   9.768
26605SOL    HW179773   8.739   2.138   9.760
26605SOL    HW279774   8.684   2.251   9.845
26606SOL     OW79775   8.053   2.712   9.887
26606SOL    HW179776   8.060   2.710   9.982
26606SOL    HW279777   7.981   2.653   9.867
26607SOL     OW79778   8.319   3.219   9.363
26607SOL    HW179779   8.283   3.235   9.451
26607SOL    HW279780   8.329   3.307   9.325
26608SOL     OW79781   8.516   2.841   9.397
26608SOL    HW179782   8.499   2.897   9.321
26608SOL    HW279783   8.592   2.788   9.371
26609SOL     OW79784   7.498   3.096   9.900
26609SOL    HW179785   7.499   3.108   9.995
26609SOL    HW279786   7.578   3.048   9.880
26610SOL     OW79787   7.857   2.287   9.866
26610SOL    HW179788   7.904   2.223   9.813
26610SOL    HW279789   7.894   2.277   9.954
26611SOL     OW79790   8.231   3.189   9.627
26611SOL    HW179791   8.205   3.099   9.644
26611SOL    HW279792   8.307   3.204   9.682
26612SOL     OW79793   8.826   1.904   9.492
26612SOL    HW179794   8.868   1.827   9.453
26612SOL    HW279795   8.735   1.876   9.508
26613SOL     OW79796   7.504   2.930   9.595
26613SOL    HW179797   7.600   2.923   9.589
26613SOL    HW279798   7.474   2.839   9.599
26614SOL     OW79799   8.342   3.534   9.664
26614SOL    HW179800   8.267   3.517   9.608
26614SOL    HW279801   8.313   3.603   9.723
26615SOL     OW79802   7.646   4.331   0.125
26615SOL    HW179803   7.562   4.319   0.170
26615SOL    HW279804   7.621   4.346   0.033
26616SOL     OW79805   7.667   4.012   0.990
26616SOL    HW179806   7.697   3.977   1.073
26616SOL    HW279807   7.580   3.975   0.978
26617SOL     OW79808   7.432   4.122   0.647
26617SOL    HW179809   7.350   4.144   0.692
26617SOL    HW279810   7.409   4.046   0.592
26618SOL     OW79811   8.023   5.032   1.209
26618SOL    HW179812   7.941   5.035   1.160
26618SOL    HW279813   8.040   5.123   1.232
26619SOL     OW79814   9.040   5.246   0.707
26619SOL    HW179815   8.993   5.215   0.783
26619SOL    HW279816   8.974   5.249   0.637
26620SOL     OW79817   8.587   4.425   0.686
26620SOL    HW179818   8.633   4.509   0.676
26620SOL    HW279819   8.537   4.435   0.767
26621SOL     OW79820   9.222   4.303   0.196
26621SOL    HW179821   9.147   4.332   0.144
26621SOL    HW279822   9.189   4.231   0.250
26622SOL     OW79823   8.174   4.853   1.058
26622SOL    HW179824   8.116   4.893   1.122
26622SOL    HW279825   8.217   4.927   1.015
26623SOL     OW79826   8.335   4.466   1.828
26623SOL    HW179827   8.327   4.532   1.896
26623SOL    HW279828   8.352   4.515   1.748
26624SOL     OW79829   8.133   4.701   0.646
26624SOL    HW179830   8.201   4.702   0.713
26624SOL    HW279831   8.067   4.763   0.676
26625SOL     OW79832   8.160   4.873   1.832
26625SOL    HW179833   8.211   4.946   1.868
26625SOL    HW279834   8.084   4.915   1.792
26626SOL     OW79835   7.790   5.121   1.071
26626SOL    HW179836   7.714   5.079   1.031
26626SOL    HW279837   7.826   5.177   1.002
26627SOL     OW79838   8.901   5.232   1.372
26627SOL    HW179839   8.957   5.308   1.384
26627SOL    HW279840   8.830   5.243   1.435
26628SOL     OW79841   7.906   4.098   1.455
26628SOL    HW179842   7.981   4.040   1.471
26628SOL    HW279843   7.830   4.047   1.483
26629SOL     OW79844   9.025   4.154   0.753
26629SOL    HW179845   8.951   4.163   0.694
26629SOL    HW279846   9.013   4.225   0.817
26630SOL     OW79847   7.676   5.444   0.470
26630SOL    HW179848   7.692   5.519   0.528
26630SOL    HW279849   7.761   5.424   0.431
26631SOL     OW79850   8.582   5.066   1.697
26631SOL    HW179851   8.629   5.055   1.780
26631SOL    HW279852   8.529   4.987   1.688
26632SOL     OW79853   7.656   5.168   0.507
26632SOL    HW179854   7.650   5.263   0.516
26632SOL    HW279855   7.617   5.134   0.588
26633SOL     OW79856   7.727   4.811   0.879
26633SOL    HW179857   7.730   4.722   0.915
26633SOL    HW279858   7.674   4.860   0.942
26634SOL     OW79859   8.020   5.529   1.419
26634SOL    HW179860   7.945   5.508   1.474
26634SOL    HW279861   8.054   5.611   1.454
26635SOL     OW79862   8.016   4.671   0.174
26635SOL    HW179863   7.989   4.741   0.114
26635SOL    HW279864   8.074   4.714   0.236
26636SOL     OW79865   9.038   3.856   1.459
26636SOL    HW179866   9.078   3.932   1.417
26636SOL    HW279867   9.006   3.889   1.543
26637SOL     OW79868   7.562   4.378   0.573
26637SOL    HW179869   7.527   4.292   0.597
26637SOL    HW279870   7.554   4.431   0.653
26638SOL     OW79871   9.308   5.455   0.311
26638SOL    HW179872   9.378   5.433   0.372
26638SOL    HW279873   9.323   5.547   0.291
26639SOL     OW79874   7.503   5.296   0.085
26639SOL    HW179875   7.483   5.210   0.121
26639SOL    HW279876   7.483   5.357   0.157
26640SOL     OW79877   9.140   4.646   0.666
26640SOL    HW179878   9.226   4.605   0.658
26640SOL    HW279879   9.128   4.693   0.584
26641SOL     OW79880   9.108   4.818   0.444
26641SOL    HW179881   9.189   4.813   0.394
26641SOL    HW279882   9.124   4.885   0.510
26642SOL     OW79883   7.570   4.474   1.578
26642SOL    HW179884   7.655   4.517   1.583
26642SOL    HW279885   7.507   4.545   1.565
26643SOL     OW79886   8.063   5.105   0.757
26643SOL    HW179887   8.021   5.019   0.752
26643SOL    HW279888   8.060   5.139   0.668
26644SOL     OW79889   8.718   4.950   1.417
26644SOL    HW179890   8.745   4.880   1.357
26644SOL    HW279891   8.780   4.945   1.489
26645SOL     OW79892   8.280   3.739   0.529
26645SOL    HW179893   8.321   3.820   0.498
26645SOL    HW279894   8.186   3.759   0.530
26646SOL     OW79895   7.635   4.680   1.302
26646SOL    HW179896   7.722   4.645   1.285
26646SOL    HW279897   7.580   4.643   1.232
26647SOL     OW79898   8.942   4.752   0.233
26647SOL    HW179899   8.884   4.683   0.265
26647SOL    HW279900   9.002   4.769   0.306
26648SOL     OW79901   8.627   5.546   1.636
26648SOL    HW179902   8.629   5.608   1.562
26648SOL    HW279903   8.644   5.461   1.596
26649SOL     OW79904   7.808   3.977   1.875
26649SOL    HW179905   7.844   4.057   1.913
26649SOL    HW279906   7.713   3.992   1.872
26650SOL     OW79907   8.919   5.141   0.930
26650SOL    HW179908   8.856   5.160   1.000
26650SOL    HW279909   8.901   5.050   0.906
26651SOL     OW79910   9.088   5.523   0.563
26651SOL    HW179911   9.074   5.475   0.482
26651SOL    HW279912   9.091   5.456   0.631
26652SOL     OW79913   8.041   4.414   0.284
26652SOL    HW179914   8.047   4.500   0.243
26652SOL    HW279915   7.975   4.425   0.353
26653SOL     OW79916   8.729   4.115   0.941
26653SOL    HW179917   8.640   4.080   0.947
26653SOL    HW279918   8.782   4.057   0.996
26654SOL     OW79919   9.037   5.398   0.325
26654SOL    HW179920   9.132   5.408   0.312
26654SOL    HW279921   9.003   5.380   0.238
26655SOL     OW79922   8.237   4.338   1.430
26655SOL    HW179923   8.214   4.309   1.518
26655SOL    HW279924   8.213   4.265   1.374
26656SOL     OW79925   8.839   4.201   1.674
26656SOL    HW179926   8.844   4.244   1.759
26656SOL    HW279927   8.889   4.119   1.685
26657SOL     OW79928   8.392   4.604   1.593
26657SOL    HW179929   8.448   4.541   1.549
26657SOL    HW279930   8.344   4.647   1.522
26658SOL     OW79931   8.455   4.121   1.210
26658SOL    HW179932   8.363   4.135   1.232
26658SOL    HW279933   8.453   4.077   1.125
26659SOL     OW79934   8.515   4.421   0.416
26659SOL    HW179935   8.534   4.418   0.510
26659SOL    HW279936   8.430   4.378   0.408
26660SOL     OW79937   7.540   4.552   0.783
26660SOL    HW179938   7.623   4.545   0.830
26660SOL    HW279939   7.493   4.623   0.827
26661SOL     OW79940   7.557   5.603   1.588
26661SOL    HW179941   7.565   5.583   1.681
26661SOL    HW279942   7.471   5.568   1.563
26662SOL     OW79943   8.309   4.063   0.200
26662SOL    HW179944   8.295   4.112   0.119
26662SOL    HW279945   8.318   3.972   0.171
26663SOL     OW79946   9.134   4.287   1.840
26663SOL    HW179947   9.111   4.365   1.790
26663SOL    HW279948   9.161   4.223   1.775
26664SOL     OW79949   8.844   4.873   0.556
26664SOL    HW179950   8.923   4.862   0.503
26664SOL    HW279951   8.790   4.934   0.506
26665SOL     OW79952   7.998   3.887   0.915
26665SOL    HW179953   8.004   3.914   1.007
26665SOL    HW279954   7.995   3.969   0.866
26666SOL     OW79955   8.447   5.176   0.471
26666SOL    HW179956   8.424   5.253   0.419
26666SOL    HW279957   8.416   5.196   0.559
26667SOL     OW79958   7.801   5.541   0.880
26667SOL    HW179959   7.846   5.457   0.884
26667SOL    HW279960   7.868   5.605   0.902
26668SOL     OW79961   9.247   4.777   0.896
26668SOL    HW179962   9.197   4.763   0.815
26668SOL    HW279963   9.181   4.783   0.965
26669SOL     OW79964   8.665   5.268   1.517
26669SOL    HW179965   8.654   5.197   1.581
26669SOL    HW279966   8.598   5.251   1.451
26670SOL     OW79967   7.761   4.651   0.290
26670SOL    HW179968   7.842   4.658   0.239
26670SOL    HW279969   7.765   4.563   0.329
26671SOL     OW79970   8.931   4.479   0.713
26671SOL    HW179971   8.931   4.440   0.800
26671SOL    HW279972   9.008   4.536   0.711
26672SOL     OW79973   7.921   5.008   1.748
26672SOL    HW179974   7.897   5.012   1.655
26672SOL    HW279975   7.838   4.996   1.794
26673SOL     OW79976   8.552   5.508   0.180
26673SOL    HW179977   8.496   5.468   0.246
26673SOL    HW279978   8.592   5.434   0.134
26674SOL     OW79979   7.656   3.980   1.499
26674SOL    HW179980   7.586   4.041   1.520
26674SOL    HW279981   7.626   3.895   1.532
26675SOL     OW79982   9.081   5.093   0.111
26675SOL    HW179983   9.040   5.179   0.105
26675SOL    HW279984   9.014   5.032   0.079
26676SOL     OW79985   7.936   5.433   0.375
26676SOL    HW179986   7.971   5.508   0.422
26676SOL    HW279987   8.002   5.411   0.310
26677SOL     OW79988   8.844   3.827   0.449
26677SOL    HW179989   8.843   3.807   0.355
26677SOL    HW279990   8.935   3.812   0.475
26678SOL     OW79991   7.699   5.512   1.215
26678SOL    HW179992   7.749   5.438   1.251
26678SOL    HW279993   7.689   5.491   1.122
26679SOL     OW79994   8.395   5.425   0.891
26679SOL    HW179995   8.479   5.382   0.905
26679SOL    HW279996   8.353   5.374   0.821
26680SOL     OW79997   7.820   4.418   0.463
26680SOL    HW179998   7.843   4.326   0.474
26680SOL    HW279999   7.732   4.425   0.498
26681SOL     OW80000   8.954   3.946   1.717
26681SOL    HW180001   8.967   3.964   1.810
26681SOL    HW280002   8.889   3.875   1.716
26682SOL     OW80003   8.056   3.817   0.116
26682SOL    HW180004   8.151   3.807   0.126
26682SOL    HW280005   8.042   3.823   0.022
26683SOL     OW80006   8.206   3.998   1.752
26683SOL    HW180007   8.291   3.953   1.750
26683SOL    HW280008   8.160   3.959   1.826
26684SOL     OW80009   8.318   5.252   1.201
26684SOL    HW180010   8.299   5.210   1.117
26684SOL    HW280011   8.385   5.197   1.241
26685SOL     OW80012   8.778   4.315   1.433
26685SOL    HW180013   8.811   4.285   1.518
26685SOL    HW280014   8.817   4.402   1.422
26686SOL     OW80015   8.265   5.101   0.961
26686SOL    HW180016   8.351   5.097   0.919
26686SOL    HW280017   8.203   5.113   0.890
26687SOL     OW80018   8.378   4.238   0.891
26687SOL    HW180019   8.353   4.226   0.799
26687SOL    HW280020   8.406   4.152   0.920
26688SOL     OW80021   8.012   3.800   0.503
26688SOL    HW180022   7.933   3.798   0.556
26688SOL    HW280023   7.998   3.873   0.442
26689SOL     OW80024   8.875   4.922   0.034
26689SOL    HW180025   8.900   4.856   0.098
26689SOL    HW280026   8.794   4.960   0.068
26690SOL     OW80027   8.400   3.974   0.450
26690SOL    HW180028   8.368   4.010   0.367
26690SOL    HW280029   8.493   3.995   0.451
26691SOL     OW80030   8.524   4.417   1.446
26691SOL    HW180031   8.462   4.345   1.451
26691SOL    HW280032   8.610   4.375   1.442
26692SOL     OW80033   8.653   5.312   0.800
26692SOL    HW180034   8.669   5.371   0.728
26692SOL    HW280035   8.727   5.325   0.860
26693SOL     OW80036   7.927   4.872   0.710
26693SOL    HW180037   7.863   4.851   0.778
26693SOL    HW280038   7.877   4.868   0.628
26694SOL     OW80039   8.700   5.517   0.613
26694SOL    HW180040   8.749   5.580   0.561
26694SOL    HW280041   8.632   5.568   0.655
26695SOL     OW80042   8.542   4.285   9.980
26695SOL    HW180043   8.454   4.248   9.987
26695SOL    HW280044   8.577   4.278   0.069
26696SOL     OW80045   7.547   4.277   1.390
26696SOL    HW180046   7.639   4.277   1.365
26696SOL    HW280047   7.540   4.345   1.457
26697SOL     OW80048   8.007   3.945   1.185
26697SOL    HW180049   8.044   3.881   1.246
26697SOL    HW280050   7.913   3.945   1.206
26698SOL     OW80051   8.320   4.175   0.633
26698SOL    HW180052   8.286   4.232   0.564
26698SOL    HW280053   8.345   4.095   0.587
26699SOL     OW80054   8.473   3.782   0.743
26699SOL    HW180055   8.409   3.777   0.671
26699SOL    HW280056   8.448   3.709   0.800
26700SOL     OW80057   8.878   4.877   0.855
26700SOL    HW180058   8.811   4.810   0.866
26700SOL    HW280059   8.890   4.884   0.760
26701SOL     OW80060   8.907   4.339   0.952
26701SOL    HW180061   8.844   4.268   0.962
26701SOL    HW280062   8.964   4.333   1.029
26702SOL     OW80063   9.300   4.511   0.368
26702SOL    HW180064   9.343   4.464   0.439
26702SOL    HW280065   9.264   4.442   0.311
26703SOL     OW80066   7.952   5.167   0.213
26703SOL    HW180067   7.871   5.122   0.234
26703SOL    HW280068   7.995   5.112   0.147
26704SOL     OW80069   9.163   4.994   0.635
26704SOL    HW180070   9.256   4.987   0.655
26704SOL    HW280071   9.139   5.083   0.661
26705SOL     OW80072   8.865   4.289   0.093
26705SOL    HW180073   8.789   4.278   0.150
26705SOL    HW280074   8.902   4.202   0.085
26706SOL     OW80075   7.956   3.988   0.309
26706SOL    HW180076   7.995   3.929   0.244
26706SOL    HW280077   7.934   4.067   0.261
26707SOL     OW80078   9.180   4.969   1.533
26707SOL    HW180079   9.267   4.932   1.520
26707SOL    HW280080   9.196   5.056   1.570
26708SOL     OW80081   8.490   5.080   1.336
26708SOL    HW180082   8.413   5.045   1.380
26708SOL    HW280083   8.564   5.034   1.376
26709SOL     OW80084   9.055   5.360   1.671
26709SOL    HW180085   9.045   5.396   1.583
26709SOL    HW280086   9.133   5.304   1.666
26710SOL     OW80087   8.598   4.962   1.105
26710SOL    HW180088   8.536   4.996   1.170
26710SOL    HW280089   8.565   4.994   1.021
26711SOL     OW80090   9.051   4.815   1.081
26711SOL    HW180091   9.044   4.882   1.149
26711SOL    HW280092   8.982   4.837   1.018
26712SOL     OW80093   8.367   3.805   1.383
26712SOL    HW180094   8.388   3.790   1.291
26712SOL    HW280095   8.445   3.846   1.419
26713SOL     OW80096   8.427   4.839   1.724
26713SOL    HW180097   8.337   4.856   1.751
26713SOL    HW280098   8.423   4.759   1.673
26714SOL     OW80099   8.171   4.776   0.378
26714SOL    HW180100   8.157   4.749   0.469
26714SOL    HW280101   8.251   4.731   0.351
26715SOL     OW80102   7.874   4.551   1.259
26715SOL    HW180103   7.941   4.562   1.326
26715SOL    HW280104   7.844   4.461   1.269
26716SOL     OW80105   8.712   4.092   1.292
26716SOL    HW180106   8.740   4.172   1.336
26716SOL    HW280107   8.623   4.111   1.262
26717SOL     OW80108   7.526   5.294   1.363
26717SOL    HW180109   7.497   5.367   1.307
26717SOL    HW280110   7.622   5.294   1.353
26718SOL     OW80111   7.763   4.849   0.487
26718SOL    HW180112   7.763   4.919   0.422
26718SOL    HW280113   7.772   4.769   0.435
26719SOL     OW80114   7.981   4.237   0.857
26719SOL    HW180115   7.991   4.296   0.782
26719SOL    HW280116   8.049   4.264   0.918
26720SOL     OW80117   8.698   5.072   0.418
26720SOL    HW180118   8.753   5.145   0.446
26720SOL    HW280119   8.609   5.098   0.443
26721SOL     OW80120   8.757   5.192   1.143
26721SOL    HW180121   8.805   5.200   1.225
26721SOL    HW280122   8.706   5.111   1.151
26722SOL     OW80123   8.999   4.343   0.477
26722SOL    HW180124   8.972   4.380   0.561
26722SOL    HW280125   8.967   4.406   0.413
26723SOL     OW80126   7.793   5.256   1.303
26723SOL    HW180127   7.785   5.204   1.224
26723SOL    HW280128   7.887   5.273   1.313
26724SOL     OW80129   7.882   4.469   1.619
26724SOL    HW180130   7.939   4.513   1.557
26724SOL    HW280131   7.928   4.388   1.641
26725SOL     OW80132   9.071   4.510   1.700
26725SOL    HW180133   8.984   4.548   1.690
26725SOL    HW280134   9.121   4.547   1.627
26726SOL     OW80135   8.443   3.865   1.758
26726SOL    HW180136   8.501   3.938   1.739
26726SOL    HW280137   8.494   3.787   1.736
26727SOL     OW80138   7.943   3.759   1.762
26727SOL    HW180139   7.888   3.709   1.701
26727SOL    HW280140   7.891   3.836   1.784
26728SOL     OW80141   8.037   4.599   1.037
26728SOL    HW180142   8.076   4.686   1.041
26728SOL    HW280143   7.981   4.595   1.115
26729SOL     OW80144   8.756   4.578   1.003
26729SOL    HW180145   8.668   4.551   0.977
26729SOL    HW280146   8.811   4.501   0.986
26730SOL     OW80147   8.640   4.243   0.246
26730SOL    HW180148   8.652   4.168   0.303
26730SOL    HW280149   8.599   4.310   0.302
26731SOL     OW80150   7.739   3.917   1.239
26731SOL    HW180151   7.704   3.946   1.324
26731SOL    HW280152   7.722   3.823   1.237
26732SOL     OW80153   7.496   5.037   1.267
26732SOL    HW180154   7.526   4.981   1.339
26732SOL    HW280155   7.500   5.126   1.303
26733SOL     OW80156   8.156   4.345   1.037
26733SOL    HW180157   8.236   4.338   0.985
26733SOL    HW280158   8.129   4.436   1.028
26734SOL     OW80159   9.193   4.690   1.873
26734SOL    HW180160   9.153   4.619   1.824
26734SOL    HW280161   9.129   4.711   1.941
26735SOL     OW80162   7.767   3.788   0.631
26735SOL    HW180163   7.736   3.876   0.650
26735SOL    HW280164   7.774   3.746   0.717
26736SOL     OW80165   9.087   4.114   0.351
26736SOL    HW180166   9.122   4.049   0.411
26736SOL    HW280167   9.054   4.185   0.407
26737SOL     OW80168   8.482   4.482   0.957
26737SOL    HW180169   8.460   4.497   1.050
26737SOL    HW280170   8.452   4.393   0.940
26738SOL     OW80171   8.427   5.289   1.734
26738SOL    HW180172   8.407   5.333   1.651
26738SOL    HW280173   8.466   5.206   1.709
26739SOL     OW80174   9.286   5.218   1.601
26739SOL    HW180175   9.312   5.247   1.513
26739SOL    HW280176   9.365   5.229   1.654
26740SOL     OW80177   7.797   4.643   1.815
26740SOL    HW180178   7.873   4.661   1.871
26740SOL    HW280179   7.829   4.580   1.751
26741SOL     OW80180   8.948   4.029   0.128
26741SOL    HW180181   8.900   3.949   0.149
26741SOL    HW280182   8.996   4.050   0.208
26742SOL     OW80183   8.766   4.542   0.037
26742SOL    HW180184   8.802   4.453   0.039
26742SOL    HW280185   8.823   4.589   9.976
26743SOL     OW80186   8.517   5.077   0.865
26743SOL    HW180187   8.529   5.004   0.805
26743SOL    HW280188   8.570   5.148   0.828
26744SOL     OW80189   7.766   4.538   0.943
26744SOL    HW180190   7.860   4.554   0.945
26744SOL    HW280191   7.756   4.448   0.975
26745SOL     OW80192   7.761   4.262   1.010
26745SOL    HW180193   7.721   4.175   1.002
26745SOL    HW280194   7.838   4.259   0.954
26746SOL     OW80195   8.586   4.092   1.685
26746SOL    HW180196   8.541   4.143   1.752
26746SOL    HW280197   8.672   4.134   1.676
26747SOL     OW80198   8.604   3.914   1.474
26747SOL    HW180199   8.592   3.975   1.546
26747SOL    HW280200   8.650   3.963   1.406
26748SOL     OW80201   7.466   5.015   0.171
26748SOL    HW180202   7.376   5.043   0.153
26748SOL    HW280203   7.456   4.935   0.223
26749SOL     OW80204   7.540   5.495   0.950
26749SOL    HW180205   7.507   5.420   0.899
26749SOL    HW280206   7.627   5.511   0.914
26750SOL     OW80207   7.932   5.296   0.905
26750SOL    HW180208   8.003   5.357   0.925
26750SOL    HW280209   7.974   5.228   0.851
26751SOL     OW80210   8.396   4.503   1.216
26751SOL    HW180211   8.460   4.493   1.286
26751SOL    HW280212   8.317   4.459   1.248
26752SOL     OW80213   7.488   4.297   1.120
26752SOL    HW180214   7.570   4.294   1.071
26752SOL    HW280215   7.515   4.290   1.212
26753SOL     OW80216   7.634   4.262   1.743
26753SOL    HW180217   7.710   4.233   1.692
26753SOL    HW280218   7.598   4.336   1.693
26754SOL     OW80219   8.837   4.645   1.651
26754SOL    HW180220   8.855   4.739   1.646
26754SOL    HW280221   8.830   4.617   1.560
26755SOL     OW80222   8.276   4.287   0.374
26755SOL    HW180223   8.281   4.212   0.315
26755SOL    HW280224   8.197   4.335   0.347
26756SOL     OW80225   9.082   4.323   1.163
26756SOL    HW180226   9.073   4.265   1.239
26756SOL    HW280227   9.172   4.313   1.135
26757SOL     OW80228   7.674   5.264   1.723
26757SOL    HW180229   7.650   5.312   1.802
26757SOL    HW280230   7.686   5.174   1.753
26758SOL     OW80231   8.181   4.157   1.233
26758SOL    HW180232   8.117   4.087   1.219
26758SOL    HW280233   8.162   4.221   1.164
26759SOL     OW80234   8.352   5.404   1.488
26759SOL    HW180235   8.331   5.356   1.408
26759SOL    HW280236   8.355   5.496   1.461
26760SOL     OW80237   7.900   4.210   0.154
26760SOL    HW180238   7.959   4.276   0.190
26760SOL    HW280239   7.815   4.253   0.150
26761SOL     OW80240   7.577   4.875   1.480
26761SOL    HW180241   7.582   4.835   1.568
26761SOL    HW280242   7.599   4.803   1.421
26762SOL     OW80243   8.749   4.758   1.209
26762SOL    HW180244   8.760   4.694   1.138
26762SOL    HW280245   8.696   4.828   1.171
26763SOL     OW80246   8.770   4.552   0.316
26763SOL    HW180247   8.687   4.523   0.355
26763SOL    HW280248   8.755   4.545   0.222
26764SOL     OW80249   9.238   5.447   1.170
26764SOL    HW180250   9.300   5.473   1.102
26764SOL    HW280251   9.205   5.362   1.142
26765SOL     OW80252   8.689   5.457   1.091
26765SOL    HW180253   8.773   5.487   1.057
26765SOL    HW280254   8.703   5.366   1.115
26766SOL     OW80255   7.554   4.973   1.011
26766SOL    HW180256   7.526   4.994   1.100
26766SOL    HW280257   7.482   4.920   0.976
26767SOL     OW80258   8.135   5.407   1.749
26767SOL    HW180259   8.073   5.478   1.736
26767SOL    HW280260   8.209   5.430   1.693
26768SOL     OW80261   8.335   3.803   0.098
26768SOL    HW180262   8.329   3.776   0.006
26768SOL    HW280263   8.412   3.757   0.131
26769SOL     OW80264   9.207   3.906   0.494
26769SOL    HW180265   9.271   3.881   0.427
26769SOL    HW280266   9.175   3.822   0.528
26770SOL     OW80267   8.848   5.294   0.505
26770SOL    HW180268   8.906   5.328   0.437
26770SOL    HW280269   8.795   5.369   0.532
26771SOL     OW80270   7.582   5.531   1.844
26771SOL    HW180271   7.542   5.455   1.886
26771SOL    HW280272   7.633   5.572   1.914
26772SOL     OW80273   8.727   4.657   0.669
26772SOL    HW180274   8.800   4.597   0.681
26772SOL    HW280275   8.764   4.730   0.618
26773SOL     OW80276   8.232   5.004   1.414
26773SOL    HW180277   8.206   5.052   1.493
26773SOL    HW280278   8.157   5.014   1.354
26774SOL     OW80279   8.133   5.362   0.188
26774SOL    HW180280   8.137   5.378   0.094
26774SOL    HW280281   8.077   5.285   0.197
26775SOL     OW80282   9.065   5.454   1.401
26775SOL    HW180283   9.122   5.454   1.324
26775SOL    HW280284   9.049   5.547   1.419
26776SOL     OW80285   9.290   3.883   0.965
26776SOL    HW180286   9.321   3.795   0.944
26776SOL    HW280287   9.203   3.887   0.926
26777SOL     OW80288   7.690   4.036   0.709
26777SOL    HW180289   7.604   4.072   0.689
26777SOL    HW280290   7.695   4.036   0.804
26778SOL     OW80291   8.665   5.291   0.052
26778SOL    HW180292   8.653   5.201   0.083
26778SOL    HW280293   8.678   5.282   9.958
26779SOL     OW80294   8.272   4.735   1.385
26779SOL    HW180295   8.310   4.726   1.298
26779SOL    HW280296   8.261   4.830   1.397
26780SOL     OW80297   8.389   4.645   0.295
26780SOL    HW180298   8.438   4.666   0.216
26780SOL    HW280299   8.437   4.572   0.334
26781SOL     OW80300   8.939   5.332   0.075
26781SOL    HW180301   8.843   5.325   0.082
26781SOL    HW280302   8.955   5.342   9.981
26782SOL     OW80303   7.811   5.036   1.502
26782SOL    HW180304   7.803   5.110   1.441
26782SOL    HW280305   7.733   4.983   1.485
26783SOL     OW80306   9.044   5.014   1.278
26783SOL    HW180307   9.099   4.990   1.352
26783SOL    HW280308   8.986   5.082   1.312
26784SOL     OW80309   8.524   4.842   0.730
26784SOL    HW180310   8.449   4.793   0.761
26784SOL    HW280311   8.587   4.776   0.701
26785SOL     OW80312   8.481   3.973   0.962
26785SOL    HW180313   8.481   3.930   0.876
26785SOL    HW280314   8.474   3.900   1.025
26786SOL     OW80315   8.069   5.209   0.507
26786SOL    HW180316   8.110   5.154   0.440
26786SOL    HW280317   8.001   5.256   0.460
26787SOL     OW80318   9.190   4.105   1.388
26787SOL    HW180319   9.259   4.171   1.383
26787SOL    HW280320   9.217   4.037   1.327
26788SOL     OW80321   7.718   5.037   0.282
26788SOL    HW180322   7.635   5.039   0.234
26788SOL    HW280323   7.701   5.090   0.360
26789SOL     OW80324   7.569   4.771   1.735
26789SOL    HW180325   7.492   4.743   1.785
26789SOL    HW280326   7.641   4.720   1.772
26790SOL     OW80327   8.127   3.912   1.495
26790SOL    HW180328   8.211   3.887   1.456
26790SOL    HW280329   8.150   3.946   1.581
26791SOL     OW80330   7.539   4.000   0.022
26791SOL    HW180331   7.450   4.021   9.992
26791SOL    HW280332   7.589   4.079   0.003
26792SOL     OW80333   8.862   4.577   1.388
26792SOL    HW180334   8.810   4.636   1.333
26792SOL    HW280335   8.950   4.582   1.350
26793SOL     OW80336   7.522   3.866   0.279
26793SOL    HW180337   7.516   3.915   0.196
26793SOL    HW280338   7.616   3.858   0.295
26794SOL     OW80339   8.646   5.035   0.145
26794SOL    HW180340   8.557   4.999   0.137
26794SOL    HW280341   8.663   5.034   0.239
26795SOL     OW80342   8.073   4.556   1.441
26795SOL    HW180343   8.132   4.631   1.430
26795SOL    HW280344   8.130   4.480   1.440
26796SOL     OW80345   8.935   5.525   0.993
26796SOL    HW180346   8.962   5.599   0.939
26796SOL    HW280347   9.017   5.480   1.014
26797SOL     OW80348   8.172   4.273   1.686
26797SOL    HW180349   8.219   4.326   1.749
26797SOL    HW280350   8.182   4.183   1.718
26798SOL     OW80351   8.915   4.908   1.618
26798SOL    HW180352   8.907   4.929   1.711
26798SOL    HW280353   9.005   4.932   1.595
26799SOL     OW80354   7.802   5.471   1.579
26799SOL    HW180355   7.720   5.517   1.562
26799SOL    HW280356   7.775   5.387   1.618
26800SOL     OW80357   9.101   4.598   1.251
26800SOL    HW180358   9.099   4.515   1.204
26800SOL    HW280359   9.088   4.665   1.184
26801SOL     OW80360   8.669   4.048   0.451
26801SOL    HW180361   8.729   3.973   0.449
26801SOL    HW280362   8.697   4.099   0.527
26802SOL     OW80363   8.013   4.447   0.677
26802SOL    HW180364   8.061   4.529   0.666
26802SOL    HW280365   7.950   4.446   0.605
26803SOL     OW80366   9.190   4.080   1.664
26803SOL    HW180367   9.187   4.096   1.569
26803SOL    HW280368   9.113   4.026   1.681
26804SOL     OW80369   9.201   4.645   1.503
26804SOL    HW180370   9.190   4.739   1.515
26804SOL    HW280371   9.176   4.629   1.412
26805SOL     OW80372   8.346   5.141   0.043
26805SOL    HW180373   8.261   5.101   0.026
26805SOL    HW280374   8.340   5.174   0.133
26806SOL     OW80375   8.115   5.493   0.928
26806SOL    HW180376   8.098   5.586   0.919
26806SOL    HW280377   8.211   5.486   0.926
26807SOL     OW80378   8.320   4.699   0.856
26807SOL    HW180379   8.371   4.627   0.892
26807SOL    HW280380   8.276   4.737   0.932
26808SOL     OW80381   8.542   4.697   0.073
26808SOL    HW180382   8.536   4.746   9.992
26808SOL    HW280383   8.616   4.638   0.060
26809SOL     OW80384   9.283   5.283   0.840
26809SOL    HW180385   9.205   5.273   0.784
26809SOL    HW280386   9.265   5.226   0.915
26810SOL     OW80387   7.660   5.009   1.836
26810SOL    HW180388   7.628   4.930   1.793
26810SOL    HW280389   7.601   5.022   1.910
26811SOL     OW80390   7.566   4.941   0.670
26811SOL    HW180391   7.597   4.901   0.751
26811SOL    HW280392   7.626   4.908   0.603
26812SOL     OW80393   8.138   5.143   1.632
26812SOL    HW180394   8.062   5.104   1.675
26812SOL    HW280395   8.143   5.231   1.669
26813SOL     OW80396   9.259   3.895   1.235
26813SOL    HW180397   9.268   3.801   1.250
26813SOL    HW280398   9.271   3.906   1.141
26814SOL     OW80399   7.860   4.159   0.514
26814SOL    HW180400   7.895   4.088   0.459
26814SOL    HW280401   7.813   4.113   0.584
26815SOL     OW80402   9.141   5.205   1.083
26815SOL    HW180403   9.064   5.185   1.030
26815SOL    HW280404   9.141   5.137   1.151
26816SOL     OW80405   7.800   4.289   1.292
26816SOL    HW180406   7.849   4.225   1.343
26816SOL    HW280407   7.808   4.259   1.201
26817SOL     OW80408   8.283   5.321   0.662
26817SOL    HW180409   8.274   5.404   0.615
26817SOL    HW280410   8.207   5.270   0.635
26818SOL     OW80411   8.870   3.957   1.115
26818SOL    HW180412   8.881   3.868   1.150
26818SOL    HW280413   8.824   4.004   1.185
26819SOL     OW80414   8.458   3.741   1.119
26819SOL    HW180415   8.405   3.677   1.072
26819SOL    HW280416   8.545   3.701   1.123
26820SOL     OW80417   8.223   5.050   0.343
26820SOL    HW180418   8.203   4.956   0.347
26820SOL    HW280419   8.309   5.058   0.386
26821SOL     OW80420   8.063   5.294   1.288
26821SOL    HW180421   8.058   5.378   1.333
26821SOL    HW280422   8.153   5.289   1.256
26822SOL     OW80423   8.802   3.781   0.177
26822SOL    HW180424   8.826   3.742   0.093
26822SOL    HW280425   8.712   3.752   0.192
26823SOL     OW80426   8.746   4.192   0.675
26823SOL    HW180427   8.698   4.274   0.671
26823SOL    HW280428   8.738   4.163   0.766
26824SOL     OW80429   9.027   3.910   0.892
26824SOL    HW180430   8.977   3.940   0.967
26824SOL    HW280431   9.027   3.984   0.832
26825SOL     OW80432   7.490   4.768   0.302
26825SOL    HW180433   7.585   4.770   0.308
26825SOL    HW280434   7.465   4.680   0.331
26826SOL     OW80435   8.355   5.404   0.344
26826SOL    HW180436   8.276   5.390   0.292
26826SOL    HW280437   8.330   5.474   0.405
26827SOL     OW80438   7.656   4.346   2.009
26827SOL    HW180439   7.568   4.333   2.047
26827SOL    HW280440   7.644   4.332   1.915
26828SOL     OW80441   7.667   4.012   2.851
26828SOL    HW180442   7.697   3.977   2.935
26828SOL    HW280443   7.580   3.975   2.840
26829SOL     OW80444   7.434   4.120   2.508
26829SOL    HW180445   7.354   4.145   2.555
26829SOL    HW280446   7.407   4.046   2.453
26830SOL     OW80447   8.023   5.032   3.071
26830SOL    HW180448   7.941   5.035   3.022
26830SOL    HW280449   8.040   5.123   3.095
26831SOL     OW80450   9.038   5.248   2.567
26831SOL    HW180451   8.991   5.217   2.644
26831SOL    HW280452   8.972   5.251   2.498
26832SOL     OW80453   8.585   4.428   2.548
26832SOL    HW180454   8.632   4.511   2.537
26832SOL    HW280455   8.537   4.438   2.630
26833SOL     OW80456   9.249   4.302   2.082
26833SOL    HW180457   9.210   4.303   1.994
26833SOL    HW280458   9.205   4.231   2.127
26834SOL     OW80459   8.175   4.854   2.919
26834SOL    HW180460   8.117   4.894   2.984
26834SOL    HW280461   8.217   4.928   2.876
26835SOL     OW80462   8.335   4.465   3.690
26835SOL    HW180463   8.325   4.532   3.758
26835SOL    HW280464   8.352   4.515   3.610
26836SOL     OW80465   8.134   4.709   2.506
26836SOL    HW180466   8.201   4.709   2.574
26836SOL    HW280467   8.068   4.771   2.537
26837SOL     OW80468   8.160   4.874   3.695
26837SOL    HW180469   8.212   4.947   3.730
26837SOL    HW280470   8.084   4.916   3.654
26838SOL     OW80471   7.791   5.121   2.932
26838SOL    HW180472   7.716   5.078   2.892
26838SOL    HW280473   7.827   5.176   2.862
26839SOL     OW80474   8.901   5.231   3.234
26839SOL    HW180475   8.956   5.308   3.247
26839SOL    HW280476   8.829   5.243   3.296
26840SOL     OW80477   7.906   4.098   3.316
26840SOL    HW180478   7.981   4.040   3.333
26840SOL    HW280479   7.830   4.047   3.344
26841SOL     OW80480   9.027   4.156   2.617
26841SOL    HW180481   8.957   4.165   2.552
26841SOL    HW280482   9.011   4.226   2.680
26842SOL     OW80483   7.665   5.452   2.327
26842SOL    HW180484   7.692   5.523   2.385
26842SOL    HW280485   7.740   5.441   2.267
26843SOL     OW80486   8.582   5.066   3.558
26843SOL    HW180487   8.628   5.055   3.642
26843SOL    HW280488   8.529   4.987   3.550
26844SOL     OW80489   7.681   5.181   2.395
26844SOL    HW180490   7.659   5.274   2.400
26844SOL    HW280491   7.631   5.141   2.467
26845SOL     OW80492   7.734   4.813   2.741
26845SOL    HW180493   7.734   4.723   2.774
26845SOL    HW280494   7.678   4.861   2.802
26846SOL     OW80495   8.022   5.526   3.284
26846SOL    HW180496   7.946   5.507   3.338
26846SOL    HW280497   8.055   5.610   3.318
26847SOL     OW80498   8.013   4.712   2.014
26847SOL    HW180499   8.064   4.754   1.945
26847SOL    HW280500   8.054   4.741   2.095
26848SOL     OW80501   9.040   3.856   3.322
26848SOL    HW180502   9.077   3.933   3.279
26848SOL    HW280503   9.007   3.889   3.406
26849SOL     OW80504   7.566   4.383   2.429
26849SOL    HW180505   7.534   4.296   2.453
26849SOL    HW280506   7.561   4.434   2.510
26850SOL     OW80507   9.294   5.468   2.183
26850SOL    HW180508   9.367   5.452   2.242
26850SOL    HW280509   9.305   5.560   2.157
26851SOL     OW80510   7.507   5.304   1.972
26851SOL    HW180511   7.486   5.212   1.991
26851SOL    HW280512   7.475   5.352   2.049
26852SOL     OW80513   9.141   4.650   2.518
26852SOL    HW180514   9.227   4.610   2.506
26852SOL    HW280515   9.126   4.699   2.437
26853SOL     OW80516   9.103   4.829   2.296
26853SOL    HW180517   9.188   4.820   2.252
26853SOL    HW280518   9.119   4.893   2.365
26854SOL     OW80519   7.568   4.474   3.440
26854SOL    HW180520   7.653   4.518   3.444
26854SOL    HW280521   7.504   4.544   3.426
26855SOL     OW80522   8.071   5.122   2.592
26855SOL    HW180523   8.030   5.036   2.597
26855SOL    HW280524   8.056   5.151   2.502
26856SOL     OW80525   8.718   4.950   3.278
26856SOL    HW180526   8.745   4.880   3.218
26856SOL    HW280527   8.780   4.944   3.351
26857SOL     OW80528   8.279   3.735   2.380
26857SOL    HW180529   8.319   3.818   2.353
26857SOL    HW280530   8.185   3.753   2.381
26858SOL     OW80531   7.635   4.680   3.164
26858SOL    HW180532   7.722   4.645   3.147
26858SOL    HW280533   7.581   4.645   3.093
26859SOL     OW80534   8.980   4.740   2.063
26859SOL    HW180535   8.912   4.680   2.093
26859SOL    HW280536   9.022   4.770   2.144
26860SOL     OW80537   8.630   5.547   3.498
26860SOL    HW180538   8.630   5.608   3.425
26860SOL    HW280539   8.646   5.461   3.458
26861SOL     OW80540   7.808   3.977   3.738
26861SOL    HW180541   7.844   4.057   3.775
26861SOL    HW280542   7.713   3.992   3.734
26862SOL     OW80543   8.919   5.142   2.792
26862SOL    HW180544   8.857   5.161   2.862
26862SOL    HW280545   8.902   5.051   2.768
26863SOL     OW80546   9.084   5.523   2.423
26863SOL    HW180547   9.068   5.475   2.342
26863SOL    HW280548   9.086   5.455   2.491
26864SOL     OW80549   8.035   4.422   2.133
26864SOL    HW180550   8.039   4.510   2.096
26864SOL    HW280551   7.970   4.430   2.204
26865SOL     OW80552   8.729   4.117   2.803
26865SOL    HW180553   8.641   4.081   2.808
26865SOL    HW280554   8.782   4.059   2.858
26866SOL     OW80555   9.027   5.398   2.181
26866SOL    HW180556   9.121   5.413   2.170
26866SOL    HW280557   8.994   5.386   2.092
26867SOL     OW80558   8.239   4.337   3.293
26867SOL    HW180559   8.215   4.308   3.381
26867SOL    HW280560   8.214   4.264   3.236
26868SOL     OW80561   8.839   4.201   3.536
26868SOL    HW180562   8.844   4.244   3.621
26868SOL    HW280563   8.889   4.120   3.547
26869SOL     OW80564   8.392   4.605   3.455
26869SOL    HW180565   8.448   4.541   3.411
26869SOL    HW280566   8.343   4.647   3.385
26870SOL     OW80567   8.456   4.121   3.071
26870SOL    HW180568   8.364   4.135   3.093
26870SOL    HW280569   8.453   4.078   2.985
26871SOL     OW80570   8.506   4.421   2.280
26871SOL    HW180571   8.527   4.418   2.374
26871SOL    HW280572   8.421   4.377   2.273
26872SOL     OW80573   7.541   4.550   2.644
26872SOL    HW180574   7.623   4.544   2.694
26872SOL    HW280575   7.493   4.621   2.686
26873SOL     OW80576   7.558   5.603   3.449
26873SOL    HW180577   7.565   5.583   3.543
26873SOL    HW280578   7.471   5.570   3.425
26874SOL     OW80579   8.337   4.074   2.062
26874SOL    HW180580   8.388   4.128   2.001
26874SOL    HW280581   8.317   3.995   2.011
26875SOL     OW80582   9.135   4.288   3.702
26875SOL    HW180583   9.112   4.365   3.652
26875SOL    HW280584   9.161   4.223   3.637
26876SOL     OW80585   8.840   4.874   2.407
26876SOL    HW180586   8.920   4.862   2.355
26876SOL    HW280587   8.787   4.935   2.355
26877SOL     OW80588   7.999   3.885   2.778
26877SOL    HW180589   8.005   3.913   2.869
26877SOL    HW280590   7.995   3.966   2.728
26878SOL     OW80591   8.445   5.180   2.327
26878SOL    HW180592   8.421   5.254   2.272
26878SOL    HW280593   8.415   5.204   2.415
26879SOL     OW80594   7.801   5.540   2.741
26879SOL    HW180595   7.847   5.456   2.746
26879SOL    HW280596   7.868   5.604   2.764
26880SOL     OW80597   9.248   4.775   2.754
26880SOL    HW180598   9.199   4.764   2.673
26880SOL    HW280599   9.182   4.782   2.822
26881SOL     OW80600   8.666   5.269   3.380
26881SOL    HW180601   8.654   5.197   3.442
26881SOL    HW280602   8.596   5.256   3.316
26882SOL     OW80603   7.748   4.683   2.128
26882SOL    HW180604   7.831   4.703   2.084
26882SOL    HW280605   7.726   4.595   2.097
26883SOL     OW80606   8.930   4.485   2.572
26883SOL    HW180607   8.933   4.443   2.658
26883SOL    HW280608   9.009   4.540   2.570
26884SOL     OW80609   7.921   5.008   3.610
26884SOL    HW180610   7.897   5.012   3.517
26884SOL    HW280611   7.838   4.996   3.655
26885SOL     OW80612   8.587   5.501   2.087
26885SOL    HW180613   8.506   5.471   2.127
26885SOL    HW280614   8.607   5.436   2.020
26886SOL     OW80615   7.656   3.981   3.360
26886SOL    HW180616   7.585   4.042   3.379
26886SOL    HW280617   7.626   3.897   3.395
26887SOL     OW80618   9.071   5.116   1.959
26887SOL    HW180619   9.031   5.201   1.945
26887SOL    HW280620   9.005   5.053   1.931
26888SOL     OW80621   7.907   5.465   2.178
26888SOL    HW180622   7.955   5.516   2.243
26888SOL    HW280623   7.974   5.425   2.123
26889SOL     OW80624   8.845   3.829   2.321
26889SOL    HW180625   8.845   3.805   2.228
26889SOL    HW280626   8.935   3.814   2.350
26890SOL     OW80627   7.699   5.513   3.077
26890SOL    HW180628   7.748   5.438   3.111
26890SOL    HW280629   7.684   5.491   2.985
26891SOL     OW80630   8.397   5.426   2.752
26891SOL    HW180631   8.481   5.385   2.767
26891SOL    HW280632   8.357   5.375   2.681
26892SOL     OW80633   7.843   4.409   2.334
26892SOL    HW180634   7.855   4.315   2.347
26892SOL    HW280635   7.750   4.424   2.352
26893SOL     OW80636   8.953   3.946   3.579
26893SOL    HW180637   8.967   3.964   3.672
26893SOL    HW280638   8.887   3.876   3.578
26894SOL     OW80639   8.111   3.833   1.964
26894SOL    HW180640   8.158   3.755   1.991
26894SOL    HW280641   8.050   3.803   1.897
26895SOL     OW80642   8.207   3.997   3.614
26895SOL    HW180643   8.291   3.952   3.612
26895SOL    HW280644   8.160   3.958   3.688
26896SOL     OW80645   8.317   5.251   3.061
26896SOL    HW180646   8.299   5.210   2.977
26896SOL    HW280647   8.384   5.195   3.101
26897SOL     OW80648   8.777   4.315   3.295
26897SOL    HW180649   8.810   4.285   3.380
26897SOL    HW280650   8.816   4.402   3.283
26898SOL     OW80651   8.264   5.100   2.818
26898SOL    HW180652   8.352   5.096   2.780
26898SOL    HW280653   8.206   5.115   2.744
26899SOL     OW80654   8.378   4.239   2.750
26899SOL    HW180655   8.353   4.227   2.658
26899SOL    HW280656   8.406   4.152   2.779
26900SOL     OW80657   8.012   3.787   2.352
26900SOL    HW180658   7.934   3.788   2.408
26900SOL    HW280659   8.000   3.862   2.294
26901SOL     OW80660   8.876   4.933   1.892
26901SOL    HW180661   8.907   4.861   1.946
26901SOL    HW280662   8.791   4.956   1.930
26902SOL     OW80663   7.731   3.772   2.051
26902SOL    HW180664   7.784   3.839   2.008
26902SOL    HW280665   7.794   3.714   2.092
26903SOL     OW80666   8.400   3.974   2.313
26903SOL    HW180667   8.374   4.010   2.227
26903SOL    HW280668   8.494   3.991   2.319
26904SOL     OW80669   8.523   4.418   3.307
26904SOL    HW180670   8.460   4.347   3.311
26904SOL    HW280671   8.608   4.375   3.303
26905SOL     OW80672   8.654   5.310   2.664
26905SOL    HW180673   8.669   5.371   2.591
26905SOL    HW280674   8.728   5.325   2.723
26906SOL     OW80675   7.930   4.886   2.570
26906SOL    HW180676   7.869   4.861   2.639
26906SOL    HW280677   7.880   4.879   2.489
26907SOL     OW80678   8.699   5.515   2.479
26907SOL    HW180679   8.748   5.578   2.426
26907SOL    HW280680   8.628   5.567   2.518
26908SOL     OW80681   8.480   4.239   1.892
26908SOL    HW180682   8.437   4.323   1.873
26908SOL    HW280683   8.543   4.259   1.960
26909SOL     OW80684   7.547   4.276   3.253
26909SOL    HW180685   7.639   4.277   3.227
26909SOL    HW280686   7.540   4.345   3.319
26910SOL     OW80687   8.007   3.945   3.047
26910SOL    HW180688   8.044   3.883   3.109
26910SOL    HW280689   7.913   3.946   3.067
26911SOL     OW80690   8.318   4.178   2.492
26911SOL    HW180691   8.278   4.234   2.425
26911SOL    HW280692   8.343   4.099   2.445
26912SOL     OW80693   8.470   3.783   2.602
26912SOL    HW180694   8.409   3.777   2.528
26912SOL    HW280695   8.445   3.710   2.659
26913SOL     OW80696   8.880   4.878   2.716
26913SOL    HW180697   8.811   4.813   2.726
26913SOL    HW280698   8.895   4.884   2.622
26914SOL     OW80699   8.908   4.340   2.811
26914SOL    HW180700   8.845   4.270   2.821
26914SOL    HW280701   8.964   4.334   2.888
26915SOL     OW80702   9.277   4.518   2.248
26915SOL    HW180703   9.334   4.474   2.311
26915SOL    HW280704   9.263   4.453   2.179
26916SOL     OW80705   7.946   5.148   2.013
26916SOL    HW180706   7.870   5.117   2.063
26916SOL    HW280707   7.943   5.099   1.931
26917SOL     OW80708   9.159   4.994   2.498
26917SOL    HW180709   9.252   4.987   2.516
26917SOL    HW280710   9.136   5.083   2.523
26918SOL     OW80711   8.840   4.299   1.928
26918SOL    HW180712   8.784   4.272   2.001
26918SOL    HW280713   8.929   4.275   1.956
26919SOL     OW80714   7.975   3.981   2.164
26919SOL    HW180715   8.029   3.939   2.097
26919SOL    HW280716   7.943   4.061   2.123
26920SOL     OW80717   9.180   4.969   3.395
26920SOL    HW180718   9.267   4.932   3.381
26920SOL    HW280719   9.196   5.056   3.431
26921SOL     OW80720   8.489   5.078   3.196
26921SOL    HW180721   8.412   5.044   3.241
26921SOL    HW280722   8.563   5.034   3.237
26922SOL     OW80723   9.056   5.360   3.534
26922SOL    HW180724   9.045   5.395   3.445
26922SOL    HW280725   9.133   5.303   3.528
26923SOL     OW80726   8.599   4.961   2.967
26923SOL    HW180727   8.537   4.995   3.032
26923SOL    HW280728   8.566   4.994   2.883
26924SOL     OW80729   9.054   4.816   2.941
26924SOL    HW180730   9.046   4.883   3.009
26924SOL    HW280731   8.984   4.837   2.879
26925SOL     OW80732   8.367   3.805   3.245
26925SOL    HW180733   8.388   3.790   3.153
26925SOL    HW280734   8.446   3.846   3.281
26926SOL     OW80735   8.427   4.839   3.586
26926SOL    HW180736   8.337   4.856   3.614
26926SOL    HW280737   8.422   4.759   3.535
26927SOL     OW80738   8.162   4.786   2.238
26927SOL    HW180739   8.147   4.760   2.329
26927SOL    HW280740   8.236   4.733   2.210
26928SOL     OW80741   7.874   4.552   3.121
26928SOL    HW180742   7.942   4.561   3.188
26928SOL    HW280743   7.844   4.461   3.131
26929SOL     OW80744   8.712   4.092   3.154
26929SOL    HW180745   8.740   4.172   3.198
26929SOL    HW280746   8.623   4.110   3.124
26930SOL     OW80747   7.525   5.294   3.224
26930SOL    HW180748   7.495   5.366   3.169
26930SOL    HW280749   7.621   5.294   3.215
26931SOL     OW80750   7.765   4.859   2.348
26931SOL    HW180751   7.766   4.930   2.285
26931SOL    HW280752   7.762   4.779   2.295
26932SOL     OW80753   7.982   4.240   2.721
26932SOL    HW180754   7.995   4.298   2.646
26932SOL    HW280755   8.050   4.266   2.783
26933SOL     OW80756   8.695   5.079   2.260
26933SOL    HW180757   8.751   5.148   2.294
26933SOL    HW280758   8.607   5.102   2.291
26934SOL     OW80759   8.757   5.192   3.005
26934SOL    HW180760   8.804   5.199   3.087
26934SOL    HW280761   8.706   5.112   3.013
26935SOL     OW80762   9.021   4.342   2.346
26935SOL    HW180763   8.971   4.381   2.418
26935SOL    HW280764   9.067   4.416   2.306
26936SOL     OW80765   7.792   5.258   3.164
26936SOL    HW180766   7.785   5.205   3.084
26936SOL    HW280767   7.886   5.274   3.173
26937SOL     OW80768   7.881   4.470   3.481
26937SOL    HW180769   7.939   4.513   3.419
26937SOL    HW280770   7.925   4.387   3.501
26938SOL     OW80771   9.071   4.510   3.562
26938SOL    HW180772   8.984   4.548   3.552
26938SOL    HW280773   9.121   4.547   3.489
26939SOL     OW80774   8.443   3.865   3.620
26939SOL    HW180775   8.502   3.938   3.601
26939SOL    HW280776   8.495   3.787   3.599
26940SOL     OW80777   7.942   3.759   3.624
26940SOL    HW180778   7.887   3.709   3.564
26940SOL    HW280779   7.890   3.836   3.646
26941SOL     OW80780   8.039   4.599   2.901
26941SOL    HW180781   8.077   4.686   2.904
26941SOL    HW280782   7.981   4.595   2.977
26942SOL     OW80783   8.756   4.577   2.864
26942SOL    HW180784   8.667   4.550   2.839
26942SOL    HW280785   8.811   4.501   2.846
26943SOL     OW80786   8.646   4.247   2.119
26943SOL    HW180787   8.657   4.170   2.176
26943SOL    HW280788   8.605   4.312   2.175
26944SOL     OW80789   7.739   3.918   3.101
26944SOL    HW180790   7.704   3.947   3.185
26944SOL    HW280791   7.722   3.823   3.099
26945SOL     OW80792   7.500   5.036   3.128
26945SOL    HW180793   7.528   4.980   3.200
26945SOL    HW280794   7.501   5.125   3.164
26946SOL     OW80795   8.159   4.346   2.901
26946SOL    HW180796   8.237   4.339   2.845
26946SOL    HW280797   8.131   4.437   2.891
26947SOL     OW80798   9.193   4.690   3.735
26947SOL    HW180799   9.153   4.619   3.685
26947SOL    HW280800   9.129   4.711   3.803
26948SOL     OW80801   7.773   3.784   2.490
26948SOL    HW180802   7.739   3.872   2.508
26948SOL    HW280803   7.779   3.742   2.576
26949SOL     OW80804   9.079   4.115   2.205
26949SOL    HW180805   9.112   4.049   2.267
26949SOL    HW280806   9.049   4.187   2.261
26950SOL     OW80807   8.482   4.482   2.818
26950SOL    HW180808   8.460   4.497   2.910
26950SOL    HW280809   8.452   4.393   2.800
26951SOL     OW80810   8.428   5.290   3.595
26951SOL    HW180811   8.408   5.333   3.512
26951SOL    HW280812   8.466   5.206   3.571
26952SOL     OW80813   9.286   5.218   3.463
26952SOL    HW180814   9.312   5.246   3.375
26952SOL    HW280815   9.365   5.228   3.516
26953SOL     OW80816   7.797   4.643   3.678
26953SOL    HW180817   7.874   4.660   3.733
26953SOL    HW280818   7.828   4.580   3.613
26954SOL     OW80819   8.969   3.993   1.981
26954SOL    HW180820   8.917   3.922   2.018
26954SOL    HW280821   9.009   4.036   2.056
26955SOL     OW80822   8.728   4.545   1.881
26955SOL    HW180823   8.768   4.458   1.889
26955SOL    HW280824   8.764   4.581   1.800
26956SOL     OW80825   8.518   5.076   2.728
26956SOL    HW180826   8.529   5.004   2.667
26956SOL    HW280827   8.570   5.148   2.691
26957SOL     OW80828   7.766   4.539   2.806
26957SOL    HW180829   7.861   4.554   2.805
26957SOL    HW280830   7.756   4.449   2.837
26958SOL     OW80831   7.761   4.262   2.873
26958SOL    HW180832   7.722   4.175   2.863
26958SOL    HW280833   7.838   4.260   2.816
26959SOL     OW80834   8.586   4.091   3.548
26959SOL    HW180835   8.541   4.143   3.614
26959SOL    HW280836   8.671   4.134   3.539
26960SOL     OW80837   8.604   3.913   3.336
26960SOL    HW180838   8.593   3.975   3.408
26960SOL    HW280839   8.650   3.963   3.269
26961SOL     OW80840   7.472   5.027   2.041
26961SOL    HW180841   7.382   5.049   2.015
26961SOL    HW280842   7.465   4.941   2.082
26962SOL     OW80843   7.541   5.494   2.813
26962SOL    HW180844   7.507   5.420   2.763
26962SOL    HW280845   7.628   5.510   2.777
26963SOL     OW80846   7.933   5.294   2.762
26963SOL    HW180847   8.003   5.355   2.785
26963SOL    HW280848   7.973   5.232   2.701
26964SOL     OW80849   8.397   4.505   3.076
26964SOL    HW180850   8.459   4.494   3.148
26964SOL    HW280851   8.318   4.459   3.106
26965SOL     OW80852   7.487   4.295   2.983
26965SOL    HW180853   7.569   4.292   2.933
26965SOL    HW280854   7.515   4.288   3.074
26966SOL     OW80855   7.634   4.263   3.605
26966SOL    HW180856   7.707   4.232   3.552
26966SOL    HW280857   7.597   4.336   3.556
26967SOL     OW80858   8.837   4.644   3.513
26967SOL    HW180859   8.854   4.738   3.508
26967SOL    HW280860   8.830   4.616   3.421
26968SOL     OW80861   8.266   4.292   2.233
26968SOL    HW180862   8.275   4.218   2.174
26968SOL    HW280863   8.189   4.339   2.202
26969SOL     OW80864   9.081   4.325   3.024
26969SOL    HW180865   9.071   4.266   3.099
26969SOL    HW280866   9.171   4.313   2.996
26970SOL     OW80867   7.674   5.263   3.585
26970SOL    HW180868   7.650   5.312   3.663
26970SOL    HW280869   7.686   5.174   3.615
26971SOL     OW80870   8.182   4.157   3.095
26971SOL    HW180871   8.118   4.088   3.081
26971SOL    HW280872   8.164   4.221   3.027
26972SOL     OW80873   8.357   5.402   3.347
26972SOL    HW180874   8.333   5.355   3.267
26972SOL    HW280875   8.358   5.494   3.322
26973SOL     OW80876   7.891   4.205   2.025
26973SOL    HW180877   7.955   4.271   2.050
26973SOL    HW280878   7.807   4.251   2.029
26974SOL     OW80879   7.578   4.875   3.343
26974SOL    HW180880   7.582   4.835   3.430
26974SOL    HW280881   7.599   4.803   3.283
26975SOL     OW80882   8.751   4.757   3.070
26975SOL    HW180883   8.760   4.694   2.999
26975SOL    HW280884   8.697   4.827   3.033
26976SOL     OW80885   8.773   4.584   2.154
26976SOL    HW180886   8.703   4.548   2.208
26976SOL    HW280887   8.744   4.568   2.064
26977SOL     OW80888   9.237   5.446   3.033
26977SOL    HW180889   9.299   5.473   2.964
26977SOL    HW280890   9.205   5.361   3.004
26978SOL     OW80891   8.688   5.457   2.953
26978SOL    HW180892   8.773   5.487   2.919
26978SOL    HW280893   8.703   5.366   2.977
26979SOL     OW80894   7.555   4.971   2.871
26979SOL    HW180895   7.528   4.993   2.960
26979SOL    HW280896   7.483   4.918   2.836
26980SOL     OW80897   8.134   5.407   3.612
26980SOL    HW180898   8.071   5.478   3.599
26980SOL    HW280899   8.208   5.431   3.556
26981SOL     OW80900   9.197   3.909   2.355
26981SOL    HW180901   9.256   3.888   2.283
26981SOL    HW280902   9.168   3.824   2.389
26982SOL     OW80903   8.846   5.294   2.365
26982SOL    HW180904   8.901   5.328   2.295
26982SOL    HW280905   8.791   5.367   2.392
26983SOL     OW80906   7.583   5.531   3.706
26983SOL    HW180907   7.542   5.455   3.747
26983SOL    HW280908   7.632   5.573   3.776
26984SOL     OW80909   8.726   4.660   2.525
26984SOL    HW180910   8.800   4.600   2.539
26984SOL    HW280911   8.763   4.732   2.474
26985SOL     OW80912   8.231   5.004   3.277
26985SOL    HW180913   8.205   5.052   3.356
26985SOL    HW280914   8.156   5.014   3.217
26986SOL     OW80915   8.116   5.360   2.021
26986SOL    HW180916   8.131   5.374   1.928
26986SOL    HW280917   8.064   5.280   2.026
26987SOL     OW80918   9.065   5.454   3.263
26987SOL    HW180919   9.122   5.453   3.187
26987SOL    HW280920   9.049   5.546   3.281
26988SOL     OW80921   9.290   3.883   2.827
26988SOL    HW180922   9.320   3.795   2.806
26988SOL    HW280923   9.203   3.888   2.788
26989SOL     OW80924   7.690   4.030   2.570
26989SOL    HW180925   7.604   4.067   2.549
26989SOL    HW280926   7.694   4.032   2.665
26990SOL     OW80927   8.656   5.312   1.899
26990SOL    HW180928   8.646   5.221   1.928
26990SOL    HW280929   8.586   5.325   1.836
26991SOL     OW80930   8.271   4.735   3.247
26991SOL    HW180931   8.309   4.727   3.159
26991SOL    HW280932   8.260   4.830   3.259
26992SOL     OW80933   8.367   4.634   2.156
26992SOL    HW180934   8.424   4.667   2.086
26992SOL    HW280935   8.419   4.566   2.200
26993SOL     OW80936   8.929   5.373   1.919
26993SOL    HW180937   8.837   5.353   1.901
26993SOL    HW280938   8.970   5.376   1.832
26994SOL     OW80939   7.811   5.036   3.363
26994SOL    HW180940   7.803   5.110   3.303
26994SOL    HW280941   7.733   4.983   3.347
26995SOL     OW80942   9.046   5.015   3.139
26995SOL    HW180943   9.099   4.990   3.215
26995SOL    HW280944   8.987   5.082   3.173
26996SOL     OW80945   8.525   4.843   2.591
26996SOL    HW180946   8.449   4.794   2.622
26996SOL    HW280947   8.586   4.776   2.561
26997SOL     OW80948   8.481   3.973   2.822
26997SOL    HW180949   8.480   3.930   2.736
26997SOL    HW280950   8.474   3.901   2.885
26998SOL     OW80951   8.052   5.210   2.337
26998SOL    HW180952   8.107   5.161   2.275
26998SOL    HW280953   7.970   5.225   2.289
26999SOL     OW80954   9.190   4.104   3.251
26999SOL    HW180955   9.258   4.171   3.245
26999SOL    HW280956   9.218   4.037   3.189
27000SOL     OW80957   7.727   5.065   2.161
27000SOL    HW180958   7.640   5.058   2.122
27000SOL    HW280959   7.713   5.113   2.242
27001SOL     OW80960   7.569   4.771   3.598
27001SOL    HW180961   7.491   4.742   3.647
27001SOL    HW280962   7.641   4.720   3.635
27002SOL     OW80963   8.127   3.912   3.357
27002SOL    HW180964   8.211   3.886   3.318
27002SOL    HW280965   8.150   3.946   3.443
27003SOL     OW80966   7.534   4.041   1.876
27003SOL    HW180967   7.457   4.021   1.824
27003SOL    HW280968   7.562   4.127   1.844
27004SOL     OW80969   8.862   4.577   3.250
27004SOL    HW180970   8.810   4.636   3.195
27004SOL    HW280971   8.950   4.581   3.212
27005SOL     OW80972   7.492   3.873   2.135
27005SOL    HW180973   7.479   3.943   2.071
27005SOL    HW280974   7.580   3.841   2.118
27006SOL     OW80975   8.629   5.046   1.986
27006SOL    HW180976   8.538   5.016   1.985
27006SOL    HW280977   8.653   5.050   2.078
27007SOL     OW80978   8.074   4.555   3.303
27007SOL    HW180979   8.133   4.630   3.292
27007SOL    HW280980   8.132   4.479   3.302
27008SOL     OW80981   8.935   5.526   2.855
27008SOL    HW180982   8.961   5.600   2.800
27008SOL    HW280983   9.017   5.482   2.877
27009SOL     OW80984   8.172   4.272   3.548
27009SOL    HW180985   8.219   4.326   3.611
27009SOL    HW280986   8.183   4.182   3.580
27010SOL     OW80987   8.914   4.907   3.480
27010SOL    HW180988   8.906   4.929   3.573
27010SOL    HW280989   9.004   4.932   3.458
27011SOL     OW80990   7.802   5.471   3.441
27011SOL    HW180991   7.720   5.517   3.424
27011SOL    HW280992   7.775   5.387   3.480
27012SOL     OW80993   9.101   4.598   3.113
27012SOL    HW180994   9.099   4.515   3.065
27012SOL    HW280995   9.089   4.665   3.045
27013SOL     OW80996   8.669   4.046   2.318
27013SOL    HW180997   8.728   3.972   2.317
27013SOL    HW280998   8.697   4.098   2.393
27014SOL     OW80999   8.025   4.449   2.542
27014SOL    HW181000   8.068   4.533   2.528
27014SOL    HW281001   7.963   4.441   2.469
27015SOL     OW81002   9.190   4.080   3.526
27015SOL    HW181003   9.187   4.096   3.432
27015SOL    HW281004   9.112   4.026   3.543
27016SOL     OW81005   9.202   4.644   3.365
27016SOL    HW181006   9.189   4.739   3.377
27016SOL    HW281007   9.176   4.628   3.274
27017SOL     OW81008   8.317   5.081   1.924
27017SOL    HW181009   8.280   5.099   2.011
27017SOL    HW281010   8.328   5.167   1.884
27018SOL     OW81011   8.117   5.490   2.787
27018SOL    HW181012   8.097   5.584   2.780
27018SOL    HW281013   8.212   5.486   2.786
27019SOL     OW81014   8.320   4.701   2.718
27019SOL    HW181015   8.370   4.628   2.753
27019SOL    HW281016   8.275   4.738   2.793
27020SOL     OW81017   8.520   4.708   1.948
27020SOL    HW181018   8.500   4.762   1.872
27020SOL    HW281019   8.594   4.654   1.920
27021SOL     OW81020   9.282   5.282   2.701
27021SOL    HW181021   9.204   5.274   2.645
27021SOL    HW281022   9.261   5.229   2.778
27022SOL     OW81023   7.660   5.009   3.698
27022SOL    HW181024   7.628   4.930   3.655
27022SOL    HW281025   7.601   5.022   3.772
27023SOL     OW81026   7.565   4.950   2.530
27023SOL    HW181027   7.594   4.908   2.611
27023SOL    HW281028   7.625   4.915   2.463
27024SOL     OW81029   8.138   5.143   3.495
27024SOL    HW181030   8.061   5.104   3.537
27024SOL    HW281031   8.142   5.232   3.532
27025SOL     OW81032   9.260   3.895   3.098
27025SOL    HW181033   9.268   3.801   3.112
27025SOL    HW281034   9.271   3.906   3.003
27026SOL     OW81035   7.865   4.147   2.380
27026SOL    HW181036   7.899   4.075   2.326
27026SOL    HW281037   7.814   4.103   2.447
27027SOL     OW81038   9.143   5.204   2.943
27027SOL    HW181039   9.065   5.185   2.891
27027SOL    HW281040   9.144   5.137   3.011
27028SOL     OW81041   7.800   4.290   3.153
27028SOL    HW181042   7.849   4.225   3.204
27028SOL    HW281043   7.807   4.260   3.062
27029SOL     OW81044   8.286   5.307   2.533
27029SOL    HW181045   8.254   5.376   2.475
27029SOL    HW281046   8.211   5.248   2.543
27030SOL     OW81047   8.869   3.957   2.977
27030SOL    HW181048   8.879   3.868   3.010
27030SOL    HW281049   8.823   4.004   3.047
27031SOL     OW81050   8.458   3.741   2.981
27031SOL    HW181051   8.405   3.678   2.933
27031SOL    HW281052   8.545   3.701   2.985
27032SOL     OW81053   8.229   5.056   2.190
27032SOL    HW181054   8.204   4.964   2.202
27032SOL    HW281055   8.308   5.067   2.242
27033SOL     OW81056   8.063   5.293   3.150
27033SOL    HW181057   8.059   5.377   3.196
27033SOL    HW281058   8.153   5.289   3.117
27034SOL     OW81059   8.829   3.763   2.054
27034SOL    HW181060   8.869   3.690   2.006
27034SOL    HW281061   8.737   3.736   2.065
27035SOL     OW81062   8.746   4.195   2.537
27035SOL    HW181063   8.695   4.276   2.534
27035SOL    HW281064   8.738   4.165   2.628
27036SOL     OW81065   9.028   3.911   2.754
27036SOL    HW181066   8.976   3.940   2.829
27036SOL    HW281067   9.028   3.985   2.694
27037SOL     OW81068   7.485   4.775   2.169
27037SOL    HW181069   7.578   4.764   2.152
27037SOL    HW281070   7.453   4.687   2.190
27038SOL     OW81071   8.343   5.400   2.191
27038SOL    HW181072   8.265   5.384   2.139
27038SOL    HW281073   8.318   5.468   2.254
27039SOL     OW81074   7.656   4.344   3.871
27039SOL    HW181075   7.569   4.333   3.908
27039SOL    HW281076   7.644   4.331   3.777
27040SOL     OW81077   7.667   4.012   4.713
27040SOL    HW181078   7.698   3.976   4.797
27040SOL    HW281079   7.580   3.975   4.702
27041SOL     OW81080   7.433   4.119   4.370
27041SOL    HW181081   7.354   4.146   4.416
27041SOL    HW281082   7.406   4.046   4.315
27042SOL     OW81083   8.023   5.031   4.933
27042SOL    HW181084   7.941   5.034   4.884
27042SOL    HW281085   8.040   5.123   4.957
27043SOL     OW81086   9.038   5.248   4.429
27043SOL    HW181087   8.991   5.217   4.506
27043SOL    HW281088   8.972   5.251   4.360
27044SOL     OW81089   8.586   4.427   4.410
27044SOL    HW181090   8.632   4.510   4.398
27044SOL    HW281091   8.537   4.438   4.491
27045SOL     OW81092   9.250   4.303   3.944
27045SOL    HW181093   9.211   4.303   3.856
27045SOL    HW281094   9.205   4.232   3.990
27046SOL     OW81095   8.175   4.854   4.782
27046SOL    HW181096   8.117   4.894   4.846
27046SOL    HW281097   8.217   4.928   4.738
27047SOL     OW81098   8.335   4.466   5.551
27047SOL    HW181099   8.326   4.533   5.619
27047SOL    HW281100   8.352   4.515   5.471
27048SOL     OW81101   8.134   4.709   4.368
27048SOL    HW181102   8.201   4.709   4.436
27048SOL    HW281103   8.068   4.770   4.399
27049SOL     OW81104   8.161   4.875   5.558
27049SOL    HW181105   8.212   4.948   5.593
27049SOL    HW281106   8.085   4.917   5.517
27050SOL     OW81107   7.792   5.120   4.793
27050SOL    HW181108   7.716   5.077   4.754
27050SOL    HW281109   7.827   5.175   4.723
27051SOL     OW81110   8.901   5.231   5.096
27051SOL    HW181111   8.956   5.308   5.109
27051SOL    HW281112   8.829   5.242   5.158
27052SOL     OW81113   7.907   4.098   5.179
27052SOL    HW181114   7.981   4.040   5.195
27052SOL    HW281115   7.830   4.048   5.206
27053SOL     OW81116   9.027   4.155   4.479
27053SOL    HW181117   8.957   4.165   4.415
27053SOL    HW281118   9.011   4.226   4.542
27054SOL     OW81119   7.665   5.452   4.189
27054SOL    HW181120   7.692   5.523   4.247
27054SOL    HW281121   7.739   5.441   4.129
27055SOL     OW81122   8.582   5.066   5.420
27055SOL    HW181123   8.627   5.055   5.504
27055SOL    HW281124   8.529   4.986   5.411
27056SOL     OW81125   7.683   5.181   4.258
27056SOL    HW181126   7.660   5.274   4.262
27056SOL    HW281127   7.632   5.141   4.328
27057SOL     OW81128   7.737   4.812   4.605
27057SOL    HW181129   7.735   4.723   4.638
27057SOL    HW281130   7.679   4.861   4.664
27058SOL     OW81131   8.025   5.524   5.150
27058SOL    HW181132   7.947   5.506   5.202
27058SOL    HW281133   8.056   5.609   5.181
27059SOL     OW81134   8.014   4.711   3.876
27059SOL    HW181135   8.065   4.754   3.807
27059SOL    HW281136   8.054   4.741   3.957
27060SOL     OW81137   9.040   3.856   5.185
27060SOL    HW181138   9.078   3.933   5.142
27060SOL    HW281139   9.007   3.889   5.268
27061SOL     OW81140   7.568   4.382   4.291
27061SOL    HW181141   7.534   4.295   4.315
27061SOL    HW281142   7.561   4.433   4.372
27062SOL     OW81143   9.295   5.468   4.044
27062SOL    HW181144   9.367   5.452   4.104
27062SOL    HW281145   9.305   5.560   4.019
27063SOL     OW81146   7.508   5.304   3.833
27063SOL    HW181147   7.486   5.212   3.852
27063SOL    HW281148   7.476   5.352   3.909
27064SOL     OW81149   9.141   4.651   4.380
27064SOL    HW181150   9.226   4.610   4.366
27064SOL    HW281151   9.125   4.700   4.299
27065SOL     OW81152   9.103   4.829   4.158
27065SOL    HW181153   9.188   4.820   4.114
27065SOL    HW281154   9.119   4.894   4.227
27066SOL     OW81155   7.566   4.474   5.301
27066SOL    HW181156   7.650   4.520   5.304
27066SOL    HW281157   7.502   4.544   5.286
27067SOL     OW81158   8.072   5.122   4.455
27067SOL    HW181159   8.030   5.036   4.460
27067SOL    HW281160   8.056   5.151   4.365
27068SOL     OW81161   8.718   4.950   5.140
27068SOL    HW181162   8.745   4.880   5.080
27068SOL    HW281163   8.780   4.944   5.213
27069SOL     OW81164   8.279   3.735   4.243
27069SOL    HW181165   8.319   3.817   4.215
27069SOL    HW281166   8.185   3.753   4.243
27070SOL     OW81167   7.635   4.680   5.028
27070SOL    HW181168   7.722   4.644   5.010
27070SOL    HW281169   7.581   4.649   4.955
27071SOL     OW81170   8.980   4.740   3.925
27071SOL    HW181171   8.912   4.680   3.955
27071SOL    HW281172   9.022   4.771   4.005
27072SOL     OW81173   8.631   5.547   5.361
27072SOL    HW181174   8.630   5.608   5.287
27072SOL    HW281175   8.646   5.462   5.321
27073SOL     OW81176   7.807   3.977   5.600
27073SOL    HW181177   7.843   4.057   5.637
27073SOL    HW281178   7.713   3.992   5.596
27074SOL     OW81179   8.920   5.142   4.654
27074SOL    HW181180   8.857   5.161   4.723
27074SOL    HW281181   8.902   5.051   4.630
27075SOL     OW81182   9.084   5.523   4.285
27075SOL    HW181183   9.068   5.475   4.203
27075SOL    HW281184   9.086   5.455   4.352
27076SOL     OW81185   8.035   4.423   3.996
27076SOL    HW181186   8.038   4.511   3.957
27076SOL    HW281187   7.970   4.430   4.066
27077SOL     OW81188   8.730   4.117   4.665
27077SOL    HW181189   8.641   4.082   4.670
27077SOL    HW281190   8.782   4.058   4.721
27078SOL     OW81191   9.027   5.398   4.043
27078SOL    HW181192   9.121   5.413   4.032
27078SOL    HW281193   8.994   5.386   3.954
27079SOL     OW81194   8.240   4.337   5.155
27079SOL    HW181195   8.216   4.308   5.243
27079SOL    HW281196   8.214   4.264   5.098
27080SOL     OW81197   8.839   4.201   5.398
27080SOL    HW181198   8.844   4.244   5.483
27080SOL    HW281199   8.888   4.120   5.409
27081SOL     OW81200   8.392   4.605   5.317
27081SOL    HW181201   8.448   4.542   5.272
27081SOL    HW281202   8.343   4.648   5.246
27082SOL     OW81203   8.456   4.120   4.933
27082SOL    HW181204   8.364   4.134   4.956
27082SOL    HW281205   8.453   4.078   4.847
27083SOL     OW81206   8.506   4.421   4.142
27083SOL    HW181207   8.527   4.418   4.236
27083SOL    HW281208   8.421   4.377   4.135
27084SOL     OW81209   7.541   4.547   4.507
27084SOL    HW181210   7.623   4.543   4.557
27084SOL    HW281211   7.492   4.619   4.546
27085SOL     OW81212   7.558   5.605   5.311
27085SOL    HW181213   7.565   5.584   5.404
27085SOL    HW281214   7.470   5.575   5.286
27086SOL     OW81215   8.337   4.074   3.924
27086SOL    HW181216   8.388   4.128   3.863
27086SOL    HW281217   8.314   3.996   3.873
27087SOL     OW81218   9.135   4.288   5.564
27087SOL    HW181219   9.112   4.365   5.514
27087SOL    HW281220   9.161   4.223   5.499
27088SOL     OW81221   8.840   4.874   4.269
27088SOL    HW181222   8.920   4.863   4.217
27088SOL    HW281223   8.787   4.935   4.218
27089SOL     OW81224   7.999   3.885   4.639
27089SOL    HW181225   8.005   3.913   4.730
27089SOL    HW281226   7.994   3.966   4.589
27090SOL     OW81227   8.445   5.180   4.189
27090SOL    HW181228   8.420   5.255   4.134
27090SOL    HW281229   8.414   5.204   4.277
27091SOL     OW81230   7.802   5.540   4.601
27091SOL    HW181231   7.847   5.456   4.607
27091SOL    HW281232   7.869   5.604   4.624
27092SOL     OW81233   9.249   4.774   4.616
27092SOL    HW181234   9.199   4.763   4.535
27092SOL    HW281235   9.182   4.782   4.684
27093SOL     OW81236   8.666   5.269   5.242
27093SOL    HW181237   8.654   5.196   5.303
27093SOL    HW281238   8.596   5.258   5.178
27094SOL     OW81239   7.749   4.683   3.990
27094SOL    HW181240   7.831   4.704   3.946
27094SOL    HW281241   7.726   4.596   3.958
27095SOL     OW81242   8.931   4.485   4.434
27095SOL    HW181243   8.933   4.443   4.520
27095SOL    HW281244   9.009   4.540   4.432
27096SOL     OW81245   7.920   5.008   5.472
27096SOL    HW181246   7.896   5.013   5.379
27096SOL    HW281247   7.837   4.996   5.517
27097SOL     OW81248   8.588   5.500   3.950
27097SOL    HW181249   8.506   5.471   3.989
27097SOL    HW281250   8.607   5.435   3.883
27098SOL     OW81251   7.657   3.981   5.222
27098SOL    HW181252   7.585   4.042   5.236
27098SOL    HW281253   7.626   3.898   5.256
27099SOL     OW81254   9.071   5.116   3.821
27099SOL    HW181255   9.031   5.201   3.807
27099SOL    HW281256   9.004   5.053   3.793
27100SOL     OW81257   7.906   5.466   4.040
27100SOL    HW181258   7.955   5.516   4.105
27100SOL    HW281259   7.974   5.425   3.986
27101SOL     OW81260   8.845   3.829   4.183
27101SOL    HW181261   8.845   3.805   4.090
27101SOL    HW281262   8.935   3.814   4.211
27102SOL     OW81263   7.699   5.514   4.937
27102SOL    HW181264   7.747   5.437   4.969
27102SOL    HW281265   7.676   5.492   4.847
27103SOL     OW81266   8.397   5.427   4.614
27103SOL    HW181267   8.481   5.385   4.629
27103SOL    HW281268   8.357   5.376   4.543
27104SOL     OW81269   7.843   4.409   4.197
27104SOL    HW181270   7.856   4.315   4.210
27104SOL    HW281271   7.750   4.423   4.215
27105SOL     OW81272   8.953   3.946   5.441
27105SOL    HW181273   8.966   3.964   5.534
27105SOL    HW281274   8.886   3.877   5.439
27106SOL     OW81275   8.111   3.833   3.826
27106SOL    HW181276   8.158   3.754   3.853
27106SOL    HW281277   8.049   3.803   3.759
27107SOL     OW81278   8.207   3.997   5.476
27107SOL    HW181279   8.291   3.952   5.475
27107SOL    HW281280   8.160   3.958   5.550
27108SOL     OW81281   8.317   5.251   4.923
27108SOL    HW181282   8.299   5.210   4.839
27108SOL    HW281283   8.384   5.195   4.963
27109SOL     OW81284   8.777   4.315   5.156
27109SOL    HW181285   8.810   4.285   5.241
27109SOL    HW281286   8.815   4.402   5.145
27110SOL     OW81287   8.264   5.100   4.681
27110SOL    HW181288   8.352   5.096   4.642
27110SOL    HW281289   8.206   5.116   4.606
27111SOL     OW81290   8.379   4.239   4.612
27111SOL    HW181291   8.353   4.228   4.520
27111SOL    HW281292   8.406   4.152   4.640
27112SOL     OW81293   8.012   3.787   4.214
27112SOL    HW181294   7.934   3.788   4.270
27112SOL    HW281295   8.000   3.862   4.156
27113SOL     OW81296   8.875   4.933   3.754
27113SOL    HW181297   8.907   4.861   3.808
27113SOL    HW281298   8.790   4.956   3.792
27114SOL     OW81299   7.730   3.772   3.913
27114SOL    HW181300   7.783   3.840   3.870
27114SOL    HW281301   7.794   3.715   3.954
27115SOL     OW81302   8.400   3.974   4.175
27115SOL    HW181303   8.374   4.010   4.089
27115SOL    HW281304   8.494   3.991   4.180
27116SOL     OW81305   8.523   4.419   5.169
27116SOL    HW181306   8.459   4.348   5.173
27116SOL    HW281307   8.608   4.374   5.165
27117SOL     OW81308   8.654   5.311   4.526
27117SOL    HW181309   8.669   5.371   4.453
27117SOL    HW281310   8.728   5.326   4.585
27118SOL     OW81311   7.931   4.886   4.432
27118SOL    HW181312   7.870   4.861   4.501
27118SOL    HW281313   7.880   4.879   4.351
27119SOL     OW81314   8.699   5.516   4.341
27119SOL    HW181315   8.748   5.579   4.288
27119SOL    HW281316   8.628   5.567   4.379
27120SOL     OW81317   8.480   4.239   3.754
27120SOL    HW181318   8.437   4.322   3.735
27120SOL    HW281319   8.543   4.259   3.822
27121SOL     OW81320   7.548   4.274   5.116
27121SOL    HW181321   7.640   4.277   5.090
27121SOL    HW281322   7.540   4.344   5.181
27122SOL     OW81323   8.007   3.945   4.909
27122SOL    HW181324   8.045   3.883   4.970
27122SOL    HW281325   7.914   3.946   4.929
27123SOL     OW81326   8.318   4.178   4.354
27123SOL    HW181327   8.278   4.234   4.287
27123SOL    HW281328   8.343   4.099   4.306
27124SOL     OW81329   8.470   3.783   4.464
27124SOL    HW181330   8.409   3.777   4.390
27124SOL    HW281331   8.445   3.710   4.521
27125SOL     OW81332   8.880   4.878   4.578
27125SOL    HW181333   8.810   4.814   4.588
27125SOL    HW281334   8.894   4.884   4.483
27126SOL     OW81335   8.908   4.340   4.673
27126SOL    HW181336   8.845   4.270   4.683
27126SOL    HW281337   8.964   4.334   4.750
27127SOL     OW81338   9.279   4.518   4.109
27127SOL    HW181339   9.335   4.474   4.173
27127SOL    HW281340   9.264   4.453   4.041
27128SOL     OW81341   7.946   5.148   3.874
27128SOL    HW181342   7.871   5.117   3.925
27128SOL    HW281343   7.942   5.099   3.792
27129SOL     OW81344   9.159   4.994   4.360
27129SOL    HW181345   9.252   4.988   4.378
27129SOL    HW281346   9.135   5.084   4.385
27130SOL     OW81347   8.840   4.299   3.790
27130SOL    HW181348   8.783   4.273   3.863
27130SOL    HW281349   8.928   4.274   3.819
27131SOL     OW81350   7.975   3.981   4.026
27131SOL    HW181351   8.029   3.939   3.958
27131SOL    HW281352   7.943   4.061   3.985
27132SOL     OW81353   9.180   4.969   5.257
27132SOL    HW181354   9.267   4.932   5.243
27132SOL    HW281355   9.196   5.056   5.293
27133SOL     OW81356   8.488   5.078   5.057
27133SOL    HW181357   8.411   5.044   5.103
27133SOL    HW281358   8.562   5.034   5.099
27134SOL     OW81359   9.056   5.360   5.396
27134SOL    HW181360   9.045   5.395   5.308
27134SOL    HW281361   9.133   5.303   5.390
27135SOL     OW81362   8.599   4.962   4.829
27135SOL    HW181363   8.538   4.995   4.894
27135SOL    HW281364   8.566   4.994   4.745
27136SOL     OW81365   9.054   4.816   4.803
27136SOL    HW181366   9.046   4.883   4.871
27136SOL    HW281367   8.984   4.837   4.741
27137SOL     OW81368   8.367   3.805   5.107
27137SOL    HW181369   8.388   3.790   5.015
27137SOL    HW281370   8.446   3.846   5.143
27138SOL     OW81371   8.427   4.839   5.449
27138SOL    HW181372   8.337   4.856   5.476
27138SOL    HW281373   8.422   4.759   5.397
27139SOL     OW81374   8.162   4.786   4.100
27139SOL    HW181375   8.147   4.760   4.191
27139SOL    HW281376   8.236   4.733   4.072
27140SOL     OW81377   7.875   4.552   4.983
27140SOL    HW181378   7.942   4.561   5.050
27140SOL    HW281379   7.844   4.462   4.993
27141SOL     OW81380   8.712   4.091   5.016
27141SOL    HW181381   8.740   4.172   5.060
27141SOL    HW281382   8.623   4.109   4.986
27142SOL     OW81383   7.525   5.294   5.087
27142SOL    HW181384   7.493   5.365   5.031
27142SOL    HW281385   7.620   5.296   5.076
27143SOL     OW81386   7.765   4.859   4.211
27143SOL    HW181387   7.766   4.930   4.148
27143SOL    HW281388   7.762   4.779   4.157
27144SOL     OW81389   7.983   4.240   4.583
27144SOL    HW181390   7.995   4.298   4.508
27144SOL    HW281391   8.051   4.266   4.645
27145SOL     OW81392   8.694   5.078   4.122
27145SOL    HW181393   8.751   5.148   4.156
27145SOL    HW281394   8.607   5.102   4.153
27146SOL     OW81395   8.757   5.192   4.866
27146SOL    HW181396   8.804   5.199   4.949
27146SOL    HW281397   8.706   5.112   4.874
27147SOL     OW81398   9.020   4.342   4.208
27147SOL    HW181399   8.971   4.381   4.280
27147SOL    HW281400   9.064   4.416   4.166
27148SOL     OW81401   7.792   5.259   5.024
27148SOL    HW181402   7.785   5.205   4.945
27148SOL    HW281403   7.886   5.275   5.034
27149SOL     OW81404   7.881   4.470   5.342
27149SOL    HW181405   7.939   4.514   5.280
27149SOL    HW281406   7.924   4.387   5.362
27150SOL     OW81407   9.071   4.510   5.423
27150SOL    HW181408   8.984   4.548   5.414
27150SOL    HW281409   9.122   4.547   5.351
27151SOL     OW81410   8.443   3.864   5.483
27151SOL    HW181411   8.502   3.938   5.464
27151SOL    HW281412   8.495   3.787   5.461
27152SOL     OW81413   7.942   3.759   5.487
27152SOL    HW181414   7.887   3.709   5.426
27152SOL    HW281415   7.890   3.836   5.509
27153SOL     OW81416   8.040   4.598   4.763
27153SOL    HW181417   8.077   4.687   4.766
27153SOL    HW281418   7.982   4.595   4.839
27154SOL     OW81419   8.755   4.577   4.727
27154SOL    HW181420   8.667   4.550   4.702
27154SOL    HW281421   8.810   4.501   4.708
27155SOL     OW81422   8.646   4.247   3.981
27155SOL    HW181423   8.657   4.170   4.038
27155SOL    HW281424   8.605   4.312   4.037
27156SOL     OW81425   7.740   3.917   4.962
27156SOL    HW181426   7.705   3.946   5.047
27156SOL    HW281427   7.722   3.823   4.960
27157SOL     OW81428   7.503   5.036   4.990
27157SOL    HW181429   7.530   4.980   5.063
27157SOL    HW281430   7.502   5.125   5.026
27158SOL     OW81431   8.160   4.346   4.763
27158SOL    HW181432   8.237   4.340   4.707
27158SOL    HW281433   8.131   4.437   4.754
27159SOL     OW81434   9.193   4.690   5.597
27159SOL    HW181435   9.153   4.619   5.547
27159SOL    HW281436   9.129   4.711   5.665
27160SOL     OW81437   7.773   3.784   4.352
27160SOL    HW181438   7.739   3.872   4.370
27160SOL    HW281439   7.778   3.742   4.438
27161SOL     OW81440   9.079   4.115   4.067
27161SOL    HW181441   9.112   4.049   4.129
27161SOL    HW281442   9.049   4.187   4.123
27162SOL     OW81443   8.483   4.482   4.680
27162SOL    HW181444   8.461   4.497   4.772
27162SOL    HW281445   8.453   4.393   4.662
27163SOL     OW81446   8.428   5.290   5.457
27163SOL    HW181447   8.407   5.333   5.374
27163SOL    HW281448   8.467   5.206   5.432
27164SOL     OW81449   9.286   5.217   5.325
27164SOL    HW181450   9.312   5.246   5.237
27164SOL    HW281451   9.365   5.228   5.378
27165SOL     OW81452   7.797   4.641   5.542
27165SOL    HW181453   7.875   4.659   5.595
27165SOL    HW281454   7.828   4.579   5.475
27166SOL     OW81455   8.970   3.992   3.843
27166SOL    HW181456   8.917   3.922   3.880
27166SOL    HW281457   9.009   4.036   3.918
27167SOL     OW81458   8.729   4.545   3.744
27167SOL    HW181459   8.769   4.458   3.751
27167SOL    HW281460   8.764   4.581   3.662
27168SOL     OW81461   8.518   5.077   4.590
27168SOL    HW181462   8.529   5.004   4.529
27168SOL    HW281463   8.570   5.148   4.553
27169SOL     OW81464   7.766   4.539   4.669
27169SOL    HW181465   7.861   4.553   4.667
27169SOL    HW281466   7.756   4.449   4.700
27170SOL     OW81467   7.762   4.261   4.736
27170SOL    HW181468   7.722   4.175   4.725
27170SOL    HW281469   7.839   4.259   4.679
27171SOL     OW81470   8.586   4.091   5.410
27171SOL    HW181471   8.540   4.143   5.477
27171SOL    HW281472   8.671   4.135   5.401
27172SOL     OW81473   8.604   3.913   5.198
27172SOL    HW181474   8.592   3.975   5.270
27172SOL    HW281475   8.650   3.963   5.131
27173SOL     OW81476   7.472   5.027   3.903
27173SOL    HW181477   7.382   5.049   3.877
27173SOL    HW281478   7.465   4.941   3.944
27174SOL     OW81479   7.543   5.492   4.679
27174SOL    HW181480   7.507   5.420   4.627
27174SOL    HW281481   7.629   5.510   4.639
27175SOL     OW81482   7.933   5.294   4.624
27175SOL    HW181483   8.003   5.355   4.647
27175SOL    HW281484   7.973   5.232   4.563
27176SOL     OW81485   8.397   4.505   4.938
27176SOL    HW181486   8.459   4.494   5.010
27176SOL    HW281487   8.318   4.460   4.967
27177SOL     OW81488   7.486   4.292   4.846
27177SOL    HW181489   7.567   4.291   4.795
27177SOL    HW281490   7.515   4.286   4.937
27178SOL     OW81491   7.633   4.264   5.467
27178SOL    HW181492   7.705   4.231   5.412
27178SOL    HW281493   7.597   4.338   5.418
27179SOL     OW81494   8.837   4.644   5.375
27179SOL    HW181495   8.854   4.738   5.370
27179SOL    HW281496   8.830   4.616   5.283
27180SOL     OW81497   8.266   4.293   4.095
27180SOL    HW181498   8.274   4.218   4.036
27180SOL    HW281499   8.189   4.340   4.065
27181SOL     OW81500   9.080   4.325   4.886
27181SOL    HW181501   9.070   4.266   4.961
27181SOL    HW281502   9.171   4.313   4.858
27182SOL     OW81503   7.675   5.264   5.447
27182SOL    HW181504   7.650   5.313   5.525
27182SOL    HW281505   7.686   5.174   5.478
27183SOL     OW81506   8.182   4.157   4.958
27183SOL    HW181507   8.118   4.088   4.943
27183SOL    HW281508   8.164   4.221   4.889
27184SOL     OW81509   8.358   5.401   5.208
27184SOL    HW181510   8.333   5.355   5.128
27184SOL    HW281511   8.358   5.494   5.183
27185SOL     OW81512   7.891   4.205   3.888
27185SOL    HW181513   7.955   4.271   3.913
27185SOL    HW281514   7.807   4.250   3.891
27186SOL     OW81515   7.579   4.874   5.206
27186SOL    HW181516   7.582   4.835   5.293
27186SOL    HW281517   7.599   4.803   5.147
27187SOL     OW81518   8.751   4.757   4.932
27187SOL    HW181519   8.760   4.694   4.862
27187SOL    HW281520   8.698   4.828   4.895
27188SOL     OW81521   8.774   4.583   4.016
27188SOL    HW181522   8.703   4.549   4.070
27188SOL    HW281523   8.745   4.568   3.926
27189SOL     OW81524   9.238   5.446   4.895
27189SOL    HW181525   9.299   5.473   4.827
27189SOL    HW281526   9.205   5.361   4.866
27190SOL     OW81527   8.688   5.458   4.815
27190SOL    HW181528   8.773   5.487   4.781
27190SOL    HW281529   8.703   5.366   4.839
27191SOL     OW81530   7.557   4.968   4.734
27191SOL    HW181531   7.530   4.992   4.823
27191SOL    HW281532   7.483   4.918   4.699
27192SOL     OW81533   8.134   5.408   5.474
27192SOL    HW181534   8.069   5.477   5.461
27192SOL    HW281535   8.206   5.431   5.416
27193SOL     OW81536   9.196   3.909   4.217
27193SOL    HW181537   9.256   3.888   4.145
27193SOL    HW281538   9.168   3.824   4.251
27194SOL     OW81539   8.846   5.294   4.227
27194SOL    HW181540   8.900   5.328   4.157
27194SOL    HW281541   8.791   5.367   4.254
27195SOL     OW81542   7.582   5.530   5.567
27195SOL    HW181543   7.541   5.454   5.608
27195SOL    HW281544   7.632   5.572   5.637
27196SOL     OW81545   8.726   4.659   4.387
27196SOL    HW181546   8.800   4.600   4.400
27196SOL    HW281547   8.763   4.731   4.336
27197SOL     OW81548   8.231   5.004   5.140
27197SOL    HW181549   8.205   5.052   5.219
27197SOL    HW281550   8.156   5.014   5.080
27198SOL     OW81551   8.116   5.359   3.884
27198SOL    HW181552   8.130   5.374   3.790
27198SOL    HW281553   8.064   5.279   3.888
27199SOL     OW81554   9.065   5.453   5.125
27199SOL    HW181555   9.122   5.453   5.049
27199SOL    HW281556   9.049   5.546   5.144
27200SOL     OW81557   9.290   3.883   4.690
27200SOL    HW181558   9.320   3.795   4.668
27200SOL    HW281559   9.203   3.889   4.650
27201SOL     OW81560   7.690   4.030   4.431
27201SOL    HW181561   7.604   4.067   4.410
27201SOL    HW281562   7.694   4.032   4.527
27202SOL     OW81563   8.656   5.313   3.761
27202SOL    HW181564   8.646   5.222   3.790
27202SOL    HW281565   8.586   5.326   3.697
27203SOL     OW81566   8.271   4.736   5.109
27203SOL    HW181567   8.307   4.728   5.020
27203SOL    HW281568   8.260   4.830   5.121
27204SOL     OW81569   8.367   4.634   4.018
27204SOL    HW181570   8.425   4.667   3.949
27204SOL    HW281571   8.420   4.567   4.061
27205SOL     OW81572   8.929   5.372   3.781
27205SOL    HW181573   8.837   5.353   3.763
27205SOL    HW281574   8.970   5.376   3.694
27206SOL     OW81575   7.811   5.037   5.225
27206SOL    HW181576   7.802   5.111   5.164
27206SOL    HW281577   7.733   4.984   5.209
27207SOL     OW81578   9.046   5.015   5.001
27207SOL    HW181579   9.099   4.990   5.076
27207SOL    HW281580   8.987   5.082   5.035
27208SOL     OW81581   8.525   4.843   4.453
27208SOL    HW181582   8.449   4.794   4.485
27208SOL    HW281583   8.587   4.776   4.423
27209SOL     OW81584   8.481   3.973   4.684
27209SOL    HW181585   8.480   3.930   4.598
27209SOL    HW281586   8.474   3.901   4.747
27210SOL     OW81587   8.052   5.210   4.199
27210SOL    HW181588   8.106   5.161   4.137
27210SOL    HW281589   7.969   5.224   4.153
27211SOL     OW81590   9.191   4.104   5.113
27211SOL    HW181591   9.259   4.171   5.107
27211SOL    HW281592   9.218   4.036   5.051
27212SOL     OW81593   7.727   5.065   4.023
27212SOL    HW181594   7.640   5.058   3.984
27212SOL    HW281595   7.713   5.113   4.104
27213SOL     OW81596   7.569   4.770   5.461
27213SOL    HW181597   7.492   4.742   5.510
27213SOL    HW281598   7.641   4.719   5.498
27214SOL     OW81599   8.127   3.911   5.219
27214SOL    HW181600   8.211   3.886   5.180
27214SOL    HW281601   8.150   3.946   5.305
27215SOL     OW81602   7.535   4.041   3.737
27215SOL    HW181603   7.456   4.021   3.686
27215SOL    HW281604   7.562   4.127   3.706
27216SOL     OW81605   8.862   4.577   5.111
27216SOL    HW181606   8.810   4.636   5.057
27216SOL    HW281607   8.950   4.581   5.074
27217SOL     OW81608   7.491   3.873   3.997
27217SOL    HW181609   7.478   3.944   3.934
27217SOL    HW281610   7.580   3.841   3.980
27218SOL     OW81611   8.628   5.047   3.847
27218SOL    HW181612   8.536   5.019   3.846
27218SOL    HW281613   8.651   5.050   3.940
27219SOL     OW81614   8.074   4.555   5.165
27219SOL    HW181615   8.133   4.630   5.154
27219SOL    HW281616   8.132   4.479   5.164
27220SOL     OW81617   8.935   5.526   4.717
27220SOL    HW181618   8.960   5.600   4.662
27220SOL    HW281619   9.017   5.482   4.738
27221SOL     OW81620   8.173   4.271   5.410
27221SOL    HW181621   8.219   4.326   5.474
27221SOL    HW281622   8.183   4.182   5.442
27222SOL     OW81623   8.915   4.907   5.342
27222SOL    HW181624   8.906   4.929   5.435
27222SOL    HW281625   9.004   4.932   5.320
27223SOL     OW81626   7.801   5.471   5.303
27223SOL    HW181627   7.720   5.518   5.285
27223SOL    HW281628   7.774   5.388   5.341
27224SOL     OW81629   9.101   4.599   4.975
27224SOL    HW181630   9.099   4.516   4.927
27224SOL    HW281631   9.089   4.665   4.907
27225SOL     OW81632   8.669   4.046   4.180
27225SOL    HW181633   8.728   3.972   4.179
27225SOL    HW281634   8.697   4.098   4.255
27226SOL     OW81635   8.025   4.449   4.404
27226SOL    HW181636   8.068   4.533   4.390
27226SOL    HW281637   7.964   4.441   4.332
27227SOL     OW81638   9.190   4.080   5.389
27227SOL    HW181639   9.187   4.095   5.294
27227SOL    HW281640   9.112   4.026   5.406
27228SOL     OW81641   9.202   4.644   5.227
27228SOL    HW181642   9.189   4.738   5.239
27228SOL    HW281643   9.176   4.628   5.136
27229SOL     OW81644   8.320   5.081   3.788
27229SOL    HW181645   8.281   5.098   3.874
27229SOL    HW281646   8.328   5.167   3.747
27230SOL     OW81647   8.117   5.490   4.649
27230SOL    HW181648   8.097   5.584   4.642
27230SOL    HW281649   8.212   5.486   4.648
27231SOL     OW81650   8.321   4.702   4.580
27231SOL    HW181651   8.370   4.628   4.615
27231SOL    HW281652   8.275   4.738   4.656
27232SOL     OW81653   8.522   4.709   3.811
27232SOL    HW181654   8.500   4.763   3.735
27232SOL    HW281655   8.595   4.655   3.782
27233SOL     OW81656   9.281   5.283   4.564
27233SOL    HW181657   9.204   5.275   4.507
27233SOL    HW281658   9.259   5.230   4.641
27234SOL     OW81659   7.659   5.010   5.560
27234SOL    HW181660   7.628   4.930   5.517
27234SOL    HW281661   7.600   5.022   5.634
27235SOL     OW81662   7.565   4.952   4.392
27235SOL    HW181663   7.591   4.909   4.473
27235SOL    HW281664   7.624   4.916   4.326
27236SOL     OW81665   8.139   5.143   5.359
27236SOL    HW181666   8.061   5.104   5.399
27236SOL    HW281667   8.142   5.232   5.395
27237SOL     OW81668   9.261   3.895   4.960
27237SOL    HW181669   9.268   3.801   4.974
27237SOL    HW281670   9.272   3.906   4.865
27238SOL     OW81671   7.866   4.146   4.243
27238SOL    HW181672   7.899   4.075   4.188
27238SOL    HW281673   7.814   4.102   4.309
27239SOL     OW81674   9.144   5.204   4.805
27239SOL    HW181675   9.065   5.185   4.753
27239SOL    HW281676   9.144   5.137   4.873
27240SOL     OW81677   7.800   4.290   5.016
27240SOL    HW181678   7.850   4.225   5.065
27240SOL    HW281679   7.807   4.261   4.925
27241SOL     OW81680   8.286   5.307   4.395
27241SOL    HW181681   8.254   5.376   4.337
27241SOL    HW281682   8.211   5.248   4.405
27242SOL     OW81683   8.869   3.957   4.839
27242SOL    HW181684   8.878   3.867   4.872
27242SOL    HW281685   8.823   4.003   4.909
27243SOL     OW81686   8.458   3.741   4.843
27243SOL    HW181687   8.405   3.679   4.795
27243SOL    HW281688   8.545   3.701   4.847
27244SOL     OW81689   8.228   5.056   4.052
27244SOL    HW181690   8.204   4.964   4.064
27244SOL    HW281691   8.307   5.067   4.104
27245SOL     OW81692   8.064   5.292   5.013
27245SOL    HW181693   8.059   5.375   5.061
27245SOL    HW281694   8.153   5.289   4.979
27246SOL     OW81695   8.828   3.763   3.916
27246SOL    HW181696   8.869   3.690   3.868
27246SOL    HW281697   8.737   3.736   3.927
27247SOL     OW81698   8.746   4.195   4.399
27247SOL    HW181699   8.696   4.276   4.396
27247SOL    HW281700   8.738   4.165   4.490
27248SOL     OW81701   9.028   3.911   4.616
27248SOL    HW181702   8.976   3.940   4.691
27248SOL    HW281703   9.028   3.985   4.556
27249SOL     OW81704   7.485   4.776   4.032
27249SOL    HW181705   7.579   4.764   4.014
27249SOL    HW281706   7.454   4.688   4.053
27250SOL     OW81707   8.343   5.400   4.053
27250SOL    HW181708   8.265   5.384   4.001
27250SOL    HW281709   8.318   5.468   4.116
27251SOL     OW81710   7.656   4.344   5.734
27251SOL    HW181711   7.568   4.333   5.770
27251SOL    HW281712   7.644   4.332   5.640
27252SOL     OW81713   7.667   4.012   6.575
27252SOL    HW181714   7.697   3.977   6.659
27252SOL    HW281715   7.579   3.975   6.564
27253SOL     OW81716   7.434   4.119   6.232
27253SOL    HW181717   7.355   4.145   6.278
27253SOL    HW281718   7.407   4.045   6.177
27254SOL     OW81719   8.023   5.032   6.795
27254SOL    HW181720   7.941   5.035   6.746
27254SOL    HW281721   8.040   5.123   6.819
27255SOL     OW81722   9.038   5.248   6.291
27255SOL    HW181723   8.991   5.217   6.368
27255SOL    HW281724   8.972   5.251   6.222
27256SOL     OW81725   8.586   4.427   6.272
27256SOL    HW181726   8.632   4.510   6.260
27256SOL    HW281727   8.537   4.438   6.354
27257SOL     OW81728   9.250   4.303   5.806
27257SOL    HW181729   9.211   4.303   5.719
27257SOL    HW281730   9.205   4.231   5.852
27258SOL     OW81731   8.175   4.854   6.644
27258SOL    HW181732   8.117   4.895   6.708
27258SOL    HW281733   8.217   4.928   6.600
27259SOL     OW81734   8.335   4.466   7.413
27259SOL    HW181735   8.327   4.533   7.481
27259SOL    HW281736   8.352   4.515   7.333
27260SOL     OW81737   8.134   4.709   6.230
27260SOL    HW181738   8.201   4.709   6.298
27260SOL    HW281739   8.068   4.771   6.261
27261SOL     OW81740   8.160   4.875   7.420
27261SOL    HW181741   8.212   4.947   7.454
27261SOL    HW281742   8.085   4.917   7.379
27262SOL     OW81743   7.791   5.120   6.655
27262SOL    HW181744   7.715   5.077   6.615
27262SOL    HW281745   7.827   5.175   6.586
27263SOL     OW81746   8.901   5.231   6.958
27263SOL    HW181747   8.956   5.308   6.970
27263SOL    HW281748   8.829   5.242   7.020
27264SOL     OW81749   7.907   4.099   7.041
27264SOL    HW181750   7.981   4.040   7.057
27264SOL    HW281751   7.830   4.048   7.068
27265SOL     OW81752   9.027   4.156   6.341
27265SOL    HW181753   8.957   4.165   6.276
27265SOL    HW281754   9.011   4.226   6.404
27266SOL     OW81755   7.666   5.452   6.050
27266SOL    HW181756   7.693   5.523   6.108
27266SOL    HW281757   7.739   5.442   5.990
27267SOL     OW81758   8.583   5.065   7.282
27267SOL    HW181759   8.628   5.055   7.366
27267SOL    HW281760   8.530   4.986   7.273
27268SOL     OW81761   7.681   5.182   6.119
27268SOL    HW181762   7.660   5.275   6.122
27268SOL    HW281763   7.630   5.144   6.191
27269SOL     OW81764   7.734   4.813   6.465
27269SOL    HW181765   7.734   4.723   6.499
27269SOL    HW281766   7.677   4.861   6.525
27270SOL     OW81767   8.023   5.526   7.009
27270SOL    HW181768   7.946   5.507   7.062
27270SOL    HW281769   8.055   5.610   7.042
27271SOL     OW81770   8.014   4.711   5.738
27271SOL    HW181771   8.065   4.754   5.669
27271SOL    HW281772   8.055   4.741   5.819
27272SOL     OW81773   9.040   3.855   7.047
27272SOL    HW181774   9.078   3.932   7.004
27272SOL    HW281775   9.007   3.889   7.130
27273SOL     OW81776   7.568   4.381   6.154
27273SOL    HW181777   7.535   4.294   6.177
27273SOL    HW281778   7.561   4.432   6.235
27274SOL     OW81779   9.295   5.468   5.906
27274SOL    HW181780   9.368   5.452   5.966
27274SOL    HW281781   9.305   5.560   5.881
27275SOL     OW81782   7.508   5.304   5.696
27275SOL    HW181783   7.486   5.212   5.714
27275SOL    HW281784   7.476   5.352   5.772
27276SOL     OW81785   9.141   4.651   6.242
27276SOL    HW181786   9.226   4.610   6.228
27276SOL    HW281787   9.125   4.700   6.161
27277SOL     OW81788   9.103   4.829   6.021
27277SOL    HW181789   9.188   4.820   5.976
27277SOL    HW281790   9.119   4.893   6.089
27278SOL     OW81791   7.568   4.474   7.164
27278SOL    HW181792   7.652   4.518   7.166
27278SOL    HW281793   7.504   4.544   7.149
27279SOL     OW81794   8.070   5.122   6.317
27279SOL    HW181795   8.029   5.036   6.322
27279SOL    HW281796   8.055   5.151   6.227
27280SOL     OW81797   8.718   4.950   7.003
27280SOL    HW181798   8.745   4.880   6.942
27280SOL    HW281799   8.780   4.944   7.075
27281SOL     OW81800   8.279   3.735   6.105
27281SOL    HW181801   8.319   3.817   6.077
27281SOL    HW281802   8.185   3.753   6.105
27282SOL     OW81803   7.635   4.680   6.889
27282SOL    HW181804   7.722   4.645   6.872
27282SOL    HW281805   7.582   4.649   6.815
27283SOL     OW81806   8.980   4.740   5.787
27283SOL    HW181807   8.912   4.679   5.817
27283SOL    HW281808   9.022   4.771   5.868
27284SOL     OW81809   8.629   5.546   7.222
27284SOL    HW181810   8.629   5.608   7.149
27284SOL    HW281811   8.644   5.461   7.182
27285SOL     OW81812   7.807   3.977   7.462
27285SOL    HW181813   7.843   4.057   7.500
27285SOL    HW281814   7.713   3.992   7.458
27286SOL     OW81815   8.919   5.143   6.515
27286SOL    HW181816   8.857   5.161   6.585
27286SOL    HW281817   8.902   5.052   6.491
27287SOL     OW81818   9.084   5.523   6.147
27287SOL    HW181819   9.068   5.475   6.065
27287SOL    HW281820   9.086   5.455   6.214
27288SOL     OW81821   8.035   4.424   5.858
27288SOL    HW181822   8.038   4.511   5.819
27288SOL    HW281823   7.970   4.431   5.928
27289SOL     OW81824   8.730   4.117   6.527
27289SOL    HW181825   8.641   4.082   6.532
27289SOL    HW281826   8.782   4.059   6.583
27290SOL     OW81827   9.027   5.398   5.905
27290SOL    HW181828   9.121   5.413   5.894
27290SOL    HW281829   8.994   5.386   5.816
27291SOL     OW81830   8.239   4.337   7.017
27291SOL    HW181831   8.215   4.308   7.105
27291SOL    HW281832   8.214   4.264   6.960
27292SOL     OW81833   8.839   4.201   7.260
27292SOL    HW181834   8.844   4.244   7.345
27292SOL    HW281835   8.888   4.120   7.271
27293SOL     OW81836   8.392   4.605   7.179
27293SOL    HW181837   8.448   4.541   7.134
27293SOL    HW281838   8.343   4.647   7.108
27294SOL     OW81839   8.455   4.121   6.795
27294SOL    HW181840   8.363   4.134   6.818
27294SOL    HW281841   8.453   4.078   6.709
27295SOL     OW81842   8.506   4.421   6.004
27295SOL    HW181843   8.527   4.418   6.098
27295SOL    HW281844   8.421   4.377   5.997
27296SOL     OW81845   7.541   4.545   6.370
27296SOL    HW181846   7.623   4.542   6.420
27296SOL    HW281847   7.492   4.618   6.409
27297SOL     OW81848   7.558   5.604   7.173
27297SOL    HW181849   7.564   5.584   7.266
27297SOL    HW281850   7.472   5.570   7.147
27298SOL     OW81851   8.337   4.074   5.786
27298SOL    HW181852   8.388   4.129   5.726
27298SOL    HW281853   8.314   3.997   5.735
27299SOL     OW81854   9.135   4.288   7.427
27299SOL    HW181855   9.112   4.366   7.376
27299SOL    HW281856   9.160   4.223   7.361
27300SOL     OW81857   8.840   4.874   6.130
27300SOL    HW181858   8.920   4.862   6.078
27300SOL    HW281859   8.787   4.935   6.079
27301SOL     OW81860   7.999   3.885   6.501
27301SOL    HW181861   8.005   3.914   6.592
27301SOL    HW281862   7.995   3.966   6.450
27302SOL     OW81863   8.445   5.180   6.051
27302SOL    HW181864   8.420   5.254   5.995
27302SOL    HW281865   8.415   5.205   6.138
27303SOL     OW81866   7.802   5.540   6.465
27303SOL    HW181867   7.847   5.456   6.470
27303SOL    HW281868   7.869   5.605   6.487
27304SOL     OW81869   9.249   4.774   6.478
27304SOL    HW181870   9.199   4.763   6.397
27304SOL    HW281871   9.182   4.782   6.546
27305SOL     OW81872   8.665   5.268   7.103
27305SOL    HW181873   8.654   5.196   7.166
27305SOL    HW281874   8.598   5.253   7.037
27306SOL     OW81875   7.748   4.684   5.851
27306SOL    HW181876   7.831   4.705   5.808
27306SOL    HW281877   7.724   4.597   5.817
27307SOL     OW81878   8.931   4.485   6.296
27307SOL    HW181879   8.933   4.443   6.382
27307SOL    HW281880   9.009   4.540   6.294
27308SOL     OW81881   7.920   5.009   7.334
27308SOL    HW181882   7.896   5.013   7.242
27308SOL    HW281883   7.837   4.996   7.380
27309SOL     OW81884   8.588   5.499   5.813
27309SOL    HW181885   8.506   5.470   5.851
27309SOL    HW281886   8.607   5.435   5.745
27310SOL     OW81887   7.657   3.980   7.084
27310SOL    HW181888   7.585   4.041   7.099
27310SOL    HW281889   7.626   3.897   7.118
27311SOL     OW81890   9.071   5.116   5.684
27311SOL    HW181891   9.031   5.201   5.669
27311SOL    HW281892   9.004   5.053   5.656
27312SOL     OW81893   7.907   5.466   5.901
27312SOL    HW181894   7.956   5.517   5.966
27312SOL    HW281895   7.974   5.425   5.846
27313SOL     OW81896   8.845   3.829   6.045
27313SOL    HW181897   8.845   3.805   5.952
27313SOL    HW281898   8.935   3.814   6.073
27314SOL     OW81899   7.699   5.513   6.800
27314SOL    HW181900   7.747   5.437   6.832
27314SOL    HW281901   7.680   5.492   6.708
27315SOL     OW81902   8.397   5.426   6.475
27315SOL    HW181903   8.482   5.385   6.489
27315SOL    HW281904   8.357   5.376   6.404
27316SOL     OW81905   7.844   4.409   6.059
27316SOL    HW181906   7.856   4.315   6.072
27316SOL    HW281907   7.751   4.423   6.076
27317SOL     OW81908   8.953   3.946   7.303
27317SOL    HW181909   8.966   3.964   7.396
27317SOL    HW281910   8.887   3.877   7.301
27318SOL     OW81911   8.111   3.833   5.688
27318SOL    HW181912   8.159   3.754   5.714
27318SOL    HW281913   8.049   3.803   5.621
27319SOL     OW81914   8.207   3.997   7.338
27319SOL    HW181915   8.291   3.952   7.337
27319SOL    HW281916   8.160   3.958   7.412
27320SOL     OW81917   8.317   5.251   6.785
27320SOL    HW181918   8.299   5.210   6.701
27320SOL    HW281919   8.384   5.196   6.825
27321SOL     OW81920   8.777   4.315   7.018
27321SOL    HW181921   8.810   4.285   7.103
27321SOL    HW281922   8.815   4.402   7.007
27322SOL     OW81923   8.264   5.100   6.542
27322SOL    HW181924   8.351   5.096   6.503
27322SOL    HW281925   8.205   5.116   6.468
27323SOL     OW81926   8.378   4.239   6.474
27323SOL    HW181927   8.353   4.228   6.382
27323SOL    HW281928   8.406   4.152   6.502
27324SOL     OW81929   8.012   3.787   6.076
27324SOL    HW181930   7.934   3.787   6.132
27324SOL    HW281931   8.000   3.862   6.018
27325SOL     OW81932   8.875   4.933   5.616
27325SOL    HW181933   8.906   4.861   5.671
27325SOL    HW281934   8.790   4.956   5.653
27326SOL     OW81935   7.730   3.772   5.774
27326SOL    HW181936   7.782   3.840   5.731
27326SOL    HW281937   7.794   3.715   5.815
27327SOL     OW81938   8.400   3.974   6.037
27327SOL    HW181939   8.374   4.009   5.952
27327SOL    HW281940   8.494   3.991   6.042
27328SOL     OW81941   8.523   4.418   7.031
27328SOL    HW181942   8.459   4.347   7.035
27328SOL    HW281943   8.608   4.374   7.027
27329SOL     OW81944   8.653   5.312   6.389
27329SOL    HW181945   8.668   5.372   6.316
27329SOL    HW281946   8.728   5.326   6.447
27330SOL     OW81947   7.930   4.885   6.294
27330SOL    HW181948   7.868   4.861   6.363
27330SOL    HW281949   7.880   4.879   6.213
27331SOL     OW81950   8.699   5.516   6.203
27331SOL    HW181951   8.748   5.578   6.150
27331SOL    HW281952   8.628   5.567   6.242
27332SOL     OW81953   8.479   4.239   5.616
27332SOL    HW181954   8.437   4.323   5.597
27332SOL    HW281955   8.543   4.260   5.684
27333SOL     OW81956   7.548   4.274   6.979
27333SOL    HW181957   7.640   4.277   6.952
27333SOL    HW281958   7.541   4.344   7.044
27334SOL     OW81959   8.007   3.945   6.770
27334SOL    HW181960   8.045   3.881   6.831
27334SOL    HW281961   7.914   3.946   6.790
27335SOL     OW81962   8.318   4.178   6.216
27335SOL    HW181963   8.278   4.234   6.149
27335SOL    HW281964   8.343   4.099   6.168
27336SOL     OW81965   8.470   3.783   6.326
27336SOL    HW181966   8.409   3.778   6.253
27336SOL    HW281967   8.445   3.710   6.383
27337SOL     OW81968   8.881   4.879   6.440
27337SOL    HW181969   8.810   4.814   6.449
27337SOL    HW281970   8.896   4.885   6.345
27338SOL     OW81971   8.909   4.340   6.535
27338SOL    HW181972   8.845   4.270   6.545
27338SOL    HW281973   8.964   4.334   6.612
27339SOL     OW81974   9.279   4.518   5.972
27339SOL    HW181975   9.335   4.473   6.035
27339SOL    HW281976   9.264   4.454   5.903
27340SOL     OW81977   7.946   5.148   5.736
27340SOL    HW181978   7.871   5.116   5.786
27340SOL    HW281979   7.941   5.100   5.653
27341SOL     OW81980   9.158   4.993   6.223
27341SOL    HW181981   9.252   4.987   6.241
27341SOL    HW281982   9.135   5.083   6.247
27342SOL     OW81983   8.840   4.299   5.652
27342SOL    HW181984   8.783   4.273   5.724
27342SOL    HW281985   8.928   4.274   5.681
27343SOL     OW81986   7.975   3.981   5.888
27343SOL    HW181987   8.028   3.939   5.820
27343SOL    HW281988   7.943   4.061   5.847
27344SOL     OW81989   9.180   4.969   7.119
27344SOL    HW181990   9.267   4.932   7.106
27344SOL    HW281991   9.196   5.056   7.155
27345SOL     OW81992   8.489   5.079   6.921
27345SOL    HW181993   8.412   5.045   6.966
27345SOL    HW281994   8.563   5.034   6.961
27346SOL     OW81995   9.056   5.360   7.258
27346SOL    HW181996   9.045   5.395   7.170
27346SOL    HW281997   9.133   5.303   7.252
27347SOL     OW81998   8.599   4.962   6.691
27347SOL    HW181999   8.537   4.996   6.756
27347SOL    HW282000   8.566   4.994   6.607
27348SOL     OW82001   9.053   4.815   6.665
27348SOL    HW182002   9.046   4.882   6.733
27348SOL    HW282003   8.984   4.837   6.602
27349SOL     OW82004   8.367   3.805   6.969
27349SOL    HW182005   8.388   3.790   6.877
27349SOL    HW282006   8.446   3.846   7.005
27350SOL     OW82007   8.427   4.839   7.310
27350SOL    HW182008   8.337   4.856   7.338
27350SOL    HW282009   8.423   4.759   7.259
27351SOL     OW82010   8.162   4.786   5.962
27351SOL    HW182011   8.147   4.760   6.053
27351SOL    HW282012   8.237   4.733   5.934
27352SOL     OW82013   7.874   4.552   6.846
27352SOL    HW182014   7.943   4.562   6.913
27352SOL    HW282015   7.844   4.462   6.855
27353SOL     OW82016   8.712   4.091   6.878
27353SOL    HW182017   8.740   4.172   6.922
27353SOL    HW282018   8.623   4.109   6.848
27354SOL     OW82019   7.525   5.293   6.949
27354SOL    HW182020   7.494   5.364   6.892
27354SOL    HW282021   7.620   5.294   6.938
27355SOL     OW82022   7.765   4.859   6.072
27355SOL    HW182023   7.766   4.930   6.009
27355SOL    HW282024   7.762   4.779   6.019
27356SOL     OW82025   7.982   4.240   6.446
27356SOL    HW182026   7.995   4.298   6.371
27356SOL    HW282027   8.051   4.266   6.508
27357SOL     OW82028   8.694   5.078   5.984
27357SOL    HW182029   8.751   5.148   6.018
27357SOL    HW282030   8.607   5.102   6.014
27358SOL     OW82031   8.757   5.192   6.728
27358SOL    HW182032   8.805   5.199   6.811
27358SOL    HW282033   8.707   5.112   6.736
27359SOL     OW82034   9.020   4.342   6.070
27359SOL    HW182035   8.971   4.381   6.142
27359SOL    HW282036   9.063   4.416   6.028
27360SOL     OW82037   7.792   5.258   6.887
27360SOL    HW182038   7.785   5.205   6.807
27360SOL    HW282039   7.886   5.274   6.897
27361SOL     OW82040   7.881   4.470   7.204
27361SOL    HW182041   7.939   4.514   7.142
27361SOL    HW282042   7.924   4.387   7.224
27362SOL     OW82043   9.071   4.510   7.286
27362SOL    HW182044   8.984   4.548   7.276
27362SOL    HW282045   9.122   4.547   7.213
27363SOL     OW82046   8.443   3.864   7.345
27363SOL    HW182047   8.502   3.938   7.326
27363SOL    HW282048   8.495   3.787   7.323
27364SOL     OW82049   7.942   3.759   7.349
27364SOL    HW182050   7.888   3.709   7.288
27364SOL    HW282051   7.890   3.836   7.371
27365SOL     OW82052   8.041   4.599   6.626
27365SOL    HW182053   8.078   4.687   6.628
27365SOL    HW282054   7.982   4.595   6.701
27366SOL     OW82055   8.756   4.577   6.590
27366SOL    HW182056   8.667   4.550   6.564
27366SOL    HW282057   8.810   4.501   6.570
27367SOL     OW82058   8.647   4.247   5.843
27367SOL    HW182059   8.657   4.170   5.900
27367SOL    HW282060   8.605   4.312   5.899
27368SOL     OW82061   7.740   3.917   6.824
27368SOL    HW182062   7.706   3.946   6.909
27368SOL    HW282063   7.723   3.823   6.822
27369SOL     OW82064   7.498   5.035   6.852
27369SOL    HW182065   7.528   4.980   6.925
27369SOL    HW282066   7.500   5.124   6.888
27370SOL     OW82067   8.160   4.346   6.626
27370SOL    HW182068   8.238   4.340   6.569
27370SOL    HW282069   8.131   4.437   6.616
27371SOL     OW82070   9.193   4.690   7.459
27371SOL    HW182071   9.153   4.619   7.409
27371SOL    HW282072   9.129   4.711   7.527
27372SOL     OW82073   7.773   3.783   6.214
27372SOL    HW182074   7.739   3.871   6.232
27372SOL    HW282075   7.779   3.742   6.300
27373SOL     OW82076   9.079   4.114   5.929
27373SOL    HW182077   9.112   4.049   5.991
27373SOL    HW282078   9.049   4.187   5.985
27374SOL     OW82079   8.482   4.482   6.542
27374SOL    HW182080   8.461   4.497   6.634
27374SOL    HW282081   8.452   4.393   6.524
27375SOL     OW82082   8.428   5.289   7.321
27375SOL    HW182083   8.407   5.333   7.238
27375SOL    HW282084   8.467   5.206   7.294
27376SOL     OW82085   9.286   5.218   7.187
27376SOL    HW182086   9.312   5.246   7.099
27376SOL    HW282087   9.365   5.228   7.240
27377SOL     OW82088   7.797   4.641   7.403
27377SOL    HW182089   7.875   4.659   7.456
27377SOL    HW282090   7.828   4.579   7.337
27378SOL     OW82091   8.969   3.992   5.705
27378SOL    HW182092   8.917   3.922   5.742
27378SOL    HW282093   9.009   4.036   5.780
27379SOL     OW82094   8.729   4.545   5.606
27379SOL    HW182095   8.769   4.458   5.613
27379SOL    HW282096   8.764   4.581   5.524
27380SOL     OW82097   8.518   5.077   6.453
27380SOL    HW182098   8.529   5.004   6.391
27380SOL    HW282099   8.569   5.148   6.415
27381SOL     OW82100   7.766   4.540   6.531
27381SOL    HW182101   7.861   4.554   6.528
27381SOL    HW282102   7.757   4.449   6.562
27382SOL     OW82103   7.762   4.262   6.598
27382SOL    HW182104   7.722   4.175   6.587
27382SOL    HW282105   7.839   4.260   6.541
27383SOL     OW82106   8.586   4.091   7.272
27383SOL    HW182107   8.540   4.143   7.338
27383SOL    HW282108   8.671   4.134   7.263
27384SOL     OW82109   8.604   3.913   7.060
27384SOL    HW182110   8.592   3.975   7.132
27384SOL    HW282111   8.650   3.963   6.993
27385SOL     OW82112   7.472   5.027   5.765
27385SOL    HW182113   7.382   5.049   5.740
27385SOL    HW282114   7.464   4.941   5.806
27386SOL     OW82115   7.543   5.493   6.540
27386SOL    HW182116   7.508   5.420   6.488
27386SOL    HW282117   7.629   5.511   6.501
27387SOL     OW82118   7.933   5.294   6.487
27387SOL    HW182119   8.004   5.355   6.510
27387SOL    HW282120   7.973   5.232   6.426
27388SOL     OW82121   8.397   4.505   6.800
27388SOL    HW182122   8.459   4.493   6.872
27388SOL    HW282123   8.318   4.459   6.829
27389SOL     OW82124   7.486   4.293   6.708
27389SOL    HW182125   7.567   4.292   6.657
27389SOL    HW282126   7.515   4.287   6.799
27390SOL     OW82127   7.634   4.263   7.329
27390SOL    HW182128   7.706   4.230   7.275
27390SOL    HW282129   7.599   4.337   7.280
27391SOL     OW82130   8.837   4.644   7.237
27391SOL    HW182131   8.854   4.738   7.232
27391SOL    HW282132   8.830   4.616   7.145
27392SOL     OW82133   8.266   4.293   5.958
27392SOL    HW182134   8.274   4.219   5.898
27392SOL    HW282135   8.189   4.341   5.927
27393SOL     OW82136   9.080   4.325   6.748
27393SOL    HW182137   9.070   4.266   6.823
27393SOL    HW282138   9.171   4.313   6.720
27394SOL     OW82139   7.674   5.264   7.309
27394SOL    HW182140   7.650   5.313   7.388
27394SOL    HW282141   7.686   5.174   7.340
27395SOL     OW82142   8.182   4.157   6.820
27395SOL    HW182143   8.118   4.088   6.805
27395SOL    HW282144   8.164   4.221   6.751
27396SOL     OW82145   8.353   5.403   7.074
27396SOL    HW182146   8.331   5.356   6.995
27396SOL    HW282147   8.355   5.495   7.047
27397SOL     OW82148   7.891   4.205   5.751
27397SOL    HW182149   7.955   4.272   5.775
27397SOL    HW282150   7.807   4.250   5.754
27398SOL     OW82151   7.578   4.874   7.067
27398SOL    HW182152   7.582   4.835   7.154
27398SOL    HW282153   7.599   4.803   7.007
27399SOL     OW82154   8.750   4.758   6.795
27399SOL    HW182155   8.760   4.694   6.724
27399SOL    HW282156   8.697   4.828   6.757
27400SOL     OW82157   8.774   4.583   5.878
27400SOL    HW182158   8.703   4.549   5.932
27400SOL    HW282159   8.745   4.568   5.788
27401SOL     OW82160   9.238   5.446   6.758
27401SOL    HW182161   9.299   5.473   6.689
27401SOL    HW282162   9.205   5.361   6.728
27402SOL     OW82163   8.689   5.458   6.679
27402SOL    HW182164   8.773   5.488   6.644
27402SOL    HW282165   8.703   5.366   6.702
27403SOL     OW82166   7.555   4.969   6.596
27403SOL    HW182167   7.526   4.992   6.685
27403SOL    HW282168   7.483   4.917   6.560
27404SOL     OW82169   8.135   5.408   7.335
27404SOL    HW182170   8.071   5.478   7.322
27404SOL    HW282171   8.207   5.430   7.276
27405SOL     OW82172   9.197   3.909   6.079
27405SOL    HW182173   9.256   3.888   6.007
27405SOL    HW282174   9.168   3.824   6.113
27406SOL     OW82175   8.846   5.294   6.090
27406SOL    HW182176   8.900   5.328   6.019
27406SOL    HW282177   8.790   5.367   6.115
27407SOL     OW82178   7.581   5.530   7.430
27407SOL    HW182179   7.541   5.454   7.471
27407SOL    HW282180   7.631   5.572   7.500
27408SOL     OW82181   8.726   4.660   6.250
27408SOL    HW182182   8.800   4.600   6.263
27408SOL    HW282183   8.763   4.732   6.198
27409SOL     OW82184   8.231   5.004   7.001
27409SOL    HW182185   8.205   5.052   7.080
27409SOL    HW282186   8.157   5.015   6.941
27410SOL     OW82187   8.116   5.359   5.745
27410SOL    HW182188   8.130   5.374   5.652
27410SOL    HW282189   8.064   5.279   5.749
27411SOL     OW82190   9.065   5.453   6.987
27411SOL    HW182191   9.122   5.453   6.911
27411SOL    HW282192   9.049   5.546   7.006
27412SOL     OW82193   9.290   3.883   6.552
27412SOL    HW182194   9.320   3.795   6.531
27412SOL    HW282195   9.203   3.889   6.513
27413SOL     OW82196   7.691   4.030   6.294
27413SOL    HW182197   7.605   4.066   6.272
27413SOL    HW282198   7.695   4.032   6.389
27414SOL     OW82199   8.656   5.313   5.623
27414SOL    HW182200   8.646   5.222   5.651
27414SOL    HW282201   8.587   5.326   5.559
27415SOL     OW82202   8.271   4.736   6.971
27415SOL    HW182203   8.308   4.727   6.883
27415SOL    HW282204   8.260   4.830   6.983
27416SOL     OW82205   8.368   4.635   5.881
27416SOL    HW182206   8.425   4.668   5.811
27416SOL    HW282207   8.420   4.567   5.924
27417SOL     OW82208   8.929   5.373   5.643
27417SOL    HW182209   8.837   5.353   5.625
27417SOL    HW282210   8.970   5.376   5.556
27418SOL     OW82211   7.811   5.037   7.088
27418SOL    HW182212   7.803   5.110   7.026
27418SOL    HW282213   7.733   4.984   7.071
27419SOL     OW82214   9.045   5.015   6.863
27419SOL    HW182215   9.099   4.990   6.938
27419SOL    HW282216   8.987   5.082   6.897
27420SOL     OW82217   8.526   4.843   6.316
27420SOL    HW182218   8.449   4.794   6.347
27420SOL    HW282219   8.587   4.777   6.285
27421SOL     OW82220   8.481   3.973   6.546
27421SOL    HW182221   8.480   3.931   6.461
27421SOL    HW282222   8.474   3.901   6.609
27422SOL     OW82223   8.052   5.211   6.062
27422SOL    HW182224   8.107   5.162   6.000
27422SOL    HW282225   7.970   5.226   6.015
27423SOL     OW82226   9.191   4.104   6.975
27423SOL    HW182227   9.259   4.171   6.969
27423SOL    HW282228   9.218   4.036   6.913
27424SOL     OW82229   7.728   5.065   5.885
27424SOL    HW182230   7.641   5.058   5.845
27424SOL    HW282231   7.713   5.113   5.966
27425SOL     OW82232   7.569   4.771   7.323
27425SOL    HW182233   7.492   4.742   7.371
27425SOL    HW282234   7.641   4.719   7.359
27426SOL     OW82235   8.127   3.912   7.081
27426SOL    HW182236   8.211   3.887   7.042
27426SOL    HW282237   8.150   3.946   7.168
27427SOL     OW82238   7.534   4.042   5.598
27427SOL    HW182239   7.457   4.022   5.546
27427SOL    HW282240   7.562   4.128   5.568
27428SOL     OW82241   8.862   4.577   6.974
27428SOL    HW182242   8.810   4.636   6.919
27428SOL    HW282243   8.950   4.581   6.936
27429SOL     OW82244   7.491   3.873   5.858
27429SOL    HW182245   7.477   3.943   5.795
27429SOL    HW282246   7.579   3.841   5.841
27430SOL     OW82247   8.627   5.047   5.708
27430SOL    HW182248   8.535   5.022   5.707
27430SOL    HW282249   8.650   5.049   5.801
27431SOL     OW82250   8.074   4.555   7.027
27431SOL    HW182251   8.133   4.630   7.016
27431SOL    HW282252   8.132   4.479   7.027
27432SOL     OW82253   8.934   5.526   6.579
27432SOL    HW182254   8.960   5.601   6.524
27432SOL    HW282255   9.017   5.481   6.598
27433SOL     OW82256   8.172   4.272   7.272
27433SOL    HW182257   8.219   4.326   7.336
27433SOL    HW282258   8.183   4.182   7.304
27434SOL     OW82259   8.915   4.907   7.204
27434SOL    HW182260   8.907   4.929   7.297
27434SOL    HW282261   9.004   4.932   7.181
27435SOL     OW82262   7.802   5.471   7.166
27435SOL    HW182263   7.720   5.518   7.147
27435SOL    HW282264   7.774   5.388   7.203
27436SOL     OW82265   9.101   4.598   6.837
27436SOL    HW182266   9.099   4.515   6.789
27436SOL    HW282267   9.088   4.665   6.769
27437SOL     OW82268   8.669   4.046   6.042
27437SOL    HW182269   8.728   3.972   6.041
27437SOL    HW282270   8.697   4.098   6.117
27438SOL     OW82271   8.025   4.450   6.267
27438SOL    HW182272   8.068   4.534   6.252
27438SOL    HW282273   7.963   4.441   6.194
27439SOL     OW82274   9.190   4.080   7.251
27439SOL    HW182275   9.188   4.095   7.156
27439SOL    HW282276   9.112   4.026   7.268
27440SOL     OW82277   9.202   4.644   7.089
27440SOL    HW182278   9.190   4.738   7.101
27440SOL    HW282279   9.176   4.628   6.998
27441SOL     OW82280   8.323   5.081   5.651
27441SOL    HW182281   8.282   5.099   5.735
27441SOL    HW282282   8.329   5.167   5.608
27442SOL     OW82283   8.117   5.490   6.513
27442SOL    HW182284   8.097   5.583   6.504
27442SOL    HW282285   8.213   5.486   6.510
27443SOL     OW82286   8.320   4.702   6.442
27443SOL    HW182287   8.370   4.628   6.477
27443SOL    HW282288   8.275   4.738   6.518
27444SOL     OW82289   8.521   4.708   5.673
27444SOL    HW182290   8.500   4.762   5.597
27444SOL    HW282291   8.595   4.654   5.644
27445SOL     OW82292   9.281   5.283   6.425
27445SOL    HW182293   9.205   5.275   6.369
27445SOL    HW282294   9.261   5.229   6.502
27446SOL     OW82295   7.659   5.010   7.422
27446SOL    HW182296   7.628   4.930   7.379
27446SOL    HW282297   7.600   5.022   7.496
27447SOL     OW82298   7.564   4.949   6.253
27447SOL    HW182299   7.593   4.907   6.334
27447SOL    HW282300   7.623   4.916   6.186
27448SOL     OW82301   8.139   5.143   7.220
27448SOL    HW182302   8.061   5.104   7.261
27448SOL    HW282303   8.143   5.231   7.256
27449SOL     OW82304   9.261   3.895   6.822
27449SOL    HW182305   9.268   3.800   6.836
27449SOL    HW282306   9.272   3.906   6.728
27450SOL     OW82307   7.867   4.146   6.105
27450SOL    HW182308   7.900   4.075   6.050
27450SOL    HW282309   7.814   4.102   6.172
27451SOL     OW82310   9.143   5.204   6.667
27451SOL    HW182311   9.065   5.185   6.615
27451SOL    HW282312   9.143   5.137   6.735
27452SOL     OW82313   7.800   4.290   6.878
27452SOL    HW182314   7.850   4.225   6.927
27452SOL    HW282315   7.807   4.261   6.787
27453SOL     OW82316   8.286   5.309   6.255
27453SOL    HW182317   8.256   5.380   6.197
27453SOL    HW282318   8.210   5.251   6.263
27454SOL     OW82319   8.869   3.957   6.701
27454SOL    HW182320   8.878   3.867   6.733
27454SOL    HW282321   8.823   4.003   6.771
27455SOL     OW82322   8.458   3.741   6.705
27455SOL    HW182323   8.405   3.678   6.657
27455SOL    HW282324   8.545   3.701   6.709
27456SOL     OW82325   8.228   5.056   5.914
27456SOL    HW182326   8.203   4.964   5.926
27456SOL    HW282327   8.308   5.067   5.966
27457SOL     OW82328   8.063   5.293   6.875
27457SOL    HW182329   8.059   5.377   6.921
27457SOL    HW282330   8.153   5.289   6.841
27458SOL     OW82331   8.828   3.763   5.778
27458SOL    HW182332   8.869   3.690   5.730
27458SOL    HW282333   8.737   3.736   5.789
27459SOL     OW82334   8.746   4.195   6.261
27459SOL    HW182335   8.696   4.276   6.258
27459SOL    HW282336   8.738   4.165   6.352
27460SOL     OW82337   9.028   3.911   6.478
27460SOL    HW182338   8.976   3.941   6.553
27460SOL    HW282339   9.028   3.985   6.418
27461SOL     OW82340   7.485   4.776   5.896
27461SOL    HW182341   7.578   4.765   5.877
27461SOL    HW282342   7.454   4.688   5.916
27462SOL     OW82343   8.343   5.400   5.915
27462SOL    HW182344   8.265   5.384   5.863
27462SOL    HW282345   8.317   5.468   5.977
27463SOL     OW82346   7.655   4.345   7.596
27463SOL    HW182347   7.568   4.333   7.632
27463SOL    HW282348   7.645   4.332   7.502
27464SOL     OW82349   7.667   4.013   8.438
27464SOL    HW182350   7.697   3.977   8.521
27464SOL    HW282351   7.579   3.975   8.426
27465SOL     OW82352   7.436   4.119   8.094
27465SOL    HW182353   7.356   4.145   8.141
27465SOL    HW282354   7.408   4.046   8.039
27466SOL     OW82355   8.023   5.032   8.657
27466SOL    HW182356   7.941   5.035   8.608
27466SOL    HW282357   8.040   5.123   8.680
27467SOL     OW82358   9.038   5.248   8.153
27467SOL    HW182359   8.991   5.217   8.230
27467SOL    HW282360   8.972   5.251   8.084
27468SOL     OW82361   8.586   4.427   8.134
27468SOL    HW182362   8.632   4.511   8.122
27468SOL    HW282363   8.537   4.438   8.216
27469SOL     OW82364   9.250   4.303   7.668
27469SOL    HW182365   9.210   4.304   7.581
27469SOL    HW282366   9.205   4.231   7.714
27470SOL     OW82367   8.175   4.854   8.505
27470SOL    HW182368   8.116   4.894   8.570
27470SOL    HW282369   8.217   4.928   8.461
27471SOL     OW82370   8.336   4.468   9.275
27471SOL    HW182371   8.337   4.536   9.342
27471SOL    HW282372   8.351   4.515   9.193
27472SOL     OW82373   8.133   4.709   8.092
27472SOL    HW182374   8.201   4.709   8.160
27472SOL    HW282375   8.067   4.771   8.123
27473SOL     OW82376   8.160   4.876   9.273
27473SOL    HW182377   8.212   4.949   9.307
27473SOL    HW282378   8.083   4.917   9.235
27474SOL     OW82379   7.791   5.121   8.517
27474SOL    HW182380   7.715   5.078   8.477
27474SOL    HW282381   7.827   5.176   8.448
27475SOL     OW82382   8.901   5.231   8.819
27475SOL    HW182383   8.956   5.309   8.830
27475SOL    HW282384   8.830   5.243   8.882
27476SOL     OW82385   7.906   4.098   8.904
27476SOL    HW182386   7.981   4.040   8.919
27476SOL    HW282387   7.830   4.046   8.930
27477SOL     OW82388   9.027   4.155   8.203
27477SOL    HW182389   8.958   4.165   8.138
27477SOL    HW282390   9.011   4.226   8.266
27478SOL     OW82391   7.666   5.452   7.912
27478SOL    HW182392   7.693   5.523   7.971
27478SOL    HW282393   7.740   5.441   7.852
27479SOL     OW82394   8.582   5.067   9.141
27479SOL    HW182395   8.625   5.057   9.226
27479SOL    HW282396   8.531   4.987   9.132
27480SOL     OW82397   7.680   5.182   7.981
27480SOL    HW182398   7.659   5.275   7.984
27480SOL    HW282399   7.629   5.144   8.053
27481SOL     OW82400   7.732   4.813   8.326
27481SOL    HW182401   7.733   4.724   8.360
27481SOL    HW282402   7.676   4.861   8.387
27482SOL     OW82403   8.022   5.528   8.867
27482SOL    HW182404   7.946   5.508   8.922
27482SOL    HW282405   8.055   5.611   8.902
27483SOL     OW82406   8.014   4.712   7.600
27483SOL    HW182407   8.065   4.754   7.531
27483SOL    HW282408   8.054   4.741   7.682
27484SOL     OW82409   9.039   3.856   8.905
27484SOL    HW182410   9.076   3.934   8.864
27484SOL    HW282411   9.005   3.888   8.989
27485SOL     OW82412   7.567   4.382   8.015
27485SOL    HW182413   7.535   4.295   8.039
27485SOL    HW282414   7.561   4.433   8.096
27486SOL     OW82415   9.295   5.468   7.769
27486SOL    HW182416   9.368   5.452   7.828
27486SOL    HW282417   9.305   5.560   7.743
27487SOL     OW82418   7.507   5.304   7.559
27487SOL    HW182419   7.486   5.213   7.577
27487SOL    HW282420   7.476   5.352   7.635
27488SOL     OW82421   9.141   4.651   8.104
27488SOL    HW182422   9.226   4.610   8.090
27488SOL    HW282423   9.125   4.700   8.023
27489SOL     OW82424   9.103   4.829   7.883
27489SOL    HW182425   9.188   4.820   7.838
27489SOL    HW282426   9.119   4.893   7.951
27490SOL     OW82427   7.569   4.473   9.026
27490SOL    HW182428   7.653   4.517   9.030
27490SOL    HW282429   7.505   4.544   9.013
27491SOL     OW82430   8.070   5.122   8.179
27491SOL    HW182431   8.029   5.036   8.183
27491SOL    HW282432   8.055   5.151   8.089
27492SOL     OW82433   8.718   4.950   8.865
27492SOL    HW182434   8.746   4.881   8.805
27492SOL    HW282435   8.780   4.945   8.938
27493SOL     OW82436   8.279   3.735   7.967
27493SOL    HW182437   8.319   3.817   7.939
27493SOL    HW282438   8.185   3.753   7.967
27494SOL     OW82439   7.635   4.680   8.750
27494SOL    HW182440   7.722   4.645   8.733
27494SOL    HW282441   7.582   4.647   8.677
27495SOL     OW82442   8.980   4.740   7.649
27495SOL    HW182443   8.912   4.679   7.679
27495SOL    HW282444   9.022   4.770   7.730
27496SOL     OW82445   8.625   5.547   9.084
27496SOL    HW182446   8.627   5.609   9.011
27496SOL    HW282447   8.643   5.462   9.044
27497SOL     OW82448   7.808   3.977   9.323
27497SOL    HW182449   7.845   4.056   9.363
27497SOL    HW282450   7.714   3.994   9.319
27498SOL     OW82451   8.919   5.143   8.378
27498SOL    HW182452   8.856   5.161   8.447
27498SOL    HW282453   8.902   5.052   8.354
27499SOL     OW82454   9.084   5.523   8.009
27499SOL    HW182455   9.069   5.475   7.927
27499SOL    HW282456   9.086   5.455   8.076
27500SOL     OW82457   8.035   4.423   7.720
27500SOL    HW182458   8.038   4.511   7.681
27500SOL    HW282459   7.970   4.431   7.790
27501SOL     OW82460   8.729   4.117   8.389
27501SOL    HW182461   8.641   4.081   8.394
27501SOL    HW282462   8.782   4.058   8.445
27502SOL     OW82463   9.027   5.398   7.767
27502SOL    HW182464   9.121   5.413   7.756
27502SOL    HW282465   8.994   5.386   7.678
27503SOL     OW82466   8.237   4.337   8.879
27503SOL    HW182467   8.214   4.308   8.968
27503SOL    HW282468   8.213   4.264   8.823
27504SOL     OW82469   8.839   4.199   9.118
27504SOL    HW182470   8.843   4.243   9.204
27504SOL    HW282471   8.888   4.118   9.131
27505SOL     OW82472   8.392   4.604   9.039
27505SOL    HW182473   8.448   4.541   8.995
27505SOL    HW282474   8.344   4.647   8.969
27506SOL     OW82475   8.455   4.121   8.657
27506SOL    HW182476   8.363   4.135   8.680
27506SOL    HW282477   8.453   4.078   8.572
27507SOL     OW82478   8.506   4.421   7.866
27507SOL    HW182479   8.527   4.418   7.960
27507SOL    HW282480   8.421   4.377   7.859
27508SOL     OW82481   7.540   4.547   8.232
27508SOL    HW182482   7.623   4.543   8.281
27508SOL    HW282483   7.492   4.619   8.272
27509SOL     OW82484   7.558   5.603   9.040
27509SOL    HW182485   7.567   5.581   9.133
27509SOL    HW282486   7.473   5.568   9.016
27510SOL     OW82487   8.337   4.074   7.648
27510SOL    HW182488   8.388   4.129   7.588
27510SOL    HW282489   8.315   3.996   7.597
27511SOL     OW82490   9.130   4.286   9.285
27511SOL    HW182491   9.109   4.365   9.235
27511SOL    HW282492   9.157   4.222   9.219
27512SOL     OW82493   8.840   4.874   7.992
27512SOL    HW182494   8.920   4.862   7.941
27512SOL    HW282495   8.787   4.935   7.941
27513SOL     OW82496   7.999   3.885   8.363
27513SOL    HW182497   8.005   3.913   8.454
27513SOL    HW282498   7.995   3.966   8.312
27514SOL     OW82499   8.445   5.180   7.913
27514SOL    HW182500   8.421   5.254   7.858
27514SOL    HW282501   8.415   5.204   8.001
27515SOL     OW82502   7.802   5.540   8.328
27515SOL    HW182503   7.847   5.456   8.332
27515SOL    HW282504   7.869   5.605   8.349
27516SOL     OW82505   9.249   4.774   8.340
27516SOL    HW182506   9.199   4.763   8.259
27516SOL    HW282507   9.182   4.782   8.408
27517SOL     OW82508   8.666   5.269   8.964
27517SOL    HW182509   8.654   5.197   9.027
27517SOL    HW282510   8.598   5.255   8.898
27518SOL     OW82511   7.748   4.683   7.713
27518SOL    HW182512   7.831   4.704   7.670
27518SOL    HW282513   7.725   4.597   7.679
27519SOL     OW82514   8.930   4.485   8.158
27519SOL    HW182515   8.933   4.443   8.244
27519SOL    HW282516   9.009   4.540   8.156
27520SOL     OW82517   7.919   5.010   9.196
27520SOL    HW182518   7.895   5.014   9.103
27520SOL    HW282519   7.836   5.001   9.242
27521SOL     OW82520   8.588   5.500   7.675
27521SOL    HW182521   8.505   5.470   7.713
27521SOL    HW282522   8.607   5.435   7.607
27522SOL     OW82523   7.656   3.979   8.947
27522SOL    HW182524   7.584   4.040   8.964
27522SOL    HW282525   7.626   3.895   8.982
27523SOL     OW82526   9.071   5.116   7.546
27523SOL    HW182527   9.031   5.201   7.531
27523SOL    HW282528   9.005   5.053   7.518
27524SOL     OW82529   7.907   5.466   7.763
27524SOL    HW182530   7.956   5.516   7.828
27524SOL    HW282531   7.974   5.425   7.708
27525SOL     OW82532   8.845   3.829   7.907
27525SOL    HW182533   8.845   3.805   7.814
27525SOL    HW282534   8.935   3.814   7.935
27526SOL     OW82535   7.699   5.512   8.662
27526SOL    HW182536   7.748   5.437   8.696
27526SOL    HW282537   7.685   5.492   8.570
27527SOL     OW82538   8.396   5.426   8.338
27527SOL    HW182539   8.481   5.385   8.352
27527SOL    HW282540   8.357   5.376   8.267
27528SOL     OW82541   7.843   4.409   7.921
27528SOL    HW182542   7.856   4.315   7.933
27528SOL    HW282543   7.750   4.424   7.938
27529SOL     OW82544   8.952   3.943   9.163
27529SOL    HW182545   8.965   3.964   9.255
27529SOL    HW282546   8.889   3.872   9.163
27530SOL     OW82547   8.111   3.833   7.551
27530SOL    HW182548   8.159   3.754   7.576
27530SOL    HW282549   8.049   3.803   7.484
27531SOL     OW82550   8.205   3.997   9.202
27531SOL    HW182551   8.290   3.952   9.201
27531SOL    HW282552   8.159   3.959   9.277
27532SOL     OW82553   8.317   5.251   8.647
27532SOL    HW182554   8.299   5.210   8.563
27532SOL    HW282555   8.384   5.196   8.687
27533SOL     OW82556   8.778   4.316   8.879
27533SOL    HW182557   8.810   4.285   8.963
27533SOL    HW282558   8.816   4.403   8.868
27534SOL     OW82559   8.264   5.100   8.404
27534SOL    HW182560   8.351   5.096   8.366
27534SOL    HW282561   8.206   5.116   8.330
27535SOL     OW82562   8.378   4.239   8.336
27535SOL    HW182563   8.353   4.227   8.244
27535SOL    HW282564   8.405   4.152   8.364
27536SOL     OW82565   8.012   3.787   7.938
27536SOL    HW182566   7.934   3.787   7.994
27536SOL    HW282567   8.000   3.862   7.880
27537SOL     OW82568   8.876   4.933   7.478
27537SOL    HW182569   8.907   4.861   7.532
27537SOL    HW282570   8.790   4.956   7.516
27538SOL     OW82571   7.730   3.772   7.636
27538SOL    HW182572   7.782   3.839   7.593
27538SOL    HW282573   7.794   3.714   7.677
27539SOL     OW82574   8.400   3.974   7.899
27539SOL    HW182575   8.374   4.010   7.813
27539SOL    HW282576   8.494   3.991   7.904
27540SOL     OW82577   8.523   4.417   8.892
27540SOL    HW182578   8.461   4.345   8.897
27540SOL    HW282579   8.609   4.375   8.888
27541SOL     OW82580   8.653   5.311   8.251
27541SOL    HW182581   8.668   5.371   8.178
27541SOL    HW282582   8.728   5.326   8.309
27542SOL     OW82583   7.930   4.885   8.156
27542SOL    HW182584   7.868   4.861   8.224
27542SOL    HW282585   7.880   4.879   8.074
27543SOL     OW82586   8.699   5.516   8.065
27543SOL    HW182587   8.748   5.578   8.012
27543SOL    HW282588   8.628   5.567   8.104
27544SOL     OW82589   8.480   4.239   7.478
27544SOL    HW182590   8.437   4.323   7.459
27544SOL    HW282591   8.543   4.260   7.546
27545SOL     OW82592   7.548   4.275   8.840
27545SOL    HW182593   7.640   4.277   8.813
27545SOL    HW282594   7.540   4.344   8.905
27546SOL     OW82595   8.007   3.945   8.633
27546SOL    HW182596   8.044   3.880   8.693
27546SOL    HW282597   7.913   3.946   8.653
27547SOL     OW82598   8.318   4.178   8.078
27547SOL    HW182599   8.278   4.234   8.011
27547SOL    HW282600   8.343   4.099   8.030
27548SOL     OW82601   8.470   3.783   8.188
27548SOL    HW182602   8.409   3.777   8.114
27548SOL    HW282603   8.445   3.710   8.245
27549SOL     OW82604   8.881   4.878   8.302
27549SOL    HW182605   8.811   4.814   8.311
27549SOL    HW282606   8.896   4.884   8.208
27550SOL     OW82607   8.908   4.340   8.397
27550SOL    HW182608   8.845   4.270   8.407
27550SOL    HW282609   8.964   4.334   8.474
27551SOL     OW82610   9.279   4.518   7.834
27551SOL    HW182611   9.335   4.473   7.897
27551SOL    HW282612   9.264   4.453   7.765
27552SOL     OW82613   7.946   5.148   7.598
27552SOL    HW182614   7.871   5.116   7.648
27552SOL    HW282615   7.942   5.100   7.515
27553SOL     OW82616   9.158   4.994   8.085
27553SOL    HW182617   9.252   4.987   8.102
27553SOL    HW282618   9.135   5.083   8.109
27554SOL     OW82619   8.840   4.299   7.514
27554SOL    HW182620   8.784   4.272   7.586
27554SOL    HW282621   8.928   4.274   7.542
27555SOL     OW82622   7.975   3.981   7.750
27555SOL    HW182623   8.029   3.939   7.683
27555SOL    HW282624   7.943   4.061   7.709
27556SOL     OW82625   9.180   4.968   8.980
27556SOL    HW182626   9.268   4.931   8.968
27556SOL    HW282627   9.195   5.055   9.017
27557SOL     OW82628   8.489   5.079   8.783
27557SOL    HW182629   8.412   5.045   8.828
27557SOL    HW282630   8.563   5.034   8.823
27558SOL     OW82631   9.056   5.360   9.112
27558SOL    HW182632   9.048   5.395   9.024
27558SOL    HW282633   9.132   5.303   9.109
27559SOL     OW82634   8.599   4.962   8.553
27559SOL    HW182635   8.537   4.996   8.618
27559SOL    HW282636   8.566   4.994   8.469
27560SOL     OW82637   9.054   4.816   8.527
27560SOL    HW182638   9.047   4.883   8.595
27560SOL    HW282639   8.984   4.837   8.465
27561SOL     OW82640   8.366   3.806   8.831
27561SOL    HW182641   8.387   3.790   8.738
27561SOL    HW282642   8.445   3.846   8.867
27562SOL     OW82643   8.429   4.838   9.171
27562SOL    HW182644   8.339   4.856   9.197
27562SOL    HW282645   8.425   4.758   9.120
27563SOL     OW82646   8.162   4.786   7.824
27563SOL    HW182647   8.147   4.760   7.915
27563SOL    HW282648   8.237   4.733   7.796
27564SOL     OW82649   7.874   4.552   8.707
27564SOL    HW182650   7.942   4.562   8.774
27564SOL    HW282651   7.844   4.462   8.717
27565SOL     OW82652   8.712   4.091   8.740
27565SOL    HW182653   8.740   4.172   8.783
27565SOL    HW282654   8.623   4.110   8.710
27566SOL     OW82655   7.526   5.293   8.809
27566SOL    HW182656   7.496   5.365   8.753
27566SOL    HW282657   7.621   5.294   8.799
27567SOL     OW82658   7.765   4.859   7.934
27567SOL    HW182659   7.766   4.930   7.870
27567SOL    HW282660   7.763   4.779   7.880
27568SOL     OW82661   7.982   4.241   8.307
27568SOL    HW182662   7.994   4.299   8.232
27568SOL    HW282663   8.050   4.266   8.369
27569SOL     OW82664   8.695   5.078   7.846
27569SOL    HW182665   8.751   5.148   7.880
27569SOL    HW282666   8.607   5.102   7.877
27570SOL     OW82667   8.757   5.192   8.590
27570SOL    HW182668   8.804   5.199   8.673
27570SOL    HW282669   8.706   5.112   8.598
27571SOL     OW82670   9.020   4.341   7.933
27571SOL    HW182671   8.971   4.381   8.004
27571SOL    HW282672   9.064   4.415   7.890
27572SOL     OW82673   7.793   5.257   8.750
27572SOL    HW182674   7.785   5.204   8.670
27572SOL    HW282675   7.886   5.273   8.759
27573SOL     OW82676   7.880   4.470   9.066
27573SOL    HW182677   7.938   4.514   9.004
27573SOL    HW282678   7.925   4.388   9.087
27574SOL     OW82679   9.070   4.512   9.150
27574SOL    HW182680   8.983   4.549   9.139
27574SOL    HW282681   9.121   4.549   9.077
27575SOL     OW82682   8.443   3.867   9.210
27575SOL    HW182683   8.501   3.940   9.189
27575SOL    HW282684   8.493   3.788   9.187
27576SOL     OW82685   7.944   3.759   9.211
27576SOL    HW182686   7.890   3.709   9.149
27576SOL    HW282687   7.892   3.836   9.232
27577SOL     OW82688   8.040   4.599   8.487
27577SOL    HW182689   8.078   4.687   8.490
27577SOL    HW282690   7.982   4.595   8.563
27578SOL     OW82691   8.756   4.577   8.451
27578SOL    HW182692   8.667   4.550   8.425
27578SOL    HW282693   8.810   4.501   8.432
27579SOL     OW82694   8.647   4.247   7.705
27579SOL    HW182695   8.657   4.170   7.762
27579SOL    HW282696   8.605   4.312   7.761
27580SOL     OW82697   7.739   3.917   8.687
27580SOL    HW182698   7.705   3.945   8.772
27580SOL    HW282699   7.723   3.823   8.685
27581SOL     OW82700   7.497   5.035   8.714
27581SOL    HW182701   7.527   4.980   8.786
27581SOL    HW282702   7.500   5.124   8.749
27582SOL     OW82703   8.160   4.346   8.487
27582SOL    HW182704   8.237   4.339   8.432
27582SOL    HW282705   8.131   4.437   8.478
27583SOL     OW82706   9.197   4.693   9.321
27583SOL    HW182707   9.152   4.622   9.275
27583SOL    HW282708   9.137   4.717   9.392
27584SOL     OW82709   7.773   3.783   8.077
27584SOL    HW182710   7.740   3.871   8.095
27584SOL    HW282711   7.779   3.742   8.163
27585SOL     OW82712   9.079   4.114   7.791
27585SOL    HW182713   9.112   4.049   7.853
27585SOL    HW282714   9.049   4.186   7.847
27586SOL     OW82715   8.482   4.482   8.404
27586SOL    HW182716   8.460   4.497   8.496
27586SOL    HW282717   8.452   4.393   8.386
27587SOL     OW82718   8.427   5.291   9.180
27587SOL    HW182719   8.407   5.334   9.097
27587SOL    HW282720   8.467   5.207   9.155
27588SOL     OW82721   9.287   5.216   9.048
27588SOL    HW182722   9.313   5.245   8.961
27588SOL    HW282723   9.365   5.228   9.102
27589SOL     OW82724   7.798   4.639   9.267
27589SOL    HW182725   7.877   4.660   9.317
27589SOL    HW282726   7.827   4.577   9.200
27590SOL     OW82727   8.969   3.993   7.567
27590SOL    HW182728   8.917   3.922   7.604
27590SOL    HW282729   9.009   4.036   7.642
27591SOL     OW82730   8.729   4.545   7.468
27591SOL    HW182731   8.769   4.458   7.475
27591SOL    HW282732   8.764   4.581   7.386
27592SOL     OW82733   8.518   5.077   8.315
27592SOL    HW182734   8.529   5.004   8.253
27592SOL    HW282735   8.569   5.148   8.277
27593SOL     OW82736   7.766   4.540   8.392
27593SOL    HW182737   7.861   4.554   8.390
27593SOL    HW282738   7.756   4.450   8.423
27594SOL     OW82739   7.761   4.262   8.459
27594SOL    HW182740   7.722   4.175   8.449
27594SOL    HW282741   7.838   4.260   8.403
27595SOL     OW82742   8.586   4.092   9.133
27595SOL    HW182743   8.540   4.144   9.199
27595SOL    HW282744   8.671   4.134   9.123
27596SOL     OW82745   8.603   3.914   8.922
27596SOL    HW182746   8.592   3.976   8.994
27596SOL    HW282747   8.650   3.963   8.854
27597SOL     OW82748   7.472   5.027   7.628
27597SOL    HW182749   7.382   5.049   7.602
27597SOL    HW282750   7.465   4.941   7.668
27598SOL     OW82751   7.541   5.494   8.399
27598SOL    HW182752   7.507   5.421   8.348
27598SOL    HW282753   7.628   5.511   8.362
27599SOL     OW82754   7.933   5.294   8.349
27599SOL    HW182755   8.004   5.354   8.372
27599SOL    HW282756   7.973   5.232   8.288
27600SOL     OW82757   8.396   4.505   8.662
27600SOL    HW182758   8.458   4.493   8.734
27600SOL    HW282759   8.317   4.460   8.691
27601SOL     OW82760   7.487   4.294   8.569
27601SOL    HW182761   7.568   4.292   8.519
27601SOL    HW282762   7.516   4.288   8.661
27602SOL     OW82763   7.636   4.259   9.187
27602SOL    HW182764   7.708   4.228   9.132
27602SOL    HW282765   7.601   4.334   9.139
27603SOL     OW82766   8.836   4.644   9.098
27603SOL    HW182767   8.853   4.738   9.093
27603SOL    HW282768   8.830   4.617   9.006
27604SOL     OW82769   8.266   4.293   7.820
27604SOL    HW182770   8.275   4.219   7.760
27604SOL    HW282771   8.189   4.340   7.788
27605SOL     OW82772   9.080   4.325   8.610
27605SOL    HW182773   9.070   4.266   8.685
27605SOL    HW282774   9.171   4.313   8.582
27606SOL     OW82775   7.673   5.267   9.168
27606SOL    HW182776   7.655   5.324   9.242
27606SOL    HW282777   7.683   5.180   9.206
27607SOL     OW82778   8.181   4.157   8.682
27607SOL    HW182779   8.117   4.087   8.667
27607SOL    HW282780   8.164   4.221   8.613
27608SOL     OW82781   8.354   5.403   8.934
27608SOL    HW182782   8.331   5.356   8.854
27608SOL    HW282783   8.356   5.495   8.908
27609SOL     OW82784   7.891   4.205   7.612
27609SOL    HW182785   7.955   4.271   7.637
27609SOL    HW282786   7.807   4.251   7.616
27610SOL     OW82787   7.577   4.874   8.928
27610SOL    HW182788   7.583   4.835   9.016
27610SOL    HW282789   7.599   4.802   8.869
27611SOL     OW82790   8.751   4.758   8.656
27611SOL    HW182791   8.760   4.694   8.585
27611SOL    HW282792   8.698   4.828   8.619
27612SOL     OW82793   8.774   4.583   7.740
27612SOL    HW182794   8.703   4.548   7.794
27612SOL    HW282795   8.745   4.568   7.650
27613SOL     OW82796   9.239   5.446   8.618
27613SOL    HW182797   9.300   5.472   8.550
27613SOL    HW282798   9.205   5.361   8.589
27614SOL     OW82799   8.688   5.458   8.540
27614SOL    HW182800   8.773   5.487   8.505
27614SOL    HW282801   8.703   5.366   8.564
27615SOL     OW82802   7.555   4.970   8.457
27615SOL    HW182803   7.526   4.992   8.546
27615SOL    HW282804   7.483   4.918   8.422
27616SOL     OW82805   8.136   5.407   9.201
27616SOL    HW182806   8.073   5.478   9.187
27616SOL    HW282807   8.210   5.429   9.145
27617SOL     OW82808   9.197   3.909   7.941
27617SOL    HW182809   9.256   3.888   7.869
27617SOL    HW282810   9.168   3.824   7.975
27618SOL     OW82811   8.846   5.294   7.952
27618SOL    HW182812   8.901   5.328   7.881
27618SOL    HW282813   8.791   5.367   7.978
27619SOL     OW82814   7.590   5.524   9.295
27619SOL    HW182815   7.543   5.453   9.341
27619SOL    HW282816   7.638   5.568   9.365
27620SOL     OW82817   8.726   4.660   8.112
27620SOL    HW182818   8.800   4.600   8.125
27620SOL    HW282819   8.762   4.732   8.060
27621SOL     OW82820   8.231   5.004   8.862
27621SOL    HW182821   8.204   5.052   8.940
27621SOL    HW282822   8.157   5.014   8.802
27622SOL     OW82823   8.116   5.360   7.607
27622SOL    HW182824   8.131   5.374   7.513
27622SOL    HW282825   8.064   5.279   7.611
27623SOL     OW82826   9.065   5.454   8.845
27623SOL    HW182827   9.122   5.454   8.769
27623SOL    HW282828   9.049   5.547   8.864
27624SOL     OW82829   9.290   3.882   8.413
27624SOL    HW182830   9.320   3.794   8.392
27624SOL    HW282831   9.203   3.888   8.374
27625SOL     OW82832   7.692   4.030   8.156
27625SOL    HW182833   7.606   4.066   8.135
27625SOL    HW282834   7.695   4.032   8.252
27626SOL     OW82835   8.656   5.313   7.486
27626SOL    HW182836   8.647   5.222   7.513
27626SOL    HW282837   8.587   5.326   7.421
27627SOL     OW82838   8.271   4.736   8.832
27627SOL    HW182839   8.308   4.727   8.744
27627SOL    HW282840   8.260   4.830   8.844
27628SOL     OW82841   8.368   4.635   7.743
27628SOL    HW182842   8.424   4.667   7.673
27628SOL    HW282843   8.420   4.567   7.786
27629SOL     OW82844   8.929   5.373   7.505
27629SOL    HW182845   8.837   5.353   7.487
27629SOL    HW282846   8.970   5.376   7.418
27630SOL     OW82847   7.810   5.037   8.949
27630SOL    HW182848   7.802   5.110   8.888
27630SOL    HW282849   7.732   4.984   8.933
27631SOL     OW82850   9.046   5.015   8.726
27631SOL    HW182851   9.099   4.990   8.802
27631SOL    HW282852   8.987   5.082   8.759
27632SOL     OW82853   8.525   4.843   8.178
27632SOL    HW182854   8.449   4.794   8.209
27632SOL    HW282855   8.587   4.777   8.148
27633SOL     OW82856   8.481   3.973   8.408
27633SOL    HW182857   8.480   3.930   8.323
27633SOL    HW282858   8.474   3.901   8.471
27634SOL     OW82859   8.052   5.211   7.924
27634SOL    HW182860   8.107   5.161   7.862
27634SOL    HW282861   7.971   5.227   7.876
27635SOL     OW82862   9.190   4.104   8.836
27635SOL    HW182863   9.258   4.171   8.830
27635SOL    HW282864   9.218   4.037   8.774
27636SOL     OW82865   7.728   5.065   7.747
27636SOL    HW182866   7.641   5.058   7.707
27636SOL    HW282867   7.713   5.113   7.828
27637SOL     OW82868   7.572   4.772   9.184
27637SOL    HW182869   7.494   4.745   9.232
27637SOL    HW282870   7.643   4.720   9.222
27638SOL     OW82871   8.127   3.912   8.944
27638SOL    HW182872   8.211   3.888   8.905
27638SOL    HW282873   8.149   3.946   9.031
27639SOL     OW82874   7.534   4.042   7.461
27639SOL    HW182875   7.457   4.022   7.407
27639SOL    HW282876   7.562   4.128   7.430
27640SOL     OW82877   8.863   4.578   8.835
27640SOL    HW182878   8.811   4.636   8.780
27640SOL    HW282879   8.951   4.582   8.797
27641SOL     OW82880   7.491   3.873   7.720
27641SOL    HW182881   7.478   3.943   7.655
27641SOL    HW282882   7.580   3.841   7.703
27642SOL     OW82883   8.628   5.047   7.571
27642SOL    HW182884   8.536   5.020   7.569
27642SOL    HW282885   8.651   5.049   7.664
27643SOL     OW82886   8.074   4.556   8.890
27643SOL    HW182887   8.132   4.631   8.878
27643SOL    HW282888   8.131   4.480   8.889
27644SOL     OW82889   8.934   5.526   8.440
27644SOL    HW182890   8.960   5.600   8.386
27644SOL    HW282891   9.016   5.481   8.460
27645SOL     OW82892   8.171   4.272   9.135
27645SOL    HW182893   8.218   4.327   9.198
27645SOL    HW282894   8.181   4.183   9.168
27646SOL     OW82895   8.915   4.907   9.068
27646SOL    HW182896   8.908   4.926   9.161
27646SOL    HW282897   9.004   4.931   9.045
27647SOL     OW82898   7.803   5.472   9.026
27647SOL    HW182899   7.721   5.519   9.010
27647SOL    HW282900   7.776   5.388   9.062
27648SOL     OW82901   9.102   4.599   8.699
27648SOL    HW182902   9.100   4.516   8.651
27648SOL    HW282903   9.090   4.665   8.631
27649SOL     OW82904   8.669   4.046   7.904
27649SOL    HW182905   8.728   3.972   7.903
27649SOL    HW282906   8.697   4.098   7.979
27650SOL     OW82907   8.024   4.450   8.129
27650SOL    HW182908   8.068   4.534   8.114
27650SOL    HW282909   7.963   4.441   8.056
27651SOL     OW82910   9.188   4.078   9.110
27651SOL    HW182911   9.186   4.094   9.016
27651SOL    HW282912   9.111   4.024   9.127
27652SOL     OW82913   9.201   4.645   8.952
27652SOL    HW182914   9.188   4.739   8.964
27652SOL    HW282915   9.176   4.629   8.861
27653SOL     OW82916   8.321   5.081   7.512
27653SOL    HW182917   8.282   5.100   7.597
27653SOL    HW282918   8.330   5.167   7.470
27654SOL     OW82919   8.117   5.490   8.374
27654SOL    HW182920   8.097   5.584   8.366
27654SOL    HW282921   8.212   5.485   8.372
27655SOL     OW82922   8.320   4.701   8.304
27655SOL    HW182923   8.370   4.628   8.339
27655SOL    HW282924   8.275   4.738   8.380
27656SOL     OW82925   8.520   4.707   7.535
27656SOL    HW182926   8.500   4.762   7.459
27656SOL    HW282927   8.594   4.654   7.506
27657SOL     OW82928   9.282   5.283   8.287
27657SOL    HW182929   9.205   5.275   8.231
27657SOL    HW282930   9.261   5.229   8.364
27658SOL     OW82931   7.658   5.014   9.284
27658SOL    HW182932   7.628   4.934   9.242
27658SOL    HW282933   7.597   5.029   9.356
27659SOL     OW82934   7.564   4.947   8.115
27659SOL    HW182935   7.596   4.906   8.196
27659SOL    HW282936   7.623   4.916   8.047
27660SOL     OW82937   8.136   5.145   9.079
27660SOL    HW182938   8.058   5.106   9.120
27660SOL    HW282939   8.142   5.232   9.117
27661SOL     OW82940   9.263   3.896   8.683
27661SOL    HW182941   9.269   3.801   8.698
27661SOL    HW282942   9.273   3.906   8.589
27662SOL     OW82943   7.866   4.146   7.966
27662SOL    HW182944   7.900   4.076   7.911
27662SOL    HW282945   7.815   4.102   8.033
27663SOL     OW82946   9.143   5.204   8.530
27663SOL    HW182947   9.065   5.185   8.477
27663SOL    HW282948   9.143   5.137   8.598
27664SOL     OW82949   7.800   4.290   8.740
27664SOL    HW182950   7.850   4.225   8.790
27664SOL    HW282951   7.808   4.260   8.649
27665SOL     OW82952   8.286   5.309   8.118
27665SOL    HW182953   8.256   5.379   8.060
27665SOL    HW282954   8.210   5.251   8.125
27666SOL     OW82955   8.869   3.957   8.563
27666SOL    HW182956   8.878   3.867   8.596
27666SOL    HW282957   8.823   4.003   8.633
27667SOL     OW82958   8.458   3.741   8.567
27667SOL    HW182959   8.404   3.678   8.519
27667SOL    HW282960   8.545   3.701   8.571
27668SOL     OW82961   8.228   5.056   7.777
27668SOL    HW182962   8.204   4.964   7.788
27668SOL    HW282963   8.308   5.067   7.828
27669SOL     OW82964   8.063   5.294   8.736
27669SOL    HW182965   8.059   5.378   8.781
27669SOL    HW282966   8.153   5.289   8.703
27670SOL     OW82967   8.828   3.763   7.640
27670SOL    HW182968   8.869   3.690   7.592
27670SOL    HW282969   8.737   3.736   7.651
27671SOL     OW82970   8.746   4.195   8.123
27671SOL    HW182971   8.696   4.276   8.120
27671SOL    HW282972   8.738   4.165   8.214
27672SOL     OW82973   9.028   3.911   8.340
27672SOL    HW182974   8.976   3.940   8.415
27672SOL    HW282975   9.028   3.985   8.280
27673SOL     OW82976   7.485   4.776   7.757
27673SOL    HW182977   7.578   4.764   7.738
27673SOL    HW282978   7.453   4.687   7.777
27674SOL     OW82979   8.343   5.399   7.777
27674SOL    HW182980   8.265   5.384   7.725
27674SOL    HW282981   8.317   5.468   7.839
27675SOL     OW82982   7.659   4.329   9.455
27675SOL    HW182983   7.570   4.319   9.488
27675SOL    HW282984   7.650   4.323   9.360
27676SOL     OW82985   9.251   4.301   9.522
27676SOL    HW182986   9.209   4.301   9.436
27676SOL    HW282987   9.204   4.234   9.572
27677SOL     OW82988   7.663   5.462   9.765
27677SOL    HW182989   7.681   5.535   9.824
27677SOL    HW282990   7.742   5.454   9.712
27678SOL     OW82991   7.666   5.189   9.844
27678SOL    HW182992   7.656   5.283   9.852
27678SOL    HW282993   7.590   5.152   9.888
27679SOL     OW82994   8.019   4.710   9.452
27679SOL    HW182995   8.069   4.753   9.383
27679SOL    HW282996   8.059   4.739   9.533
27680SOL     OW82997   7.514   4.401   9.883
27680SOL    HW182998   7.428   4.367   9.860
27680SOL    HW282999   7.497   4.478   9.936
27681SOL     OW83000   9.275   5.479   9.642
27681SOL    HW183001   9.352   5.458   9.695
27681SOL    HW283002   9.294   5.566   9.607
27682SOL     OW83003   7.496   5.315   9.434
27682SOL    HW183004   7.481   5.221   9.450
27682SOL    HW283005   7.459   5.358   9.511
27683SOL     OW83006   9.123   4.594   9.915
27683SOL    HW183007   9.190   4.616   9.980
27683SOL    HW283008   9.114   4.673   9.863
27684SOL     OW83009   9.135   4.825   9.761
27684SOL    HW183010   9.219   4.827   9.716
27684SOL    HW283011   9.132   4.908   9.809
27685SOL     OW83012   8.089   5.064   9.993
27685SOL    HW183013   8.032   4.987   9.990
27685SOL    HW283014   8.067   5.113   9.914
27686SOL     OW83015   8.266   3.753   9.827
27686SOL    HW183016   8.311   3.832   9.798
27686SOL    HW283017   8.173   3.778   9.829
27687SOL     OW83018   9.002   4.749   9.522
27687SOL    HW183019   8.942   4.679   9.548
27687SOL    HW283020   9.040   4.780   9.605
27688SOL     OW83021   8.033   4.423   9.583
27688SOL    HW183022   8.041   4.509   9.542
27688SOL    HW283023   7.975   4.438   9.658
27689SOL     OW83024   9.010   5.396   9.626
27689SOL    HW183025   9.102   5.421   9.633
27689SOL    HW283026   8.995   5.386   9.532
27690SOL     OW83027   8.494   4.413   9.734
27690SOL    HW183028   8.522   4.390   9.823
27690SOL    HW283029   8.408   4.371   9.724
27691SOL     OW83030   7.502   4.606   0.069
27691SOL    HW183031   7.577   4.563   0.110
27691SOL    HW283032   7.478   4.677   0.129
27692SOL     OW83033   8.340   4.071   9.502
27692SOL    HW183034   8.389   4.129   9.443
27692SOL    HW283035   8.328   3.990   9.452
27693SOL     OW83036   8.764   4.819   9.795
27693SOL    HW183037   8.814   4.848   9.870
27693SOL    HW283038   8.738   4.899   9.750
27694SOL     OW83039   8.440   5.159   9.782
27694SOL    HW183040   8.411   5.244   9.751
27694SOL    HW283041   8.413   5.157   9.874
27695SOL     OW83042   7.801   5.577   0.166
27695SOL    HW183043   7.807   5.497   0.219
27695SOL    HW283044   7.891   5.609   0.162
27696SOL     OW83045   7.765   4.684   9.577
27696SOL    HW183046   7.846   4.699   9.529
27696SOL    HW283047   7.725   4.608   9.535
27697SOL     OW83048   8.585   5.500   9.546
27697SOL    HW183049   8.506   5.466   9.587
27697SOL    HW283050   8.606   5.436   9.477
27698SOL     OW83051   9.070   5.120   9.399
27698SOL    HW183052   9.027   5.204   9.386
27698SOL    HW283053   9.004   5.055   9.375
27699SOL     OW83054   7.916   5.486   9.634
27699SOL    HW183055   7.966   5.516   9.710
27699SOL    HW283056   7.980   5.439   9.580
27700SOL     OW83057   8.873   3.875   9.738
27700SOL    HW183058   8.862   3.833   9.653
27700SOL    HW283059   8.968   3.879   9.751
27701SOL     OW83060   7.843   4.411   9.801
27701SOL    HW183061   7.846   4.318   9.821
27701SOL    HW283062   7.750   4.432   9.795
27702SOL     OW83063   8.109   3.831   9.417
27702SOL    HW183064   8.154   3.752   9.443
27702SOL    HW283065   8.048   3.803   9.348
27703SOL     OW83066   7.993   3.822   9.840
27703SOL    HW183067   7.901   3.817   9.865
27703SOL    HW283068   7.993   3.881   9.764
27704SOL     OW83069   8.881   4.929   9.343
27704SOL    HW183070   8.916   4.862   9.402
27704SOL    HW283071   8.794   4.949   9.379
27705SOL     OW83072   7.732   3.777   9.500
27705SOL    HW183073   7.782   3.843   9.452
27705SOL    HW283074   7.799   3.725   9.545
27706SOL     OW83075   8.396   3.985   9.758
27706SOL    HW183076   8.372   4.015   9.670
27706SOL    HW283077   8.490   4.004   9.764
27707SOL     OW83078   7.890   4.874   0.034
27707SOL    HW183079   7.821   4.910   0.091
27707SOL    HW283080   7.846   4.860   9.950
27708SOL     OW83081   8.749   5.559   9.900
27708SOL    HW183082   8.793   5.624   9.845
27708SOL    HW283083   8.656   5.584   9.898
27709SOL     OW83084   8.480   4.242   9.338
27709SOL    HW183085   8.436   4.325   9.318
27709SOL    HW283086   8.542   4.263   9.407
27710SOL     OW83087   8.292   4.166   9.942
27710SOL    HW183088   8.254   4.229   9.881
27710SOL    HW283089   8.324   4.095   9.886
27711SOL     OW83090   9.360   4.529   9.633
27711SOL    HW183091   9.367   4.492   9.721
27711SOL    HW283092   9.315   4.463   9.581
27712SOL     OW83093   7.942   5.151   9.466
27712SOL    HW183094   7.866   5.117   9.513
27712SOL    HW283095   7.942   5.102   9.383
27713SOL     OW83096   8.837   4.299   9.371
27713SOL    HW183097   8.781   4.277   9.445
27713SOL    HW283098   8.925   4.274   9.399
27714SOL     OW83099   7.990   3.984   9.624
27714SOL    HW183100   8.037   3.939   9.554
27714SOL    HW283101   7.953   4.062   9.582
27715SOL     OW83102   8.156   4.778   9.684
27715SOL    HW183103   8.123   4.732   9.761
27715SOL    HW283104   8.235   4.731   9.660
27716SOL     OW83105   7.753   4.853   9.799
27716SOL    HW183106   7.755   4.929   9.741
27716SOL    HW283107   7.762   4.778   9.741
27717SOL     OW83108   8.685   5.077   9.691
27717SOL    HW183109   8.741   5.149   9.722
27717SOL    HW283110   8.599   5.098   9.726
27718SOL     OW83111   9.079   4.362   9.788
27718SOL    HW183112   9.085   4.438   9.846
27718SOL    HW283113   9.022   4.392   9.716
27719SOL     OW83114   8.644   4.255   9.565
27719SOL    HW183115   8.651   4.179   9.623
27719SOL    HW283116   8.605   4.323   9.619
27720SOL     OW83117   7.729   3.812   9.927
27720SOL    HW183118   7.662   3.878   9.946
27720SOL    HW283119   7.746   3.770   0.012
27721SOL     OW83120   9.080   4.120   9.654
27721SOL    HW183121   9.104   4.044   9.707
27721SOL    HW283122   9.070   4.191   9.718
27722SOL     OW83123   8.968   3.998   9.425
27722SOL    HW183124   8.915   3.926   9.460
27722SOL    HW283125   9.006   4.040   9.502
27723SOL     OW83126   8.729   4.548   9.331
27723SOL    HW183127   8.767   4.461   9.337
27723SOL    HW283128   8.763   4.584   9.249
27724SOL     OW83129   7.471   5.040   9.484
27724SOL    HW183130   7.381   5.059   9.459
27724SOL    HW283131   7.467   4.953   9.524
27725SOL     OW83132   8.255   4.282   9.682
27725SOL    HW183133   8.267   4.214   9.616
27725SOL    HW283134   8.183   4.335   9.649
27726SOL     OW83135   7.895   4.200   9.483
27726SOL    HW183136   7.956   4.270   9.506
27726SOL    HW283137   7.809   4.243   9.481
27727SOL     OW83138   8.816   4.568   9.607
27727SOL    HW183139   8.763   4.620   9.667
27727SOL    HW283140   8.763   4.560   9.527
27728SOL     OW83141   9.158   3.883   9.769
27728SOL    HW183142   9.228   3.883   9.704
27728SOL    HW283143   9.174   3.803   9.820
27729SOL     OW83144   8.812   5.312   9.794
27729SOL    HW183145   8.882   5.329   9.731
27729SOL    HW283146   8.784   5.399   9.823
27730SOL     OW83147   8.115   5.363   9.475
27730SOL    HW183148   8.131   5.376   9.381
27730SOL    HW283149   8.061   5.284   9.479
27731SOL     OW83150   8.654   5.318   9.348
27731SOL    HW183151   8.646   5.226   9.373
27731SOL    HW283152   8.585   5.332   9.284
27732SOL     OW83153   8.372   4.636   9.614
27732SOL    HW183154   8.427   4.664   9.541
27732SOL    HW283155   8.422   4.568   9.658
27733SOL     OW83156   8.930   5.374   9.358
27733SOL    HW183157   8.837   5.356   9.342
27733SOL    HW283158   8.969   5.376   9.271
27734SOL     OW83159   8.040   5.200   9.762
27734SOL    HW183160   8.101   5.157   9.702
27734SOL    HW283161   7.958   5.207   9.712
27735SOL     OW83162   7.725   5.067   9.615
27735SOL    HW183163   7.639   5.061   9.572
27735SOL    HW283164   7.708   5.116   9.695
27736SOL     OW83165   7.532   4.040   9.321
27736SOL    HW183166   7.457   4.021   9.266
27736SOL    HW283167   7.562   4.126   9.292
27737SOL     OW83168   7.489   3.878   9.576
27737SOL    HW183169   7.481   3.944   9.508
27737SOL    HW283170   7.578   3.843   9.566
27738SOL     OW83171   8.627   5.047   9.422
27738SOL    HW183172   8.535   5.020   9.422
27738SOL    HW283173   8.650   5.052   9.515
27739SOL     OW83174   8.664   4.059   9.768
27739SOL    HW183175   8.739   4.000   9.760
27739SOL    HW283176   8.683   4.113   9.845
27740SOL     OW83177   8.055   4.570   9.889
27740SOL    HW183178   8.060   4.570   9.985
27740SOL    HW283179   7.983   4.512   9.868
27741SOL     OW83180   8.321   5.081   9.364
27741SOL    HW183181   8.284   5.097   9.451
27741SOL    HW283182   8.330   5.168   9.325
27742SOL     OW83183   8.516   4.702   9.397
27742SOL    HW183184   8.498   4.758   9.321
27742SOL    HW283185   8.592   4.650   9.370
27743SOL     OW83186   7.496   4.955   9.900
27743SOL    HW183187   7.499   4.969   9.995
27743SOL    HW283188   7.578   4.910   9.880
27744SOL     OW83189   7.856   4.149   9.867
27744SOL    HW183190   7.905   4.087   9.814
27744SOL    HW283191   7.893   4.140   9.955
27745SOL     OW83192   8.231   5.052   9.627
27745SOL    HW183193   8.205   4.961   9.643
27745SOL    HW283194   8.307   5.066   9.682
27746SOL     OW83195   8.826   3.766   9.492
27746SOL    HW183196   8.868   3.689   9.453
27746SOL    HW283197   8.736   3.737   9.508
27747SOL     OW83198   7.504   4.792   9.595
27747SOL    HW183199   7.600   4.786   9.590
27747SOL    HW283200   7.475   4.701   9.599
27748SOL     OW83201   8.342   5.396   9.664
27748SOL    HW183202   8.267   5.379   9.608
27748SOL    HW283203   8.313   5.465   9.723
27749SOL     OW83204   7.646   6.195   0.125
27749SOL    HW183205   7.562   6.182   0.171
27749SOL    HW283206   7.621   6.209   0.033
27750SOL     OW83207   7.667   5.874   0.990
27750SOL    HW183208   7.697   5.839   1.073
27750SOL    HW283209   7.580   5.837   0.978
27751SOL     OW83210   7.432   5.984   0.647
27751SOL    HW183211   7.350   6.006   0.692
27751SOL    HW283212   7.409   5.908   0.593
27752SOL     OW83213   8.023   6.894   1.209
27752SOL    HW183214   7.941   6.897   1.160
27752SOL    HW283215   8.040   6.985   1.232
27753SOL     OW83216   9.040   7.108   0.707
27753SOL    HW183217   8.993   7.077   0.784
27753SOL    HW283218   8.974   7.112   0.637
27754SOL     OW83219   8.587   6.287   0.686
27754SOL    HW183220   8.633   6.371   0.676
27754SOL    HW283221   8.537   6.297   0.767
27755SOL     OW83222   9.222   6.165   0.196
27755SOL    HW183223   9.147   6.194   0.145
27755SOL    HW283224   9.189   6.093   0.250
27756SOL     OW83225   8.174   6.715   1.058
27756SOL    HW183226   8.116   6.755   1.122
27756SOL    HW283227   8.217   6.789   1.015
27757SOL     OW83228   8.335   6.327   1.828
27757SOL    HW183229   8.327   6.394   1.896
27757SOL    HW283230   8.352   6.377   1.748
27758SOL     OW83231   8.133   6.563   0.646
27758SOL    HW183232   8.201   6.565   0.713
27758SOL    HW283233   8.067   6.625   0.676
27759SOL     OW83234   8.160   6.735   1.832
27759SOL    HW183235   8.211   6.808   1.867
27759SOL    HW283236   8.083   6.777   1.792
27760SOL     OW83237   7.790   6.983   1.071
27760SOL    HW183238   7.714   6.941   1.031
27760SOL    HW283239   7.826   7.039   1.001
27761SOL     OW83240   8.901   7.094   1.372
27761SOL    HW183241   8.957   7.170   1.384
27761SOL    HW283242   8.830   7.105   1.435
27762SOL     OW83243   7.906   5.960   1.455
27762SOL    HW183244   7.981   5.902   1.471
27762SOL    HW283245   7.830   5.909   1.483
27763SOL     OW83246   9.025   6.017   0.753
27763SOL    HW183247   8.950   6.025   0.694
27763SOL    HW283248   9.013   6.087   0.817
27764SOL     OW83249   7.676   7.307   0.470
27764SOL    HW183250   7.692   7.381   0.527
27764SOL    HW283251   7.761   7.286   0.431
27765SOL     OW83252   8.582   6.928   1.697
27765SOL    HW183253   8.629   6.917   1.780
27765SOL    HW283254   8.529   6.849   1.688
27766SOL     OW83255   7.657   7.030   0.507
27766SOL    HW183256   7.650   7.125   0.516
27766SOL    HW283257   7.618   6.996   0.588
27767SOL     OW83258   7.727   6.673   0.880
27767SOL    HW183259   7.730   6.584   0.916
27767SOL    HW283260   7.674   6.722   0.942
27768SOL     OW83261   8.020   7.391   1.419
27768SOL    HW183262   7.945   7.370   1.474
27768SOL    HW283263   8.053   7.473   1.454
27769SOL     OW83264   8.016   6.533   0.174
27769SOL    HW183265   7.989   6.603   0.114
27769SOL    HW283266   8.074   6.576   0.236
27770SOL     OW83267   9.038   5.718   1.459
27770SOL    HW183268   9.077   5.795   1.417
27770SOL    HW283269   9.006   5.751   1.543
27771SOL     OW83270   7.562   6.239   0.573
27771SOL    HW183271   7.527   6.154   0.597
27771SOL    HW283272   7.555   6.292   0.653
27772SOL     OW83273   9.308   7.317   0.311
27772SOL    HW183274   9.378   7.295   0.372
27772SOL    HW283275   9.323   7.410   0.291
27773SOL     OW83276   7.508   7.161   0.085
27773SOL    HW183277   7.485   7.074   0.117
27773SOL    HW283278   7.485   7.220   0.157
27774SOL     OW83279   9.140   6.508   0.666
27774SOL    HW183280   9.226   6.468   0.658
27774SOL    HW283281   9.127   6.555   0.584
27775SOL     OW83282   9.108   6.680   0.444
27775SOL    HW183283   9.189   6.675   0.394
27775SOL    HW283284   9.124   6.747   0.510
27776SOL     OW83285   7.570   6.335   1.578
27776SOL    HW183286   7.655   6.379   1.583
27776SOL    HW283287   7.507   6.407   1.565
27777SOL     OW83288   8.063   6.967   0.757
27777SOL    HW183289   8.022   6.881   0.752
27777SOL    HW283290   8.060   7.001   0.667
27778SOL     OW83291   8.718   6.812   1.417
27778SOL    HW183292   8.745   6.742   1.357
27778SOL    HW283293   8.780   6.806   1.489
27779SOL     OW83294   8.280   5.601   0.529
27779SOL    HW183295   8.321   5.682   0.498
27779SOL    HW283296   8.186   5.621   0.530
27780SOL     OW83297   7.635   6.542   1.302
27780SOL    HW183298   7.722   6.507   1.285
27780SOL    HW283299   7.580   6.505   1.233
27781SOL     OW83300   8.942   6.614   0.233
27781SOL    HW183301   8.885   6.544   0.265
27781SOL    HW283302   9.002   6.631   0.306
27782SOL     OW83303   8.627   7.408   1.635
27782SOL    HW183304   8.629   7.469   1.562
27782SOL    HW283305   8.644   7.322   1.595
27783SOL     OW83306   7.808   5.839   1.875
27783SOL    HW183307   7.844   5.919   1.913
27783SOL    HW283308   7.713   5.854   1.873
27784SOL     OW83309   8.918   7.003   0.929
27784SOL    HW183310   8.856   7.022   0.999
27784SOL    HW283311   8.901   6.912   0.905
27785SOL     OW83312   9.088   7.386   0.563
27785SOL    HW183313   9.073   7.338   0.482
27785SOL    HW283314   9.091   7.318   0.631
27786SOL     OW83315   8.041   6.276   0.285
27786SOL    HW183316   8.047   6.363   0.244
27786SOL    HW283317   7.975   6.287   0.353
27787SOL     OW83318   8.729   5.977   0.941
27787SOL    HW183319   8.640   5.942   0.947
27787SOL    HW283320   8.782   5.919   0.996
27788SOL     OW83321   9.037   7.260   0.325
27788SOL    HW183322   9.131   7.270   0.312
27788SOL    HW283323   9.002   7.242   0.237
27789SOL     OW83324   8.237   6.200   1.430
27789SOL    HW183325   8.214   6.171   1.518
27789SOL    HW283326   8.213   6.126   1.374
27790SOL     OW83327   8.839   6.063   1.674
27790SOL    HW183328   8.844   6.106   1.759
27790SOL    HW283329   8.889   5.981   1.685
27791SOL     OW83330   8.392   6.466   1.593
27791SOL    HW183331   8.449   6.403   1.549
27791SOL    HW283332   8.344   6.509   1.522
27792SOL     OW83333   8.455   5.984   1.210
27792SOL    HW183334   8.363   5.997   1.232
27792SOL    HW283335   8.453   5.939   1.125
27793SOL     OW83336   8.514   6.283   0.416
27793SOL    HW183337   8.534   6.280   0.510
27793SOL    HW283338   8.430   6.240   0.408
27794SOL     OW83339   7.540   6.414   0.783
27794SOL    HW183340   7.623   6.406   0.831
27794SOL    HW283341   7.494   6.485   0.827
27795SOL     OW83342   7.557   7.464   1.587
27795SOL    HW183343   7.565   7.445   1.681
27795SOL    HW283344   7.472   7.429   1.562
27796SOL     OW83345   8.309   5.925   0.200
27796SOL    HW183346   8.295   5.974   0.119
27796SOL    HW283347   8.318   5.834   0.171
27797SOL     OW83348   9.134   6.149   1.840
27797SOL    HW183349   9.111   6.227   1.790
27797SOL    HW283350   9.161   6.085   1.775
27798SOL     OW83351   8.844   6.735   0.556
27798SOL    HW183352   8.923   6.724   0.503
27798SOL    HW283353   8.790   6.796   0.506
27799SOL     OW83354   7.999   5.749   0.915
27799SOL    HW183355   8.004   5.776   1.007
27799SOL    HW283356   7.995   5.831   0.866
27800SOL     OW83357   8.448   7.038   0.471
27800SOL    HW183358   8.424   7.115   0.419
27800SOL    HW283359   8.416   7.059   0.559
27801SOL     OW83360   7.801   7.403   0.880
27801SOL    HW183361   7.846   7.319   0.884
27801SOL    HW283362   7.869   7.467   0.901
27802SOL     OW83363   9.247   6.639   0.896
27802SOL    HW183364   9.197   6.625   0.816
27802SOL    HW283365   9.181   6.646   0.965
27803SOL     OW83366   8.665   7.130   1.517
27803SOL    HW183367   8.654   7.059   1.581
27803SOL    HW283368   8.599   7.112   1.450
27804SOL     OW83369   7.761   6.513   0.290
27804SOL    HW183370   7.842   6.521   0.240
27804SOL    HW283371   7.764   6.425   0.328
27805SOL     OW83372   8.931   6.341   0.713
27805SOL    HW183373   8.931   6.302   0.800
27805SOL    HW283374   9.008   6.398   0.711
27806SOL     OW83375   7.921   6.870   1.748
27806SOL    HW183376   7.897   6.874   1.655
27806SOL    HW283377   7.838   6.858   1.794
27807SOL     OW83378   8.552   7.370   0.180
27807SOL    HW183379   8.496   7.330   0.247
27807SOL    HW283380   8.592   7.296   0.134
27808SOL     OW83381   7.656   5.842   1.499
27808SOL    HW183382   7.585   5.903   1.520
27808SOL    HW283383   7.626   5.757   1.532
27809SOL     OW83384   9.081   6.955   0.111
27809SOL    HW183385   9.040   7.041   0.105
27809SOL    HW283386   9.014   6.895   0.079
27810SOL     OW83387   7.936   7.294   0.376
27810SOL    HW183388   7.971   7.370   0.422
27810SOL    HW283389   8.002   7.273   0.310
27811SOL     OW83390   8.844   5.689   0.448
27811SOL    HW183391   8.842   5.669   0.355
27811SOL    HW283392   8.935   5.673   0.474
27812SOL     OW83393   7.700   7.374   1.215
27812SOL    HW183394   7.749   7.300   1.251
27812SOL    HW283395   7.689   7.353   1.122
27813SOL     OW83396   8.395   7.287   0.891
27813SOL    HW183397   8.479   7.244   0.905
27813SOL    HW283398   8.353   7.236   0.821
27814SOL     OW83399   7.821   6.279   0.463
27814SOL    HW183400   7.844   6.187   0.474
27814SOL    HW283401   7.732   6.286   0.498
27815SOL     OW83402   8.954   5.808   1.717
27815SOL    HW183403   8.967   5.826   1.810
27815SOL    HW283404   8.889   5.737   1.716
27816SOL     OW83405   8.056   5.679   0.116
27816SOL    HW183406   8.150   5.669   0.126
27816SOL    HW283407   8.042   5.685   0.022
27817SOL     OW83408   8.207   5.860   1.752
27817SOL    HW183409   8.291   5.815   1.750
27817SOL    HW283410   8.160   5.821   1.826
27818SOL     OW83411   8.318   7.114   1.201
27818SOL    HW183412   8.299   7.072   1.117
27818SOL    HW283413   8.385   7.059   1.241
27819SOL     OW83414   8.778   6.177   1.433
27819SOL    HW183415   8.811   6.147   1.518
27819SOL    HW283416   8.817   6.264   1.422
27820SOL     OW83417   8.265   6.963   0.961
27820SOL    HW183418   8.351   6.959   0.919
27820SOL    HW283419   8.203   6.975   0.890
27821SOL     OW83420   8.378   6.101   0.890
27821SOL    HW183421   8.354   6.088   0.799
27821SOL    HW283422   8.406   6.014   0.920
27822SOL     OW83423   8.012   5.662   0.503
27822SOL    HW183424   7.933   5.660   0.556
27822SOL    HW283425   7.998   5.735   0.442
27823SOL     OW83426   8.875   6.784   0.034
27823SOL    HW183427   8.900   6.718   0.098
27823SOL    HW283428   8.794   6.822   0.068
27824SOL     OW83429   8.400   5.836   0.450
27824SOL    HW183430   8.368   5.872   0.367
27824SOL    HW283431   8.493   5.857   0.451
27825SOL     OW83432   8.524   6.279   1.445
27825SOL    HW183433   8.462   6.207   1.451
27825SOL    HW283434   8.610   6.237   1.442
27826SOL     OW83435   8.653   7.174   0.801
27826SOL    HW183436   8.669   7.233   0.728
27826SOL    HW283437   8.727   7.187   0.860
27827SOL     OW83438   7.927   6.735   0.710
27827SOL    HW183439   7.863   6.713   0.778
27827SOL    HW283440   7.877   6.730   0.629
27828SOL     OW83441   8.700   7.379   0.613
27828SOL    HW183442   8.749   7.442   0.561
27828SOL    HW283443   8.632   7.430   0.655
27829SOL     OW83444   8.542   6.147   9.980
27829SOL    HW183445   8.454   6.110   9.986
27829SOL    HW283446   8.578   6.140   0.068
27830SOL     OW83447   7.547   6.138   1.390
27830SOL    HW183448   7.639   6.139   1.365
27830SOL    HW283449   7.540   6.207   1.457
27831SOL     OW83450   8.007   5.807   1.185
27831SOL    HW183451   8.044   5.743   1.246
27831SOL    HW283452   7.913   5.807   1.206
27832SOL     OW83453   8.320   6.037   0.633
27832SOL    HW183454   8.286   6.094   0.564
27832SOL    HW283455   8.345   5.957   0.587
27833SOL     OW83456   8.473   5.644   0.743
27833SOL    HW183457   8.409   5.640   0.671
27833SOL    HW283458   8.448   5.571   0.800
27834SOL     OW83459   8.878   6.739   0.855
27834SOL    HW183460   8.811   6.672   0.866
27834SOL    HW283461   8.889   6.745   0.760
27835SOL     OW83462   8.907   6.202   0.952
27835SOL    HW183463   8.844   6.130   0.962
27835SOL    HW283464   8.964   6.195   1.029
27836SOL     OW83465   9.300   6.373   0.367
27836SOL    HW183466   9.343   6.326   0.438
27836SOL    HW283467   9.264   6.304   0.311
27837SOL     OW83468   7.952   7.029   0.213
27837SOL    HW183469   7.871   6.984   0.234
27837SOL    HW283470   7.994   6.974   0.148
27838SOL     OW83471   9.163   6.856   0.635
27838SOL    HW183472   9.256   6.850   0.655
27838SOL    HW283473   9.139   6.945   0.661
27839SOL     OW83474   8.865   6.152   0.093
27839SOL    HW183475   8.789   6.141   0.150
27839SOL    HW283476   8.903   6.064   0.085
27840SOL     OW83477   7.956   5.850   0.309
27840SOL    HW183478   7.995   5.791   0.244
27840SOL    HW283479   7.934   5.929   0.261
27841SOL     OW83480   9.180   6.831   1.533
27841SOL    HW183481   9.267   6.794   1.520
27841SOL    HW283482   9.196   6.918   1.570
27842SOL     OW83483   8.490   6.942   1.336
27842SOL    HW183484   8.413   6.907   1.380
27842SOL    HW283485   8.564   6.896   1.376
27843SOL     OW83486   9.055   7.222   1.671
27843SOL    HW183487   9.045   7.258   1.583
27843SOL    HW283488   9.132   7.166   1.666
27844SOL     OW83489   8.598   6.824   1.105
27844SOL    HW183490   8.536   6.859   1.170
27844SOL    HW283491   8.565   6.856   1.021
27845SOL     OW83492   9.051   6.677   1.081
27845SOL    HW183493   9.044   6.744   1.149
27845SOL    HW283494   8.982   6.699   1.018
27846SOL     OW83495   8.367   5.667   1.383
27846SOL    HW183496   8.388   5.652   1.291
27846SOL    HW283497   8.445   5.708   1.419
27847SOL     OW83498   8.427   6.701   1.724
27847SOL    HW183499   8.337   6.718   1.751
27847SOL    HW283500   8.423   6.621   1.673
27848SOL     OW83501   8.171   6.639   0.378
27848SOL    HW183502   8.157   6.612   0.468
27848SOL    HW283503   8.251   6.593   0.351
27849SOL     OW83504   7.874   6.413   1.259
27849SOL    HW183505   7.941   6.424   1.326
27849SOL    HW283506   7.844   6.323   1.269
27850SOL     OW83507   8.712   5.954   1.292
27850SOL    HW183508   8.740   6.034   1.336
27850SOL    HW283509   8.623   5.973   1.262
27851SOL     OW83510   7.526   7.156   1.363
27851SOL    HW183511   7.497   7.228   1.307
27851SOL    HW283512   7.621   7.156   1.353
27852SOL     OW83513   7.763   6.711   0.487
27852SOL    HW183514   7.763   6.782   0.423
27852SOL    HW283515   7.771   6.631   0.436
27853SOL     OW83516   7.981   6.099   0.857
27853SOL    HW183517   7.991   6.158   0.782
27853SOL    HW283518   8.049   6.126   0.918
27854SOL     OW83519   8.698   6.934   0.418
27854SOL    HW183520   8.753   7.007   0.447
27854SOL    HW283521   8.609   6.960   0.443
27855SOL     OW83522   8.757   7.054   1.143
27855SOL    HW183523   8.805   7.062   1.225
27855SOL    HW283524   8.707   6.973   1.151
27856SOL     OW83525   8.998   6.206   0.476
27856SOL    HW183526   8.971   6.242   0.561
27856SOL    HW283527   8.964   6.268   0.412
27857SOL     OW83528   7.793   7.119   1.303
27857SOL    HW183529   7.785   7.066   1.223
27857SOL    HW283530   7.886   7.135   1.312
27858SOL     OW83531   7.881   6.331   1.619
27858SOL    HW183532   7.939   6.375   1.557
27858SOL    HW283533   7.926   6.250   1.640
27859SOL     OW83534   9.071   6.372   1.700
27859SOL    HW183535   8.984   6.410   1.690
27859SOL    HW283536   9.121   6.409   1.627
27860SOL     OW83537   8.443   5.727   1.757
27860SOL    HW183538   8.502   5.800   1.739
27860SOL    HW283539   8.494   5.649   1.736
27861SOL     OW83540   7.943   5.621   1.762
27861SOL    HW183541   7.888   5.571   1.702
27861SOL    HW283542   7.891   5.698   1.784
27862SOL     OW83543   8.037   6.461   1.037
27862SOL    HW183544   8.076   6.548   1.041
27862SOL    HW283545   7.981   6.457   1.115
27863SOL     OW83546   8.756   6.440   1.003
27863SOL    HW183547   8.668   6.413   0.977
27863SOL    HW283548   8.811   6.363   0.986
27864SOL     OW83549   8.640   6.105   0.246
27864SOL    HW183550   8.652   6.030   0.303
27864SOL    HW283551   8.599   6.172   0.302
27865SOL     OW83552   7.739   5.779   1.239
27865SOL    HW183553   7.704   5.808   1.324
27865SOL    HW283554   7.722   5.685   1.237
27866SOL     OW83555   7.497   6.899   1.267
27866SOL    HW183556   7.527   6.843   1.339
27866SOL    HW283557   7.500   6.988   1.303
27867SOL     OW83558   8.156   6.207   1.037
27867SOL    HW183559   8.236   6.200   0.985
27867SOL    HW283560   8.129   6.298   1.028
27868SOL     OW83561   9.193   6.552   1.873
27868SOL    HW183562   9.153   6.481   1.824
27868SOL    HW283563   9.129   6.573   1.941
27869SOL     OW83564   7.767   5.649   0.631
27869SOL    HW183565   7.735   5.738   0.649
27869SOL    HW283566   7.774   5.608   0.716
27870SOL     OW83567   9.087   5.977   0.351
27870SOL    HW183568   9.122   5.911   0.412
27870SOL    HW283569   9.054   6.047   0.407
27871SOL     OW83570   8.482   6.344   0.957
27871SOL    HW183571   8.460   6.359   1.050
27871SOL    HW283572   8.452   6.255   0.940
27872SOL     OW83573   8.427   7.151   1.735
27872SOL    HW183574   8.407   7.195   1.652
27872SOL    HW283575   8.466   7.068   1.709
27873SOL     OW83576   9.286   7.080   1.601
27873SOL    HW183577   9.312   7.109   1.513
27873SOL    HW283578   9.365   7.091   1.654
27874SOL     OW83579   7.797   6.506   1.815
27874SOL    HW183580   7.874   6.523   1.871
27874SOL    HW283581   7.829   6.442   1.751
27875SOL     OW83582   8.948   5.891   0.128
27875SOL    HW183583   8.900   5.811   0.149
27875SOL    HW283584   8.997   5.912   0.208
27876SOL     OW83585   8.766   6.404   0.037
27876SOL    HW183586   8.802   6.315   0.039
27876SOL    HW283587   8.823   6.451   9.976
27877SOL     OW83588   8.517   6.939   0.865
27877SOL    HW183589   8.529   6.866   0.805
27877SOL    HW283590   8.570   7.010   0.828
27878SOL     OW83591   7.766   6.400   0.944
27878SOL    HW183592   7.860   6.416   0.945
27878SOL    HW283593   7.756   6.310   0.975
27879SOL     OW83594   7.761   6.124   1.010
27879SOL    HW183595   7.721   6.037   1.002
27879SOL    HW283596   7.838   6.121   0.954
27880SOL     OW83597   8.586   5.954   1.685
27880SOL    HW183598   8.541   6.005   1.752
27880SOL    HW283599   8.672   5.996   1.676
27881SOL     OW83600   8.604   5.776   1.473
27881SOL    HW183601   8.592   5.837   1.546
27881SOL    HW283602   8.650   5.825   1.406
27882SOL     OW83603   7.466   6.876   0.171
27882SOL    HW183604   7.376   6.905   0.154
27882SOL    HW283605   7.456   6.797   0.223
27883SOL     OW83606   7.540   7.357   0.950
27883SOL    HW183607   7.507   7.282   0.900
27883SOL    HW283608   7.627   7.373   0.914
27884SOL     OW83609   7.932   7.158   0.905
27884SOL    HW183610   8.003   7.219   0.925
27884SOL    HW283611   7.974   7.090   0.851
27885SOL     OW83612   8.396   6.366   1.216
27885SOL    HW183613   8.459   6.355   1.287
27885SOL    HW283614   8.317   6.321   1.247
27886SOL     OW83615   7.488   6.159   1.120
27886SOL    HW183616   7.570   6.155   1.071
27886SOL    HW283617   7.515   6.152   1.212
27887SOL     OW83618   7.634   6.124   1.743
27887SOL    HW183619   7.708   6.094   1.692
27887SOL    HW283620   7.598   6.198   1.693
27888SOL     OW83621   8.837   6.507   1.651
27888SOL    HW183622   8.855   6.601   1.646
27888SOL    HW283623   8.830   6.479   1.560
27889SOL     OW83624   8.276   6.149   0.374
27889SOL    HW183625   8.281   6.074   0.315
27889SOL    HW283626   8.197   6.197   0.347
27890SOL     OW83627   9.082   6.185   1.163
27890SOL    HW183628   9.073   6.127   1.239
27890SOL    HW283629   9.172   6.175   1.135
27891SOL     OW83630   7.674   7.126   1.723
27891SOL    HW183631   7.649   7.173   1.803
27891SOL    HW283632   7.686   7.035   1.753
27892SOL     OW83633   8.181   6.019   1.233
27892SOL    HW183634   8.117   5.949   1.219
27892SOL    HW283635   8.163   6.083   1.164
27893SOL     OW83636   8.351   7.266   1.489
27893SOL    HW183637   8.331   7.218   1.409
27893SOL    HW283638   8.355   7.358   1.462
27894SOL     OW83639   7.900   6.072   0.154
27894SOL    HW183640   7.958   6.138   0.191
27894SOL    HW283641   7.814   6.115   0.150
27895SOL     OW83642   7.577   6.737   1.480
27895SOL    HW183643   7.582   6.697   1.567
27895SOL    HW283644   7.599   6.665   1.421
27896SOL     OW83645   8.749   6.620   1.209
27896SOL    HW183646   8.760   6.556   1.138
27896SOL    HW283647   8.696   6.690   1.171
27897SOL     OW83648   8.770   6.413   0.316
27897SOL    HW183649   8.687   6.385   0.355
27897SOL    HW283650   8.756   6.406   0.222
27898SOL     OW83651   9.238   7.309   1.171
27898SOL    HW183652   9.300   7.335   1.102
27898SOL    HW283653   9.205   7.224   1.142
27899SOL     OW83654   8.689   7.320   1.091
27899SOL    HW183655   8.773   7.349   1.057
27899SOL    HW283656   8.703   7.228   1.115
27900SOL     OW83657   7.553   6.835   1.011
27900SOL    HW183658   7.525   6.857   1.100
27900SOL    HW283659   7.482   6.782   0.976
27901SOL     OW83660   8.135   7.269   1.749
27901SOL    HW183661   8.073   7.340   1.736
27901SOL    HW283662   8.209   7.291   1.693
27902SOL     OW83663   8.334   5.664   0.098
27902SOL    HW183664   8.328   5.638   0.006
27902SOL    HW283665   8.412   5.619   0.131
27903SOL     OW83666   9.207   5.768   0.494
27903SOL    HW183667   9.271   5.743   0.427
27903SOL    HW283668   9.175   5.684   0.528
27904SOL     OW83669   8.848   7.156   0.505
27904SOL    HW183670   8.906   7.190   0.437
27904SOL    HW283671   8.795   7.231   0.532
27905SOL     OW83672   7.581   7.394   1.844
27905SOL    HW183673   7.541   7.317   1.885
27905SOL    HW283674   7.632   7.435   1.914
27906SOL     OW83675   8.727   6.519   0.669
27906SOL    HW183676   8.800   6.459   0.681
27906SOL    HW283677   8.764   6.592   0.618
27907SOL     OW83678   8.232   6.866   1.414
27907SOL    HW183679   8.205   6.913   1.493
27907SOL    HW283680   8.157   6.876   1.354
27908SOL     OW83681   8.133   7.225   0.188
27908SOL    HW183682   8.138   7.239   0.094
27908SOL    HW283683   8.077   7.147   0.198
27909SOL     OW83684   9.065   7.316   1.401
27909SOL    HW183685   9.122   7.315   1.324
27909SOL    HW283686   9.049   7.409   1.419
27910SOL     OW83687   9.290   5.745   0.965
27910SOL    HW183688   9.321   5.657   0.944
27910SOL    HW283689   9.203   5.749   0.926
27911SOL     OW83690   7.690   5.898   0.709
27911SOL    HW183691   7.604   5.934   0.689
27911SOL    HW283692   7.695   5.898   0.805
27912SOL     OW83693   8.665   7.153   0.053
27912SOL    HW183694   8.653   7.063   0.084
27912SOL    HW283695   8.678   7.144   9.958
27913SOL     OW83696   8.271   6.597   1.385
27913SOL    HW183697   8.309   6.588   1.298
27913SOL    HW283698   8.261   6.691   1.397
27914SOL     OW83699   8.390   6.508   0.296
27914SOL    HW183700   8.438   6.529   0.216
27914SOL    HW283701   8.437   6.434   0.334
27915SOL     OW83702   8.938   7.194   0.075
27915SOL    HW183703   8.843   7.187   0.082
27915SOL    HW283704   8.955   7.203   9.981
27916SOL     OW83705   7.810   6.898   1.502
27916SOL    HW183706   7.803   6.972   1.441
27916SOL    HW283707   7.733   6.845   1.485
27917SOL     OW83708   9.043   6.876   1.278
27917SOL    HW183709   9.099   6.852   1.352
27917SOL    HW283710   8.986   6.944   1.312
27918SOL     OW83711   8.524   6.704   0.730
27918SOL    HW183712   8.449   6.655   0.761
27918SOL    HW283713   8.587   6.638   0.701
27919SOL     OW83714   8.481   5.835   0.962
27919SOL    HW183715   8.481   5.792   0.876
27919SOL    HW283716   8.474   5.763   1.025
27920SOL     OW83717   8.069   7.071   0.507
27920SOL    HW183718   8.110   7.016   0.440
27920SOL    HW283719   8.001   7.118   0.460
27921SOL     OW83720   9.190   5.967   1.388
27921SOL    HW183721   9.259   6.033   1.383
27921SOL    HW283722   9.217   5.899   1.326
27922SOL     OW83723   7.718   6.899   0.282
27922SOL    HW183724   7.635   6.901   0.234
27922SOL    HW283725   7.701   6.952   0.360
27923SOL     OW83726   7.568   6.633   1.735
27923SOL    HW183727   7.491   6.604   1.785
27923SOL    HW283728   7.641   6.582   1.772
27924SOL     OW83729   8.127   5.774   1.495
27924SOL    HW183730   8.211   5.749   1.456
27924SOL    HW283731   8.150   5.808   1.581
27925SOL     OW83732   7.537   5.861   0.021
27925SOL    HW183733   7.447   5.880   9.991
27925SOL    HW283734   7.585   5.941   0.002
27926SOL     OW83735   8.862   6.439   1.388
27926SOL    HW183736   8.810   6.499   1.333
27926SOL    HW283737   8.950   6.444   1.350
27927SOL     OW83738   7.522   5.728   0.278
27927SOL    HW183739   7.515   5.776   0.196
27927SOL    HW283740   7.616   5.718   0.293
27928SOL     OW83741   8.646   6.897   0.145
27928SOL    HW183742   8.558   6.860   0.137
27928SOL    HW283743   8.664   6.896   0.239
27929SOL     OW83744   8.073   6.418   1.441
27929SOL    HW183745   8.132   6.493   1.430
27929SOL    HW283746   8.130   6.342   1.440
27930SOL     OW83747   8.935   7.387   0.993
27930SOL    HW183748   8.962   7.461   0.939
27930SOL    HW283749   9.017   7.342   1.014
27931SOL     OW83750   8.172   6.134   1.686
27931SOL    HW183751   8.219   6.188   1.749
27931SOL    HW283752   8.182   6.045   1.718
27932SOL     OW83753   8.915   6.770   1.618
27932SOL    HW183754   8.907   6.791   1.711
27932SOL    HW283755   9.005   6.793   1.595
27933SOL     OW83756   7.802   7.333   1.580
27933SOL    HW183757   7.720   7.379   1.563
27933SOL    HW283758   7.775   7.249   1.618
27934SOL     OW83759   9.101   6.460   1.251
27934SOL    HW183760   9.099   6.377   1.204
27934SOL    HW283761   9.088   6.527   1.184
27935SOL     OW83762   8.669   5.909   0.451
27935SOL    HW183763   8.729   5.835   0.449
27935SOL    HW283764   8.697   5.961   0.527
27936SOL     OW83765   8.014   6.309   0.677
27936SOL    HW183766   8.061   6.391   0.666
27936SOL    HW283767   7.950   6.308   0.605
27937SOL     OW83768   9.190   5.942   1.664
27937SOL    HW183769   9.187   5.958   1.569
27937SOL    HW283770   9.113   5.888   1.681
27938SOL     OW83771   9.201   6.506   1.503
27938SOL    HW183772   9.190   6.601   1.515
27938SOL    HW283773   9.176   6.491   1.412
27939SOL     OW83774   8.346   7.004   0.043
27939SOL    HW183775   8.260   6.964   0.026
27939SOL    HW283776   8.340   7.034   0.133
27940SOL     OW83777   8.116   7.354   0.928
27940SOL    HW183778   8.098   7.448   0.919
27940SOL    HW283779   8.211   7.348   0.926
27941SOL     OW83780   8.320   6.561   0.856
27941SOL    HW183781   8.371   6.489   0.892
27941SOL    HW283782   8.276   6.599   0.932
27942SOL     OW83783   8.542   6.560   0.074
27942SOL    HW183784   8.535   6.608   9.991
27942SOL    HW283785   8.616   6.500   0.061
27943SOL     OW83786   9.283   7.145   0.840
27943SOL    HW183787   9.206   7.135   0.785
27943SOL    HW283788   9.266   7.087   0.915
27944SOL     OW83789   7.660   6.871   1.836
27944SOL    HW183790   7.628   6.792   1.793
27944SOL    HW283791   7.601   6.883   1.910
27945SOL     OW83792   7.566   6.804   0.670
27945SOL    HW183793   7.597   6.764   0.751
27945SOL    HW283794   7.626   6.770   0.603
27946SOL     OW83795   8.138   7.005   1.632
27946SOL    HW183796   8.062   6.966   1.674
27946SOL    HW283797   8.143   7.093   1.669
27947SOL     OW83798   9.259   5.757   1.235
27947SOL    HW183799   9.268   5.663   1.250
27947SOL    HW283800   9.271   5.768   1.141
27948SOL     OW83801   7.861   6.020   0.515
27948SOL    HW183802   7.895   5.950   0.459
27948SOL    HW283803   7.813   5.975   0.585
27949SOL     OW83804   9.141   7.067   1.084
27949SOL    HW183805   9.064   7.047   1.030
27949SOL    HW283806   9.141   6.999   1.151
27950SOL     OW83807   7.800   6.151   1.292
27950SOL    HW183808   7.849   6.087   1.343
27950SOL    HW283809   7.808   6.121   1.201
27951SOL     OW83810   8.283   7.183   0.663
27951SOL    HW183811   8.273   7.265   0.615
27951SOL    HW283812   8.207   7.131   0.637
27952SOL     OW83813   8.870   5.819   1.115
27952SOL    HW183814   8.881   5.730   1.150
27952SOL    HW283815   8.824   5.866   1.185
27953SOL     OW83816   8.458   5.603   1.119
27953SOL    HW183817   8.404   5.539   1.073
27953SOL    HW283818   8.545   5.563   1.123
27954SOL     OW83819   8.224   6.912   0.343
27954SOL    HW183820   8.204   6.818   0.347
27954SOL    HW283821   8.309   6.920   0.386
27955SOL     OW83822   8.063   7.156   1.288
27955SOL    HW183823   8.058   7.240   1.333
27955SOL    HW283824   8.153   7.151   1.255
27956SOL     OW83825   8.801   5.643   0.177
27956SOL    HW183826   8.825   5.605   0.092
27956SOL    HW283827   8.712   5.614   0.192
27957SOL     OW83828   8.747   6.054   0.675
27957SOL    HW183829   8.698   6.136   0.671
27957SOL    HW283830   8.738   6.025   0.766
27958SOL     OW83831   9.028   5.772   0.892
27958SOL    HW183832   8.977   5.802   0.967
27958SOL    HW283833   9.027   5.846   0.832
27959SOL     OW83834   7.490   6.630   0.303
27959SOL    HW183835   7.585   6.631   0.308
27959SOL    HW283836   7.465   6.542   0.332
27960SOL     OW83837   8.355   7.267   0.345
27960SOL    HW183838   8.276   7.251   0.292
27960SOL    HW283839   8.330   7.336   0.405
27961SOL     OW83840   7.656   6.208   2.009
27961SOL    HW183841   7.568   6.196   2.047
27961SOL    HW283842   7.644   6.194   1.915
27962SOL     OW83843   7.667   5.874   2.852
27962SOL    HW183844   7.697   5.839   2.935
27962SOL    HW283845   7.580   5.837   2.840
27963SOL     OW83846   7.434   5.982   2.508
27963SOL    HW183847   7.354   6.008   2.555
27963SOL    HW283848   7.407   5.908   2.453
27964SOL     OW83849   8.023   6.894   3.071
27964SOL    HW183850   7.941   6.897   3.023
27964SOL    HW283851   8.040   6.985   3.095
27965SOL     OW83852   9.038   7.110   2.567
27965SOL    HW183853   8.991   7.079   2.644
27965SOL    HW283854   8.972   7.113   2.498
27966SOL     OW83855   8.585   6.290   2.548
27966SOL    HW183856   8.632   6.373   2.537
27966SOL    HW283857   8.537   6.300   2.630
27967SOL     OW83858   9.250   6.165   2.082
27967SOL    HW183859   9.210   6.165   1.994
27967SOL    HW283860   9.205   6.093   2.128
27968SOL     OW83861   8.175   6.716   2.919
27968SOL    HW183862   8.116   6.756   2.984
27968SOL    HW283863   8.217   6.790   2.876
27969SOL     OW83864   8.335   6.327   3.691
27969SOL    HW183865   8.324   6.394   3.758
27969SOL    HW283866   8.352   6.377   3.610
27970SOL     OW83867   8.134   6.571   2.506
27970SOL    HW183868   8.201   6.571   2.574
27970SOL    HW283869   8.068   6.633   2.537
27971SOL     OW83870   8.160   6.736   3.695
27971SOL    HW183871   8.211   6.808   3.730
27971SOL    HW283872   8.084   6.777   3.654
27972SOL     OW83873   7.791   6.983   2.931
27972SOL    HW183874   7.715   6.940   2.892
27972SOL    HW283875   7.827   7.038   2.862
27973SOL     OW83876   8.901   7.093   3.234
27973SOL    HW183877   8.956   7.170   3.246
27973SOL    HW283878   8.829   7.105   3.297
27974SOL     OW83879   7.906   5.960   3.317
27974SOL    HW183880   7.980   5.902   3.333
27974SOL    HW283881   7.829   5.910   3.344
27975SOL     OW83882   9.027   6.018   2.617
27975SOL    HW183883   8.957   6.027   2.552
27975SOL    HW283884   9.011   6.088   2.680
27976SOL     OW83885   7.665   7.314   2.327
27976SOL    HW183886   7.692   7.385   2.385
27976SOL    HW283887   7.739   7.303   2.267
27977SOL     OW83888   8.582   6.928   3.559
27977SOL    HW183889   8.628   6.917   3.642
27977SOL    HW283890   8.529   6.849   3.550
27978SOL     OW83891   7.681   7.043   2.395
27978SOL    HW183892   7.659   7.136   2.400
27978SOL    HW283893   7.631   7.003   2.466
27979SOL     OW83894   7.734   6.676   2.742
27979SOL    HW183895   7.734   6.586   2.775
27979SOL    HW283896   7.677   6.724   2.802
27980SOL     OW83897   8.021   7.389   3.283
27980SOL    HW183898   7.945   7.369   3.338
27980SOL    HW283899   8.054   7.473   3.317
27981SOL     OW83900   8.013   6.574   2.014
27981SOL    HW183901   8.064   6.616   1.945
27981SOL    HW283902   8.054   6.603   2.096
27982SOL     OW83903   9.040   5.718   3.322
27982SOL    HW183904   9.077   5.795   3.280
27982SOL    HW283905   9.006   5.751   3.406
27983SOL     OW83906   7.566   6.245   2.429
27983SOL    HW183907   7.534   6.158   2.453
27983SOL    HW283908   7.561   6.296   2.510
27984SOL     OW83909   9.294   7.330   2.183
27984SOL    HW183910   9.368   7.314   2.242
27984SOL    HW283911   9.305   7.422   2.157
27985SOL     OW83912   7.507   7.166   1.972
27985SOL    HW183913   7.487   7.075   1.991
27985SOL    HW283914   7.476   7.214   2.048
27986SOL     OW83915   9.141   6.512   2.518
27986SOL    HW183916   9.227   6.472   2.507
27986SOL    HW283917   9.126   6.561   2.437
27987SOL     OW83918   9.103   6.691   2.296
27987SOL    HW183919   9.188   6.682   2.252
27987SOL    HW283920   9.119   6.755   2.365
27988SOL     OW83921   7.568   6.335   3.439
27988SOL    HW183922   7.653   6.379   3.444
27988SOL    HW283923   7.506   6.406   3.426
27989SOL     OW83924   8.071   6.984   2.592
27989SOL    HW183925   8.030   6.898   2.597
27989SOL    HW283926   8.055   7.013   2.502
27990SOL     OW83927   8.718   6.812   3.278
27990SOL    HW183928   8.745   6.742   3.218
27990SOL    HW283929   8.780   6.806   3.351
27991SOL     OW83930   8.279   5.598   2.380
27991SOL    HW183931   8.319   5.680   2.353
27991SOL    HW283932   8.185   5.616   2.381
27992SOL     OW83933   7.635   6.542   3.163
27992SOL    HW183934   7.723   6.507   3.147
27992SOL    HW283935   7.581   6.505   3.094
27993SOL     OW83936   8.980   6.602   2.063
27993SOL    HW183937   8.912   6.542   2.093
27993SOL    HW283938   9.022   6.632   2.144
27994SOL     OW83939   8.629   7.409   3.498
27994SOL    HW183940   8.630   7.470   3.424
27994SOL    HW283941   8.645   7.323   3.458
27995SOL     OW83942   7.808   5.840   3.737
27995SOL    HW183943   7.844   5.920   3.775
27995SOL    HW283944   7.713   5.854   3.735
27996SOL     OW83945   8.919   7.004   2.792
27996SOL    HW183946   8.856   7.023   2.861
27996SOL    HW283947   8.902   6.913   2.768
27997SOL     OW83948   9.083   7.385   2.423
27997SOL    HW183949   9.068   7.337   2.341
27997SOL    HW283950   9.086   7.318   2.491
27998SOL     OW83951   8.035   6.285   2.133
27998SOL    HW183952   8.038   6.372   2.096
27998SOL    HW283953   7.970   6.292   2.204
27999SOL     OW83954   8.729   5.979   2.803
27999SOL    HW183955   8.641   5.943   2.808
27999SOL    HW283956   8.782   5.920   2.858
28000SOL     OW83957   9.027   7.260   2.181
28000SOL    HW183958   9.121   7.275   2.170
28000SOL    HW283959   8.994   7.248   2.092
28001SOL     OW83960   8.239   6.199   3.292
28001SOL    HW183961   8.216   6.170   3.381
28001SOL    HW283962   8.214   6.126   3.236
28002SOL     OW83963   8.840   6.063   3.536
28002SOL    HW183964   8.844   6.106   3.622
28002SOL    HW283965   8.889   5.982   3.547
28003SOL     OW83966   8.392   6.466   3.456
28003SOL    HW183967   8.448   6.403   3.411
28003SOL    HW283968   8.343   6.509   3.385
28004SOL     OW83969   8.456   5.983   3.071
28004SOL    HW183970   8.364   5.997   3.093
28004SOL    HW283971   8.453   5.940   2.985
28005SOL     OW83972   8.506   6.283   2.280
28005SOL    HW183973   8.527   6.280   2.374
28005SOL    HW283974   8.421   6.239   2.273
28006SOL     OW83975   7.541   6.412   2.644
28006SOL    HW183976   7.623   6.406   2.693
28006SOL    HW283977   7.493   6.484   2.686
28007SOL     OW83978   7.558   7.465   3.449
28007SOL    HW183979   7.565   7.446   3.543
28007SOL    HW283980   7.472   7.429   3.424
28008SOL     OW83981   8.337   5.936   2.062
28008SOL    HW183982   8.388   5.990   2.001
28008SOL    HW283983   8.315   5.858   2.012
28009SOL     OW83984   9.136   6.150   3.702
28009SOL    HW183985   9.112   6.227   3.652
28009SOL    HW283986   9.161   6.085   3.637
28010SOL     OW83987   8.841   6.736   2.407
28010SOL    HW183988   8.920   6.724   2.355
28010SOL    HW283989   8.788   6.797   2.355
28011SOL     OW83990   7.999   5.746   2.778
28011SOL    HW183991   8.005   5.775   2.869
28011SOL    HW283992   7.995   5.828   2.728
28012SOL     OW83993   8.445   7.042   2.327
28012SOL    HW183994   8.421   7.116   2.272
28012SOL    HW283995   8.415   7.066   2.415
28013SOL     OW83996   7.801   7.402   2.742
28013SOL    HW183997   7.847   7.317   2.746
28013SOL    HW283998   7.868   7.466   2.764
28014SOL     OW83999   9.249   6.637   2.754
28014SOL    HW184000   9.199   6.626   2.673
28014SOL    HW284001   9.182   6.644   2.822
28015SOL     OW84002   8.666   7.130   3.380
28015SOL    HW184003   8.654   7.059   3.443
28015SOL    HW284004   8.597   7.115   3.314
28016SOL     OW84005   7.748   6.545   2.128
28016SOL    HW184006   7.831   6.565   2.084
28016SOL    HW284007   7.726   6.457   2.097
28017SOL     OW84008   8.930   6.347   2.572
28017SOL    HW184009   8.933   6.305   2.658
28017SOL    HW284010   9.009   6.402   2.571
28018SOL     OW84011   7.921   6.870   3.610
28018SOL    HW184012   7.897   6.874   3.517
28018SOL    HW284013   7.838   6.857   3.656
28019SOL     OW84014   8.587   7.363   2.087
28019SOL    HW184015   8.506   7.332   2.127
28019SOL    HW284016   8.607   7.297   2.020
28020SOL     OW84017   7.656   5.843   3.361
28020SOL    HW184018   7.583   5.903   3.379
28020SOL    HW284019   7.626   5.758   3.395
28021SOL     OW84020   9.071   6.978   1.960
28021SOL    HW184021   9.031   7.063   1.945
28021SOL    HW284022   9.005   6.915   1.931
28022SOL     OW84023   7.906   7.327   2.178
28022SOL    HW184024   7.956   7.378   2.243
28022SOL    HW284025   7.974   7.286   2.123
28023SOL     OW84026   8.845   5.691   2.321
28023SOL    HW184027   8.845   5.667   2.228
28023SOL    HW284028   8.935   5.675   2.350
28024SOL     OW84029   7.700   7.375   3.077
28024SOL    HW184030   7.748   7.300   3.111
28024SOL    HW284031   7.685   7.353   2.984
28025SOL     OW84032   8.397   7.288   2.752
28025SOL    HW184033   8.481   7.247   2.767
28025SOL    HW284034   8.357   7.237   2.681
28026SOL     OW84035   7.842   6.271   2.334
28026SOL    HW184036   7.855   6.177   2.347
28026SOL    HW284037   7.750   6.286   2.352
28027SOL     OW84038   8.953   5.808   3.579
28027SOL    HW184039   8.966   5.826   3.672
28027SOL    HW284040   8.887   5.738   3.578
28028SOL     OW84041   8.111   5.695   1.964
28028SOL    HW184042   8.158   5.617   1.992
28028SOL    HW284043   8.050   5.665   1.897
28029SOL     OW84044   8.207   5.859   3.614
28029SOL    HW184045   8.291   5.814   3.612
28029SOL    HW284046   8.160   5.820   3.687
28030SOL     OW84047   8.317   7.113   3.061
28030SOL    HW184048   8.299   7.072   2.977
28030SOL    HW284049   8.384   7.058   3.101
28031SOL     OW84050   8.777   6.177   3.295
28031SOL    HW184051   8.810   6.147   3.380
28031SOL    HW284052   8.816   6.264   3.284
28032SOL     OW84053   8.264   6.962   2.819
28032SOL    HW184054   8.352   6.958   2.780
28032SOL    HW284055   8.206   6.977   2.744
28033SOL     OW84056   8.379   6.101   2.750
28033SOL    HW184057   8.353   6.089   2.658
28033SOL    HW284058   8.406   6.014   2.779
28034SOL     OW84059   8.012   5.649   2.352
28034SOL    HW184060   7.934   5.650   2.408
28034SOL    HW284061   8.000   5.724   2.293
28035SOL     OW84062   8.876   6.795   1.892
28035SOL    HW184063   8.907   6.723   1.946
28035SOL    HW284064   8.791   6.818   1.930
28036SOL     OW84065   7.731   5.634   2.051
28036SOL    HW184066   7.784   5.701   2.008
28036SOL    HW284067   7.794   5.576   2.092
28037SOL     OW84068   8.400   5.837   2.313
28037SOL    HW184069   8.374   5.872   2.227
28037SOL    HW284070   8.494   5.854   2.318
28038SOL     OW84071   8.523   6.280   3.307
28038SOL    HW184072   8.460   6.209   3.312
28038SOL    HW284073   8.608   6.237   3.304
28039SOL     OW84074   8.654   7.172   2.664
28039SOL    HW184075   8.669   7.233   2.591
28039SOL    HW284076   8.728   7.186   2.723
28040SOL     OW84077   7.930   6.748   2.570
28040SOL    HW184078   7.869   6.723   2.639
28040SOL    HW284079   7.880   6.741   2.489
28041SOL     OW84080   8.699   7.378   2.479
28041SOL    HW184081   8.748   7.440   2.426
28041SOL    HW284082   8.628   7.429   2.518
28042SOL     OW84083   8.480   6.101   1.892
28042SOL    HW184084   8.437   6.184   1.873
28042SOL    HW284085   8.543   6.121   1.960
28043SOL     OW84086   7.547   6.138   3.252
28043SOL    HW184087   7.639   6.139   3.227
28043SOL    HW284088   7.539   6.206   3.319
28044SOL     OW84089   8.007   5.807   3.047
28044SOL    HW184090   8.044   5.745   3.109
28044SOL    HW284091   7.913   5.808   3.068
28045SOL     OW84092   8.318   6.040   2.492
28045SOL    HW184093   8.278   6.096   2.425
28045SOL    HW284094   8.343   5.961   2.445
28046SOL     OW84095   8.470   5.644   2.602
28046SOL    HW184096   8.409   5.638   2.528
28046SOL    HW284097   8.445   5.572   2.659
28047SOL     OW84098   8.880   6.740   2.716
28047SOL    HW184099   8.811   6.674   2.726
28047SOL    HW284100   8.894   6.746   2.622
28048SOL     OW84101   8.908   6.202   2.811
28048SOL    HW184102   8.845   6.132   2.821
28048SOL    HW284103   8.964   6.196   2.888
28049SOL     OW84104   9.277   6.380   2.248
28049SOL    HW184105   9.334   6.336   2.311
28049SOL    HW284106   9.263   6.315   2.179
28050SOL     OW84107   7.946   7.011   2.013
28050SOL    HW184108   7.871   6.979   2.063
28050SOL    HW284109   7.943   6.961   1.931
28051SOL     OW84110   9.159   6.856   2.498
28051SOL    HW184111   9.253   6.849   2.516
28051SOL    HW284112   9.136   6.946   2.523
28052SOL     OW84113   8.840   6.161   1.928
28052SOL    HW184114   8.784   6.134   2.001
28052SOL    HW284115   8.928   6.137   1.956
28053SOL     OW84116   7.975   5.843   2.164
28053SOL    HW184117   8.029   5.801   2.096
28053SOL    HW284118   7.943   5.923   2.123
28054SOL     OW84119   9.180   6.831   3.394
28054SOL    HW184120   9.267   6.794   3.381
28054SOL    HW284121   9.196   6.918   3.431
28055SOL     OW84122   8.489   6.941   3.197
28055SOL    HW184123   8.412   6.906   3.242
28055SOL    HW284124   8.563   6.896   3.237
28056SOL     OW84125   9.056   7.222   3.534
28056SOL    HW184126   9.045   7.257   3.445
28056SOL    HW284127   9.133   7.166   3.528
28057SOL     OW84128   8.599   6.824   2.967
28057SOL    HW184129   8.537   6.858   3.032
28057SOL    HW284130   8.566   6.856   2.883
28058SOL     OW84131   9.054   6.678   2.941
28058SOL    HW184132   9.046   6.744   3.009
28058SOL    HW284133   8.984   6.699   2.879
28059SOL     OW84134   8.367   5.667   3.245
28059SOL    HW184135   8.388   5.652   3.153
28059SOL    HW284136   8.446   5.708   3.281
28060SOL     OW84137   8.427   6.701   3.586
28060SOL    HW184138   8.337   6.717   3.614
28060SOL    HW284139   8.423   6.620   3.535
28061SOL     OW84140   8.162   6.648   2.238
28061SOL    HW184141   8.147   6.622   2.329
28061SOL    HW284142   8.236   6.595   2.209
28062SOL     OW84143   7.875   6.413   3.121
28062SOL    HW184144   7.942   6.423   3.188
28062SOL    HW284145   7.844   6.323   3.131
28063SOL     OW84146   8.712   5.954   3.154
28063SOL    HW184147   8.740   6.034   3.198
28063SOL    HW284148   8.623   5.972   3.124
28064SOL     OW84149   7.525   7.156   3.225
28064SOL    HW184150   7.495   7.227   3.169
28064SOL    HW284151   7.621   7.156   3.215
28065SOL     OW84152   7.765   6.720   2.348
28065SOL    HW184153   7.766   6.792   2.285
28065SOL    HW284154   7.762   6.641   2.295
28066SOL     OW84155   7.982   6.102   2.721
28066SOL    HW184156   7.995   6.161   2.646
28066SOL    HW284157   8.050   6.128   2.783
28067SOL     OW84158   8.695   6.941   2.260
28067SOL    HW184159   8.752   7.010   2.294
28067SOL    HW284160   8.607   6.964   2.291
28068SOL     OW84161   8.757   7.054   3.004
28068SOL    HW184162   8.805   7.061   3.087
28068SOL    HW284163   8.707   6.974   3.012
28069SOL     OW84164   9.021   6.204   2.346
28069SOL    HW184165   8.971   6.243   2.418
28069SOL    HW284166   9.066   6.278   2.306
28070SOL     OW84167   7.792   7.120   3.163
28070SOL    HW184168   7.785   7.067   3.084
28070SOL    HW284169   7.886   7.136   3.173
28071SOL     OW84170   7.879   6.333   3.480
28071SOL    HW184171   7.939   6.376   3.418
28071SOL    HW284172   7.922   6.250   3.500
28072SOL     OW84173   9.071   6.372   3.562
28072SOL    HW184174   8.984   6.410   3.552
28072SOL    HW284175   9.121   6.409   3.489
28073SOL     OW84176   8.443   5.726   3.619
28073SOL    HW184177   8.502   5.800   3.601
28073SOL    HW284178   8.495   5.649   3.598
28074SOL     OW84179   7.943   5.621   3.624
28074SOL    HW184180   7.887   5.571   3.564
28074SOL    HW284181   7.890   5.698   3.646
28075SOL     OW84182   8.039   6.461   2.901
28075SOL    HW184183   8.077   6.548   2.904
28075SOL    HW284184   7.982   6.456   2.977
28076SOL     OW84185   8.756   6.440   2.864
28076SOL    HW184186   8.667   6.412   2.840
28076SOL    HW284187   8.810   6.363   2.846
28077SOL     OW84188   8.646   6.109   2.119
28077SOL    HW184189   8.657   6.032   2.176
28077SOL    HW284190   8.605   6.174   2.175
28078SOL     OW84191   7.739   5.780   3.101
28078SOL    HW184192   7.704   5.809   3.185
28078SOL    HW284193   7.722   5.686   3.099
28079SOL     OW84194   7.500   6.898   3.127
28079SOL    HW184195   7.528   6.842   3.199
28079SOL    HW284196   7.501   6.987   3.164
28080SOL     OW84197   8.159   6.208   2.901
28080SOL    HW184198   8.237   6.201   2.845
28080SOL    HW284199   8.131   6.299   2.891
28081SOL     OW84200   9.193   6.552   3.735
28081SOL    HW184201   9.153   6.481   3.685
28081SOL    HW284202   9.129   6.573   3.803
28082SOL     OW84203   7.773   5.646   2.490
28082SOL    HW184204   7.739   5.734   2.508
28082SOL    HW284205   7.779   5.604   2.576
28083SOL     OW84206   9.079   5.977   2.205
28083SOL    HW184207   9.112   5.911   2.267
28083SOL    HW284208   9.049   6.049   2.261
28084SOL     OW84209   8.482   6.344   2.818
28084SOL    HW184210   8.460   6.359   2.910
28084SOL    HW284211   8.452   6.255   2.801
28085SOL     OW84212   8.428   7.152   3.596
28085SOL    HW184213   8.407   7.195   3.513
28085SOL    HW284214   8.466   7.068   3.571
28086SOL     OW84215   9.286   7.080   3.463
28086SOL    HW184216   9.312   7.108   3.375
28086SOL    HW284217   9.365   7.090   3.516
28087SOL     OW84218   7.797   6.506   3.677
28087SOL    HW184219   7.874   6.523   3.733
28087SOL    HW284220   7.828   6.443   3.612
28088SOL     OW84221   8.969   5.855   1.981
28088SOL    HW184222   8.917   5.784   2.018
28088SOL    HW284223   9.009   5.898   2.056
28089SOL     OW84224   8.728   6.407   1.881
28089SOL    HW184225   8.768   6.320   1.889
28089SOL    HW284226   8.764   6.443   1.800
28090SOL     OW84227   8.518   6.938   2.728
28090SOL    HW184228   8.529   6.866   2.667
28090SOL    HW284229   8.569   7.010   2.691
28091SOL     OW84230   7.766   6.401   2.806
28091SOL    HW184231   7.861   6.416   2.805
28091SOL    HW284232   7.756   6.312   2.837
28092SOL     OW84233   7.761   6.124   2.873
28092SOL    HW184234   7.722   6.037   2.863
28092SOL    HW284235   7.838   6.122   2.816
28093SOL     OW84236   8.587   5.953   3.547
28093SOL    HW184237   8.541   6.004   3.614
28093SOL    HW284238   8.672   5.997   3.538
28094SOL     OW84239   8.604   5.775   3.336
28094SOL    HW184240   8.593   5.837   3.408
28094SOL    HW284241   8.650   5.825   3.268
28095SOL     OW84242   7.472   6.889   2.041
28095SOL    HW184243   7.382   6.911   2.016
28095SOL    HW284244   7.465   6.803   2.082
28096SOL     OW84245   7.541   7.356   2.813
28096SOL    HW184246   7.507   7.282   2.762
28096SOL    HW284247   7.628   7.373   2.777
28097SOL     OW84248   7.933   7.156   2.762
28097SOL    HW184249   8.003   7.216   2.785
28097SOL    HW284250   7.973   7.094   2.701
28098SOL     OW84251   8.396   6.367   3.077
28098SOL    HW184252   8.459   6.356   3.148
28098SOL    HW284253   8.318   6.321   3.106
28099SOL     OW84254   7.487   6.159   2.982
28099SOL    HW184255   7.569   6.155   2.933
28099SOL    HW284256   7.514   6.151   3.074
28100SOL     OW84257   7.633   6.124   3.605
28100SOL    HW184258   7.704   6.091   3.551
28100SOL    HW284259   7.597   6.198   3.556
28101SOL     OW84260   8.837   6.506   3.513
28101SOL    HW184261   8.854   6.600   3.508
28101SOL    HW284262   8.830   6.478   3.422
28102SOL     OW84263   8.266   6.154   2.233
28102SOL    HW184264   8.275   6.080   2.174
28102SOL    HW284265   8.189   6.201   2.202
28103SOL     OW84266   9.081   6.187   3.024
28103SOL    HW184267   9.071   6.128   3.099
28103SOL    HW284268   9.171   6.175   2.996
28104SOL     OW84269   7.674   7.125   3.586
28104SOL    HW184270   7.648   7.172   3.666
28104SOL    HW284271   7.687   7.035   3.614
28105SOL     OW84272   8.182   6.019   3.095
28105SOL    HW184273   8.118   5.950   3.081
28105SOL    HW284274   8.164   6.083   3.027
28106SOL     OW84275   8.355   7.265   3.349
28106SOL    HW184276   8.332   7.218   3.269
28106SOL    HW284277   8.356   7.357   3.322
28107SOL     OW84278   7.890   6.067   2.025
28107SOL    HW184279   7.955   6.133   2.050
28107SOL    HW284280   7.807   6.113   2.029
28108SOL     OW84281   7.578   6.737   3.342
28108SOL    HW184282   7.582   6.697   3.429
28108SOL    HW284283   7.599   6.665   3.282
28109SOL     OW84284   8.751   6.619   3.070
28109SOL    HW184285   8.760   6.556   2.999
28109SOL    HW284286   8.697   6.690   3.033
28110SOL     OW84287   8.773   6.446   2.154
28110SOL    HW184288   8.703   6.410   2.208
28110SOL    HW284289   8.744   6.430   2.064
28111SOL     OW84290   9.238   7.308   3.033
28111SOL    HW184291   9.299   7.335   2.964
28111SOL    HW284292   9.205   7.223   3.004
28112SOL     OW84293   8.688   7.320   2.953
28112SOL    HW184294   8.773   7.349   2.919
28112SOL    HW284295   8.703   7.228   2.977
28113SOL     OW84296   7.555   6.834   2.870
28113SOL    HW184297   7.527   6.855   2.959
28113SOL    HW284298   7.483   6.781   2.835
28114SOL     OW84299   8.135   7.269   3.612
28114SOL    HW184300   8.072   7.340   3.598
28114SOL    HW284301   8.209   7.292   3.556
28115SOL     OW84302   9.197   5.772   2.355
28115SOL    HW184303   9.256   5.750   2.283
28115SOL    HW284304   9.168   5.686   2.389
28116SOL     OW84305   8.846   7.156   2.365
28116SOL    HW184306   8.901   7.190   2.295
28116SOL    HW284307   8.791   7.229   2.392
28117SOL     OW84308   7.580   7.395   3.706
28117SOL    HW184309   7.541   7.318   3.747
28117SOL    HW284310   7.631   7.436   3.776
28118SOL     OW84311   8.726   6.522   2.526
28118SOL    HW184312   8.800   6.462   2.539
28118SOL    HW284313   8.763   6.594   2.474
28119SOL     OW84314   8.231   6.866   3.276
28119SOL    HW184315   8.205   6.913   3.355
28119SOL    HW284316   8.157   6.876   3.217
28120SOL     OW84317   8.116   7.222   2.021
28120SOL    HW184318   8.131   7.236   1.928
28120SOL    HW284319   8.064   7.142   2.026
28121SOL     OW84320   9.065   7.316   3.263
28121SOL    HW184321   9.122   7.315   3.187
28121SOL    HW284322   9.049   7.408   3.281
28122SOL     OW84323   9.290   5.745   2.827
28122SOL    HW184324   9.320   5.657   2.807
28122SOL    HW284325   9.203   5.750   2.788
28123SOL     OW84326   7.690   5.893   2.570
28123SOL    HW184327   7.604   5.929   2.549
28123SOL    HW284328   7.694   5.894   2.666
28124SOL     OW84329   8.656   7.174   1.900
28124SOL    HW184330   8.646   7.083   1.928
28124SOL    HW284331   8.586   7.187   1.836
28125SOL     OW84332   8.271   6.597   3.248
28125SOL    HW184333   8.309   6.588   3.160
28125SOL    HW284334   8.260   6.691   3.259
28126SOL     OW84335   8.367   6.496   2.155
28126SOL    HW184336   8.424   6.529   2.086
28126SOL    HW284337   8.419   6.429   2.199
28127SOL     OW84338   8.929   7.235   1.919
28127SOL    HW184339   8.837   7.215   1.901
28127SOL    HW284340   8.969   7.238   1.832
28128SOL     OW84341   7.810   6.899   3.364
28128SOL    HW184342   7.802   6.972   3.302
28128SOL    HW284343   7.733   6.845   3.347
28129SOL     OW84344   9.045   6.877   3.139
28129SOL    HW184345   9.099   6.852   3.214
28129SOL    HW284346   8.987   6.944   3.173
28130SOL     OW84347   8.524   6.705   2.591
28130SOL    HW184348   8.449   6.656   2.622
28130SOL    HW284349   8.586   6.639   2.561
28131SOL     OW84350   8.481   5.835   2.822
28131SOL    HW184351   8.480   5.792   2.736
28131SOL    HW284352   8.474   5.763   2.885
28132SOL     OW84353   8.052   7.072   2.337
28132SOL    HW184354   8.107   7.023   2.275
28132SOL    HW284355   7.970   7.086   2.289
28133SOL     OW84356   9.190   5.967   3.250
28133SOL    HW184357   9.258   6.033   3.245
28133SOL    HW284358   9.217   5.899   3.189
28134SOL     OW84359   7.727   6.927   2.160
28134SOL    HW184360   7.640   6.919   2.122
28134SOL    HW284361   7.713   6.975   2.242
28135SOL     OW84362   7.568   6.633   3.597
28135SOL    HW184363   7.491   6.604   3.646
28135SOL    HW284364   7.640   6.582   3.634
28136SOL     OW84365   8.127   5.774   3.356
28136SOL    HW184366   8.211   5.748   3.318
28136SOL    HW284367   8.150   5.808   3.443
28137SOL     OW84368   7.534   5.903   1.876
28137SOL    HW184369   7.456   5.882   1.825
28137SOL    HW284370   7.562   5.989   1.844
28138SOL     OW84371   8.862   6.439   3.250
28138SOL    HW184372   8.810   6.498   3.195
28138SOL    HW284373   8.950   6.444   3.212
28139SOL     OW84374   7.492   5.735   2.135
28139SOL    HW184375   7.480   5.805   2.071
28139SOL    HW284376   7.580   5.703   2.118
28140SOL     OW84377   8.629   6.908   1.986
28140SOL    HW184378   8.539   6.877   1.986
28140SOL    HW284379   8.653   6.912   2.078
28141SOL     OW84380   8.074   6.417   3.303
28141SOL    HW184381   8.133   6.492   3.292
28141SOL    HW284382   8.132   6.340   3.302
28142SOL     OW84383   8.935   7.388   2.856
28142SOL    HW184384   8.961   7.462   2.801
28142SOL    HW284385   9.017   7.344   2.877
28143SOL     OW84386   8.174   6.133   3.547
28143SOL    HW184387   8.220   6.187   3.612
28143SOL    HW284388   8.184   6.044   3.580
28144SOL     OW84389   8.914   6.770   3.480
28144SOL    HW184390   8.906   6.791   3.573
28144SOL    HW284391   9.004   6.794   3.457
28145SOL     OW84392   7.802   7.332   3.443
28145SOL    HW184393   7.720   7.378   3.425
28145SOL    HW284394   7.775   7.249   3.481
28146SOL     OW84395   9.101   6.460   3.113
28146SOL    HW184396   9.099   6.377   3.066
28146SOL    HW284397   9.089   6.527   3.045
28147SOL     OW84398   8.669   5.909   2.318
28147SOL    HW184399   8.729   5.834   2.317
28147SOL    HW284400   8.697   5.960   2.393
28148SOL     OW84401   8.025   6.311   2.542
28148SOL    HW184402   8.068   6.396   2.528
28148SOL    HW284403   7.963   6.303   2.469
28149SOL     OW84404   9.190   5.942   3.526
28149SOL    HW184405   9.187   5.958   3.431
28149SOL    HW284406   9.112   5.888   3.543
28150SOL     OW84407   9.202   6.506   3.365
28150SOL    HW184408   9.189   6.600   3.377
28150SOL    HW284409   9.176   6.490   3.274
28151SOL     OW84410   8.317   6.943   1.924
28151SOL    HW184411   8.280   6.961   2.010
28151SOL    HW284412   8.328   7.029   1.884
28152SOL     OW84413   8.117   7.352   2.787
28152SOL    HW184414   8.097   7.446   2.780
28152SOL    HW284415   8.212   7.347   2.786
28153SOL     OW84416   8.320   6.563   2.718
28153SOL    HW184417   8.370   6.490   2.753
28153SOL    HW284418   8.275   6.600   2.794
28154SOL     OW84419   8.521   6.571   1.949
28154SOL    HW184420   8.500   6.625   1.872
28154SOL    HW284421   8.594   6.517   1.921
28155SOL     OW84422   9.282   7.144   2.701
28155SOL    HW184423   9.205   7.136   2.645
28155SOL    HW284424   9.262   7.090   2.777
28156SOL     OW84425   7.660   6.871   3.697
28156SOL    HW184426   7.628   6.791   3.655
28156SOL    HW284427   7.601   6.883   3.772
28157SOL     OW84428   7.566   6.812   2.530
28157SOL    HW184429   7.594   6.771   2.611
28157SOL    HW284430   7.625   6.778   2.463
28158SOL     OW84431   8.138   7.005   3.494
28158SOL    HW184432   8.062   6.966   3.536
28158SOL    HW284433   8.143   7.093   3.531
28159SOL     OW84434   9.261   5.758   3.098
28159SOL    HW184435   9.268   5.663   3.112
28159SOL    HW284436   9.272   5.768   3.003
28160SOL     OW84437   7.865   6.009   2.380
28160SOL    HW184438   7.899   5.937   2.326
28160SOL    HW284439   7.814   5.965   2.447
28161SOL     OW84440   9.143   7.066   2.943
28161SOL    HW184441   9.065   7.047   2.891
28161SOL    HW284442   9.143   6.999   3.011
28162SOL     OW84443   7.800   6.151   3.153
28162SOL    HW184444   7.849   6.087   3.204
28162SOL    HW284445   7.807   6.122   3.062
28163SOL     OW84446   8.286   7.169   2.533
28163SOL    HW184447   8.254   7.237   2.475
28163SOL    HW284448   8.211   7.109   2.544
28164SOL     OW84449   8.869   5.819   2.977
28164SOL    HW184450   8.878   5.729   3.010
28164SOL    HW284451   8.823   5.865   3.046
28165SOL     OW84452   8.458   5.604   2.981
28165SOL    HW184453   8.404   5.541   2.934
28165SOL    HW284454   8.545   5.563   2.985
28166SOL     OW84455   8.229   6.918   2.190
28166SOL    HW184456   8.205   6.826   2.202
28166SOL    HW284457   8.308   6.929   2.242
28167SOL     OW84458   8.063   7.156   3.150
28167SOL    HW184459   8.058   7.240   3.196
28167SOL    HW284460   8.153   7.151   3.117
28168SOL     OW84461   8.829   5.625   2.054
28168SOL    HW184462   8.869   5.552   2.006
28168SOL    HW284463   8.737   5.598   2.064
28169SOL     OW84464   8.746   6.057   2.537
28169SOL    HW184465   8.696   6.138   2.534
28169SOL    HW284466   8.738   6.027   2.628
28170SOL     OW84467   9.028   5.773   2.754
28170SOL    HW184468   8.976   5.802   2.829
28170SOL    HW284469   9.028   5.847   2.694
28171SOL     OW84470   7.485   6.637   2.169
28171SOL    HW184471   7.578   6.626   2.152
28171SOL    HW284472   7.453   6.549   2.190
28172SOL     OW84473   8.343   7.262   2.192
28172SOL    HW184474   8.265   7.246   2.140
28172SOL    HW284475   8.318   7.330   2.254
28173SOL     OW84476   7.656   6.208   3.871
28173SOL    HW184477   7.569   6.196   3.909
28173SOL    HW284478   7.644   6.193   3.777
28174SOL     OW84479   7.667   5.874   4.713
28174SOL    HW184480   7.698   5.839   4.796
28174SOL    HW284481   7.580   5.837   4.701
28175SOL     OW84482   7.431   5.983   4.370
28175SOL    HW184483   7.352   6.008   4.416
28175SOL    HW284484   7.405   5.908   4.316
28176SOL     OW84485   8.023   6.894   4.933
28176SOL    HW184486   7.941   6.896   4.885
28176SOL    HW284487   8.039   6.985   4.957
28177SOL     OW84488   9.038   7.110   4.429
28177SOL    HW184489   8.991   7.079   4.506
28177SOL    HW284490   8.972   7.113   4.360
28178SOL     OW84491   8.586   6.289   4.409
28178SOL    HW184492   8.632   6.372   4.399
28178SOL    HW284493   8.537   6.299   4.491
28179SOL     OW84494   9.250   6.165   3.944
28179SOL    HW184495   9.211   6.165   3.857
28179SOL    HW284496   9.205   6.094   3.990
28180SOL     OW84497   8.175   6.716   4.782
28180SOL    HW184498   8.117   6.756   4.846
28180SOL    HW284499   8.217   6.790   4.738
28181SOL     OW84500   8.336   6.327   5.553
28181SOL    HW184501   8.324   6.395   5.620
28181SOL    HW284502   8.352   6.377   5.472
28182SOL     OW84503   8.134   6.571   4.368
28182SOL    HW184504   8.201   6.571   4.436
28182SOL    HW284505   8.068   6.633   4.399
28183SOL     OW84506   8.160   6.736   5.557
28183SOL    HW184507   8.212   6.809   5.592
28183SOL    HW284508   8.084   6.778   5.517
28184SOL     OW84509   7.792   6.983   4.793
28184SOL    HW184510   7.716   6.940   4.753
28184SOL    HW284511   7.827   7.038   4.723
28185SOL     OW84512   8.901   7.093   5.096
28185SOL    HW184513   8.956   7.170   5.109
28185SOL    HW284514   8.829   7.104   5.158
28186SOL     OW84515   7.907   5.961   5.179
28186SOL    HW184516   7.980   5.902   5.195
28186SOL    HW284517   7.830   5.910   5.206
28187SOL     OW84518   9.027   6.017   4.479
28187SOL    HW184519   8.956   6.026   4.415
28187SOL    HW284520   9.011   6.088   4.542
28188SOL     OW84521   7.665   7.315   4.189
28188SOL    HW184522   7.692   7.386   4.247
28188SOL    HW284523   7.739   7.303   4.129
28189SOL     OW84524   8.582   6.927   5.421
28189SOL    HW184525   8.627   6.917   5.504
28189SOL    HW284526   8.529   6.848   5.412
28190SOL     OW84527   7.685   7.043   4.257
28190SOL    HW184528   7.659   7.135   4.263
28190SOL    HW284529   7.634   7.000   4.326
28191SOL     OW84530   7.739   6.675   4.608
28191SOL    HW184531   7.736   6.586   4.641
28191SOL    HW284532   7.680   6.724   4.666
28192SOL     OW84533   8.023   7.388   5.147
28192SOL    HW184534   7.946   7.368   5.201
28192SOL    HW284535   8.054   7.473   5.181
28193SOL     OW84536   8.014   6.573   3.876
28193SOL    HW184537   8.065   6.615   3.807
28193SOL    HW284538   8.054   6.603   3.957
28194SOL     OW84539   9.041   5.718   5.185
28194SOL    HW184540   9.077   5.795   5.142
28194SOL    HW284541   9.006   5.750   5.268
28195SOL     OW84542   7.567   6.244   4.291
28195SOL    HW184543   7.533   6.158   4.315
28195SOL    HW284544   7.561   6.295   4.372
28196SOL     OW84545   9.294   7.330   4.044
28196SOL    HW184546   9.367   7.314   4.104
28196SOL    HW284547   9.305   7.422   4.019
28197SOL     OW84548   7.509   7.166   3.833
28197SOL    HW184549   7.487   7.075   3.852
28197SOL    HW284550   7.477   7.214   3.909
28198SOL     OW84551   9.141   6.513   4.380
28198SOL    HW184552   9.226   6.472   4.367
28198SOL    HW284553   9.125   6.562   4.300
28199SOL     OW84554   9.103   6.691   4.158
28199SOL    HW184555   9.188   6.682   4.114
28199SOL    HW284556   9.119   6.756   4.227
28200SOL     OW84557   7.566   6.335   5.301
28200SOL    HW184558   7.650   6.380   5.304
28200SOL    HW284559   7.502   6.404   5.286
28201SOL     OW84560   8.072   6.984   4.454
28201SOL    HW184561   8.030   6.898   4.460
28201SOL    HW284562   8.056   7.013   4.365
28202SOL     OW84563   8.718   6.812   5.140
28202SOL    HW184564   8.745   6.742   5.080
28202SOL    HW284565   8.779   6.806   5.213
28203SOL     OW84566   8.279   5.598   4.243
28203SOL    HW184567   8.319   5.680   4.215
28203SOL    HW284568   8.185   5.616   4.243
28204SOL     OW84569   7.635   6.542   5.027
28204SOL    HW184570   7.723   6.507   5.009
28204SOL    HW284571   7.580   6.506   4.958
28205SOL     OW84572   8.980   6.602   3.925
28205SOL    HW184573   8.912   6.542   3.955
28205SOL    HW284574   9.022   6.632   4.006
28206SOL     OW84575   8.630   7.409   5.360
28206SOL    HW184576   8.629   7.470   5.287
28206SOL    HW284577   8.645   7.323   5.320
28207SOL     OW84578   7.806   5.839   5.600
28207SOL    HW184579   7.842   5.920   5.637
28207SOL    HW284580   7.712   5.854   5.596
28208SOL     OW84581   8.919   7.004   4.653
28208SOL    HW184582   8.857   7.023   4.723
28208SOL    HW284583   8.902   6.913   4.629
28209SOL     OW84584   9.084   7.385   4.285
28209SOL    HW184585   9.068   7.338   4.203
28209SOL    HW284586   9.086   7.318   4.352
28210SOL     OW84587   8.034   6.285   3.996
28210SOL    HW184588   8.037   6.373   3.958
28210SOL    HW284589   7.970   6.292   4.066
28211SOL     OW84590   8.729   5.979   4.665
28211SOL    HW184591   8.641   5.944   4.670
28211SOL    HW284592   8.781   5.920   4.720
28212SOL     OW84593   9.027   7.260   4.043
28212SOL    HW184594   9.121   7.275   4.032
28212SOL    HW284595   8.994   7.248   3.954
28213SOL     OW84596   8.240   6.199   5.154
28213SOL    HW184597   8.217   6.170   5.243
28213SOL    HW284598   8.215   6.126   5.098
28214SOL     OW84599   8.839   6.064   5.398
28214SOL    HW184600   8.844   6.106   5.483
28214SOL    HW284601   8.888   5.982   5.409
28215SOL     OW84602   8.392   6.467   5.318
28215SOL    HW184603   8.448   6.403   5.273
28215SOL    HW284604   8.343   6.509   5.247
28216SOL     OW84605   8.456   5.983   4.933
28216SOL    HW184606   8.364   5.996   4.955
28216SOL    HW284607   8.453   5.940   4.847
28217SOL     OW84608   8.506   6.283   4.142
28217SOL    HW184609   8.527   6.280   4.235
28217SOL    HW284610   8.421   6.240   4.135
28218SOL     OW84611   7.543   6.410   4.507
28218SOL    HW184612   7.624   6.406   4.557
28218SOL    HW284613   7.494   6.483   4.546
28219SOL     OW84614   7.558   7.465   5.310
28219SOL    HW184615   7.564   7.446   5.404
28219SOL    HW284616   7.474   7.428   5.284
28220SOL     OW84617   8.335   5.937   3.924
28220SOL    HW184618   8.387   5.989   3.863
28220SOL    HW284619   8.310   5.859   3.874
28221SOL     OW84620   9.136   6.150   5.564
28221SOL    HW184621   9.112   6.227   5.514
28221SOL    HW284622   9.161   6.085   5.499
28222SOL     OW84623   8.841   6.736   4.269
28222SOL    HW184624   8.920   6.724   4.218
28222SOL    HW284625   8.787   6.797   4.218
28223SOL     OW84626   8.000   5.746   4.639
28223SOL    HW184627   8.006   5.775   4.730
28223SOL    HW284628   7.994   5.828   4.589
28224SOL     OW84629   8.445   7.042   4.189
28224SOL    HW184630   8.421   7.116   4.134
28224SOL    HW284631   8.415   7.066   4.277
28225SOL     OW84632   7.802   7.402   4.602
28225SOL    HW184633   7.847   7.317   4.607
28225SOL    HW284634   7.869   7.466   4.625
28226SOL     OW84635   9.249   6.637   4.616
28226SOL    HW184636   9.199   6.625   4.535
28226SOL    HW284637   9.182   6.644   4.684
28227SOL     OW84638   8.666   7.130   5.241
28227SOL    HW184639   8.654   7.058   5.304
28227SOL    HW284640   8.597   7.115   5.176
28228SOL     OW84641   7.749   6.545   3.991
28228SOL    HW184642   7.831   6.565   3.946
28228SOL    HW284643   7.726   6.457   3.960
28229SOL     OW84644   8.931   6.347   4.434
28229SOL    HW184645   8.933   6.305   4.520
28229SOL    HW284646   9.009   6.402   4.433
28230SOL     OW84647   7.921   6.870   5.472
28230SOL    HW184648   7.896   6.875   5.380
28230SOL    HW284649   7.838   6.857   5.518
28231SOL     OW84650   8.588   7.362   3.950
28231SOL    HW184651   8.506   7.332   3.989
28231SOL    HW284652   8.607   7.297   3.883
28232SOL     OW84653   7.656   5.844   5.221
28232SOL    HW184654   7.581   5.903   5.230
28232SOL    HW284655   7.626   5.760   5.256
28233SOL     OW84656   9.071   6.978   3.821
28233SOL    HW184657   9.030   7.063   3.807
28233SOL    HW284658   9.005   6.915   3.794
28234SOL     OW84659   7.906   7.328   4.040
28234SOL    HW184660   7.955   7.378   4.105
28234SOL    HW284661   7.973   7.286   3.986
28235SOL     OW84662   8.845   5.691   4.183
28235SOL    HW184663   8.845   5.667   4.090
28235SOL    HW284664   8.935   5.675   4.211
28236SOL     OW84665   7.700   7.376   4.937
28236SOL    HW184666   7.747   7.299   4.971
28236SOL    HW284667   7.680   7.354   4.847
28237SOL     OW84668   8.397   7.288   4.613
28237SOL    HW184669   8.481   7.247   4.628
28237SOL    HW284670   8.357   7.237   4.543
28238SOL     OW84671   7.843   6.270   4.197
28238SOL    HW184672   7.856   6.176   4.210
28238SOL    HW284673   7.750   6.285   4.215
28239SOL     OW84674   8.952   5.808   5.441
28239SOL    HW184675   8.966   5.826   5.534
28239SOL    HW284676   8.886   5.739   5.439
28240SOL     OW84677   8.111   5.696   3.826
28240SOL    HW184678   8.157   5.616   3.854
28240SOL    HW284679   8.050   5.665   3.759
28241SOL     OW84680   8.208   5.858   5.476
28241SOL    HW184681   8.292   5.813   5.475
28241SOL    HW284682   8.160   5.818   5.549
28242SOL     OW84683   8.317   7.114   4.924
28242SOL    HW184684   8.299   7.072   4.839
28242SOL    HW284685   8.384   7.058   4.964
28243SOL     OW84686   8.777   6.177   5.156
28243SOL    HW184687   8.810   6.147   5.241
28243SOL    HW284688   8.815   6.264   5.145
28244SOL     OW84689   8.264   6.963   4.681
28244SOL    HW184690   8.352   6.958   4.642
28244SOL    HW284691   8.206   6.978   4.607
28245SOL     OW84692   8.379   6.102   4.611
28245SOL    HW184693   8.354   6.090   4.520
28245SOL    HW284694   8.406   6.014   4.640
28246SOL     OW84695   8.012   5.650   4.214
28246SOL    HW184696   7.934   5.650   4.270
28246SOL    HW284697   8.000   5.724   4.155
28247SOL     OW84698   8.876   6.795   3.754
28247SOL    HW184699   8.907   6.723   3.808
28247SOL    HW284700   8.791   6.818   3.792
28248SOL     OW84701   7.730   5.635   3.913
28248SOL    HW184702   7.783   5.702   3.870
28248SOL    HW284703   7.794   5.577   3.954
28249SOL     OW84704   8.400   5.837   4.174
28249SOL    HW184705   8.374   5.872   4.089
28249SOL    HW284706   8.494   5.854   4.180
28250SOL     OW84707   8.523   6.281   5.169
28250SOL    HW184708   8.458   6.210   5.173
28250SOL    HW284709   8.607   6.236   5.165
28251SOL     OW84710   8.654   7.173   4.526
28251SOL    HW184711   8.669   7.233   4.454
28251SOL    HW284712   8.728   7.186   4.585
28252SOL     OW84713   7.931   6.748   4.433
28252SOL    HW184714   7.870   6.723   4.503
28252SOL    HW284715   7.880   6.741   4.353
28253SOL     OW84716   8.699   7.378   4.341
28253SOL    HW184717   8.748   7.440   4.288
28253SOL    HW284718   8.628   7.429   4.379
28254SOL     OW84719   8.480   6.100   3.754
28254SOL    HW184720   8.437   6.184   3.735
28254SOL    HW284721   8.543   6.120   3.823
28255SOL     OW84722   7.549   6.135   5.116
28255SOL    HW184723   7.641   6.139   5.089
28255SOL    HW284724   7.540   6.205   5.181
28256SOL     OW84725   8.008   5.808   4.909
28256SOL    HW184726   8.045   5.744   4.970
28256SOL    HW284727   7.914   5.808   4.928
28257SOL     OW84728   8.319   6.041   4.353
28257SOL    HW184729   8.278   6.097   4.287
28257SOL    HW284730   8.343   5.961   4.306
28258SOL     OW84731   8.470   5.644   4.463
28258SOL    HW184732   8.409   5.639   4.390
28258SOL    HW284733   8.445   5.572   4.521
28259SOL     OW84734   8.880   6.740   4.578
28259SOL    HW184735   8.810   6.675   4.588
28259SOL    HW284736   8.893   6.746   4.483
28260SOL     OW84737   8.908   6.202   4.673
28260SOL    HW184738   8.844   6.132   4.683
28260SOL    HW284739   8.964   6.196   4.750
28261SOL     OW84740   9.279   6.381   4.110
28261SOL    HW184741   9.335   6.336   4.173
28261SOL    HW284742   9.264   6.316   4.041
28262SOL     OW84743   7.946   7.010   3.874
28262SOL    HW184744   7.871   6.978   3.924
28262SOL    HW284745   7.942   6.961   3.792
28263SOL     OW84746   9.159   6.857   4.359
28263SOL    HW184747   9.253   6.850   4.378
28263SOL    HW284748   9.136   6.946   4.384
28264SOL     OW84749   8.840   6.161   3.790
28264SOL    HW184750   8.783   6.135   3.862
28264SOL    HW284751   8.928   6.136   3.819
28265SOL     OW84752   7.975   5.843   4.025
28265SOL    HW184753   8.028   5.801   3.958
28265SOL    HW284754   7.943   5.923   3.985
28266SOL     OW84755   9.180   6.831   5.256
28266SOL    HW184756   9.267   6.794   5.243
28266SOL    HW284757   9.196   6.918   5.293
28267SOL     OW84758   8.489   6.941   5.059
28267SOL    HW184759   8.412   6.906   5.103
28267SOL    HW284760   8.563   6.896   5.099
28268SOL     OW84761   9.056   7.222   5.396
28268SOL    HW184762   9.045   7.257   5.308
28268SOL    HW284763   9.133   7.165   5.390
28269SOL     OW84764   8.599   6.824   4.829
28269SOL    HW184765   8.537   6.858   4.894
28269SOL    HW284766   8.566   6.856   4.745
28270SOL     OW84767   9.054   6.678   4.803
28270SOL    HW184768   9.046   6.744   4.871
28270SOL    HW284769   8.984   6.699   4.741
28271SOL     OW84770   8.367   5.667   5.107
28271SOL    HW184771   8.388   5.652   5.015
28271SOL    HW284772   8.446   5.708   5.143
28272SOL     OW84773   8.427   6.701   5.449
28272SOL    HW184774   8.337   6.717   5.476
28272SOL    HW284775   8.423   6.620   5.397
28273SOL     OW84776   8.162   6.648   4.100
28273SOL    HW184777   8.147   6.622   4.190
28273SOL    HW284778   8.237   6.595   4.071
28274SOL     OW84779   7.875   6.414   4.983
28274SOL    HW184780   7.943   6.424   5.051
28274SOL    HW284781   7.844   6.324   4.992
28275SOL     OW84782   8.712   5.953   5.016
28275SOL    HW184783   8.740   6.034   5.059
28275SOL    HW284784   8.623   5.971   4.986
28276SOL     OW84785   7.525   7.156   5.088
28276SOL    HW184786   7.492   7.225   5.031
28276SOL    HW284787   7.620   7.157   5.076
28277SOL     OW84788   7.765   6.720   4.212
28277SOL    HW184789   7.766   6.791   4.148
28277SOL    HW284790   7.762   6.640   4.159
28278SOL     OW84791   7.983   6.102   4.583
28278SOL    HW184792   7.995   6.160   4.508
28278SOL    HW284793   8.051   6.128   4.645
28279SOL     OW84794   8.695   6.940   4.123
28279SOL    HW184795   8.751   7.010   4.157
28279SOL    HW284796   8.607   6.964   4.153
28280SOL     OW84797   8.757   7.055   4.866
28280SOL    HW184798   8.804   7.061   4.949
28280SOL    HW284799   8.706   6.974   4.874
28281SOL     OW84800   9.020   6.204   4.208
28281SOL    HW184801   8.971   6.243   4.280
28281SOL    HW284802   9.063   6.278   4.166
28282SOL     OW84803   7.791   7.121   5.024
28282SOL    HW184804   7.784   7.067   4.945
28282SOL    HW284805   7.885   7.137   5.034
28283SOL     OW84806   7.877   6.336   5.340
28283SOL    HW184807   7.938   6.377   5.280
28283SOL    HW284808   7.914   6.250   5.358
28284SOL     OW84809   9.071   6.372   5.424
28284SOL    HW184810   8.984   6.410   5.414
28284SOL    HW284811   9.122   6.409   5.351
28285SOL     OW84812   8.444   5.726   5.482
28285SOL    HW184813   8.502   5.800   5.463
28285SOL    HW284814   8.496   5.648   5.461
28286SOL     OW84815   7.941   5.621   5.488
28286SOL    HW184816   7.887   5.571   5.427
28286SOL    HW284817   7.889   5.698   5.509
28287SOL     OW84818   8.040   6.460   4.763
28287SOL    HW184819   8.077   6.549   4.766
28287SOL    HW284820   7.982   6.456   4.839
28288SOL     OW84821   8.755   6.439   4.727
28288SOL    HW184822   8.667   6.412   4.702
28288SOL    HW284823   8.810   6.363   4.708
28289SOL     OW84824   8.646   6.109   3.981
28289SOL    HW184825   8.657   6.032   4.038
28289SOL    HW284826   8.604   6.174   4.037
28290SOL     OW84827   7.741   5.780   4.962
28290SOL    HW184828   7.705   5.808   5.046
28290SOL    HW284829   7.724   5.686   4.959
28291SOL     OW84830   7.504   6.898   4.989
28291SOL    HW184831   7.530   6.841   5.062
28291SOL    HW284832   7.503   6.986   5.026
28292SOL     OW84833   8.161   6.208   4.763
28292SOL    HW184834   8.238   6.202   4.707
28292SOL    HW284835   8.131   6.299   4.754
28293SOL     OW84836   9.193   6.552   5.597
28293SOL    HW184837   9.153   6.481   5.547
28293SOL    HW284838   9.129   6.573   5.665
28294SOL     OW84839   7.773   5.647   4.351
28294SOL    HW184840   7.738   5.735   4.369
28294SOL    HW284841   7.778   5.605   4.436
28295SOL     OW84842   9.079   5.977   4.067
28295SOL    HW184843   9.112   5.911   4.129
28295SOL    HW284844   9.049   6.049   4.123
28296SOL     OW84845   8.483   6.345   4.680
28296SOL    HW184846   8.461   6.359   4.772
28296SOL    HW284847   8.453   6.255   4.662
28297SOL     OW84848   8.428   7.152   5.458
28297SOL    HW184849   8.407   7.195   5.375
28297SOL    HW284850   8.466   7.068   5.432
28298SOL     OW84851   9.286   7.080   5.325
28298SOL    HW184852   9.312   7.108   5.237
28298SOL    HW284853   9.365   7.090   5.378
28299SOL     OW84854   7.797   6.505   5.541
28299SOL    HW184855   7.875   6.521   5.595
28299SOL    HW284856   7.826   6.443   5.474
28300SOL     OW84857   8.969   5.855   3.843
28300SOL    HW184858   8.917   5.784   3.880
28300SOL    HW284859   9.009   5.898   3.918
28301SOL     OW84860   8.729   6.407   3.744
28301SOL    HW184861   8.769   6.320   3.751
28301SOL    HW284862   8.764   6.443   3.662
28302SOL     OW84863   8.518   6.938   4.590
28302SOL    HW184864   8.529   6.866   4.529
28302SOL    HW284865   8.569   7.010   4.553
28303SOL     OW84866   7.766   6.401   4.670
28303SOL    HW184867   7.861   6.414   4.667
28303SOL    HW284868   7.756   6.310   4.700
28304SOL     OW84869   7.762   6.123   4.736
28304SOL    HW184870   7.722   6.037   4.725
28304SOL    HW284871   7.839   6.121   4.679
28305SOL     OW84872   8.587   5.953   5.410
28305SOL    HW184873   8.540   6.004   5.476
28305SOL    HW284874   8.671   5.997   5.401
28306SOL     OW84875   8.604   5.775   5.198
28306SOL    HW184876   8.593   5.837   5.270
28306SOL    HW284877   8.650   5.825   5.130
28307SOL     OW84878   7.472   6.889   3.903
28307SOL    HW184879   7.383   6.911   3.877
28307SOL    HW284880   7.465   6.803   3.944
28308SOL     OW84881   7.543   7.355   4.678
28308SOL    HW184882   7.508   7.282   4.627
28308SOL    HW284883   7.629   7.372   4.640
28309SOL     OW84884   7.933   7.156   4.624
28309SOL    HW184885   8.004   7.217   4.647
28309SOL    HW284886   7.973   7.094   4.563
28310SOL     OW84887   8.397   6.367   4.938
28310SOL    HW184888   8.458   6.356   5.010
28310SOL    HW284889   8.318   6.321   4.966
28311SOL     OW84890   7.485   6.156   4.846
28311SOL    HW184891   7.566   6.152   4.795
28311SOL    HW284892   7.514   6.148   4.937
28312SOL     OW84893   7.632   6.124   5.467
28312SOL    HW184894   7.696   6.085   5.409
28312SOL    HW284895   7.597   6.199   5.418
28313SOL     OW84896   8.837   6.506   5.375
28313SOL    HW184897   8.854   6.600   5.370
28313SOL    HW284898   8.830   6.478   5.284
28314SOL     OW84899   8.266   6.155   4.095
28314SOL    HW184900   8.274   6.081   4.036
28314SOL    HW284901   8.189   6.202   4.064
28315SOL     OW84902   9.080   6.187   4.886
28315SOL    HW184903   9.070   6.128   4.961
28315SOL    HW284904   9.171   6.175   4.858
28316SOL     OW84905   7.674   7.126   5.450
28316SOL    HW184906   7.647   7.170   5.530
28316SOL    HW284907   7.687   7.035   5.476
28317SOL     OW84908   8.182   6.019   4.957
28317SOL    HW184909   8.118   5.950   4.943
28317SOL    HW284910   8.165   6.083   4.889
28318SOL     OW84911   8.354   7.265   5.211
28318SOL    HW184912   8.331   7.218   5.132
28318SOL    HW284913   8.356   7.357   5.185
28319SOL     OW84914   7.891   6.067   3.888
28319SOL    HW184915   7.955   6.133   3.913
28319SOL    HW284916   7.807   6.113   3.891
28320SOL     OW84917   7.578   6.736   5.206
28320SOL    HW184918   7.582   6.697   5.293
28320SOL    HW284919   7.599   6.665   5.146
28321SOL     OW84920   8.751   6.620   4.932
28321SOL    HW184921   8.760   6.556   4.861
28321SOL    HW284922   8.698   6.690   4.895
28322SOL     OW84923   8.774   6.445   4.016
28322SOL    HW184924   8.703   6.410   4.070
28322SOL    HW284925   8.745   6.430   3.926
28323SOL     OW84926   9.238   7.308   4.895
28323SOL    HW184927   9.299   7.334   4.827
28323SOL    HW284928   9.205   7.223   4.866
28324SOL     OW84929   8.688   7.320   4.816
28324SOL    HW184930   8.773   7.350   4.782
28324SOL    HW284931   8.703   7.229   4.840
28325SOL     OW84932   7.555   6.834   4.731
28325SOL    HW184933   7.529   6.855   4.821
28325SOL    HW284934   7.483   6.781   4.697
28326SOL     OW84935   8.135   7.269   5.473
28326SOL    HW184936   8.071   7.340   5.460
28326SOL    HW284937   8.208   7.292   5.415
28327SOL     OW84938   9.197   5.771   4.218
28327SOL    HW184939   9.256   5.750   4.145
28327SOL    HW284940   9.168   5.686   4.251
28328SOL     OW84941   8.846   7.156   4.228
28328SOL    HW184942   8.901   7.190   4.157
28328SOL    HW284943   8.791   7.229   4.254
28329SOL     OW84944   7.579   7.397   5.568
28329SOL    HW184945   7.540   7.319   5.608
28329SOL    HW284946   7.630   7.437   5.638
28330SOL     OW84947   8.726   6.521   4.388
28330SOL    HW184948   8.800   6.462   4.401
28330SOL    HW284949   8.763   6.594   4.336
28331SOL     OW84950   8.231   6.866   5.138
28331SOL    HW184951   8.205   6.913   5.217
28331SOL    HW284952   8.157   6.876   5.079
28332SOL     OW84953   8.116   7.222   3.884
28332SOL    HW184954   8.130   7.236   3.790
28332SOL    HW284955   8.064   7.141   3.888
28333SOL     OW84956   9.065   7.315   5.125
28333SOL    HW184957   9.122   7.315   5.049
28333SOL    HW284958   9.049   7.408   5.143
28334SOL     OW84959   9.290   5.745   4.690
28334SOL    HW184960   9.320   5.656   4.669
28334SOL    HW284961   9.203   5.750   4.651
28335SOL     OW84962   7.688   5.893   4.431
28335SOL    HW184963   7.602   5.929   4.410
28335SOL    HW284964   7.693   5.895   4.527
28336SOL     OW84965   8.656   7.174   3.762
28336SOL    HW184966   8.646   7.084   3.790
28336SOL    HW284967   8.586   7.187   3.698
28337SOL     OW84968   8.271   6.597   5.109
28337SOL    HW184969   8.307   6.588   5.021
28337SOL    HW284970   8.260   6.691   5.121
28338SOL     OW84971   8.368   6.496   4.017
28338SOL    HW184972   8.426   6.531   3.948
28338SOL    HW284973   8.420   6.429   4.061
28339SOL     OW84974   8.929   7.235   3.781
28339SOL    HW184975   8.837   7.215   3.763
28339SOL    HW284976   8.969   7.238   3.694
28340SOL     OW84977   7.810   6.900   5.226
28340SOL    HW184978   7.802   6.973   5.164
28340SOL    HW284979   7.733   6.846   5.210
28341SOL     OW84980   9.046   6.877   5.001
28341SOL    HW184981   9.099   6.852   5.077
28341SOL    HW284982   8.987   6.944   5.035
28342SOL     OW84983   8.525   6.705   4.453
28342SOL    HW184984   8.449   6.656   4.485
28342SOL    HW284985   8.586   6.638   4.423
28343SOL     OW84986   8.481   5.835   4.684
28343SOL    HW184987   8.480   5.792   4.598
28343SOL    HW284988   8.474   5.763   4.746
28344SOL     OW84989   8.052   7.072   4.199
28344SOL    HW184990   8.106   7.023   4.137
28344SOL    HW284991   7.969   7.084   4.154
28345SOL     OW84992   9.190   5.966   5.113
28345SOL    HW184993   9.258   6.033   5.107
28345SOL    HW284994   9.218   5.898   5.051
28346SOL     OW84995   7.728   6.926   4.023
28346SOL    HW184996   7.641   6.919   3.984
28346SOL    HW284997   7.714   6.975   4.104
28347SOL     OW84998   7.568   6.632   5.460
28347SOL    HW184999   7.491   6.604   5.509
28347SOL    HW285000   7.640   6.581   5.497
28348SOL     OW85001   8.127   5.774   5.219
28348SOL    HW185002   8.211   5.748   5.180
28348SOL    HW285003   8.150   5.808   5.305
28349SOL     OW85004   7.535   5.903   3.739
28349SOL    HW185005   7.456   5.881   3.689
28349SOL    HW285006   7.561   5.989   3.707
28350SOL     OW85007   8.862   6.439   5.112
28350SOL    HW185008   8.810   6.498   5.057
28350SOL    HW285009   8.950   6.443   5.074
28351SOL     OW85010   7.492   5.735   3.998
28351SOL    HW185011   7.479   5.806   3.936
28351SOL    HW285012   7.580   5.703   3.981
28352SOL     OW85013   8.629   6.908   3.847
28352SOL    HW185014   8.538   6.878   3.847
28352SOL    HW285015   8.652   6.912   3.940
28353SOL     OW85016   8.074   6.416   5.166
28353SOL    HW185017   8.133   6.491   5.154
28353SOL    HW285018   8.132   6.340   5.165
28354SOL     OW85019   8.935   7.389   4.717
28354SOL    HW185020   8.961   7.462   4.662
28354SOL    HW285021   9.016   7.343   4.738
28355SOL     OW85022   8.177   6.132   5.409
28355SOL    HW185023   8.222   6.186   5.474
28355SOL    HW285024   8.185   6.043   5.442
28356SOL     OW85025   8.914   6.769   5.342
28356SOL    HW185026   8.906   6.791   5.435
28356SOL    HW285027   9.004   6.794   5.319
28357SOL     OW85028   7.802   7.332   5.305
28357SOL    HW185029   7.720   7.378   5.286
28357SOL    HW285030   7.775   7.249   5.344
28358SOL     OW85031   9.101   6.460   4.975
28358SOL    HW185032   9.099   6.377   4.928
28358SOL    HW285033   9.089   6.527   4.907
28359SOL     OW85034   8.669   5.909   4.180
28359SOL    HW185035   8.728   5.834   4.178
28359SOL    HW285036   8.698   5.961   4.255
28360SOL     OW85037   8.026   6.311   4.404
28360SOL    HW185038   8.068   6.396   4.389
28360SOL    HW285039   7.964   6.303   4.332
28361SOL     OW85040   9.189   5.942   5.388
28361SOL    HW185041   9.187   5.957   5.294
28361SOL    HW285042   9.112   5.888   5.406
28362SOL     OW85043   9.202   6.506   5.227
28362SOL    HW185044   9.190   6.600   5.239
28362SOL    HW285045   9.176   6.490   5.136
28363SOL     OW85046   8.318   6.943   3.787
28363SOL    HW185047   8.281   6.960   3.873
28363SOL    HW285048   8.327   7.030   3.747
28364SOL     OW85049   8.117   7.352   4.649
28364SOL    HW185050   8.097   7.446   4.642
28364SOL    HW285051   8.213   7.347   4.648
28365SOL     OW85052   8.320   6.564   4.580
28365SOL    HW185053   8.370   6.490   4.615
28365SOL    HW285054   8.275   6.600   4.656
28366SOL     OW85055   8.524   6.574   3.812
28366SOL    HW185056   8.501   6.626   3.735
28366SOL    HW285057   8.596   6.518   3.783
28367SOL     OW85058   9.282   7.145   4.563
28367SOL    HW185059   9.205   7.137   4.507
28367SOL    HW285060   9.262   7.090   4.639
28368SOL     OW85061   7.659   6.871   5.560
28368SOL    HW185062   7.628   6.791   5.517
28368SOL    HW285063   7.600   6.883   5.634
28369SOL     OW85064   7.566   6.817   4.392
28369SOL    HW185065   7.588   6.774   4.474
28369SOL    HW285066   7.626   6.778   4.328
28370SOL     OW85067   8.138   7.005   5.357
28370SOL    HW185068   8.061   6.966   5.398
28370SOL    HW285069   8.143   7.093   5.394
28371SOL     OW85070   9.261   5.758   4.960
28371SOL    HW185071   9.268   5.663   4.974
28371SOL    HW285072   9.272   5.768   4.865
28372SOL     OW85073   7.867   6.008   4.243
28372SOL    HW185074   7.899   5.936   4.188
28372SOL    HW285075   7.813   5.965   4.310
28373SOL     OW85076   9.143   7.066   4.805
28373SOL    HW185077   9.065   7.047   4.753
28373SOL    HW285078   9.143   6.999   4.873
28374SOL     OW85079   7.801   6.152   5.015
28374SOL    HW185080   7.850   6.087   5.065
28374SOL    HW285081   7.807   6.123   4.924
28375SOL     OW85082   8.286   7.168   4.395
28375SOL    HW185083   8.252   7.236   4.336
28375SOL    HW285084   8.212   7.108   4.407
28376SOL     OW85085   8.869   5.818   4.839
28376SOL    HW185086   8.876   5.728   4.871
28376SOL    HW285087   8.823   5.865   4.908
28377SOL     OW85088   8.458   5.604   4.843
28377SOL    HW185089   8.404   5.541   4.796
28377SOL    HW285090   8.545   5.563   4.847
28378SOL     OW85091   8.228   6.918   4.052
28378SOL    HW185092   8.204   6.826   4.064
28378SOL    HW285093   8.308   6.929   4.104
28379SOL     OW85094   8.063   7.156   5.012
28379SOL    HW185095   8.058   7.239   5.059
28379SOL    HW285096   8.152   7.151   4.979
28380SOL     OW85097   8.829   5.625   3.915
28380SOL    HW185098   8.869   5.552   3.868
28380SOL    HW285099   8.737   5.599   3.927
28381SOL     OW85100   8.747   6.057   4.399
28381SOL    HW185101   8.696   6.138   4.396
28381SOL    HW285102   8.738   6.027   4.490
28382SOL     OW85103   9.028   5.773   4.616
28382SOL    HW185104   8.977   5.802   4.691
28382SOL    HW285105   9.028   5.847   4.556
28383SOL     OW85106   7.486   6.638   4.031
28383SOL    HW185107   7.579   6.626   4.013
28383SOL    HW285108   7.454   6.550   4.052
28384SOL     OW85109   8.343   7.262   4.054
28384SOL    HW185110   8.265   7.246   4.002
28384SOL    HW285111   8.318   7.330   4.116
28385SOL     OW85112   7.656   6.207   5.733
28385SOL    HW185113   7.568   6.196   5.770
28385SOL    HW285114   7.644   6.193   5.639
28386SOL     OW85115   7.667   5.875   6.576
28386SOL    HW185116   7.698   5.839   6.659
28386SOL    HW285117   7.580   5.837   6.564
28387SOL     OW85118   7.434   5.982   6.232
28387SOL    HW185119   7.354   6.008   6.278
28387SOL    HW285120   7.408   5.908   6.177
28388SOL     OW85121   8.023   6.894   6.795
28388SOL    HW185122   7.941   6.897   6.746
28388SOL    HW285123   8.040   6.985   6.819
28389SOL     OW85124   9.039   7.110   6.291
28389SOL    HW185125   8.991   7.079   6.368
28389SOL    HW285126   8.973   7.113   6.222
28390SOL     OW85127   8.586   6.289   6.272
28390SOL    HW185128   8.632   6.373   6.260
28390SOL    HW285129   8.537   6.300   6.353
28391SOL     OW85130   9.250   6.165   5.806
28391SOL    HW185131   9.211   6.166   5.719
28391SOL    HW285132   9.205   6.094   5.852
28392SOL     OW85133   8.175   6.716   6.644
28392SOL    HW185134   8.117   6.757   6.708
28392SOL    HW285135   8.217   6.790   6.600
28393SOL     OW85136   8.336   6.328   7.414
28393SOL    HW185137   8.326   6.395   7.481
28393SOL    HW285138   8.352   6.376   7.333
28394SOL     OW85139   8.134   6.571   6.230
28394SOL    HW185140   8.201   6.571   6.298
28394SOL    HW285141   8.068   6.633   6.261
28395SOL     OW85142   8.160   6.736   7.419
28395SOL    HW185143   8.212   6.809   7.454
28395SOL    HW285144   8.084   6.778   7.379
28396SOL     OW85145   7.791   6.983   6.655
28396SOL    HW185146   7.715   6.940   6.615
28396SOL    HW285147   7.827   7.038   6.586
28397SOL     OW85148   8.901   7.093   6.958
28397SOL    HW185149   8.956   7.170   6.970
28397SOL    HW285150   8.829   7.104   7.020
28398SOL     OW85151   7.907   5.961   7.042
28398SOL    HW185152   7.981   5.903   7.057
28398SOL    HW285153   7.830   5.910   7.068
28399SOL     OW85154   9.027   6.018   6.341
28399SOL    HW185155   8.957   6.026   6.276
28399SOL    HW285156   9.011   6.088   6.404
28400SOL     OW85157   7.665   7.315   6.050
28400SOL    HW185158   7.692   7.386   6.108
28400SOL    HW285159   7.739   7.303   5.990
28401SOL     OW85160   8.583   6.927   7.283
28401SOL    HW185161   8.628   6.917   7.366
28401SOL    HW285162   8.530   6.848   7.274
28402SOL     OW85163   7.682   7.044   6.119
28402SOL    HW185164   7.659   7.136   6.123
28402SOL    HW285165   7.632   7.003   6.189
28403SOL     OW85166   7.735   6.676   6.467
28403SOL    HW185167   7.735   6.586   6.500
28403SOL    HW285168   7.677   6.723   6.526
28404SOL     OW85169   8.022   7.389   7.008
28404SOL    HW185170   7.946   7.369   7.062
28404SOL    HW285171   8.054   7.473   7.042
28405SOL     OW85172   8.014   6.573   5.738
28405SOL    HW185173   8.065   6.616   5.669
28405SOL    HW285174   8.055   6.602   5.820
28406SOL     OW85175   9.040   5.717   7.047
28406SOL    HW185176   9.077   5.794   7.004
28406SOL    HW285177   9.007   5.751   7.130
28407SOL     OW85178   7.568   6.243   6.154
28407SOL    HW185179   7.534   6.157   6.176
28407SOL    HW285180   7.562   6.293   6.235
28408SOL     OW85181   9.295   7.330   5.906
28408SOL    HW185182   9.367   7.314   5.966
28408SOL    HW285183   9.305   7.422   5.881
28409SOL     OW85184   7.510   7.167   5.695
28409SOL    HW185185   7.488   7.075   5.713
28409SOL    HW285186   7.478   7.215   5.771
28410SOL     OW85187   9.141   6.513   6.242
28410SOL    HW185188   9.226   6.472   6.228
28410SOL    HW285189   9.125   6.562   6.162
28411SOL     OW85190   9.103   6.691   6.021
28411SOL    HW185191   9.188   6.682   5.976
28411SOL    HW285192   9.119   6.756   6.089
28412SOL     OW85193   7.568   6.335   7.164
28412SOL    HW185194   7.653   6.379   7.167
28412SOL    HW285195   7.505   6.406   7.149
28413SOL     OW85196   8.071   6.984   6.317
28413SOL    HW185197   8.029   6.898   6.322
28413SOL    HW285198   8.055   7.013   6.227
28414SOL     OW85199   8.718   6.812   7.003
28414SOL    HW185200   8.744   6.742   6.942
28414SOL    HW285201   8.780   6.806   7.075
28415SOL     OW85202   8.279   5.597   6.105
28415SOL    HW185203   8.320   5.679   6.077
28415SOL    HW285204   8.185   5.615   6.105
28416SOL     OW85205   7.635   6.542   6.888
28416SOL    HW185206   7.722   6.507   6.871
28416SOL    HW285207   7.581   6.508   6.816
28417SOL     OW85208   8.980   6.602   5.787
28417SOL    HW185209   8.912   6.541   5.817
28417SOL    HW285210   9.022   6.632   5.868
28418SOL     OW85211   8.629   7.408   7.222
28418SOL    HW185212   8.629   7.470   7.149
28418SOL    HW285213   8.644   7.323   7.181
28419SOL     OW85214   7.807   5.839   7.462
28419SOL    HW185215   7.843   5.919   7.500
28419SOL    HW285216   7.712   5.854   7.458
28420SOL     OW85217   8.919   7.005   6.515
28420SOL    HW185218   8.856   7.023   6.585
28420SOL    HW285219   8.902   6.914   6.491
28421SOL     OW85220   9.084   7.386   6.147
28421SOL    HW185221   9.068   7.338   6.065
28421SOL    HW285222   9.086   7.318   6.214
28422SOL     OW85223   8.035   6.286   5.858
28422SOL    HW185224   8.037   6.374   5.819
28422SOL    HW285225   7.970   6.293   5.929
28423SOL     OW85226   8.729   5.979   6.527
28423SOL    HW185227   8.641   5.944   6.532
28423SOL    HW285228   8.781   5.921   6.582
28424SOL     OW85229   9.027   7.260   5.905
28424SOL    HW185230   9.121   7.275   5.894
28424SOL    HW285231   8.994   7.248   5.816
28425SOL     OW85232   8.239   6.199   7.017
28425SOL    HW185233   8.216   6.169   7.105
28425SOL    HW285234   8.214   6.126   6.960
28426SOL     OW85235   8.839   6.063   7.260
28426SOL    HW185236   8.844   6.106   7.345
28426SOL    HW285237   8.888   5.982   7.271
28427SOL     OW85238   8.392   6.467   7.179
28427SOL    HW185239   8.448   6.403   7.135
28427SOL    HW285240   8.343   6.509   7.108
28428SOL     OW85241   8.456   5.983   6.795
28428SOL    HW185242   8.364   5.996   6.817
28428SOL    HW285243   8.454   5.940   6.709
28429SOL     OW85244   8.506   6.283   6.004
28429SOL    HW185245   8.527   6.280   6.098
28429SOL    HW285246   8.421   6.240   5.997
28430SOL     OW85247   7.542   6.408   6.370
28430SOL    HW185248   7.623   6.404   6.420
28430SOL    HW285249   7.493   6.480   6.409
28431SOL     OW85250   7.558   7.465   7.173
28431SOL    HW185251   7.564   7.446   7.266
28431SOL    HW285252   7.473   7.430   7.146
28432SOL     OW85253   8.335   5.937   5.787
28432SOL    HW185254   8.387   5.990   5.726
28432SOL    HW285255   8.308   5.861   5.736
28433SOL     OW85256   9.135   6.150   7.427
28433SOL    HW185257   9.112   6.228   7.376
28433SOL    HW285258   9.161   6.085   7.361
28434SOL     OW85259   8.840   6.736   6.131
28434SOL    HW185260   8.920   6.724   6.079
28434SOL    HW285261   8.787   6.797   6.079
28435SOL     OW85262   8.000   5.746   6.501
28435SOL    HW185263   8.005   5.776   6.592
28435SOL    HW285264   7.995   5.827   6.450
28436SOL     OW85265   8.445   7.042   6.051
28436SOL    HW185266   8.421   7.116   5.996
28436SOL    HW285267   8.415   7.066   6.139
28437SOL     OW85268   7.802   7.402   6.465
28437SOL    HW185269   7.847   7.317   6.470
28437SOL    HW285270   7.869   7.466   6.487
28438SOL     OW85271   9.249   6.637   6.478
28438SOL    HW185272   9.199   6.625   6.397
28438SOL    HW285273   9.182   6.644   6.546
28439SOL     OW85274   8.665   7.129   7.103
28439SOL    HW185275   8.654   7.058   7.166
28439SOL    HW285276   8.598   7.112   7.036
28440SOL     OW85277   7.748   6.545   5.852
28440SOL    HW185278   7.831   6.566   5.807
28440SOL    HW285279   7.724   6.459   5.818
28441SOL     OW85280   8.931   6.348   6.296
28441SOL    HW185281   8.933   6.305   6.382
28441SOL    HW285282   9.009   6.402   6.295
28442SOL     OW85283   7.921   6.870   7.334
28442SOL    HW185284   7.896   6.875   7.242
28442SOL    HW285285   7.838   6.858   7.380
28443SOL     OW85286   8.588   7.362   5.813
28443SOL    HW185287   8.506   7.332   5.851
28443SOL    HW285288   8.607   7.297   5.745
28444SOL     OW85289   7.657   5.843   7.084
28444SOL    HW185290   7.583   5.903   7.097
28444SOL    HW285291   7.626   5.759   7.118
28445SOL     OW85292   9.071   6.978   5.684
28445SOL    HW185293   9.030   7.063   5.669
28445SOL    HW285294   9.005   6.915   5.656
28446SOL     OW85295   7.907   7.328   5.901
28446SOL    HW185296   7.956   7.378   5.966
28446SOL    HW285297   7.974   7.286   5.847
28447SOL     OW85298   8.845   5.691   6.045
28447SOL    HW185299   8.845   5.667   5.952
28447SOL    HW285300   8.935   5.675   6.073
28448SOL     OW85301   7.700   7.375   6.800
28448SOL    HW185302   7.748   7.299   6.833
28448SOL    HW285303   7.682   7.354   6.708
28449SOL     OW85304   8.397   7.288   6.475
28449SOL    HW185305   8.482   7.247   6.489
28449SOL    HW285306   8.357   7.238   6.404
28450SOL     OW85307   7.844   6.270   6.060
28450SOL    HW185308   7.857   6.176   6.073
28450SOL    HW285309   7.751   6.284   6.077
28451SOL     OW85310   8.953   5.808   7.303
28451SOL    HW185311   8.966   5.826   7.396
28451SOL    HW285312   8.887   5.739   7.301
28452SOL     OW85313   8.111   5.695   5.688
28452SOL    HW185314   8.158   5.616   5.714
28452SOL    HW285315   8.049   5.665   5.622
28453SOL     OW85316   8.207   5.859   7.339
28453SOL    HW185317   8.292   5.814   7.337
28453SOL    HW285318   8.160   5.819   7.412
28454SOL     OW85319   8.317   7.113   6.785
28454SOL    HW185320   8.299   7.072   6.701
28454SOL    HW285321   8.384   7.058   6.825
28455SOL     OW85322   8.777   6.177   7.018
28455SOL    HW185323   8.810   6.147   7.103
28455SOL    HW285324   8.815   6.264   7.007
28456SOL     OW85325   8.264   6.962   6.543
28456SOL    HW185326   8.351   6.958   6.504
28456SOL    HW285327   8.205   6.978   6.468
28457SOL     OW85328   8.379   6.101   6.473
28457SOL    HW185329   8.353   6.090   6.382
28457SOL    HW285330   8.406   6.014   6.502
28458SOL     OW85331   8.012   5.650   6.076
28458SOL    HW185332   7.934   5.650   6.131
28458SOL    HW285333   8.000   5.724   6.017
28459SOL     OW85334   8.876   6.795   5.616
28459SOL    HW185335   8.907   6.723   5.670
28459SOL    HW285336   8.790   6.818   5.653
28460SOL     OW85337   7.729   5.634   5.774
28460SOL    HW185338   7.781   5.702   5.730
28460SOL    HW285339   7.794   5.577   5.815
28461SOL     OW85340   8.400   5.836   6.036
28461SOL    HW185341   8.374   5.872   5.951
28461SOL    HW285342   8.494   5.854   6.042
28462SOL     OW85343   8.523   6.280   7.031
28462SOL    HW185344   8.459   6.209   7.035
28462SOL    HW285345   8.608   6.236   7.027
28463SOL     OW85346   8.653   7.173   6.389
28463SOL    HW185347   8.668   7.233   6.316
28463SOL    HW285348   8.729   7.186   6.446
28464SOL     OW85349   7.930   6.748   6.294
28464SOL    HW185350   7.869   6.723   6.363
28464SOL    HW285351   7.880   6.741   6.213
28465SOL     OW85352   8.699   7.378   6.203
28465SOL    HW185353   8.748   7.440   6.150
28465SOL    HW285354   8.628   7.429   6.241
28466SOL     OW85355   8.480   6.100   5.616
28466SOL    HW185356   8.437   6.184   5.597
28466SOL    HW285357   8.543   6.120   5.685
28467SOL     OW85358   7.549   6.136   6.978
28467SOL    HW185359   7.640   6.138   6.951
28467SOL    HW285360   7.541   6.205   7.043
28468SOL     OW85361   8.008   5.808   6.770
28468SOL    HW185362   8.045   5.743   6.830
28468SOL    HW285363   7.914   5.808   6.790
28469SOL     OW85364   8.319   6.041   6.215
28469SOL    HW185365   8.278   6.096   6.149
28469SOL    HW285366   8.343   5.961   6.168
28470SOL     OW85367   8.470   5.645   6.326
28470SOL    HW185368   8.409   5.640   6.252
28470SOL    HW285369   8.445   5.572   6.383
28471SOL     OW85370   8.880   6.740   6.440
28471SOL    HW185371   8.810   6.675   6.449
28471SOL    HW285372   8.895   6.746   6.345
28472SOL     OW85373   8.908   6.202   6.535
28472SOL    HW185374   8.845   6.132   6.545
28472SOL    HW285375   8.964   6.196   6.612
28473SOL     OW85376   9.279   6.381   5.972
28473SOL    HW185377   9.335   6.336   6.035
28473SOL    HW285378   9.264   6.316   5.903
28474SOL     OW85379   7.946   7.010   5.735
28474SOL    HW185380   7.872   6.978   5.786
28474SOL    HW285381   7.942   6.962   5.653
28475SOL     OW85382   9.159   6.856   6.222
28475SOL    HW185383   9.252   6.850   6.240
28475SOL    HW285384   9.136   6.946   6.246
28476SOL     OW85385   8.840   6.160   5.652
28476SOL    HW185386   8.783   6.134   5.724
28476SOL    HW285387   8.928   6.135   5.681
28477SOL     OW85388   7.975   5.843   5.888
28477SOL    HW185389   8.028   5.801   5.820
28477SOL    HW285390   7.943   5.923   5.847
28478SOL     OW85391   9.180   6.831   7.119
28478SOL    HW185392   9.267   6.794   7.105
28478SOL    HW285393   9.196   6.918   7.155
28479SOL     OW85394   8.489   6.942   6.922
28479SOL    HW185395   8.412   6.907   6.966
28479SOL    HW285396   8.563   6.896   6.962
28480SOL     OW85397   9.056   7.222   7.258
28480SOL    HW185398   9.045   7.257   7.170
28480SOL    HW285399   9.133   7.165   7.252
28481SOL     OW85400   8.599   6.825   6.692
28481SOL    HW185401   8.537   6.858   6.756
28481SOL    HW285402   8.566   6.856   6.607
28482SOL     OW85403   9.053   6.677   6.665
28482SOL    HW185404   9.046   6.744   6.733
28482SOL    HW285405   8.984   6.699   6.602
28483SOL     OW85406   8.367   5.667   6.969
28483SOL    HW185407   8.388   5.652   6.877
28483SOL    HW285408   8.445   5.708   7.005
28484SOL     OW85409   8.427   6.701   7.310
28484SOL    HW185410   8.337   6.717   7.338
28484SOL    HW285411   8.423   6.621   7.259
28485SOL     OW85412   8.163   6.649   5.962
28485SOL    HW185413   8.147   6.622   6.053
28485SOL    HW285414   8.237   6.596   5.934
28486SOL     OW85415   7.875   6.414   6.846
28486SOL    HW185416   7.943   6.424   6.913
28486SOL    HW285417   7.844   6.324   6.855
28487SOL     OW85418   8.712   5.953   6.878
28487SOL    HW185419   8.740   6.034   6.922
28487SOL    HW285420   8.623   5.971   6.848
28488SOL     OW85421   7.525   7.155   6.949
28488SOL    HW185422   7.494   7.225   6.892
28488SOL    HW285423   7.620   7.156   6.938
28489SOL     OW85424   7.765   6.720   6.073
28489SOL    HW185425   7.766   6.792   6.009
28489SOL    HW285426   7.762   6.641   6.020
28490SOL     OW85427   7.982   6.103   6.446
28490SOL    HW185428   7.995   6.161   6.371
28490SOL    HW285429   8.051   6.129   6.508
28491SOL     OW85430   8.695   6.940   5.985
28491SOL    HW185431   8.751   7.010   6.018
28491SOL    HW285432   8.607   6.964   6.015
28492SOL     OW85433   8.758   7.055   6.728
28492SOL    HW185434   8.805   7.061   6.811
28492SOL    HW285435   8.707   6.974   6.735
28493SOL     OW85436   9.020   6.204   6.070
28493SOL    HW185437   8.971   6.243   6.143
28493SOL    HW285438   9.062   6.278   6.027
28494SOL     OW85439   7.792   7.120   6.887
28494SOL    HW185440   7.785   7.067   6.807
28494SOL    HW285441   7.886   7.136   6.897
28495SOL     OW85442   7.879   6.334   7.203
28495SOL    HW185443   7.939   6.376   7.142
28495SOL    HW285444   7.920   6.249   7.222
28496SOL     OW85445   9.071   6.372   7.286
28496SOL    HW185446   8.984   6.410   7.276
28496SOL    HW285447   9.122   6.409   7.213
28497SOL     OW85448   8.444   5.726   7.344
28497SOL    HW185449   8.502   5.800   7.325
28497SOL    HW285450   8.495   5.648   7.323
28498SOL     OW85451   7.942   5.621   7.349
28498SOL    HW185452   7.887   5.571   7.288
28498SOL    HW285453   7.890   5.698   7.371
28499SOL     OW85454   8.041   6.461   6.626
28499SOL    HW185455   8.078   6.549   6.629
28499SOL    HW285456   7.982   6.457   6.701
28500SOL     OW85457   8.755   6.439   6.589
28500SOL    HW185458   8.667   6.412   6.564
28500SOL    HW285459   8.810   6.363   6.570
28501SOL     OW85460   8.646   6.109   5.843
28501SOL    HW185461   8.657   6.032   5.900
28501SOL    HW285462   8.605   6.174   5.899
28502SOL     OW85463   7.741   5.780   6.824
28502SOL    HW185464   7.706   5.808   6.909
28502SOL    HW285465   7.723   5.686   6.822
28503SOL     OW85466   7.499   6.897   6.852
28503SOL    HW185467   7.528   6.841   6.924
28503SOL    HW285468   7.501   6.986   6.888
28504SOL     OW85469   8.161   6.208   6.626
28504SOL    HW185470   8.238   6.201   6.569
28504SOL    HW285471   8.132   6.299   6.616
28505SOL     OW85472   9.193   6.552   7.459
28505SOL    HW185473   9.153   6.481   7.409
28505SOL    HW285474   9.129   6.573   7.527
28506SOL     OW85475   7.773   5.646   6.213
28506SOL    HW185476   7.739   5.734   6.232
28506SOL    HW285477   7.779   5.604   6.299
28507SOL     OW85478   9.079   5.976   5.930
28507SOL    HW185479   9.113   5.911   5.991
28507SOL    HW285480   9.049   6.048   5.985
28508SOL     OW85481   8.482   6.345   6.542
28508SOL    HW185482   8.461   6.359   6.634
28508SOL    HW285483   8.453   6.255   6.524
28509SOL     OW85484   8.428   7.151   7.321
28509SOL    HW185485   8.407   7.195   7.238
28509SOL    HW285486   8.467   7.068   7.294
28510SOL     OW85487   9.286   7.080   7.187
28510SOL    HW185488   9.312   7.108   7.099
28510SOL    HW285489   9.365   7.090   7.240
28511SOL     OW85490   7.797   6.505   7.403
28511SOL    HW185491   7.875   6.522   7.456
28511SOL    HW285492   7.827   6.442   7.336
28512SOL     OW85493   8.969   5.855   5.705
28512SOL    HW185494   8.917   5.784   5.742
28512SOL    HW285495   9.009   5.898   5.780
28513SOL     OW85496   8.729   6.407   5.606
28513SOL    HW185497   8.769   6.320   5.613
28513SOL    HW285498   8.764   6.443   5.524
28514SOL     OW85499   8.518   6.939   6.453
28514SOL    HW185500   8.529   6.866   6.391
28514SOL    HW285501   8.569   7.010   6.415
28515SOL     OW85502   7.767   6.402   6.532
28515SOL    HW185503   7.861   6.415   6.528
28515SOL    HW285504   7.757   6.311   6.562
28516SOL     OW85505   7.761   6.124   6.598
28516SOL    HW185506   7.722   6.037   6.587
28516SOL    HW285507   7.839   6.122   6.541
28517SOL     OW85508   8.586   5.953   7.272
28517SOL    HW185509   8.540   6.004   7.338
28517SOL    HW285510   8.671   5.997   7.262
28518SOL     OW85511   8.604   5.775   7.060
28518SOL    HW185512   8.592   5.837   7.132
28518SOL    HW285513   8.650   5.825   6.993
28519SOL     OW85514   7.472   6.890   5.765
28519SOL    HW185515   7.383   6.912   5.740
28519SOL    HW285516   7.465   6.803   5.806
28520SOL     OW85517   7.542   7.355   6.539
28520SOL    HW185518   7.508   7.282   6.488
28520SOL    HW285519   7.628   7.373   6.501
28521SOL     OW85520   7.933   7.156   6.487
28521SOL    HW185521   8.004   7.216   6.510
28521SOL    HW285522   7.973   7.094   6.425
28522SOL     OW85523   8.397   6.367   6.800
28522SOL    HW185524   8.458   6.356   6.872
28522SOL    HW285525   8.318   6.321   6.828
28523SOL     OW85526   7.486   6.157   6.708
28523SOL    HW185527   7.567   6.154   6.657
28523SOL    HW285528   7.515   6.149   6.799
28524SOL     OW85529   7.634   6.125   7.330
28524SOL    HW185530   7.703   6.089   7.274
28524SOL    HW285531   7.599   6.198   7.280
28525SOL     OW85532   8.837   6.506   7.237
28525SOL    HW185533   8.854   6.600   7.232
28525SOL    HW285534   8.830   6.478   7.146
28526SOL     OW85535   8.266   6.156   5.958
28526SOL    HW185536   8.274   6.081   5.898
28526SOL    HW285537   8.189   6.203   5.927
28527SOL     OW85538   9.080   6.187   6.748
28527SOL    HW185539   9.070   6.128   6.823
28527SOL    HW285540   9.171   6.175   6.721
28528SOL     OW85541   7.674   7.126   7.310
28528SOL    HW185542   7.649   7.173   7.390
28528SOL    HW285543   7.686   7.035   7.339
28529SOL     OW85544   8.182   6.019   6.820
28529SOL    HW185545   8.118   5.949   6.805
28529SOL    HW285546   8.165   6.083   6.751
28530SOL     OW85547   8.351   7.266   7.076
28530SOL    HW185548   8.330   7.218   6.996
28530SOL    HW285549   8.354   7.358   7.048
28531SOL     OW85550   7.891   6.067   5.751
28531SOL    HW185551   7.955   6.134   5.776
28531SOL    HW285552   7.807   6.113   5.753
28532SOL     OW85553   7.578   6.736   7.067
28532SOL    HW185554   7.582   6.697   7.154
28532SOL    HW285555   7.599   6.665   7.007
28533SOL     OW85556   8.750   6.620   6.795
28533SOL    HW185557   8.760   6.556   6.724
28533SOL    HW285558   8.698   6.690   6.757
28534SOL     OW85559   8.774   6.445   5.878
28534SOL    HW185560   8.703   6.410   5.932
28534SOL    HW285561   8.745   6.430   5.788
28535SOL     OW85562   9.238   7.308   6.758
28535SOL    HW185563   9.299   7.335   6.689
28535SOL    HW285564   9.205   7.223   6.728
28536SOL     OW85565   8.689   7.321   6.680
28536SOL    HW185566   8.773   7.350   6.644
28536SOL    HW285567   8.703   7.229   6.702
28537SOL     OW85568   7.554   6.834   6.594
28537SOL    HW185569   7.526   6.855   6.683
28537SOL    HW285570   7.483   6.780   6.559
28538SOL     OW85571   8.135   7.269   7.334
28538SOL    HW185572   8.072   7.340   7.322
28538SOL    HW285573   8.208   7.292   7.276
28539SOL     OW85574   9.197   5.771   6.080
28539SOL    HW185575   9.256   5.750   6.007
28539SOL    HW285576   9.168   5.686   6.113
28540SOL     OW85577   8.846   7.156   6.090
28540SOL    HW185578   8.901   7.190   6.019
28540SOL    HW285579   8.791   7.229   6.116
28541SOL     OW85580   7.580   7.395   7.430
28541SOL    HW185581   7.540   7.317   7.471
28541SOL    HW285582   7.631   7.435   7.500
28542SOL     OW85583   8.726   6.522   6.250
28542SOL    HW185584   8.800   6.462   6.263
28542SOL    HW285585   8.763   6.594   6.198
28543SOL     OW85586   8.231   6.866   7.000
28543SOL    HW185587   8.205   6.913   7.079
28543SOL    HW285588   8.157   6.876   6.940
28544SOL     OW85589   8.116   7.222   5.745
28544SOL    HW185590   8.131   7.236   5.652
28544SOL    HW285591   8.064   7.141   5.749
28545SOL     OW85592   9.065   7.315   6.987
28545SOL    HW185593   9.122   7.315   6.911
28545SOL    HW285594   9.049   7.408   7.005
28546SOL     OW85595   9.290   5.745   6.552
28546SOL    HW185596   9.320   5.656   6.531
28546SOL    HW285597   9.203   5.750   6.513
28547SOL     OW85598   7.691   5.892   6.294
28547SOL    HW185599   7.605   5.929   6.272
28547SOL    HW285600   7.694   5.894   6.389
28548SOL     OW85601   8.656   7.175   5.624
28548SOL    HW185602   8.646   7.084   5.652
28548SOL    HW285603   8.586   7.188   5.559
28549SOL     OW85604   8.271   6.597   6.971
28549SOL    HW185605   8.308   6.588   6.883
28549SOL    HW285606   8.260   6.691   6.982
28550SOL     OW85607   8.369   6.498   5.880
28550SOL    HW185608   8.426   6.531   5.811
28550SOL    HW285609   8.421   6.429   5.923
28551SOL     OW85610   8.929   7.235   5.643
28551SOL    HW185611   8.837   7.215   5.625
28551SOL    HW285612   8.969   7.238   5.556
28552SOL     OW85613   7.810   6.900   7.088
28552SOL    HW185614   7.803   6.972   7.026
28552SOL    HW285615   7.733   6.846   7.071
28553SOL     OW85616   9.045   6.876   6.863
28553SOL    HW185617   9.099   6.852   6.938
28553SOL    HW285618   8.987   6.944   6.897
28554SOL     OW85619   8.525   6.705   6.316
28554SOL    HW185620   8.449   6.656   6.347
28554SOL    HW285621   8.587   6.639   6.286
28555SOL     OW85622   8.481   5.835   6.546
28555SOL    HW185623   8.480   5.793   6.460
28555SOL    HW285624   8.474   5.763   6.609
28556SOL     OW85625   8.052   7.072   6.061
28556SOL    HW185626   8.107   7.023   6.000
28556SOL    HW285627   7.969   7.085   6.015
28557SOL     OW85628   9.191   5.966   6.975
28557SOL    HW185629   9.259   6.033   6.969
28557SOL    HW285630   9.218   5.898   6.913
28558SOL     OW85631   7.728   6.927   5.885
28558SOL    HW185632   7.641   6.919   5.845
28558SOL    HW285633   7.714   6.975   5.966
28559SOL     OW85634   7.569   6.633   7.322
28559SOL    HW185635   7.491   6.604   7.371
28559SOL    HW285636   7.641   6.581   7.359
28560SOL     OW85637   8.127   5.774   7.081
28560SOL    HW185638   8.211   5.749   7.042
28560SOL    HW285639   8.150   5.808   7.168
28561SOL     OW85640   7.533   5.903   5.600
28561SOL    HW185641   7.455   5.882   5.548
28561SOL    HW285642   7.559   5.990   5.570
28562SOL     OW85643   8.862   6.439   6.974
28562SOL    HW185644   8.810   6.498   6.919
28562SOL    HW285645   8.950   6.443   6.936
28563SOL     OW85646   7.491   5.735   5.858
28563SOL    HW185647   7.477   5.805   5.794
28563SOL    HW285648   7.579   5.703   5.841
28564SOL     OW85649   8.628   6.909   5.709
28564SOL    HW185650   8.537   6.880   5.708
28564SOL    HW285651   8.651   6.911   5.802
28565SOL     OW85652   8.074   6.417   7.028
28565SOL    HW185653   8.133   6.491   7.016
28565SOL    HW285654   8.132   6.340   7.027
28566SOL     OW85655   8.934   7.389   6.579
28566SOL    HW185656   8.961   7.462   6.524
28566SOL    HW285657   9.016   7.343   6.598
28567SOL     OW85658   8.174   6.133   7.272
28567SOL    HW185659   8.220   6.187   7.336
28567SOL    HW285660   8.184   6.043   7.304
28568SOL     OW85661   8.915   6.769   7.204
28568SOL    HW185662   8.907   6.791   7.297
28568SOL    HW285663   9.004   6.794   7.181
28569SOL     OW85664   7.802   7.333   7.167
28569SOL    HW185665   7.720   7.379   7.148
28569SOL    HW285666   7.775   7.249   7.205
28570SOL     OW85667   9.101   6.460   6.837
28570SOL    HW185668   9.099   6.377   6.790
28570SOL    HW285669   9.088   6.527   6.769
28571SOL     OW85670   8.669   5.909   6.042
28571SOL    HW185671   8.729   5.834   6.041
28571SOL    HW285672   8.698   5.960   6.117
28572SOL     OW85673   8.025   6.312   6.268
28572SOL    HW185674   8.068   6.396   6.252
28572SOL    HW285675   7.963   6.303   6.195
28573SOL     OW85676   9.189   5.942   7.251
28573SOL    HW185677   9.187   5.957   7.156
28573SOL    HW285678   9.112   5.888   7.268
28574SOL     OW85679   9.202   6.506   7.089
28574SOL    HW185680   9.190   6.600   7.101
28574SOL    HW285681   9.177   6.490   6.998
28575SOL     OW85682   8.320   6.943   5.649
28575SOL    HW185683   8.281   6.961   5.735
28575SOL    HW285684   8.329   7.029   5.608
28576SOL     OW85685   8.117   7.352   6.512
28576SOL    HW185686   8.098   7.445   6.504
28576SOL    HW285687   8.213   7.347   6.510
28577SOL     OW85688   8.320   6.564   6.442
28577SOL    HW185689   8.370   6.490   6.477
28577SOL    HW285690   8.275   6.600   6.518
28578SOL     OW85691   8.524   6.573   5.674
28578SOL    HW185692   8.501   6.626   5.597
28578SOL    HW285693   8.596   6.518   5.645
28579SOL     OW85694   9.282   7.145   6.425
28579SOL    HW185695   9.205   7.137   6.369
28579SOL    HW285696   9.263   7.090   6.501
28580SOL     OW85697   7.659   6.871   7.422
28580SOL    HW185698   7.628   6.792   7.379
28580SOL    HW285699   7.600   6.883   7.496
28581SOL     OW85700   7.565   6.814   6.253
28581SOL    HW185701   7.592   6.771   6.334
28581SOL    HW285702   7.624   6.778   6.186
28582SOL     OW85703   8.138   7.005   7.219
28582SOL    HW185704   8.061   6.966   7.261
28582SOL    HW285705   8.143   7.093   7.256
28583SOL     OW85706   9.261   5.757   6.822
28583SOL    HW185707   9.268   5.663   6.836
28583SOL    HW285708   9.272   5.768   6.728
28584SOL     OW85709   7.868   6.008   6.106
28584SOL    HW185710   7.900   5.937   6.050
28584SOL    HW285711   7.815   5.964   6.172
28585SOL     OW85712   9.142   7.067   6.668
28585SOL    HW185713   9.065   7.048   6.615
28585SOL    HW285714   9.142   6.999   6.735
28586SOL     OW85715   7.801   6.152   6.877
28586SOL    HW185716   7.850   6.087   6.927
28586SOL    HW285717   7.807   6.123   6.787
28587SOL     OW85718   8.286   7.170   6.256
28587SOL    HW185719   8.254   7.238   6.198
28587SOL    HW285720   8.211   7.110   6.266
28588SOL     OW85721   8.869   5.818   6.700
28588SOL    HW185722   8.876   5.728   6.732
28588SOL    HW285723   8.823   5.865   6.770
28589SOL     OW85724   8.458   5.603   6.705
28589SOL    HW185725   8.405   5.540   6.657
28589SOL    HW285726   8.545   5.563   6.709
28590SOL     OW85727   8.228   6.919   5.914
28590SOL    HW185728   8.204   6.827   5.926
28590SOL    HW285729   8.308   6.929   5.966
28591SOL     OW85730   8.063   7.156   6.874
28591SOL    HW185731   8.058   7.240   6.920
28591SOL    HW285732   8.153   7.151   6.841
28592SOL     OW85733   8.828   5.625   5.777
28592SOL    HW185734   8.869   5.552   5.729
28592SOL    HW285735   8.737   5.598   5.789
28593SOL     OW85736   8.747   6.057   6.261
28593SOL    HW185737   8.696   6.138   6.258
28593SOL    HW285738   8.738   6.027   6.352
28594SOL     OW85739   9.028   5.773   6.478
28594SOL    HW185740   8.977   5.802   6.553
28594SOL    HW285741   9.028   5.847   6.418
28595SOL     OW85742   7.485   6.639   5.895
28595SOL    HW185743   7.579   6.627   5.876
28595SOL    HW285744   7.454   6.551   5.916
28596SOL     OW85745   8.343   7.262   5.916
28596SOL    HW185746   8.265   7.246   5.863
28596SOL    HW285747   8.317   7.330   5.977
28597SOL     OW85748   7.656   6.208   7.596
28597SOL    HW185749   7.568   6.195   7.632
28597SOL    HW285750   7.645   6.194   7.501
28598SOL     OW85751   7.667   5.875   8.438
28598SOL    HW185752   7.697   5.839   8.521
28598SOL    HW285753   7.580   5.837   8.426
28599SOL     OW85754   7.435   5.982   8.094
28599SOL    HW185755   7.355   6.007   8.141
28599SOL    HW285756   7.408   5.908   8.039
28600SOL     OW85757   8.023   6.894   8.657
28600SOL    HW185758   7.941   6.897   8.608
28600SOL    HW285759   8.040   6.985   8.681
28601SOL     OW85760   9.039   7.110   8.153
28601SOL    HW185761   8.991   7.079   8.230
28601SOL    HW285762   8.972   7.113   8.084
28602SOL     OW85763   8.586   6.289   8.134
28602SOL    HW185764   8.632   6.373   8.122
28602SOL    HW285765   8.537   6.300   8.216
28603SOL     OW85766   9.250   6.165   7.668
28603SOL    HW185767   9.211   6.166   7.581
28603SOL    HW285768   9.205   6.094   7.714
28604SOL     OW85769   8.175   6.716   8.506
28604SOL    HW185770   8.116   6.756   8.570
28604SOL    HW285771   8.217   6.790   8.462
28605SOL     OW85772   8.336   6.330   9.275
28605SOL    HW185773   8.335   6.398   9.342
28605SOL    HW285774   8.351   6.377   9.193
28606SOL     OW85775   8.134   6.571   8.092
28606SOL    HW185776   8.201   6.571   8.160
28606SOL    HW285777   8.068   6.633   8.123
28607SOL     OW85778   8.160   6.738   9.273
28607SOL    HW185779   8.212   6.811   9.307
28607SOL    HW285780   8.083   6.779   9.235
28608SOL     OW85781   7.791   6.983   8.517
28608SOL    HW185782   7.715   6.940   8.477
28608SOL    HW285783   7.827   7.038   8.448
28609SOL     OW85784   8.901   7.093   8.819
28609SOL    HW185785   8.956   7.171   8.830
28609SOL    HW285786   8.830   7.105   8.882
28610SOL     OW85787   7.906   5.960   8.904
28610SOL    HW185788   7.980   5.902   8.919
28610SOL    HW285789   7.829   5.909   8.930
28611SOL     OW85790   9.027   6.017   8.203
28611SOL    HW185791   8.957   6.027   8.138
28611SOL    HW285792   9.011   6.088   8.266
28612SOL     OW85793   7.666   7.314   7.912
28612SOL    HW185794   7.693   7.385   7.971
28612SOL    HW285795   7.739   7.303   7.852
28613SOL     OW85796   8.582   6.929   9.142
28613SOL    HW185797   8.625   6.919   9.227
28613SOL    HW285798   8.530   6.849   9.132
28614SOL     OW85799   7.681   7.044   7.981
28614SOL    HW185800   7.659   7.137   7.985
28614SOL    HW285801   7.631   7.004   8.052
28615SOL     OW85802   7.733   6.675   8.327
28615SOL    HW185803   7.734   6.586   8.361
28615SOL    HW285804   7.677   6.723   8.387
28616SOL     OW85805   8.022   7.391   8.867
28616SOL    HW185806   7.946   7.370   8.922
28616SOL    HW285807   8.055   7.474   8.902
28617SOL     OW85808   8.014   6.573   7.600
28617SOL    HW185809   8.065   6.616   7.531
28617SOL    HW285810   8.054   6.603   7.682
28618SOL     OW85811   9.039   5.718   8.906
28618SOL    HW185812   9.076   5.796   8.864
28618SOL    HW285813   9.005   5.750   8.989
28619SOL     OW85814   7.567   6.244   8.015
28619SOL    HW185815   7.535   6.157   8.039
28619SOL    HW285816   7.561   6.295   8.096
28620SOL     OW85817   9.295   7.330   7.769
28620SOL    HW185818   9.368   7.314   7.828
28620SOL    HW285819   9.305   7.422   7.743
28621SOL     OW85820   7.509   7.166   7.558
28621SOL    HW185821   7.487   7.075   7.576
28621SOL    HW285822   7.476   7.214   7.634
28622SOL     OW85823   9.141   6.513   8.104
28622SOL    HW185824   9.226   6.472   8.090
28622SOL    HW285825   9.125   6.562   8.024
28623SOL     OW85826   9.103   6.691   7.883
28623SOL    HW185827   9.188   6.682   7.838
28623SOL    HW285828   9.119   6.756   7.951
28624SOL     OW85829   7.568   6.335   9.026
28624SOL    HW185830   7.653   6.379   9.030
28624SOL    HW285831   7.505   6.405   9.013
28625SOL     OW85832   8.071   6.984   8.178
28625SOL    HW185833   8.029   6.898   8.183
28625SOL    HW285834   8.055   7.013   8.089
28626SOL     OW85835   8.718   6.812   8.865
28626SOL    HW185836   8.746   6.743   8.805
28626SOL    HW285837   8.779   6.807   8.938
28627SOL     OW85838   8.279   5.597   7.967
28627SOL    HW185839   8.320   5.679   7.939
28627SOL    HW285840   8.185   5.615   7.967
28628SOL     OW85841   7.635   6.542   8.750
28628SOL    HW185842   7.722   6.507   8.733
28628SOL    HW285843   7.581   6.508   8.678
28629SOL     OW85844   8.980   6.602   7.649
28629SOL    HW185845   8.912   6.541   7.679
28629SOL    HW285846   9.022   6.632   7.730
28630SOL     OW85847   8.626   7.409   9.084
28630SOL    HW185848   8.627   7.470   9.011
28630SOL    HW285849   8.643   7.324   9.044
28631SOL     OW85850   7.808   5.839   9.323
28631SOL    HW185851   7.844   5.918   9.363
28631SOL    HW285852   7.713   5.856   9.319
28632SOL     OW85853   8.919   7.004   8.377
28632SOL    HW185854   8.856   7.023   8.447
28632SOL    HW285855   8.902   6.914   8.353
28633SOL     OW85856   9.084   7.385   8.009
28633SOL    HW185857   9.068   7.338   7.927
28633SOL    HW285858   9.086   7.317   8.076
28634SOL     OW85859   8.035   6.286   7.720
28634SOL    HW185860   8.038   6.373   7.681
28634SOL    HW285861   7.970   6.293   7.790
28635SOL     OW85862   8.729   5.979   8.389
28635SOL    HW185863   8.641   5.943   8.394
28635SOL    HW285864   8.782   5.920   8.444
28636SOL     OW85865   9.027   7.260   7.767
28636SOL    HW185866   9.121   7.275   7.756
28636SOL    HW285867   8.994   7.248   7.678
28637SOL     OW85868   8.238   6.199   8.879
28637SOL    HW185869   8.214   6.170   8.967
28637SOL    HW285870   8.213   6.126   8.822
28638SOL     OW85871   8.839   6.061   9.118
28638SOL    HW185872   8.843   6.105   9.204
28638SOL    HW285873   8.888   5.980   9.131
28639SOL     OW85874   8.392   6.466   9.040
28639SOL    HW185875   8.448   6.403   8.995
28639SOL    HW285876   8.344   6.509   8.969
28640SOL     OW85877   8.455   5.983   8.657
28640SOL    HW185878   8.363   5.996   8.680
28640SOL    HW285879   8.453   5.940   8.571
28641SOL     OW85880   8.506   6.283   7.866
28641SOL    HW185881   8.527   6.280   7.960
28641SOL    HW285882   8.421   6.239   7.859
28642SOL     OW85883   7.541   6.410   8.232
28642SOL    HW185884   7.623   6.405   8.281
28642SOL    HW285885   7.493   6.482   8.272
28643SOL     OW85886   7.559   7.465   9.040
28643SOL    HW185887   7.567   7.443   9.133
28643SOL    HW285888   7.474   7.428   9.015
28644SOL     OW85889   8.336   5.937   7.648
28644SOL    HW185890   8.387   5.990   7.588
28644SOL    HW285891   8.312   5.859   7.597
28645SOL     OW85892   9.130   6.148   9.285
28645SOL    HW185893   9.109   6.227   9.235
28645SOL    HW285894   9.158   6.084   9.219
28646SOL     OW85895   8.840   6.736   7.993
28646SOL    HW185896   8.920   6.724   7.941
28646SOL    HW285897   8.787   6.797   7.941
28647SOL     OW85898   7.999   5.746   8.363
28647SOL    HW185899   8.005   5.775   8.454
28647SOL    HW285900   7.995   5.828   8.312
28648SOL     OW85901   8.445   7.042   7.913
28648SOL    HW185902   8.421   7.116   7.858
28648SOL    HW285903   8.415   7.066   8.001
28649SOL     OW85904   7.802   7.402   8.328
28649SOL    HW185905   7.847   7.317   8.332
28649SOL    HW285906   7.869   7.466   8.349
28650SOL     OW85907   9.249   6.637   8.340
28650SOL    HW185908   9.199   6.625   8.259
28650SOL    HW285909   9.182   6.644   8.408
28651SOL     OW85910   8.666   7.131   8.964
28651SOL    HW185911   8.654   7.059   9.027
28651SOL    HW285912   8.598   7.116   8.898
28652SOL     OW85913   7.748   6.545   7.713
28652SOL    HW185914   7.831   6.566   7.670
28652SOL    HW285915   7.725   6.458   7.680
28653SOL     OW85916   8.930   6.347   8.158
28653SOL    HW185917   8.933   6.305   8.244
28653SOL    HW285918   9.009   6.402   8.157
28654SOL     OW85919   7.919   6.872   9.196
28654SOL    HW185920   7.895   6.876   9.103
28654SOL    HW285921   7.836   6.862   9.242
28655SOL     OW85922   8.588   7.362   7.675
28655SOL    HW185923   8.505   7.332   7.713
28655SOL    HW285924   8.607   7.297   7.607
28656SOL     OW85925   7.656   5.841   8.947
28656SOL    HW185926   7.583   5.901   8.961
28656SOL    HW285927   7.626   5.758   8.982
28657SOL     OW85928   9.071   6.978   7.546
28657SOL    HW185929   9.030   7.064   7.531
28657SOL    HW285930   9.005   6.915   7.518
28658SOL     OW85931   7.907   7.328   7.763
28658SOL    HW185932   7.956   7.378   7.828
28658SOL    HW285933   7.974   7.287   7.709
28659SOL     OW85934   8.845   5.691   7.907
28659SOL    HW185935   8.845   5.667   7.814
28659SOL    HW285936   8.935   5.675   7.935
28660SOL     OW85937   7.700   7.375   8.662
28660SOL    HW185938   7.748   7.300   8.696
28660SOL    HW285939   7.685   7.354   8.570
28661SOL     OW85940   8.396   7.288   8.337
28661SOL    HW185941   8.481   7.247   8.352
28661SOL    HW285942   8.357   7.238   8.267
28662SOL     OW85943   7.843   6.271   7.921
28662SOL    HW185944   7.856   6.177   7.934
28662SOL    HW285945   7.750   6.285   7.938
28663SOL     OW85946   8.952   5.805   9.163
28663SOL    HW185947   8.965   5.826   9.255
28663SOL    HW285948   8.888   5.734   9.163
28664SOL     OW85949   8.111   5.695   7.551
28664SOL    HW185950   8.159   5.616   7.576
28664SOL    HW285951   8.049   5.665   7.484
28665SOL     OW85952   8.206   5.858   9.202
28665SOL    HW185953   8.290   5.813   9.201
28665SOL    HW285954   8.159   5.821   9.276
28666SOL     OW85955   8.317   7.113   8.647
28666SOL    HW185956   8.299   7.072   8.563
28666SOL    HW285957   8.384   7.058   8.687
28667SOL     OW85958   8.777   6.178   8.879
28667SOL    HW185959   8.810   6.147   8.963
28667SOL    HW285960   8.816   6.265   8.868
28668SOL     OW85961   8.264   6.962   8.404
28668SOL    HW185962   8.351   6.958   8.366
28668SOL    HW285963   8.206   6.978   8.330
28669SOL     OW85964   8.378   6.101   8.336
28669SOL    HW185965   8.353   6.090   8.244
28669SOL    HW285966   8.405   6.014   8.364
28670SOL     OW85967   8.012   5.649   7.938
28670SOL    HW185968   7.934   5.650   7.993
28670SOL    HW285969   8.000   5.724   7.879
28671SOL     OW85970   8.876   6.795   7.478
28671SOL    HW185971   8.907   6.723   7.532
28671SOL    HW285972   8.791   6.818   7.515
28672SOL     OW85973   7.730   5.634   7.636
28672SOL    HW185974   7.782   5.701   7.593
28672SOL    HW285975   7.794   5.576   7.677
28673SOL     OW85976   8.400   5.836   7.898
28673SOL    HW185977   8.374   5.872   7.813
28673SOL    HW285978   8.494   5.853   7.904
28674SOL     OW85979   8.523   6.279   8.892
28674SOL    HW185980   8.460   6.207   8.897
28674SOL    HW285981   8.609   6.236   8.888
28675SOL     OW85982   8.653   7.173   8.251
28675SOL    HW185983   8.668   7.233   8.178
28675SOL    HW285984   8.728   7.187   8.309
28676SOL     OW85985   7.930   6.748   8.156
28676SOL    HW185986   7.868   6.723   8.225
28676SOL    HW285987   7.880   6.741   8.075
28677SOL     OW85988   8.699   7.378   8.065
28677SOL    HW185989   8.748   7.440   8.012
28677SOL    HW285990   8.628   7.429   8.104
28678SOL     OW85991   8.480   6.101   7.478
28678SOL    HW185992   8.437   6.184   7.459
28678SOL    HW285993   8.543   6.121   7.546
28679SOL     OW85994   7.548   6.136   8.840
28679SOL    HW185995   7.640   6.139   8.813
28679SOL    HW285996   7.540   6.206   8.905
28680SOL     OW85997   8.007   5.807   8.633
28680SOL    HW185998   8.044   5.743   8.693
28680SOL    HW285999   7.914   5.808   8.653
28681SOL     OW86000   8.318   6.040   8.077
28681SOL    HW186001   8.278   6.096   8.011
28681SOL    HW286002   8.343   5.961   8.030
28682SOL     OW86003   8.470   5.645   8.188
28682SOL    HW186004   8.409   5.639   8.114
28682SOL    HW286005   8.445   5.572   8.245
28683SOL     OW86006   8.880   6.740   8.302
28683SOL    HW186007   8.811   6.675   8.312
28683SOL    HW286008   8.895   6.746   8.208
28684SOL     OW86009   8.908   6.202   8.397
28684SOL    HW186010   8.844   6.132   8.407
28684SOL    HW286011   8.964   6.196   8.474
28685SOL     OW86012   9.279   6.380   7.834
28685SOL    HW186013   9.335   6.335   7.897
28685SOL    HW286014   9.264   6.316   7.765
28686SOL     OW86015   7.946   7.010   7.598
28686SOL    HW186016   7.871   6.978   7.648
28686SOL    HW286017   7.942   6.962   7.515
28687SOL     OW86018   9.158   6.856   8.084
28687SOL    HW186019   9.252   6.850   8.102
28687SOL    HW286020   9.135   6.946   8.108
28688SOL     OW86021   8.840   6.161   7.514
28688SOL    HW186022   8.783   6.134   7.586
28688SOL    HW286023   8.928   6.136   7.542
28689SOL     OW86024   7.975   5.843   7.750
28689SOL    HW186025   8.029   5.801   7.683
28689SOL    HW286026   7.943   5.923   7.709
28690SOL     OW86027   9.180   6.830   8.980
28690SOL    HW186028   9.267   6.793   8.968
28690SOL    HW286029   9.195   6.917   9.017
28691SOL     OW86030   8.489   6.941   8.783
28691SOL    HW186031   8.412   6.907   8.828
28691SOL    HW286032   8.563   6.896   8.824
28692SOL     OW86033   9.056   7.222   9.112
28692SOL    HW186034   9.048   7.257   9.024
28692SOL    HW286035   9.132   7.165   9.109
28693SOL     OW86036   8.599   6.824   8.553
28693SOL    HW186037   8.537   6.858   8.618
28693SOL    HW286038   8.566   6.856   8.469
28694SOL     OW86039   9.054   6.678   8.527
28694SOL    HW186040   9.047   6.745   8.595
28694SOL    HW286041   8.984   6.699   8.465
28695SOL     OW86042   8.366   5.668   8.831
28695SOL    HW186043   8.387   5.652   8.738
28695SOL    HW286044   8.445   5.708   8.867
28696SOL     OW86045   8.429   6.700   9.171
28696SOL    HW186046   8.339   6.718   9.197
28696SOL    HW286047   8.425   6.620   9.120
28697SOL     OW86048   8.162   6.648   7.824
28697SOL    HW186049   8.147   6.622   7.915
28697SOL    HW286050   8.237   6.595   7.796
28698SOL     OW86051   7.875   6.414   8.707
28698SOL    HW186052   7.942   6.424   8.774
28698SOL    HW286053   7.844   6.324   8.717
28699SOL     OW86054   8.712   5.953   8.740
28699SOL    HW186055   8.740   6.034   8.783
28699SOL    HW286056   8.623   5.972   8.710
28700SOL     OW86057   7.526   7.155   8.809
28700SOL    HW186058   7.495   7.227   8.753
28700SOL    HW286059   7.621   7.156   8.799
28701SOL     OW86060   7.765   6.720   7.934
28701SOL    HW186061   7.766   6.792   7.871
28701SOL    HW286062   7.762   6.641   7.881
28702SOL     OW86063   7.982   6.103   8.308
28702SOL    HW186064   7.994   6.161   8.233
28702SOL    HW286065   8.050   6.129   8.369
28703SOL     OW86066   8.695   6.940   7.846
28703SOL    HW186067   8.751   7.010   7.880
28703SOL    HW286068   8.607   6.964   7.877
28704SOL     OW86069   8.757   7.055   8.590
28704SOL    HW186070   8.804   7.061   8.673
28704SOL    HW286071   8.706   6.974   8.598
28705SOL     OW86072   9.020   6.203   7.933
28705SOL    HW186073   8.971   6.243   8.005
28705SOL    HW286074   9.063   6.277   7.890
28706SOL     OW86075   7.792   7.120   8.749
28706SOL    HW186076   7.785   7.067   8.670
28706SOL    HW286077   7.886   7.136   8.759
28707SOL     OW86078   7.878   6.333   9.065
28707SOL    HW186079   7.938   6.377   9.004
28707SOL    HW286080   7.921   6.250   9.085
28708SOL     OW86081   9.070   6.374   9.150
28708SOL    HW186082   8.983   6.411   9.139
28708SOL    HW286083   9.121   6.411   9.077
28709SOL     OW86084   8.443   5.728   9.210
28709SOL    HW186085   8.501   5.801   9.189
28709SOL    HW286086   8.494   5.650   9.187
28710SOL     OW86087   7.944   5.621   9.211
28710SOL    HW186088   7.889   5.571   9.150
28710SOL    HW286089   7.891   5.698   9.232
28711SOL     OW86090   8.040   6.461   8.487
28711SOL    HW186091   8.078   6.549   8.490
28711SOL    HW286092   7.982   6.457   8.563
28712SOL     OW86093   8.756   6.440   8.451
28712SOL    HW186094   8.667   6.412   8.425
28712SOL    HW286095   8.810   6.363   8.432
28713SOL     OW86096   8.647   6.109   7.705
28713SOL    HW186097   8.657   6.032   7.762
28713SOL    HW286098   8.605   6.174   7.761
28714SOL     OW86099   7.740   5.779   8.687
28714SOL    HW186100   7.705   5.808   8.771
28714SOL    HW286101   7.723   5.685   8.684
28715SOL     OW86102   7.499   6.897   8.713
28715SOL    HW186103   7.527   6.842   8.786
28715SOL    HW286104   7.501   6.986   8.749
28716SOL     OW86105   8.160   6.208   8.487
28716SOL    HW186106   8.238   6.201   8.431
28716SOL    HW286107   8.131   6.299   8.478
28717SOL     OW86108   9.197   6.555   9.322
28717SOL    HW186109   9.152   6.484   9.275
28717SOL    HW286110   9.137   6.579   9.393
28718SOL     OW86111   7.773   5.646   8.076
28718SOL    HW186112   7.739   5.733   8.094
28718SOL    HW286113   7.779   5.604   8.162
28719SOL     OW86114   9.079   5.976   7.792
28719SOL    HW186115   9.113   5.911   7.853
28719SOL    HW286116   9.049   6.048   7.847
28720SOL     OW86117   8.482   6.344   8.404
28720SOL    HW186118   8.460   6.359   8.496
28720SOL    HW286119   8.452   6.255   8.386
28721SOL     OW86120   8.428   7.153   9.180
28721SOL    HW186121   8.407   7.196   9.097
28721SOL    HW286122   8.467   7.069   9.155
28722SOL     OW86123   9.287   7.079   9.048
28722SOL    HW186124   9.313   7.107   8.961
28722SOL    HW286125   9.365   7.090   9.102
28723SOL     OW86126   7.798   6.502   9.267
28723SOL    HW186127   7.877   6.522   9.317
28723SOL    HW286128   7.826   6.440   9.200
28724SOL     OW86129   8.969   5.855   7.567
28724SOL    HW186130   8.917   5.784   7.604
28724SOL    HW286131   9.009   5.898   7.642
28725SOL     OW86132   8.729   6.407   7.468
28725SOL    HW186133   8.769   6.320   7.475
28725SOL    HW286134   8.764   6.443   7.386
28726SOL     OW86135   8.518   6.939   8.315
28726SOL    HW186136   8.529   6.866   8.253
28726SOL    HW286137   8.569   7.010   8.277
28727SOL     OW86138   7.766   6.402   8.393
28727SOL    HW186139   7.861   6.416   8.390
28727SOL    HW286140   7.756   6.312   8.424
28728SOL     OW86141   7.761   6.124   8.460
28728SOL    HW186142   7.722   6.037   8.449
28728SOL    HW286143   7.838   6.122   8.403
28729SOL     OW86144   8.586   5.954   9.133
28729SOL    HW186145   8.540   6.006   9.199
28729SOL    HW286146   8.671   5.996   9.123
28730SOL     OW86147   8.603   5.775   8.922
28730SOL    HW186148   8.592   5.838   8.994
28730SOL    HW286149   8.650   5.825   8.854
28731SOL     OW86150   7.472   6.889   7.628
28731SOL    HW186151   7.383   6.912   7.602
28731SOL    HW286152   7.465   6.803   7.668
28732SOL     OW86153   7.541   7.356   8.399
28732SOL    HW186154   7.507   7.282   8.348
28732SOL    HW286155   7.628   7.373   8.362
28733SOL     OW86156   7.933   7.156   8.349
28733SOL    HW186157   8.004   7.216   8.372
28733SOL    HW286158   7.973   7.094   8.287
28734SOL     OW86159   8.396   6.367   8.662
28734SOL    HW186160   8.458   6.355   8.734
28734SOL    HW286161   8.317   6.322   8.691
28735SOL     OW86162   7.487   6.157   8.569
28735SOL    HW186163   7.568   6.154   8.519
28735SOL    HW286164   7.515   6.150   8.661
28736SOL     OW86165   7.635   6.121   9.187
28736SOL    HW186166   7.704   6.086   9.130
28736SOL    HW286167   7.600   6.196   9.139
28737SOL     OW86168   8.836   6.506   9.098
28737SOL    HW186169   8.853   6.600   9.093
28737SOL    HW286170   8.830   6.478   9.006
28738SOL     OW86171   8.266   6.155   7.820
28738SOL    HW186172   8.275   6.081   7.760
28738SOL    HW286173   8.189   6.202   7.789
28739SOL     OW86174   9.080   6.187   8.610
28739SOL    HW186175   9.070   6.128   8.685
28739SOL    HW286176   9.171   6.175   8.582
28740SOL     OW86177   7.673   7.129   9.169
28740SOL    HW186178   7.654   7.185   9.244
28740SOL    HW286179   7.683   7.041   9.206
28741SOL     OW86180   8.182   6.019   8.682
28741SOL    HW186181   8.118   5.949   8.667
28741SOL    HW286182   8.164   6.083   8.613
28742SOL     OW86183   8.353   7.266   8.935
28742SOL    HW186184   8.331   7.218   8.855
28742SOL    HW286185   8.355   7.358   8.908
28743SOL     OW86186   7.891   6.067   7.613
28743SOL    HW186187   7.955   6.133   7.637
28743SOL    HW286188   7.807   6.113   7.616
28744SOL     OW86189   7.578   6.736   8.929
28744SOL    HW186190   7.582   6.697   9.016
28744SOL    HW286191   7.599   6.664   8.869
28745SOL     OW86192   8.751   6.620   8.656
28745SOL    HW186193   8.760   6.556   8.585
28745SOL    HW286194   8.698   6.690   8.619
28746SOL     OW86195   8.774   6.445   7.740
28746SOL    HW186196   8.703   6.410   7.794
28746SOL    HW286197   8.745   6.430   7.650
28747SOL     OW86198   9.239   7.308   8.619
28747SOL    HW186199   9.300   7.334   8.550
28747SOL    HW286200   9.205   7.223   8.590
28748SOL     OW86201   8.688   7.320   8.541
28748SOL    HW186202   8.773   7.350   8.506
28748SOL    HW286203   8.702   7.229   8.564
28749SOL     OW86204   7.554   6.834   8.456
28749SOL    HW186205   7.526   6.855   8.545
28749SOL    HW286206   7.483   6.780   8.421
28750SOL     OW86207   8.136   7.269   9.201
28750SOL    HW186208   8.073   7.340   9.187
28750SOL    HW286209   8.210   7.291   9.145
28751SOL     OW86210   9.197   5.771   7.942
28751SOL    HW186211   9.256   5.750   7.869
28751SOL    HW286212   9.169   5.686   7.975
28752SOL     OW86213   8.846   7.156   7.952
28752SOL    HW186214   8.901   7.190   7.881
28752SOL    HW286215   8.791   7.229   7.978
28753SOL     OW86216   7.589   7.387   9.296
28753SOL    HW186217   7.543   7.316   9.340
28753SOL    HW286218   7.638   7.431   9.365
28754SOL     OW86219   8.726   6.522   8.112
28754SOL    HW186220   8.800   6.462   8.125
28754SOL    HW286221   8.762   6.594   8.060
28755SOL     OW86222   8.231   6.866   8.862
28755SOL    HW186223   8.204   6.914   8.940
28755SOL    HW286224   8.157   6.876   8.802
28756SOL     OW86225   8.116   7.222   7.607
28756SOL    HW186226   8.131   7.236   7.513
28756SOL    HW286227   8.064   7.142   7.611
28757SOL     OW86228   9.065   7.316   8.845
28757SOL    HW186229   9.122   7.316   8.769
28757SOL    HW286230   9.049   7.409   8.864
28758SOL     OW86231   9.290   5.744   8.413
28758SOL    HW186232   9.320   5.656   8.392
28758SOL    HW286233   9.203   5.750   8.374
28759SOL     OW86234   7.691   5.892   8.156
28759SOL    HW186235   7.605   5.929   8.135
28759SOL    HW286236   7.695   5.894   8.252
28760SOL     OW86237   8.656   7.174   7.486
28760SOL    HW186238   8.647   7.083   7.514
28760SOL    HW286239   8.587   7.188   7.422
28761SOL     OW86240   8.271   6.597   8.833
28761SOL    HW186241   8.308   6.588   8.745
28761SOL    HW286242   8.260   6.692   8.844
28762SOL     OW86243   8.368   6.497   7.743
28762SOL    HW186244   8.425   6.530   7.673
28762SOL    HW286245   8.420   6.429   7.786
28763SOL     OW86246   8.929   7.235   7.505
28763SOL    HW186247   8.837   7.215   7.487
28763SOL    HW286248   8.970   7.238   7.418
28764SOL     OW86249   7.810   6.899   8.949
28764SOL    HW186250   7.802   6.972   8.888
28764SOL    HW286251   7.732   6.846   8.933
28765SOL     OW86252   9.046   6.877   8.726
28765SOL    HW186253   9.099   6.851   8.802
28765SOL    HW286254   8.987   6.944   8.759
28766SOL     OW86255   8.525   6.705   8.178
28766SOL    HW186256   8.449   6.656   8.209
28766SOL    HW286257   8.587   6.639   8.148
28767SOL     OW86258   8.481   5.835   8.408
28767SOL    HW186259   8.480   5.793   8.322
28767SOL    HW286260   8.474   5.763   8.471
28768SOL     OW86261   8.052   7.072   7.923
28768SOL    HW186262   8.107   7.023   7.862
28768SOL    HW286263   7.970   7.087   7.876
28769SOL     OW86264   9.190   5.966   8.836
28769SOL    HW186265   9.258   6.034   8.830
28769SOL    HW286266   9.218   5.899   8.774
28770SOL     OW86267   7.728   6.927   7.747
28770SOL    HW186268   7.641   6.919   7.707
28770SOL    HW286269   7.713   6.975   7.828
28771SOL     OW86270   7.572   6.634   9.184
28771SOL    HW186271   7.494   6.607   9.232
28771SOL    HW286272   7.643   6.582   9.222
28772SOL     OW86273   8.127   5.774   8.944
28772SOL    HW186274   8.211   5.750   8.905
28772SOL    HW286275   8.149   5.808   9.030
28773SOL     OW86276   7.533   5.904   7.462
28773SOL    HW186277   7.456   5.883   7.409
28773SOL    HW286278   7.561   5.990   7.431
28774SOL     OW86279   8.863   6.440   8.835
28774SOL    HW186280   8.811   6.498   8.780
28774SOL    HW286281   8.951   6.444   8.797
28775SOL     OW86282   7.491   5.735   7.720
28775SOL    HW186283   7.478   5.805   7.656
28775SOL    HW286284   7.580   5.703   7.703
28776SOL     OW86285   8.628   6.908   7.571
28776SOL    HW186286   8.537   6.880   7.570
28776SOL    HW286287   8.652   6.911   7.664
28777SOL     OW86288   8.074   6.418   8.890
28777SOL    HW186289   8.132   6.492   8.878
28777SOL    HW286290   8.131   6.341   8.889
28778SOL     OW86291   8.934   7.388   8.441
28778SOL    HW186292   8.960   7.462   8.386
28778SOL    HW286293   9.016   7.343   8.460
28779SOL     OW86294   8.172   6.134   9.135
28779SOL    HW186295   8.219   6.188   9.199
28779SOL    HW286296   8.182   6.044   9.167
28780SOL     OW86297   8.915   6.769   9.068
28780SOL    HW186298   8.908   6.788   9.161
28780SOL    HW286299   9.004   6.793   9.045
28781SOL     OW86300   7.803   7.334   9.026
28781SOL    HW186301   7.721   7.381   9.010
28781SOL    HW286302   7.777   7.250   9.063
28782SOL     OW86303   9.102   6.461   8.699
28782SOL    HW186304   9.100   6.378   8.651
28782SOL    HW286305   9.090   6.527   8.631
28783SOL     OW86306   8.669   5.908   7.904
28783SOL    HW186307   8.729   5.834   7.903
28783SOL    HW286308   8.697   5.960   7.979
28784SOL     OW86309   8.024   6.312   8.129
28784SOL    HW186310   8.068   6.396   8.114
28784SOL    HW286311   7.963   6.303   8.056
28785SOL     OW86312   9.188   5.940   9.110
28785SOL    HW186313   9.186   5.956   9.016
28785SOL    HW286314   9.111   5.886   9.127
28786SOL     OW86315   9.201   6.507   8.951
28786SOL    HW186316   9.188   6.601   8.964
28786SOL    HW286317   9.176   6.490   8.860
28787SOL     OW86318   8.320   6.943   7.511
28787SOL    HW186319   8.281   6.962   7.597
28787SOL    HW286320   8.329   7.029   7.470
28788SOL     OW86321   8.117   7.352   8.374
28788SOL    HW186322   8.098   7.446   8.366
28788SOL    HW286323   8.212   7.347   8.372
28789SOL     OW86324   8.320   6.563   8.304
28789SOL    HW186325   8.370   6.490   8.339
28789SOL    HW286326   8.275   6.600   8.380
28790SOL     OW86327   8.522   6.572   7.535
28790SOL    HW186328   8.500   6.625   7.459
28790SOL    HW286329   8.595   6.517   7.507
28791SOL     OW86330   9.282   7.145   8.287
28791SOL    HW186331   9.205   7.137   8.231
28791SOL    HW286332   9.262   7.090   8.363
28792SOL     OW86333   7.658   6.876   9.284
28792SOL    HW186334   7.628   6.796   9.242
28792SOL    HW286335   7.597   6.891   9.355
28793SOL     OW86336   7.565   6.812   8.115
28793SOL    HW186337   7.594   6.770   8.196
28793SOL    HW286338   7.624   6.778   8.048
28794SOL     OW86339   8.136   7.007   9.079
28794SOL    HW186340   8.059   6.968   9.120
28794SOL    HW286341   8.142   7.094   9.117
28795SOL     OW86342   9.263   5.758   8.683
28795SOL    HW186343   9.269   5.663   8.698
28795SOL    HW286344   9.273   5.768   8.589
28796SOL     OW86345   7.867   6.008   7.967
28796SOL    HW186346   7.900   5.938   7.911
28796SOL    HW286347   7.815   5.964   8.034
28797SOL     OW86348   9.142   7.066   8.530
28797SOL    HW186349   9.065   7.047   8.477
28797SOL    HW286350   9.142   6.999   8.598
28798SOL     OW86351   7.800   6.152   8.740
28798SOL    HW186352   7.850   6.087   8.790
28798SOL    HW286353   7.807   6.122   8.649
28799SOL     OW86354   8.286   7.170   8.118
28799SOL    HW186355   8.255   7.239   8.060
28799SOL    HW286356   8.211   7.111   8.127
28800SOL     OW86357   8.869   5.818   8.563
28800SOL    HW186358   8.877   5.729   8.595
28800SOL    HW286359   8.823   5.865   8.633
28801SOL     OW86360   8.458   5.603   8.567
28801SOL    HW186361   8.404   5.540   8.519
28801SOL    HW286362   8.545   5.563   8.571
28802SOL     OW86363   8.228   6.918   7.777
28802SOL    HW186364   8.204   6.827   7.788
28802SOL    HW286365   8.308   6.929   7.828
28803SOL     OW86366   8.063   7.156   8.735
28803SOL    HW186367   8.059   7.240   8.781
28803SOL    HW286368   8.153   7.151   8.703
28804SOL     OW86369   8.828   5.625   7.640
28804SOL    HW186370   8.869   5.552   7.592
28804SOL    HW286371   8.737   5.598   7.651
28805SOL     OW86372   8.746   6.057   8.123
28805SOL    HW186373   8.696   6.138   8.120
28805SOL    HW286374   8.738   6.027   8.214
28806SOL     OW86375   9.028   5.773   8.340
28806SOL    HW186376   8.977   5.802   8.415
28806SOL    HW286377   9.028   5.847   8.280
28807SOL     OW86378   7.485   6.638   7.757
28807SOL    HW186379   7.578   6.626   7.738
28807SOL    HW286380   7.453   6.550   7.777
28808SOL     OW86381   8.343   7.262   7.778
28808SOL    HW186382   8.265   7.246   7.725
28808SOL    HW286383   8.317   7.330   7.839
28809SOL     OW86384   7.659   6.191   9.454
28809SOL    HW186385   7.570   6.181   9.488
28809SOL    HW286386   7.650   6.184   9.359
28810SOL     OW86387   9.251   6.164   9.522
28810SOL    HW186388   9.209   6.164   9.436
28810SOL    HW286389   9.204   6.097   9.572
28811SOL     OW86390   7.660   7.328   9.764
28811SOL    HW186391   7.681   7.400   9.823
28811SOL    HW286392   7.740   7.315   9.713
28812SOL     OW86393   7.670   7.049   9.844
28812SOL    HW186394   7.650   7.139   9.868
28812SOL    HW286395   7.596   6.998   9.878
28813SOL     OW86396   8.019   6.571   9.451
28813SOL    HW186397   8.069   6.615   9.383
28813SOL    HW286398   8.059   6.601   9.533
28814SOL     OW86399   7.513   6.262   9.883
28814SOL    HW186400   7.427   6.228   9.860
28814SOL    HW286401   7.495   6.340   9.936
28815SOL     OW86402   9.275   7.341   9.641
28815SOL    HW186403   9.351   7.320   9.695
28815SOL    HW286404   9.294   7.429   9.607
28816SOL     OW86405   7.497   7.177   9.433
28816SOL    HW186406   7.482   7.083   9.449
28816SOL    HW286407   7.460   7.220   9.510
28817SOL     OW86408   9.123   6.456   9.915
28817SOL    HW186409   9.190   6.478   9.980
28817SOL    HW286410   9.114   6.535   9.863
28818SOL     OW86411   9.135   6.687   9.761
28818SOL    HW186412   9.219   6.689   9.716
28818SOL    HW286413   9.131   6.771   9.808
28819SOL     OW86414   8.089   6.926   9.993
28819SOL    HW186415   8.032   6.849   9.990
28819SOL    HW286416   8.067   6.975   9.914
28820SOL     OW86417   8.266   5.615   9.827
28820SOL    HW186418   8.311   5.694   9.798
28820SOL    HW286419   8.173   5.640   9.829
28821SOL     OW86420   9.002   6.611   9.522
28821SOL    HW186421   8.942   6.541   9.548
28821SOL    HW286422   9.039   6.642   9.605
28822SOL     OW86423   8.033   6.285   9.583
28822SOL    HW186424   8.041   6.371   9.542
28822SOL    HW286425   7.975   6.300   9.658
28823SOL     OW86426   9.010   7.259   9.626
28823SOL    HW186427   9.102   7.283   9.633
28823SOL    HW286428   8.994   7.248   9.532
28824SOL     OW86429   8.494   6.276   9.734
28824SOL    HW186430   8.522   6.252   9.823
28824SOL    HW286431   8.408   6.234   9.724
28825SOL     OW86432   7.501   6.469   0.069
28825SOL    HW186433   7.577   6.425   0.109
28825SOL    HW286434   7.478   6.538   0.131
28826SOL     OW86435   8.340   5.933   9.503
28826SOL    HW186436   8.388   5.991   9.443
28826SOL    HW286437   8.326   5.853   9.452
28827SOL     OW86438   8.764   6.681   9.795
28827SOL    HW186439   8.814   6.710   9.871
28827SOL    HW286440   8.738   6.761   9.750
28828SOL     OW86441   8.441   7.021   9.782
28828SOL    HW186442   8.411   7.106   9.751
28828SOL    HW286443   8.413   7.019   9.874
28829SOL     OW86444   7.800   7.439   0.167
28829SOL    HW186445   7.805   7.359   0.218
28829SOL    HW286446   7.891   7.471   0.163
28830SOL     OW86447   7.764   6.546   9.577
28830SOL    HW186448   7.845   6.560   9.528
28830SOL    HW286449   7.724   6.469   9.535
28831SOL     OW86450   8.585   7.361   9.546
28831SOL    HW186451   8.506   7.328   9.587
28831SOL    HW286452   8.606   7.298   9.477
28832SOL     OW86453   9.070   6.982   9.399
28832SOL    HW186454   9.027   7.066   9.386
28832SOL    HW286455   9.004   6.917   9.375
28833SOL     OW86456   7.916   7.348   9.634
28833SOL    HW186457   7.966   7.376   9.711
28833SOL    HW286458   7.980   7.301   9.580
28834SOL     OW86459   8.873   5.737   9.738
28834SOL    HW186460   8.862   5.695   9.653
28834SOL    HW286461   8.968   5.741   9.751
28835SOL     OW86462   7.844   6.274   9.800
28835SOL    HW186463   7.847   6.181   9.821
28835SOL    HW286464   7.751   6.294   9.793
28836SOL     OW86465   8.109   5.693   9.416
28836SOL    HW186466   8.155   5.613   9.443
28836SOL    HW286467   8.048   5.665   9.348
28837SOL     OW86468   7.993   5.685   9.840
28837SOL    HW186469   7.901   5.679   9.865
28837SOL    HW286470   7.993   5.743   9.764
28838SOL     OW86471   8.881   6.791   9.343
28838SOL    HW186472   8.916   6.724   9.402
28838SOL    HW286473   8.794   6.811   9.379
28839SOL     OW86474   7.732   5.639   9.500
28839SOL    HW186475   7.782   5.705   9.452
28839SOL    HW286476   7.799   5.587   9.545
28840SOL     OW86477   8.396   5.847   9.757
28840SOL    HW186478   8.372   5.878   9.670
28840SOL    HW286479   8.490   5.866   9.764
28841SOL     OW86480   7.890   6.737   0.034
28841SOL    HW186481   7.821   6.772   0.090
28841SOL    HW286482   7.847   6.722   9.950
28842SOL     OW86483   8.749   7.421   9.900
28842SOL    HW186484   8.792   7.486   9.845
28842SOL    HW286485   8.656   7.446   9.897
28843SOL     OW86486   8.480   6.103   9.338
28843SOL    HW186487   8.436   6.187   9.318
28843SOL    HW286488   8.542   6.125   9.407
28844SOL     OW86489   8.292   6.028   9.942
28844SOL    HW186490   8.254   6.091   9.881
28844SOL    HW286491   8.324   5.957   9.886
28845SOL     OW86492   9.361   6.391   9.633
28845SOL    HW186493   9.367   6.354   9.721
28845SOL    HW286494   9.315   6.325   9.581
28846SOL     OW86495   7.942   7.013   9.465
28846SOL    HW186496   7.867   6.979   9.512
28846SOL    HW286497   7.942   6.964   9.382
28847SOL     OW86498   8.837   6.161   9.371
28847SOL    HW186499   8.781   6.139   9.445
28847SOL    HW286500   8.925   6.135   9.399
28848SOL     OW86501   7.990   5.846   9.624
28848SOL    HW186502   8.037   5.801   9.554
28848SOL    HW286503   7.953   5.923   9.582
28849SOL     OW86504   8.155   6.640   9.684
28849SOL    HW186505   8.123   6.594   9.761
28849SOL    HW286506   8.235   6.594   9.660
28850SOL     OW86507   7.754   6.713   9.799
28850SOL    HW186508   7.756   6.790   9.741
28850SOL    HW286509   7.763   6.638   9.740
28851SOL     OW86510   8.686   6.939   9.691
28851SOL    HW186511   8.741   7.011   9.722
28851SOL    HW286512   8.599   6.960   9.726
28852SOL     OW86513   9.079   6.224   9.788
28852SOL    HW186514   9.085   6.300   9.846
28852SOL    HW286515   9.022   6.254   9.717
28853SOL     OW86516   8.644   6.117   9.565
28853SOL    HW186517   8.651   6.041   9.623
28853SOL    HW286518   8.605   6.185   9.619
28854SOL     OW86519   7.729   5.674   9.927
28854SOL    HW186520   7.661   5.740   9.945
28854SOL    HW286521   7.745   5.633   0.012
28855SOL     OW86522   9.080   5.982   9.654
28855SOL    HW186523   9.104   5.906   9.707
28855SOL    HW286524   9.070   6.053   9.718
28856SOL     OW86525   8.968   5.860   9.424
28856SOL    HW186526   8.915   5.788   9.460
28856SOL    HW286527   9.006   5.902   9.502
28857SOL     OW86528   8.729   6.410   9.331
28857SOL    HW186529   8.767   6.323   9.337
28857SOL    HW286530   8.763   6.445   9.249
28858SOL     OW86531   7.471   6.902   9.484
28858SOL    HW186532   7.381   6.921   9.459
28858SOL    HW286533   7.467   6.815   9.524
28859SOL     OW86534   8.255   6.145   9.682
28859SOL    HW186535   8.267   6.076   9.617
28859SOL    HW286536   8.183   6.198   9.649
28860SOL     OW86537   7.895   6.062   9.483
28860SOL    HW186538   7.956   6.132   9.507
28860SOL    HW286539   7.809   6.105   9.481
28861SOL     OW86540   8.816   6.429   9.606
28861SOL    HW186541   8.762   6.481   9.666
28861SOL    HW286542   8.763   6.422   9.527
28862SOL     OW86543   9.158   5.745   9.769
28862SOL    HW186544   9.228   5.745   9.704
28862SOL    HW286545   9.174   5.665   9.820
28863SOL     OW86546   8.812   7.174   9.794
28863SOL    HW186547   8.883   7.191   9.731
28863SOL    HW286548   8.784   7.261   9.823
28864SOL     OW86549   8.115   7.225   9.474
28864SOL    HW186550   8.131   7.238   9.381
28864SOL    HW286551   8.062   7.146   9.479
28865SOL     OW86552   8.654   7.180   9.349
28865SOL    HW186553   8.646   7.088   9.373
28865SOL    HW286554   8.585   7.193   9.284
28866SOL     OW86555   8.372   6.499   9.614
28866SOL    HW186556   8.428   6.527   9.541
28866SOL    HW286557   8.422   6.430   9.657
28867SOL     OW86558   8.929   7.237   9.358
28867SOL    HW186559   8.837   7.218   9.342
28867SOL    HW286560   8.969   7.239   9.271
28868SOL     OW86561   8.040   7.063   9.762
28868SOL    HW186562   8.100   7.020   9.702
28868SOL    HW286563   7.957   7.068   9.714
28869SOL     OW86564   7.726   6.928   9.614
28869SOL    HW186565   7.640   6.923   9.572
28869SOL    HW286566   7.710   6.979   9.694
28870SOL     OW86567   7.532   5.902   9.322
28870SOL    HW186568   7.456   5.882   9.268
28870SOL    HW286569   7.561   5.988   9.292
28871SOL     OW86570   7.490   5.740   9.577
28871SOL    HW186571   7.481   5.806   9.508
28871SOL    HW286572   7.579   5.706   9.566
28872SOL     OW86573   8.627   6.909   9.422
28872SOL    HW186574   8.535   6.881   9.422
28872SOL    HW286575   8.650   6.914   9.515
28873SOL     OW86576   8.664   5.921   9.768
28873SOL    HW186577   8.739   5.862   9.760
28873SOL    HW286578   8.683   5.975   9.845
28874SOL     OW86579   8.056   6.433   9.890
28874SOL    HW186580   8.060   6.432   9.985
28874SOL    HW286581   7.983   6.374   9.868
28875SOL     OW86582   8.320   6.943   9.364
28875SOL    HW186583   8.283   6.959   9.451
28875SOL    HW286584   8.329   7.031   9.326
28876SOL     OW86585   8.517   6.566   9.397
28876SOL    HW186586   8.499   6.621   9.322
28876SOL    HW286587   8.593   6.513   9.371
28877SOL     OW86588   7.503   6.827   9.899
28877SOL    HW186589   7.499   6.833   9.994
28877SOL    HW286590   7.578   6.771   9.882
28878SOL     OW86591   7.857   6.011   9.866
28878SOL    HW186592   7.905   5.949   9.813
28878SOL    HW286593   7.894   6.002   9.954
28879SOL     OW86594   8.230   6.914   9.627
28879SOL    HW186595   8.205   6.824   9.643
28879SOL    HW286596   8.307   6.928   9.682
28880SOL     OW86597   8.826   5.628   9.492
28880SOL    HW186598   8.868   5.551   9.452
28880SOL    HW286599   8.736   5.599   9.508
28881SOL     OW86600   7.504   6.655   9.597
28881SOL    HW186601   7.600   6.648   9.591
28881SOL    HW286602   7.474   6.564   9.601
28882SOL     OW86603   8.342   7.258   9.664
28882SOL    HW186604   8.267   7.240   9.608
28882SOL    HW286605   8.313   7.327   9.723
28883SOL     OW86606   7.645   8.061   0.126
28883SOL    HW186607   7.562   8.045   0.171
28883SOL    HW286608   7.621   8.071   0.034
28884SOL     OW86609   7.667   7.737   0.990
28884SOL    HW186610   7.697   7.701   1.073
28884SOL    HW286611   7.580   7.699   0.978
28885SOL     OW86612   7.432   7.846   0.647
28885SOL    HW186613   7.350   7.868   0.692
28885SOL    HW286614   7.409   7.771   0.593
28886SOL     OW86615   8.022   8.754   1.208
28886SOL    HW186616   7.940   8.758   1.160
28886SOL    HW286617   8.040   8.845   1.232
28887SOL     OW86618   9.040   8.968   0.707
28887SOL    HW186619   8.992   8.938   0.784
28887SOL    HW286620   8.973   8.971   0.637
28888SOL     OW86621   8.587   8.150   0.685
28888SOL    HW186622   8.633   8.233   0.676
28888SOL    HW286623   8.537   8.159   0.767
28889SOL     OW86624   9.222   8.027   0.196
28889SOL    HW186625   9.147   8.056   0.144
28889SOL    HW286626   9.189   7.955   0.250
28890SOL     OW86627   8.175   8.576   1.058
28890SOL    HW186628   8.116   8.616   1.122
28890SOL    HW286629   8.219   8.650   1.016
28891SOL     OW86630   8.335   8.189   1.828
28891SOL    HW186631   8.327   8.256   1.896
28891SOL    HW286632   8.352   8.239   1.748
28892SOL     OW86633   8.133   8.426   0.646
28892SOL    HW186634   8.201   8.427   0.713
28892SOL    HW286635   8.068   8.489   0.677
28893SOL     OW86636   8.159   8.597   1.832
28893SOL    HW186637   8.211   8.670   1.867
28893SOL    HW286638   8.083   8.639   1.792
28894SOL     OW86639   7.790   8.844   1.070
28894SOL    HW186640   7.714   8.802   1.030
28894SOL    HW286641   7.826   8.900   1.001
28895SOL     OW86642   8.901   8.955   1.372
28895SOL    HW186643   8.957   9.032   1.384
28895SOL    HW286644   8.830   8.967   1.435
28896SOL     OW86645   7.906   7.822   1.455
28896SOL    HW186646   7.981   7.764   1.471
28896SOL    HW286647   7.830   7.771   1.483
28897SOL     OW86648   9.025   7.879   0.753
28897SOL    HW186649   8.950   7.887   0.694
28897SOL    HW286650   9.013   7.949   0.817
28898SOL     OW86651   7.675   9.171   0.468
28898SOL    HW186652   7.690   9.245   0.526
28898SOL    HW286653   7.760   9.152   0.429
28899SOL     OW86654   8.583   8.789   1.697
28899SOL    HW186655   8.629   8.778   1.780
28899SOL    HW286656   8.529   8.710   1.688
28900SOL     OW86657   7.656   8.894   0.508
28900SOL    HW186658   7.650   8.989   0.517
28900SOL    HW286659   7.617   8.859   0.588
28901SOL     OW86660   7.729   8.535   0.880
28901SOL    HW186661   7.731   8.446   0.916
28901SOL    HW286662   7.675   8.584   0.942
28902SOL     OW86663   8.022   9.246   1.422
28902SOL    HW186664   7.944   9.228   1.475
28902SOL    HW286665   8.053   9.331   1.451
28903SOL     OW86666   8.016   8.396   0.175
28903SOL    HW186667   7.991   8.465   0.114
28903SOL    HW286668   8.075   8.439   0.238
28904SOL     OW86669   9.038   7.580   1.459
28904SOL    HW186670   9.077   7.656   1.417
28904SOL    HW286671   9.006   7.613   1.543
28905SOL     OW86672   7.562   8.101   0.573
28905SOL    HW186673   7.527   8.016   0.597
28905SOL    HW286674   7.555   8.154   0.652
28906SOL     OW86675   9.308   9.179   0.312
28906SOL    HW186676   9.379   9.158   0.374
28906SOL    HW286677   9.323   9.271   0.289
28907SOL     OW86678   7.525   9.022   0.091
28907SOL    HW186679   7.496   8.934   0.114
28907SOL    HW286680   7.492   9.079   0.160
28908SOL     OW86681   9.140   8.369   0.666
28908SOL    HW186682   9.226   8.329   0.659
28908SOL    HW286683   9.128   8.416   0.584
28909SOL     OW86684   9.108   8.541   0.444
28909SOL    HW186685   9.189   8.536   0.393
28909SOL    HW286686   9.124   8.609   0.510
28910SOL     OW86687   7.570   8.197   1.578
28910SOL    HW186688   7.655   8.240   1.583
28910SOL    HW286689   7.508   8.269   1.565
28911SOL     OW86690   8.070   8.835   0.747
28911SOL    HW186691   8.029   8.749   0.749
28911SOL    HW286692   8.057   8.866   0.657
28912SOL     OW86693   8.718   8.674   1.417
28912SOL    HW186694   8.745   8.604   1.357
28912SOL    HW286695   8.780   8.668   1.489
28913SOL     OW86696   8.280   7.464   0.529
28913SOL    HW186697   8.321   7.544   0.497
28913SOL    HW286698   8.186   7.483   0.530
28914SOL     OW86699   7.635   8.404   1.302
28914SOL    HW186700   7.722   8.369   1.285
28914SOL    HW286701   7.580   8.366   1.233
28915SOL     OW86702   8.942   8.476   0.233
28915SOL    HW186703   8.884   8.407   0.266
28915SOL    HW286704   9.002   8.493   0.306
28916SOL     OW86705   8.630   9.268   1.632
28916SOL    HW186706   8.630   9.329   1.558
28916SOL    HW286707   8.645   9.182   1.593
28917SOL     OW86708   7.808   7.701   1.875
28917SOL    HW186709   7.843   7.782   1.913
28917SOL    HW286710   7.713   7.716   1.873
28918SOL     OW86711   8.918   8.864   0.930
28918SOL    HW186712   8.856   8.884   1.000
28918SOL    HW286713   8.900   8.773   0.906
28919SOL     OW86714   9.091   9.240   0.566
28919SOL    HW186715   9.075   9.193   0.484
28919SOL    HW286716   9.092   9.172   0.633
28920SOL     OW86717   8.041   8.139   0.285
28920SOL    HW186718   8.047   8.225   0.244
28920SOL    HW286719   7.974   8.149   0.353
28921SOL     OW86720   8.729   7.839   0.941
28921SOL    HW186721   8.640   7.804   0.947
28921SOL    HW286722   8.782   7.781   0.996
28922SOL     OW86723   9.037   9.120   0.325
28922SOL    HW186724   9.131   9.130   0.312
28922SOL    HW286725   9.002   9.103   0.238
28923SOL     OW86726   8.237   8.062   1.430
28923SOL    HW186727   8.214   8.033   1.518
28923SOL    HW286728   8.212   7.988   1.374
28924SOL     OW86729   8.839   7.924   1.674
28924SOL    HW186730   8.844   7.968   1.759
28924SOL    HW286731   8.889   7.843   1.685
28925SOL     OW86732   8.392   8.328   1.593
28925SOL    HW186733   8.449   8.264   1.549
28925SOL    HW286734   8.344   8.370   1.523
28926SOL     OW86735   8.455   7.846   1.209
28926SOL    HW186736   8.363   7.859   1.232
28926SOL    HW286737   8.453   7.801   1.125
28927SOL     OW86738   8.514   8.146   0.416
28927SOL    HW186739   8.534   8.142   0.510
28927SOL    HW286740   8.430   8.102   0.408
28928SOL     OW86741   7.541   8.276   0.782
28928SOL    HW186742   7.623   8.268   0.830
28928SOL    HW286743   7.494   8.347   0.827
28929SOL     OW86744   7.553   9.318   1.585
28929SOL    HW186745   7.561   9.302   1.679
28929SOL    HW286746   7.468   9.280   1.561
28930SOL     OW86747   8.309   7.787   0.199
28930SOL    HW186748   8.295   7.836   0.118
28930SOL    HW286749   8.318   7.696   0.171
28931SOL     OW86750   9.134   8.011   1.840
28931SOL    HW186751   9.111   8.089   1.789
28931SOL    HW286752   9.161   7.947   1.775
28932SOL     OW86753   8.844   8.597   0.555
28932SOL    HW186754   8.923   8.586   0.503
28932SOL    HW286755   8.790   8.657   0.505
28933SOL     OW86756   7.999   7.611   0.915
28933SOL    HW186757   8.005   7.638   1.006
28933SOL    HW286758   7.995   7.693   0.866
28934SOL     OW86759   8.447   8.899   0.472
28934SOL    HW186760   8.422   8.977   0.421
28934SOL    HW286761   8.416   8.918   0.561
28935SOL     OW86762   7.801   9.264   0.879
28935SOL    HW186763   7.847   9.180   0.884
28935SOL    HW286764   7.868   9.329   0.899
28936SOL     OW86765   9.248   8.502   0.896
28936SOL    HW186766   9.198   8.487   0.815
28936SOL    HW286767   9.181   8.508   0.965
28937SOL     OW86768   8.665   8.991   1.516
28937SOL    HW186769   8.654   8.920   1.580
28937SOL    HW286770   8.599   8.972   1.449
28938SOL     OW86771   7.761   8.377   0.289
28938SOL    HW186772   7.842   8.384   0.240
28938SOL    HW286773   7.762   8.288   0.326
28939SOL     OW86774   8.931   8.203   0.713
28939SOL    HW186775   8.931   8.164   0.800
28939SOL    HW286776   9.008   8.260   0.712
28940SOL     OW86777   7.921   8.732   1.748
28940SOL    HW186778   7.897   8.736   1.656
28940SOL    HW286779   7.838   8.719   1.794
28941SOL     OW86780   8.546   9.229   0.181
28941SOL    HW186781   8.492   9.188   0.249
28941SOL    HW286782   8.587   9.155   0.135
28942SOL     OW86783   7.656   7.704   1.499
28942SOL    HW186784   7.585   7.764   1.519
28942SOL    HW286785   7.626   7.619   1.532
28943SOL     OW86786   9.082   8.816   0.111
28943SOL    HW186787   9.041   8.903   0.105
28943SOL    HW286788   9.014   8.756   0.079
28944SOL     OW86789   7.932   9.163   0.369
28944SOL    HW186790   7.968   9.238   0.416
28944SOL    HW286791   7.998   9.142   0.304
28945SOL     OW86792   8.844   7.551   0.448
28945SOL    HW186793   8.842   7.531   0.355
28945SOL    HW286794   8.935   7.535   0.475
28946SOL     OW86795   7.699   9.231   1.214
28946SOL    HW186796   7.749   9.158   1.249
28946SOL    HW286797   7.688   9.211   1.121
28947SOL     OW86798   8.396   9.146   0.893
28947SOL    HW186799   8.482   9.105   0.906
28947SOL    HW286800   8.355   9.094   0.824
28948SOL     OW86801   7.821   8.141   0.464
28948SOL    HW186802   7.844   8.049   0.475
28948SOL    HW286803   7.732   8.148   0.499
28949SOL     OW86804   8.954   7.670   1.717
28949SOL    HW186805   8.967   7.689   1.810
28949SOL    HW286806   8.889   7.599   1.716
28950SOL     OW86807   8.055   7.541   0.117
28950SOL    HW186808   8.150   7.531   0.127
28950SOL    HW286809   8.042   7.547   0.022
28951SOL     OW86810   8.207   7.722   1.752
28951SOL    HW186811   8.291   7.677   1.750
28951SOL    HW286812   8.160   7.683   1.826
28952SOL     OW86813   8.319   8.976   1.201
28952SOL    HW186814   8.301   8.934   1.117
28952SOL    HW286815   8.386   8.921   1.241
28953SOL     OW86816   8.778   8.039   1.433
28953SOL    HW186817   8.811   8.009   1.518
28953SOL    HW286818   8.817   8.126   1.422
28954SOL     OW86819   8.266   8.823   0.962
28954SOL    HW186820   8.352   8.819   0.921
28954SOL    HW286821   8.205   8.836   0.890
28955SOL     OW86822   8.378   7.963   0.890
28955SOL    HW186823   8.354   7.950   0.799
28955SOL    HW286824   8.406   7.876   0.920
28956SOL     OW86825   8.012   7.524   0.503
28956SOL    HW186826   7.933   7.522   0.556
28956SOL    HW286827   7.998   7.597   0.442
28957SOL     OW86828   8.876   8.646   0.033
28957SOL    HW186829   8.901   8.580   0.098
28957SOL    HW286830   8.795   8.684   0.068
28958SOL     OW86831   8.400   7.698   0.449
28958SOL    HW186832   8.369   7.735   0.367
28958SOL    HW286833   8.494   7.720   0.451
28959SOL     OW86834   8.524   8.141   1.445
28959SOL    HW186835   8.462   8.068   1.450
28959SOL    HW286836   8.610   8.099   1.442
28960SOL     OW86837   8.654   9.034   0.803
28960SOL    HW186838   8.670   9.094   0.729
28960SOL    HW286839   8.729   9.048   0.861
28961SOL     OW86840   7.929   8.601   0.711
28961SOL    HW186841   7.866   8.579   0.780
28961SOL    HW286842   7.879   8.596   0.630
28962SOL     OW86843   8.702   9.235   0.613
28962SOL    HW186844   8.751   9.300   0.562
28962SOL    HW286845   8.631   9.286   0.652
28963SOL     OW86846   8.542   8.010   9.980
28963SOL    HW186847   8.454   7.972   9.986
28963SOL    HW286848   8.577   8.003   0.068
28964SOL     OW86849   7.547   8.000   1.390
28964SOL    HW186850   7.639   8.001   1.365
28964SOL    HW286851   7.540   8.069   1.457
28965SOL     OW86852   8.007   7.669   1.185
28965SOL    HW186853   8.044   7.604   1.245
28965SOL    HW286854   7.913   7.669   1.206
28966SOL     OW86855   8.321   7.900   0.633
28966SOL    HW186856   8.286   7.957   0.564
28966SOL    HW286857   8.345   7.819   0.587
28967SOL     OW86858   8.472   7.506   0.743
28967SOL    HW186859   8.409   7.501   0.671
28967SOL    HW286860   8.448   7.433   0.800
28968SOL     OW86861   8.878   8.601   0.855
28968SOL    HW186862   8.811   8.533   0.866
28968SOL    HW286863   8.890   8.607   0.760
28969SOL     OW86864   8.907   8.064   0.952
28969SOL    HW186865   8.844   7.992   0.962
28969SOL    HW286866   8.964   8.056   1.029
28970SOL     OW86867   9.300   8.235   0.367
28970SOL    HW186868   9.343   8.188   0.438
28970SOL    HW286869   9.264   8.166   0.311
28971SOL     OW86870   7.951   8.891   0.214
28971SOL    HW186871   7.870   8.846   0.235
28971SOL    HW286872   7.993   8.836   0.148
28972SOL     OW86873   9.163   8.717   0.635
28972SOL    HW186874   9.257   8.711   0.655
28972SOL    HW286875   9.139   8.806   0.661
28973SOL     OW86876   8.865   8.014   0.093
28973SOL    HW186877   8.789   8.002   0.150
28973SOL    HW286878   8.902   7.926   0.085
28974SOL     OW86879   7.956   7.712   0.310
28974SOL    HW186880   7.994   7.653   0.244
28974SOL    HW286881   7.934   7.791   0.261
28975SOL     OW86882   9.179   8.693   1.533
28975SOL    HW186883   9.267   8.657   1.520
28975SOL    HW286884   9.195   8.780   1.570
28976SOL     OW86885   8.491   8.805   1.337
28976SOL    HW186886   8.413   8.769   1.381
28976SOL    HW286887   8.564   8.758   1.376
28977SOL     OW86888   9.055   9.085   1.671
28977SOL    HW186889   9.045   9.120   1.582
28977SOL    HW286890   9.132   9.028   1.666
28978SOL     OW86891   8.597   8.685   1.106
28978SOL    HW186892   8.536   8.720   1.170
28978SOL    HW286893   8.565   8.717   1.022
28979SOL     OW86894   9.051   8.539   1.080
28979SOL    HW186895   9.043   8.605   1.149
28979SOL    HW286896   8.982   8.560   1.018
28980SOL     OW86897   8.366   7.529   1.383
28980SOL    HW186898   8.388   7.514   1.291
28980SOL    HW286899   8.445   7.570   1.419
28981SOL     OW86900   8.427   8.563   1.724
28981SOL    HW186901   8.337   8.579   1.751
28981SOL    HW286902   8.422   8.482   1.673
28982SOL     OW86903   8.172   8.502   0.378
28982SOL    HW186904   8.158   8.475   0.469
28982SOL    HW286905   8.252   8.457   0.351
28983SOL     OW86906   7.874   8.275   1.259
28983SOL    HW186907   7.941   8.286   1.326
28983SOL    HW286908   7.844   8.185   1.269
28984SOL     OW86909   8.712   7.816   1.291
28984SOL    HW186910   8.740   7.896   1.336
28984SOL    HW286911   8.623   7.835   1.262
28985SOL     OW86912   7.526   9.018   1.363
28985SOL    HW186913   7.497   9.089   1.307
28985SOL    HW286914   7.622   9.017   1.354
28986SOL     OW86915   7.764   8.574   0.489
28986SOL    HW186916   7.763   8.644   0.424
28986SOL    HW286917   7.772   8.493   0.437
28987SOL     OW86918   7.981   7.962   0.857
28987SOL    HW186919   7.991   8.020   0.782
28987SOL    HW286920   8.049   7.988   0.919
28988SOL     OW86921   8.697   8.795   0.417
28988SOL    HW186922   8.753   8.868   0.446
28988SOL    HW286923   8.609   8.821   0.443
28989SOL     OW86924   8.757   8.914   1.143
28989SOL    HW186925   8.805   8.922   1.226
28989SOL    HW286926   8.707   8.834   1.152
28990SOL     OW86927   8.998   8.067   0.477
28990SOL    HW186928   8.971   8.104   0.561
28990SOL    HW286929   8.966   8.130   0.413
28991SOL     OW86930   7.793   8.978   1.303
28991SOL    HW186931   7.786   8.926   1.224
28991SOL    HW286932   7.887   8.995   1.313
28992SOL     OW86933   7.880   8.194   1.619
28992SOL    HW186934   7.939   8.237   1.557
28992SOL    HW286935   7.925   8.112   1.640
28993SOL     OW86936   9.071   8.234   1.700
28993SOL    HW186937   8.983   8.272   1.690
28993SOL    HW286938   9.121   8.271   1.627
28994SOL     OW86939   8.443   7.589   1.757
28994SOL    HW186940   8.502   7.662   1.739
28994SOL    HW286941   8.494   7.511   1.736
28995SOL     OW86942   7.943   7.484   1.762
28995SOL    HW186943   7.888   7.433   1.702
28995SOL    HW286944   7.891   7.561   1.784
28996SOL     OW86945   8.037   8.323   1.037
28996SOL    HW186946   8.077   8.410   1.041
28996SOL    HW286947   7.981   8.318   1.115
28997SOL     OW86948   8.756   8.302   1.003
28997SOL    HW186949   8.668   8.275   0.977
28997SOL    HW286950   8.811   8.225   0.986
28998SOL     OW86951   8.640   7.968   0.246
28998SOL    HW186952   8.652   7.892   0.303
28998SOL    HW286953   8.599   8.034   0.302
28999SOL     OW86954   7.739   7.642   1.239
28999SOL    HW186955   7.705   7.670   1.324
28999SOL    HW286956   7.723   7.547   1.237
29000SOL     OW86957   7.497   8.761   1.267
29000SOL    HW186958   7.527   8.705   1.339
29000SOL    HW286959   7.500   8.849   1.303
29001SOL     OW86960   8.157   8.069   1.037
29001SOL    HW186961   8.236   8.062   0.985
29001SOL    HW286962   8.130   8.160   1.028
29002SOL     OW86963   9.192   8.415   1.872
29002SOL    HW186964   9.153   8.343   1.823
29002SOL    HW286965   9.129   8.435   1.941
29003SOL     OW86966   7.767   7.512   0.631
29003SOL    HW186967   7.735   7.600   0.649
29003SOL    HW286968   7.774   7.470   0.716
29004SOL     OW86969   9.087   7.838   0.351
29004SOL    HW186970   9.122   7.773   0.412
29004SOL    HW286971   9.054   7.908   0.407
29005SOL     OW86972   8.482   8.206   0.957
29005SOL    HW186973   8.460   8.221   1.050
29005SOL    HW286974   8.452   8.117   0.940
29006SOL     OW86975   8.429   9.013   1.734
29006SOL    HW186976   8.407   9.057   1.652
29006SOL    HW286977   8.467   8.930   1.708
29007SOL     OW86978   9.285   8.943   1.601
29007SOL    HW186979   9.312   8.971   1.513
29007SOL    HW286980   9.364   8.953   1.654
29008SOL     OW86981   7.797   8.368   1.815
29008SOL    HW186982   7.874   8.385   1.871
29008SOL    HW286983   7.829   8.304   1.751
29009SOL     OW86984   8.948   7.753   0.128
29009SOL    HW186985   8.900   7.673   0.149
29009SOL    HW286986   8.996   7.774   0.208
29010SOL     OW86987   8.766   8.266   0.038
29010SOL    HW186988   8.801   8.177   0.040
29010SOL    HW286989   8.823   8.313   9.977
29011SOL     OW86990   8.517   8.800   0.866
29011SOL    HW186991   8.529   8.727   0.805
29011SOL    HW286992   8.570   8.871   0.829
29012SOL     OW86993   7.766   8.262   0.943
29012SOL    HW186994   7.861   8.278   0.945
29012SOL    HW286995   7.756   8.172   0.975
29013SOL     OW86996   7.761   7.986   1.010
29013SOL    HW186997   7.721   7.899   1.002
29013SOL    HW286998   7.838   7.983   0.954
29014SOL     OW86999   8.586   7.816   1.685
29014SOL    HW187000   8.541   7.867   1.752
29014SOL    HW287001   8.672   7.858   1.676
29015SOL     OW87002   8.603   7.638   1.473
29015SOL    HW187003   8.592   7.699   1.545
29015SOL    HW287004   8.650   7.687   1.406
29016SOL     OW87005   7.466   8.738   0.170
29016SOL    HW187006   7.376   8.768   0.154
29016SOL    HW287007   7.455   8.658   0.223
29017SOL     OW87008   7.540   9.216   0.950
29017SOL    HW187009   7.507   9.142   0.899
29017SOL    HW287010   7.627   9.233   0.913
29018SOL     OW87011   7.933   9.018   0.903
29018SOL    HW187012   8.003   9.080   0.924
29018SOL    HW287013   7.974   8.953   0.847
29019SOL     OW87014   8.396   8.228   1.216
29019SOL    HW187015   8.459   8.217   1.287
29019SOL    HW287016   8.317   8.183   1.247
29020SOL     OW87017   7.488   8.022   1.120
29020SOL    HW187018   7.570   8.018   1.071
29020SOL    HW287019   7.515   8.014   1.212
29021SOL     OW87020   7.634   7.986   1.744
29021SOL    HW187021   7.707   7.954   1.692
29021SOL    HW287022   7.599   8.059   1.694
29022SOL     OW87023   8.837   8.369   1.651
29022SOL    HW187024   8.854   8.463   1.646
29022SOL    HW287025   8.830   8.341   1.560
29023SOL     OW87026   8.276   8.012   0.374
29023SOL    HW187027   8.281   7.937   0.315
29023SOL    HW287028   8.197   8.059   0.347
29024SOL     OW87029   9.082   8.047   1.163
29024SOL    HW187030   9.073   7.989   1.239
29024SOL    HW287031   9.173   8.037   1.135
29025SOL     OW87032   7.673   8.986   1.724
29025SOL    HW187033   7.648   9.033   1.803
29025SOL    HW287034   7.686   8.896   1.753
29026SOL     OW87035   8.181   7.881   1.233
29026SOL    HW187036   8.118   7.811   1.219
29026SOL    HW287037   8.163   7.944   1.164
29027SOL     OW87038   8.350   9.129   1.490
29027SOL    HW187039   8.329   9.080   1.410
29027SOL    HW287040   8.354   9.221   1.462
29028SOL     OW87041   7.899   7.934   0.155
29028SOL    HW187042   7.958   8.000   0.191
29028SOL    HW287043   7.814   7.978   0.151
29029SOL     OW87044   7.578   8.598   1.480
29029SOL    HW187045   7.582   8.559   1.567
29029SOL    HW287046   7.599   8.527   1.420
29030SOL     OW87047   8.749   8.482   1.209
29030SOL    HW187048   8.760   8.418   1.138
29030SOL    HW287049   8.696   8.551   1.171
29031SOL     OW87050   8.769   8.276   0.317
29031SOL    HW187051   8.687   8.247   0.356
29031SOL    HW287052   8.755   8.268   0.222
29032SOL     OW87053   9.238   9.169   1.171
29032SOL    HW187054   9.298   9.196   1.102
29032SOL    HW287055   9.204   9.084   1.142
29033SOL     OW87056   8.689   9.180   1.094
29033SOL    HW187057   8.773   9.208   1.058
29033SOL    HW287058   8.703   9.088   1.117
29034SOL     OW87059   7.554   8.697   1.010
29034SOL    HW187060   7.526   8.718   1.099
29034SOL    HW287061   7.482   8.643   0.975
29035SOL     OW87062   8.138   9.128   1.749
29035SOL    HW187063   8.074   9.198   1.737
29035SOL    HW287064   8.210   9.151   1.691
29036SOL     OW87065   8.334   7.527   0.098
29036SOL    HW187066   8.328   7.500   0.007
29036SOL    HW287067   8.412   7.481   0.132
29037SOL     OW87068   9.207   7.630   0.494
29037SOL    HW187069   9.271   7.605   0.427
29037SOL    HW287070   9.175   7.546   0.528
29038SOL     OW87071   8.848   9.016   0.505
29038SOL    HW187072   8.905   9.050   0.437
29038SOL    HW287073   8.795   9.090   0.533
29039SOL     OW87074   7.580   9.255   1.844
29039SOL    HW187075   7.541   9.178   1.886
29039SOL    HW287076   7.632   9.296   1.913
29040SOL     OW87077   8.727   8.381   0.670
29040SOL    HW187078   8.800   8.321   0.681
29040SOL    HW287079   8.764   8.454   0.619
29041SOL     OW87080   8.232   8.728   1.413
29041SOL    HW187081   8.206   8.775   1.492
29041SOL    HW287082   8.158   8.738   1.354
29042SOL     OW87083   8.131   9.088   0.186
29042SOL    HW187084   8.147   9.091   0.092
29042SOL    HW287085   8.075   9.011   0.198
29043SOL     OW87086   9.065   9.177   1.400
29043SOL    HW187087   9.123   9.175   1.324
29043SOL    HW287088   9.050   9.270   1.416
29044SOL     OW87089   9.290   7.607   0.965
29044SOL    HW187090   9.321   7.519   0.945
29044SOL    HW287091   9.203   7.611   0.926
29045SOL     OW87092   7.690   7.760   0.709
29045SOL    HW187093   7.604   7.796   0.689
29045SOL    HW287094   7.695   7.760   0.805
29046SOL     OW87095   8.664   9.014   0.054
29046SOL    HW187096   8.652   8.924   0.085
29046SOL    HW287097   8.676   9.006   9.959
29047SOL     OW87098   8.272   8.459   1.386
29047SOL    HW187099   8.310   8.449   1.298
29047SOL    HW287100   8.261   8.553   1.397
29048SOL     OW87101   8.390   8.370   0.295
29048SOL    HW187102   8.439   8.391   0.216
29048SOL    HW287103   8.437   8.297   0.334
29049SOL     OW87104   8.938   9.055   0.074
29049SOL    HW187105   8.843   9.048   0.083
29049SOL    HW287106   8.953   9.064   9.980
29050SOL     OW87107   7.810   8.760   1.503
29050SOL    HW187108   7.803   8.833   1.441
29050SOL    HW287109   7.733   8.707   1.486
29051SOL     OW87110   9.043   8.737   1.278
29051SOL    HW187111   9.099   8.713   1.352
29051SOL    HW287112   8.985   8.805   1.312
29052SOL     OW87113   8.524   8.566   0.730
29052SOL    HW187114   8.448   8.517   0.761
29052SOL    HW287115   8.587   8.500   0.701
29053SOL     OW87116   8.481   7.697   0.962
29053SOL    HW187117   8.480   7.654   0.876
29053SOL    HW287118   8.474   7.624   1.025
29054SOL     OW87119   8.060   8.931   0.497
29054SOL    HW187120   8.105   8.878   0.431
29054SOL    HW287121   7.994   8.979   0.448
29055SOL     OW87122   9.190   7.829   1.388
29055SOL    HW187123   9.259   7.895   1.383
29055SOL    HW287124   9.217   7.761   1.327
29056SOL     OW87125   7.717   8.761   0.284
29056SOL    HW187126   7.634   8.763   0.236
29056SOL    HW287127   7.701   8.814   0.362
29057SOL     OW87128   7.568   8.494   1.735
29057SOL    HW187129   7.491   8.466   1.785
29057SOL    HW287130   7.640   8.443   1.772
29058SOL     OW87131   8.127   7.636   1.495
29058SOL    HW187132   8.211   7.611   1.456
29058SOL    HW287133   8.150   7.670   1.582
29059SOL     OW87134   7.535   7.723   0.020
29059SOL    HW187135   7.446   7.739   9.990
29059SOL    HW287136   7.583   7.803   9.998
29060SOL     OW87137   8.862   8.302   1.388
29060SOL    HW187138   8.810   8.361   1.333
29060SOL    HW287139   8.950   8.306   1.351
29061SOL     OW87140   7.522   7.590   0.278
29061SOL    HW187141   7.516   7.638   0.196
29061SOL    HW287142   7.617   7.578   0.291
29062SOL     OW87143   8.647   8.757   0.145
29062SOL    HW187144   8.562   8.714   0.138
29062SOL    HW287145   8.665   8.758   0.239
29063SOL     OW87146   8.073   8.280   1.441
29063SOL    HW187147   8.132   8.355   1.430
29063SOL    HW287148   8.130   8.204   1.440
29064SOL     OW87149   8.935   9.239   0.992
29064SOL    HW187150   8.962   9.316   0.943
29064SOL    HW287151   9.017   9.195   1.014
29065SOL     OW87152   8.173   7.996   1.686
29065SOL    HW187153   8.220   8.050   1.750
29065SOL    HW287154   8.183   7.907   1.718
29066SOL     OW87155   8.915   8.632   1.618
29066SOL    HW187156   8.907   8.653   1.711
29066SOL    HW287157   9.004   8.655   1.595
29067SOL     OW87158   7.799   9.189   1.576
29067SOL    HW187159   7.717   9.236   1.559
29067SOL    HW287160   7.772   9.106   1.616
29068SOL     OW87161   9.101   8.322   1.251
29068SOL    HW187162   9.099   8.239   1.204
29068SOL    HW287163   9.088   8.388   1.184
29069SOL     OW87164   8.669   7.772   0.451
29069SOL    HW187165   8.729   7.697   0.449
29069SOL    HW287166   8.697   7.823   0.527
29070SOL     OW87167   8.014   8.172   0.677
29070SOL    HW187168   8.061   8.254   0.666
29070SOL    HW287169   7.950   8.170   0.606
29071SOL     OW87170   9.190   7.804   1.664
29071SOL    HW187171   9.187   7.820   1.569
29071SOL    HW287172   9.113   7.750   1.681
29072SOL     OW87173   9.201   8.368   1.503
29072SOL    HW187174   9.190   8.463   1.515
29072SOL    HW287175   9.176   8.352   1.412
29073SOL     OW87176   8.344   8.868   0.042
29073SOL    HW187177   8.258   8.829   0.025
29073SOL    HW287178   8.342   8.887   0.136
29074SOL     OW87179   8.116   9.215   0.923
29074SOL    HW187180   8.096   9.309   0.916
29074SOL    HW287181   8.211   9.211   0.925
29075SOL     OW87182   8.320   8.423   0.856
29075SOL    HW187183   8.371   8.350   0.892
29075SOL    HW287184   8.275   8.460   0.932
29076SOL     OW87185   8.543   8.423   0.073
29076SOL    HW187186   8.535   8.469   9.989
29076SOL    HW287187   8.616   8.363   0.061
29077SOL     OW87188   9.282   9.003   0.839
29077SOL    HW187189   9.204   8.994   0.784
29077SOL    HW287190   9.267   8.944   0.913
29078SOL     OW87191   7.660   8.732   1.836
29078SOL    HW187192   7.628   8.653   1.793
29078SOL    HW287193   7.601   8.744   1.910
29079SOL     OW87194   7.566   8.666   0.670
29079SOL    HW187195   7.596   8.627   0.752
29079SOL    HW287196   7.627   8.633   0.604
29080SOL     OW87197   8.138   8.866   1.632
29080SOL    HW187198   8.062   8.827   1.674
29080SOL    HW287199   8.144   8.954   1.669
29081SOL     OW87200   9.259   7.619   1.235
29081SOL    HW187201   9.268   7.525   1.250
29081SOL    HW287202   9.271   7.630   1.141
29082SOL     OW87203   7.861   7.882   0.515
29082SOL    HW187204   7.895   7.812   0.460
29082SOL    HW287205   7.813   7.837   0.585
29083SOL     OW87206   9.140   8.928   1.084
29083SOL    HW187207   9.063   8.909   1.030
29083SOL    HW287208   9.140   8.860   1.151
29084SOL     OW87209   7.800   8.013   1.292
29084SOL    HW187210   7.849   7.948   1.343
29084SOL    HW287211   7.808   7.983   1.201
29085SOL     OW87212   8.285   9.025   0.676
29085SOL    HW187213   8.255   9.090   0.612
29085SOL    HW287214   8.212   8.964   0.683
29086SOL     OW87215   8.870   7.681   1.115
29086SOL    HW187216   8.881   7.592   1.149
29086SOL    HW287217   8.824   7.728   1.185
29087SOL     OW87218   8.458   7.465   1.120
29087SOL    HW187219   8.404   7.401   1.073
29087SOL    HW287220   8.545   7.425   1.123
29088SOL     OW87221   8.227   8.775   0.338
29088SOL    HW187222   8.205   8.682   0.345
29088SOL    HW287223   8.309   8.784   0.386
29089SOL     OW87224   8.064   9.015   1.287
29089SOL    HW187225   8.058   9.098   1.334
29089SOL    HW287226   8.154   9.012   1.255
29090SOL     OW87227   8.801   7.505   0.176
29090SOL    HW187228   8.825   7.467   0.092
29090SOL    HW287229   8.712   7.476   0.192
29091SOL     OW87230   8.747   7.916   0.675
29091SOL    HW187231   8.698   7.998   0.671
29091SOL    HW287232   8.737   7.887   0.765
29092SOL     OW87233   9.028   7.634   0.892
29092SOL    HW187234   8.977   7.664   0.967
29092SOL    HW287235   9.027   7.708   0.832
29093SOL     OW87236   7.490   8.491   0.303
29093SOL    HW187237   7.586   8.493   0.308
29093SOL    HW287238   7.466   8.404   0.332
29094SOL     OW87239   8.350   9.128   0.350
29094SOL    HW187240   8.272   9.115   0.297
29094SOL    HW287241   8.328   9.202   0.408
29095SOL     OW87242   7.656   8.071   2.010
29095SOL    HW187243   7.568   8.058   2.046
29095SOL    HW287244   7.644   8.056   1.916
29096SOL     OW87245   7.667   7.736   2.852
29096SOL    HW187246   7.698   7.701   2.935
29096SOL    HW287247   7.580   7.699   2.840
29097SOL     OW87248   7.434   7.844   2.508
29097SOL    HW187249   7.355   7.869   2.555
29097SOL    HW287250   7.408   7.771   2.453
29098SOL     OW87251   8.023   8.755   3.070
29098SOL    HW187252   7.940   8.758   3.022
29098SOL    HW287253   8.040   8.846   3.094
29099SOL     OW87254   9.038   8.970   2.567
29099SOL    HW187255   8.991   8.939   2.645
29099SOL    HW287256   8.971   8.972   2.498
29100SOL     OW87257   8.585   8.152   2.548
29100SOL    HW187258   8.632   8.235   2.537
29100SOL    HW287259   8.537   8.162   2.630
29101SOL     OW87260   9.249   8.027   2.082
29101SOL    HW187261   9.210   8.027   1.994
29101SOL    HW287262   9.205   7.955   2.127
29102SOL     OW87263   8.175   8.577   2.920
29102SOL    HW187264   8.116   8.617   2.984
29102SOL    HW287265   8.217   8.651   2.876
29103SOL     OW87266   8.336   8.189   3.691
29103SOL    HW187267   8.326   8.256   3.758
29103SOL    HW287268   8.353   8.238   3.610
29104SOL     OW87269   8.134   8.433   2.506
29104SOL    HW187270   8.201   8.433   2.574
29104SOL    HW287271   8.068   8.495   2.538
29105SOL     OW87272   8.159   8.597   3.695
29105SOL    HW187273   8.211   8.670   3.729
29105SOL    HW287274   8.083   8.639   3.654
29106SOL     OW87275   7.791   8.845   2.931
29106SOL    HW187276   7.715   8.802   2.891
29106SOL    HW287277   7.827   8.900   2.861
29107SOL     OW87278   8.901   8.954   3.234
29107SOL    HW187279   8.957   9.031   3.246
29107SOL    HW287280   8.830   8.966   3.297
29108SOL     OW87281   7.906   7.822   3.317
29108SOL    HW187282   7.980   7.764   3.333
29108SOL    HW287283   7.830   7.771   3.344
29109SOL     OW87284   9.027   7.880   2.617
29109SOL    HW187285   8.957   7.889   2.552
29109SOL    HW287286   9.011   7.950   2.680
29110SOL     OW87287   7.666   9.178   2.327
29110SOL    HW187288   7.692   9.249   2.385
29110SOL    HW287289   7.740   9.167   2.267
29111SOL     OW87290   8.583   8.789   3.559
29111SOL    HW187291   8.628   8.778   3.642
29111SOL    HW287292   8.529   8.710   3.550
29112SOL     OW87293   7.681   8.906   2.395
29112SOL    HW187294   7.659   8.999   2.400
29112SOL    HW287295   7.631   8.867   2.466
29113SOL     OW87296   7.734   8.538   2.741
29113SOL    HW187297   7.734   8.448   2.775
29113SOL    HW287298   7.677   8.585   2.802
29114SOL     OW87299   8.022   9.246   3.285
29114SOL    HW187300   7.945   9.228   3.338
29114SOL    HW287301   8.053   9.332   3.314
29115SOL     OW87302   8.013   8.435   2.014
29115SOL    HW187303   8.064   8.478   1.945
29115SOL    HW287304   8.054   8.465   2.096
29116SOL     OW87305   9.039   7.580   3.322
29116SOL    HW187306   9.077   7.657   3.279
29116SOL    HW287307   9.006   7.613   3.406
29117SOL     OW87308   7.566   8.107   2.429
29117SOL    HW187309   7.534   8.020   2.453
29117SOL    HW287310   7.561   8.157   2.510
29118SOL     OW87311   9.294   9.191   2.181
29118SOL    HW187312   9.366   9.174   2.242
29118SOL    HW287313   9.306   9.282   2.154
29119SOL     OW87314   7.508   9.027   1.971
29119SOL    HW187315   7.487   8.935   1.989
29119SOL    HW287316   7.476   9.074   2.048
29120SOL     OW87317   9.141   8.374   2.519
29120SOL    HW187318   9.227   8.334   2.508
29120SOL    HW287319   9.127   8.422   2.437
29121SOL     OW87320   9.103   8.552   2.296
29121SOL    HW187321   9.188   8.543   2.252
29121SOL    HW287322   9.119   8.616   2.366
29122SOL     OW87323   7.569   8.197   3.440
29122SOL    HW187324   7.655   8.240   3.444
29122SOL    HW287325   7.507   8.268   3.426
29123SOL     OW87326   8.071   8.846   2.592
29123SOL    HW187327   8.030   8.760   2.597
29123SOL    HW287328   8.055   8.875   2.502
29124SOL     OW87329   8.718   8.674   3.278
29124SOL    HW187330   8.745   8.604   3.218
29124SOL    HW287331   8.780   8.668   3.351
29125SOL     OW87332   8.279   7.460   2.380
29125SOL    HW187333   8.320   7.542   2.353
29125SOL    HW287334   8.185   7.478   2.381
29126SOL     OW87335   7.635   8.404   3.163
29126SOL    HW187336   7.722   8.369   3.147
29126SOL    HW287337   7.581   8.367   3.093
29127SOL     OW87338   8.980   8.464   2.063
29127SOL    HW187339   8.912   8.404   2.093
29127SOL    HW287340   9.022   8.494   2.144
29128SOL     OW87341   8.631   9.268   3.494
29128SOL    HW187342   8.630   9.329   3.420
29128SOL    HW287343   8.645   9.182   3.455
29129SOL     OW87344   7.808   7.702   3.737
29129SOL    HW187345   7.843   7.782   3.775
29129SOL    HW287346   7.713   7.716   3.735
29130SOL     OW87347   8.919   8.866   2.792
29130SOL    HW187348   8.856   8.885   2.862
29130SOL    HW287349   8.901   8.775   2.768
29131SOL     OW87350   9.092   9.233   2.428
29131SOL    HW187351   9.070   9.190   2.345
29131SOL    HW287352   9.088   9.164   2.493
29132SOL     OW87353   8.034   8.147   2.133
29132SOL    HW187354   8.038   8.234   2.095
29132SOL    HW287355   7.970   8.154   2.204
29133SOL     OW87356   8.729   7.841   2.803
29133SOL    HW187357   8.641   7.805   2.808
29133SOL    HW287358   8.782   7.783   2.858
29134SOL     OW87359   9.027   9.121   2.181
29134SOL    HW187360   9.120   9.137   2.170
29134SOL    HW287361   8.994   9.109   2.092
29135SOL     OW87362   8.238   8.061   3.293
29135SOL    HW187363   8.215   8.032   3.381
29135SOL    HW287364   8.213   7.988   3.236
29136SOL     OW87365   8.840   7.925   3.536
29136SOL    HW187366   8.845   7.968   3.621
29136SOL    HW287367   8.888   7.843   3.547
29137SOL     OW87368   8.392   8.328   3.456
29137SOL    HW187369   8.448   8.264   3.411
29137SOL    HW287370   8.343   8.370   3.385
29138SOL     OW87371   8.456   7.846   3.071
29138SOL    HW187372   8.364   7.859   3.093
29138SOL    HW287373   8.454   7.802   2.986
29139SOL     OW87374   8.506   8.145   2.280
29139SOL    HW187375   8.527   8.142   2.374
29139SOL    HW287376   8.421   8.101   2.273
29140SOL     OW87377   7.541   8.274   2.644
29140SOL    HW187378   7.623   8.268   2.693
29140SOL    HW287379   7.493   8.346   2.686
29141SOL     OW87380   7.553   9.318   3.447
29141SOL    HW187381   7.561   9.302   3.541
29141SOL    HW287382   7.470   9.278   3.422
29142SOL     OW87383   8.337   7.798   2.062
29142SOL    HW187384   8.388   7.852   2.001
29142SOL    HW287385   8.314   7.720   2.012
29143SOL     OW87386   9.135   8.012   3.702
29143SOL    HW187387   9.112   8.089   3.651
29143SOL    HW287388   9.161   7.947   3.637
29144SOL     OW87389   8.841   8.598   2.406
29144SOL    HW187390   8.920   8.586   2.355
29144SOL    HW287391   8.788   8.658   2.354
29145SOL     OW87392   7.999   7.608   2.778
29145SOL    HW187393   8.005   7.637   2.869
29145SOL    HW287394   7.995   7.690   2.728
29146SOL     OW87395   8.445   8.903   2.327
29146SOL    HW187396   8.420   8.979   2.274
29146SOL    HW287397   8.416   8.925   2.416
29147SOL     OW87398   7.801   9.264   2.741
29147SOL    HW187399   7.847   9.180   2.745
29147SOL    HW287400   7.869   9.329   2.761
29148SOL     OW87401   9.249   8.500   2.754
29148SOL    HW187402   9.199   8.489   2.673
29148SOL    HW287403   9.182   8.506   2.823
29149SOL     OW87404   8.665   8.990   3.378
29149SOL    HW187405   8.654   8.920   3.442
29149SOL    HW287406   8.600   8.972   3.311
29150SOL     OW87407   7.748   8.406   2.128
29150SOL    HW187408   7.831   8.427   2.084
29150SOL    HW287409   7.726   8.319   2.097
29151SOL     OW87410   8.930   8.210   2.573
29151SOL    HW187411   8.933   8.167   2.658
29151SOL    HW287412   9.009   8.264   2.571
29152SOL     OW87413   7.921   8.732   3.610
29152SOL    HW187414   7.897   8.737   3.518
29152SOL    HW287415   7.838   8.719   3.656
29153SOL     OW87416   8.583   9.224   2.085
29153SOL    HW187417   8.503   9.193   2.127
29153SOL    HW287418   8.603   9.158   2.019
29154SOL     OW87419   7.656   7.704   3.361
29154SOL    HW187420   7.583   7.764   3.378
29154SOL    HW287421   7.626   7.620   3.394
29155SOL     OW87422   9.071   8.840   1.959
29155SOL    HW187423   9.030   8.925   1.945
29155SOL    HW287424   9.005   8.776   1.931
29156SOL     OW87425   7.905   9.193   2.176
29156SOL    HW187426   7.954   9.243   2.241
29156SOL    HW287427   7.973   9.150   2.123
29157SOL     OW87428   8.845   7.553   2.321
29157SOL    HW187429   8.845   7.529   2.228
29157SOL    HW287430   8.935   7.537   2.350
29158SOL     OW87431   7.699   9.232   3.075
29158SOL    HW187432   7.748   9.157   3.109
29158SOL    HW287433   7.684   9.211   2.983
29159SOL     OW87434   8.396   9.146   2.752
29159SOL    HW187435   8.482   9.106   2.764
29159SOL    HW287436   8.356   9.094   2.682
29160SOL     OW87437   7.842   8.133   2.334
29160SOL    HW187438   7.855   8.039   2.347
29160SOL    HW287439   7.749   8.148   2.352
29161SOL     OW87440   8.953   7.670   3.579
29161SOL    HW187441   8.966   7.688   3.672
29161SOL    HW287442   8.888   7.599   3.578
29162SOL     OW87443   8.111   7.557   1.965
29162SOL    HW187444   8.158   7.478   1.992
29162SOL    HW287445   8.050   7.527   1.897
29163SOL     OW87446   8.207   7.721   3.614
29163SOL    HW187447   8.292   7.676   3.612
29163SOL    HW287448   8.160   7.681   3.688
29164SOL     OW87449   8.318   8.975   3.061
29164SOL    HW187450   8.300   8.933   2.977
29164SOL    HW287451   8.385   8.921   3.102
29165SOL     OW87452   8.777   8.039   3.295
29165SOL    HW187453   8.810   8.009   3.380
29165SOL    HW287454   8.816   8.126   3.284
29166SOL     OW87455   8.264   8.823   2.820
29166SOL    HW187456   8.352   8.819   2.781
29166SOL    HW287457   8.206   8.838   2.746
29167SOL     OW87458   8.378   7.963   2.750
29167SOL    HW187459   8.353   7.952   2.658
29167SOL    HW287460   8.405   7.876   2.779
29168SOL     OW87461   8.012   7.512   2.352
29168SOL    HW187462   7.934   7.512   2.408
29168SOL    HW287463   8.000   7.586   2.293
29169SOL     OW87464   8.876   8.657   1.892
29169SOL    HW187465   8.908   8.584   1.946
29169SOL    HW287466   8.791   8.680   1.930
29170SOL     OW87467   7.731   7.496   2.050
29170SOL    HW187468   7.784   7.563   2.008
29170SOL    HW287469   7.794   7.438   2.092
29171SOL     OW87470   8.400   7.699   2.313
29171SOL    HW187471   8.374   7.734   2.227
29171SOL    HW287472   8.494   7.716   2.318
29172SOL     OW87473   8.523   8.142   3.307
29172SOL    HW187474   8.460   8.070   3.312
29172SOL    HW287475   8.609   8.099   3.303
29173SOL     OW87476   8.654   9.035   2.665
29173SOL    HW187477   8.669   9.095   2.592
29173SOL    HW287478   8.729   9.048   2.723
29174SOL     OW87479   7.930   8.610   2.570
29174SOL    HW187480   7.868   8.585   2.639
29174SOL    HW287481   7.880   8.603   2.489
29175SOL     OW87482   8.700   9.236   2.477
29175SOL    HW187483   8.749   9.300   2.424
29175SOL    HW287484   8.628   9.287   2.514
29176SOL     OW87485   8.480   7.962   1.892
29176SOL    HW187486   8.438   8.046   1.873
29176SOL    HW287487   8.544   7.982   1.960
29177SOL     OW87488   7.547   7.999   3.252
29177SOL    HW187489   7.639   8.000   3.226
29177SOL    HW287490   7.540   8.068   3.319
29178SOL     OW87491   8.007   7.669   3.047
29178SOL    HW187492   8.044   7.605   3.108
29178SOL    HW287493   7.914   7.670   3.068
29179SOL     OW87494   8.318   7.903   2.492
29179SOL    HW187495   8.279   7.958   2.425
29179SOL    HW287496   8.343   7.823   2.445
29180SOL     OW87497   8.469   7.507   2.602
29180SOL    HW187498   8.409   7.500   2.528
29180SOL    HW287499   8.445   7.434   2.659
29181SOL     OW87500   8.880   8.601   2.716
29181SOL    HW187501   8.812   8.535   2.725
29181SOL    HW287502   8.896   8.607   2.622
29182SOL     OW87503   8.908   8.064   2.811
29182SOL    HW187504   8.845   7.994   2.821
29182SOL    HW287505   8.964   8.058   2.888
29183SOL     OW87506   9.276   8.242   2.248
29183SOL    HW187507   9.333   8.198   2.311
29183SOL    HW287508   9.263   8.177   2.179
29184SOL     OW87509   7.946   8.873   2.013
29184SOL    HW187510   7.870   8.841   2.063
29184SOL    HW287511   7.943   8.824   1.931
29185SOL     OW87512   9.159   8.716   2.499
29185SOL    HW187513   9.253   8.710   2.517
29185SOL    HW287514   9.136   8.806   2.523
29186SOL     OW87515   8.840   8.023   1.928
29186SOL    HW187516   8.784   7.996   2.001
29186SOL    HW287517   8.929   7.999   1.956
29187SOL     OW87518   7.975   7.705   2.164
29187SOL    HW187519   8.029   7.663   2.097
29187SOL    HW287520   7.943   7.785   2.122
29188SOL     OW87521   9.180   8.693   3.395
29188SOL    HW187522   9.267   8.656   3.382
29188SOL    HW287523   9.195   8.780   3.431
29189SOL     OW87524   8.490   8.805   3.198
29189SOL    HW187525   8.413   8.769   3.242
29189SOL    HW287526   8.564   8.758   3.238
29190SOL     OW87527   9.055   9.085   3.533
29190SOL    HW187528   9.045   9.119   3.444
29190SOL    HW287529   9.132   9.028   3.528
29191SOL     OW87530   8.598   8.686   2.968
29191SOL    HW187531   8.536   8.720   3.032
29191SOL    HW287532   8.565   8.718   2.884
29192SOL     OW87533   9.053   8.539   2.941
29192SOL    HW187534   9.046   8.606   3.009
29192SOL    HW287535   8.984   8.560   2.879
29193SOL     OW87536   8.367   7.529   3.245
29193SOL    HW187537   8.388   7.514   3.153
29193SOL    HW287538   8.445   7.570   3.281
29194SOL     OW87539   8.427   8.563   3.586
29194SOL    HW187540   8.337   8.579   3.614
29194SOL    HW287541   8.422   8.482   3.535
29195SOL     OW87542   8.162   8.510   2.238
29195SOL    HW187543   8.147   8.484   2.329
29195SOL    HW287544   8.236   8.457   2.209
29196SOL     OW87545   7.874   8.276   3.121
29196SOL    HW187546   7.942   8.285   3.188
29196SOL    HW287547   7.844   8.185   3.131
29197SOL     OW87548   8.712   7.816   3.154
29197SOL    HW187549   8.740   7.896   3.198
29197SOL    HW287550   8.623   7.834   3.124
29198SOL     OW87551   7.526   9.017   3.225
29198SOL    HW187552   7.496   9.088   3.169
29198SOL    HW287553   7.621   9.017   3.215
29199SOL     OW87554   7.765   8.582   2.348
29199SOL    HW187555   7.766   8.654   2.285
29199SOL    HW287556   7.762   8.503   2.295
29200SOL     OW87557   7.982   7.965   2.721
29200SOL    HW187558   7.994   8.023   2.646
29200SOL    HW287559   8.050   7.990   2.783
29201SOL     OW87560   8.695   8.802   2.260
29201SOL    HW187561   8.752   8.871   2.294
29201SOL    HW287562   8.607   8.826   2.290
29202SOL     OW87563   8.757   8.915   3.005
29202SOL    HW187564   8.805   8.922   3.088
29202SOL    HW287565   8.707   8.834   3.013
29203SOL     OW87566   9.021   8.066   2.347
29203SOL    HW187567   8.971   8.106   2.418
29203SOL    HW287568   9.068   8.139   2.306
29204SOL     OW87569   7.792   8.979   3.164
29204SOL    HW187570   7.785   8.926   3.084
29204SOL    HW287571   7.886   8.995   3.174
29205SOL     OW87572   7.878   8.195   3.479
29205SOL    HW187573   7.938   8.238   3.418
29205SOL    HW287574   7.920   8.112   3.500
29206SOL     OW87575   9.071   8.234   3.562
29206SOL    HW187576   8.984   8.272   3.552
29206SOL    HW287577   9.121   8.271   3.489
29207SOL     OW87578   8.443   7.588   3.619
29207SOL    HW187579   8.502   7.662   3.600
29207SOL    HW287580   8.495   7.510   3.598
29208SOL     OW87581   7.943   7.484   3.624
29208SOL    HW187582   7.888   7.433   3.564
29208SOL    HW287583   7.891   7.561   3.646
29209SOL     OW87584   8.039   8.322   2.901
29209SOL    HW187585   8.077   8.410   2.904
29209SOL    HW287586   7.982   8.318   2.977
29210SOL     OW87587   8.756   8.301   2.865
29210SOL    HW187588   8.667   8.274   2.840
29210SOL    HW287589   8.811   8.225   2.846
29211SOL     OW87590   8.646   7.971   2.119
29211SOL    HW187591   8.657   7.894   2.176
29211SOL    HW287592   8.605   8.036   2.175
29212SOL     OW87593   7.740   7.642   3.101
29212SOL    HW187594   7.705   7.670   3.185
29212SOL    HW287595   7.723   7.548   3.098
29213SOL     OW87596   7.498   8.760   3.128
29213SOL    HW187597   7.527   8.704   3.199
29213SOL    HW287598   7.501   8.848   3.164
29214SOL     OW87599   8.159   8.069   2.901
29214SOL    HW187600   8.237   8.063   2.845
29214SOL    HW287601   8.131   8.160   2.891
29215SOL     OW87602   9.192   8.415   3.735
29215SOL    HW187603   9.153   8.343   3.685
29215SOL    HW287604   9.129   8.435   3.803
29216SOL     OW87605   7.773   7.508   2.490
29216SOL    HW187606   7.739   7.596   2.509
29216SOL    HW287607   7.779   7.466   2.576
29217SOL     OW87608   9.079   7.838   2.205
29217SOL    HW187609   9.112   7.773   2.267
29217SOL    HW287610   9.049   7.911   2.261
29218SOL     OW87611   8.482   8.207   2.818
29218SOL    HW187612   8.460   8.221   2.911
29218SOL    HW287613   8.452   8.117   2.801
29219SOL     OW87614   8.429   9.014   3.596
29219SOL    HW187615   8.407   9.057   3.514
29219SOL    HW287616   8.467   8.930   3.570
29220SOL     OW87617   9.285   8.943   3.463
29220SOL    HW187618   9.312   8.970   3.375
29220SOL    HW287619   9.365   8.952   3.516
29221SOL     OW87620   7.797   8.368   3.678
29221SOL    HW187621   7.874   8.385   3.732
29221SOL    HW287622   7.828   8.305   3.612
29222SOL     OW87623   8.968   7.717   1.981
29222SOL    HW187624   8.917   7.646   2.018
29222SOL    HW287625   9.009   7.760   2.056
29223SOL     OW87626   8.728   8.269   1.882
29223SOL    HW187627   8.768   8.182   1.889
29223SOL    HW287628   8.764   8.305   1.800
29224SOL     OW87629   8.518   8.801   2.728
29224SOL    HW187630   8.529   8.728   2.667
29224SOL    HW287631   8.570   8.872   2.691
29225SOL     OW87632   7.766   8.264   2.806
29225SOL    HW187633   7.861   8.278   2.805
29225SOL    HW287634   7.756   8.174   2.837
29226SOL     OW87635   7.760   7.986   2.873
29226SOL    HW187636   7.721   7.899   2.863
29226SOL    HW287637   7.838   7.984   2.816
29227SOL     OW87638   8.586   7.815   3.547
29227SOL    HW187639   8.541   7.866   3.614
29227SOL    HW287640   8.672   7.858   3.538
29228SOL     OW87641   8.604   7.637   3.335
29228SOL    HW187642   8.592   7.699   3.407
29228SOL    HW287643   8.650   7.687   3.268
29229SOL     OW87644   7.472   8.750   2.041
29229SOL    HW187645   7.382   8.772   2.016
29229SOL    HW287646   7.465   8.664   2.082
29230SOL     OW87647   7.541   9.216   2.813
29230SOL    HW187648   7.507   9.143   2.762
29230SOL    HW287649   7.628   9.234   2.776
29231SOL     OW87650   7.933   9.018   2.762
29231SOL    HW187651   8.003   9.079   2.784
29231SOL    HW287652   7.973   8.956   2.701
29232SOL     OW87653   8.396   8.229   3.077
29232SOL    HW187654   8.459   8.217   3.148
29232SOL    HW287655   8.317   8.183   3.106
29233SOL     OW87656   7.487   8.021   2.982
29233SOL    HW187657   7.569   8.017   2.932
29233SOL    HW287658   7.515   8.013   3.074
29234SOL     OW87659   7.633   7.986   3.606
29234SOL    HW187660   7.704   7.951   3.552
29234SOL    HW287661   7.598   8.059   3.556
29235SOL     OW87662   8.837   8.369   3.513
29235SOL    HW187663   8.854   8.462   3.508
29235SOL    HW287664   8.830   8.340   3.422
29236SOL     OW87665   8.266   8.017   2.233
29236SOL    HW187666   8.275   7.942   2.174
29236SOL    HW287667   8.189   8.064   2.202
29237SOL     OW87668   9.081   8.049   3.024
29237SOL    HW187669   9.071   7.990   3.099
29237SOL    HW287670   9.172   8.037   2.996
29238SOL     OW87671   7.673   8.986   3.587
29238SOL    HW187672   7.647   9.032   3.667
29238SOL    HW287673   7.686   8.895   3.614
29239SOL     OW87674   8.182   7.881   3.096
29239SOL    HW187675   8.118   7.811   3.081
29239SOL    HW287676   8.164   7.945   3.027
29240SOL     OW87677   8.350   9.129   3.353
29240SOL    HW187678   8.329   9.080   3.273
29240SOL    HW287679   8.353   9.221   3.324
29241SOL     OW87680   7.890   7.929   2.025
29241SOL    HW187681   7.955   7.995   2.050
29241SOL    HW287682   7.806   7.975   2.029
29242SOL     OW87683   7.578   8.598   3.342
29242SOL    HW187684   7.582   8.558   3.429
29242SOL    HW287685   7.599   8.527   3.282
29243SOL     OW87686   8.750   8.482   3.071
29243SOL    HW187687   8.760   8.418   3.000
29243SOL    HW287688   8.697   8.552   3.033
29244SOL     OW87689   8.773   8.308   2.154
29244SOL    HW187690   8.703   8.272   2.208
29244SOL    HW287691   8.744   8.292   2.064
29245SOL     OW87692   9.237   9.169   3.033
29245SOL    HW187693   9.298   9.196   2.964
29245SOL    HW287694   9.204   9.084   3.004
29246SOL     OW87695   8.689   9.181   2.956
29246SOL    HW187696   8.773   9.209   2.921
29246SOL    HW287697   8.703   9.089   2.979
29247SOL     OW87698   7.554   8.696   2.870
29247SOL    HW187699   7.526   8.717   2.959
29247SOL    HW287700   7.483   8.642   2.835
29248SOL     OW87701   8.138   9.128   3.611
29248SOL    HW187702   8.074   9.198   3.598
29248SOL    HW287703   8.210   9.151   3.552
29249SOL     OW87704   9.197   7.634   2.355
29249SOL    HW187705   9.256   7.612   2.283
29249SOL    HW287706   9.168   7.549   2.389
29250SOL     OW87707   8.846   9.016   2.365
29250SOL    HW187708   8.900   9.051   2.295
29250SOL    HW287709   8.792   9.090   2.393
29251SOL     OW87710   7.579   9.257   3.706
29251SOL    HW187711   7.541   9.179   3.747
29251SOL    HW287712   7.632   9.297   3.775
29252SOL     OW87713   8.726   8.384   2.527
29252SOL    HW187714   8.800   8.324   2.540
29252SOL    HW287715   8.763   8.456   2.474
29253SOL     OW87716   8.232   8.728   3.275
29253SOL    HW187717   8.205   8.775   3.354
29253SOL    HW287718   8.157   8.737   3.216
29254SOL     OW87719   8.116   9.085   2.022
29254SOL    HW187720   8.132   9.098   1.929
29254SOL    HW287721   8.064   9.004   2.027
29255SOL     OW87722   9.065   9.177   3.263
29255SOL    HW187723   9.123   9.175   3.186
29255SOL    HW287724   9.050   9.270   3.279
29256SOL     OW87725   9.290   7.607   2.828
29256SOL    HW187726   9.320   7.519   2.807
29256SOL    HW287727   9.203   7.612   2.788
29257SOL     OW87728   7.691   7.755   2.570
29257SOL    HW187729   7.605   7.791   2.549
29257SOL    HW287730   7.695   7.756   2.666
29258SOL     OW87731   8.655   9.035   1.900
29258SOL    HW187732   8.646   8.944   1.928
29258SOL    HW287733   8.586   9.047   1.835
29259SOL     OW87734   8.271   8.459   3.248
29259SOL    HW187735   8.309   8.449   3.160
29259SOL    HW287736   8.261   8.553   3.258
29260SOL     OW87737   8.368   8.358   2.155
29260SOL    HW187738   8.425   8.392   2.087
29260SOL    HW287739   8.420   8.291   2.199
29261SOL     OW87740   8.928   9.096   1.918
29261SOL    HW187741   8.836   9.075   1.900
29261SOL    HW287742   8.969   9.100   1.832
29262SOL     OW87743   7.810   8.761   3.365
29262SOL    HW187744   7.803   8.834   3.302
29262SOL    HW287745   7.733   8.707   3.347
29263SOL     OW87746   9.045   8.738   3.139
29263SOL    HW187747   9.099   8.713   3.214
29263SOL    HW287748   8.986   8.805   3.173
29264SOL     OW87749   8.524   8.568   2.591
29264SOL    HW187750   8.449   8.518   2.622
29264SOL    HW287751   8.586   8.501   2.562
29265SOL     OW87752   8.481   7.697   2.822
29265SOL    HW187753   8.480   7.654   2.736
29265SOL    HW287754   8.474   7.625   2.885
29266SOL     OW87755   8.051   8.933   2.336
29266SOL    HW187756   8.107   8.884   2.275
29266SOL    HW287757   7.969   8.945   2.289
29267SOL     OW87758   9.190   7.829   3.250
29267SOL    HW187759   9.258   7.895   3.245
29267SOL    HW287760   9.217   7.761   3.189
29268SOL     OW87761   7.727   8.789   2.161
29268SOL    HW187762   7.640   8.781   2.122
29268SOL    HW287763   7.712   8.837   2.242
29269SOL     OW87764   7.568   8.494   3.597
29269SOL    HW187765   7.491   8.466   3.646
29269SOL    HW287766   7.640   8.443   3.634
29270SOL     OW87767   8.127   7.636   3.357
29270SOL    HW187768   8.211   7.611   3.318
29270SOL    HW287769   8.150   7.670   3.443
29271SOL     OW87770   7.534   7.765   1.877
29271SOL    HW187771   7.456   7.744   1.825
29271SOL    HW287772   7.561   7.851   1.845
29272SOL     OW87773   8.862   8.302   3.250
29272SOL    HW187774   8.810   8.360   3.195
29272SOL    HW287775   8.950   8.306   3.212
29273SOL     OW87776   7.492   7.597   2.135
29273SOL    HW187777   7.480   7.667   2.071
29273SOL    HW287778   7.580   7.565   2.118
29274SOL     OW87779   8.630   8.769   1.986
29274SOL    HW187780   8.539   8.737   1.986
29274SOL    HW287781   8.654   8.773   2.078
29275SOL     OW87782   8.073   8.279   3.304
29275SOL    HW187783   8.132   8.354   3.292
29275SOL    HW287784   8.131   8.203   3.303
29276SOL     OW87785   8.935   9.243   2.854
29276SOL    HW187786   8.960   9.319   2.803
29276SOL    HW287787   9.017   9.199   2.875
29277SOL     OW87788   8.174   7.995   3.548
29277SOL    HW187789   8.220   8.049   3.612
29277SOL    HW287790   8.184   7.906   3.580
29278SOL     OW87791   8.914   8.632   3.480
29278SOL    HW187792   8.907   8.653   3.573
29278SOL    HW287793   9.004   8.655   3.457
29279SOL     OW87794   7.799   9.189   3.439
29279SOL    HW187795   7.717   9.235   3.421
29279SOL    HW287796   7.772   9.106   3.478
29280SOL     OW87797   9.101   8.322   3.113
29280SOL    HW187798   9.099   8.239   3.066
29280SOL    HW287799   9.089   8.388   3.045
29281SOL     OW87800   8.669   7.771   2.318
29281SOL    HW187801   8.729   7.696   2.317
29281SOL    HW287802   8.697   7.822   2.393
29282SOL     OW87803   8.024   8.174   2.542
29282SOL    HW187804   8.068   8.258   2.528
29282SOL    HW287805   7.963   8.166   2.469
29283SOL     OW87806   9.190   7.804   3.526
29283SOL    HW187807   9.187   7.820   3.432
29283SOL    HW287808   9.112   7.750   3.543
29284SOL     OW87809   9.201   8.368   3.365
29284SOL    HW187810   9.190   8.462   3.377
29284SOL    HW287811   9.176   8.352   3.274
29285SOL     OW87812   8.315   8.805   1.923
29285SOL    HW187813   8.280   8.823   2.010
29285SOL    HW287814   8.327   8.892   1.884
29286SOL     OW87815   8.116   9.215   2.785
29286SOL    HW187816   8.097   9.309   2.777
29286SOL    HW287817   8.212   9.210   2.786
29287SOL     OW87818   8.320   8.425   2.718
29287SOL    HW187819   8.370   8.351   2.753
29287SOL    HW287820   8.275   8.461   2.794
29288SOL     OW87821   8.521   8.434   1.949
29288SOL    HW187822   8.500   8.487   1.872
29288SOL    HW287823   8.595   8.379   1.921
29289SOL     OW87824   9.282   9.003   2.700
29289SOL    HW187825   9.204   8.995   2.645
29289SOL    HW287826   9.263   8.948   2.776
29290SOL     OW87827   7.660   8.732   3.698
29290SOL    HW187828   7.628   8.652   3.655
29290SOL    HW287829   7.601   8.744   3.772
29291SOL     OW87830   7.566   8.674   2.530
29291SOL    HW187831   7.595   8.632   2.611
29291SOL    HW287832   7.625   8.640   2.462
29292SOL     OW87833   8.138   8.866   3.494
29292SOL    HW187834   8.062   8.827   3.536
29292SOL    HW287835   8.144   8.954   3.531
29293SOL     OW87836   9.260   7.620   3.098
29293SOL    HW187837   9.268   7.525   3.112
29293SOL    HW287838   9.271   7.630   3.003
29294SOL     OW87839   7.865   7.871   2.380
29294SOL    HW187840   7.900   7.800   2.326
29294SOL    HW287841   7.814   7.827   2.447
29295SOL     OW87842   9.142   8.927   2.944
29295SOL    HW187843   9.064   8.909   2.891
29295SOL    HW287844   9.142   8.860   3.011
29296SOL     OW87845   7.800   8.013   3.153
29296SOL    HW187846   7.849   7.949   3.204
29296SOL    HW287847   7.807   7.984   3.063
29297SOL     OW87848   8.284   9.025   2.535
29297SOL    HW187849   8.248   9.088   2.472
29297SOL    HW287850   8.212   8.963   2.550
29298SOL     OW87851   8.869   7.681   2.977
29298SOL    HW187852   8.878   7.591   3.009
29298SOL    HW287853   8.823   7.727   3.046
29299SOL     OW87854   8.458   7.466   2.981
29299SOL    HW187855   8.404   7.402   2.934
29299SOL    HW287856   8.545   7.425   2.985
29300SOL     OW87857   8.229   8.780   2.190
29300SOL    HW187858   8.205   8.688   2.202
29300SOL    HW287859   8.309   8.791   2.242
29301SOL     OW87860   8.063   9.015   3.149
29301SOL    HW187861   8.058   9.098   3.196
29301SOL    HW287862   8.153   9.012   3.116
29302SOL     OW87863   8.829   7.487   2.053
29302SOL    HW187864   8.869   7.414   2.006
29302SOL    HW287865   8.737   7.460   2.064
29303SOL     OW87866   8.746   7.919   2.537
29303SOL    HW187867   8.696   8.000   2.534
29303SOL    HW287868   8.738   7.889   2.628
29304SOL     OW87869   9.028   7.635   2.754
29304SOL    HW187870   8.976   7.664   2.829
29304SOL    HW287871   9.028   7.709   2.694
29305SOL     OW87872   7.485   8.499   2.170
29305SOL    HW187873   7.578   8.487   2.152
29305SOL    HW287874   7.453   8.411   2.190
29306SOL     OW87875   8.342   9.125   2.196
29306SOL    HW187876   8.263   9.110   2.144
29306SOL    HW287877   8.319   9.197   2.255
29307SOL     OW87878   7.656   8.071   3.871
29307SOL    HW187879   7.568   8.058   3.908
29307SOL    HW287880   7.644   8.056   3.778
29308SOL     OW87881   7.667   7.737   4.714
29308SOL    HW187882   7.698   7.701   4.797
29308SOL    HW287883   7.580   7.699   4.702
29309SOL     OW87884   7.434   7.845   4.370
29309SOL    HW187885   7.354   7.870   4.417
29309SOL    HW287886   7.408   7.771   4.315
29310SOL     OW87887   8.023   8.755   4.933
29310SOL    HW187888   7.940   8.757   4.884
29310SOL    HW287889   8.040   8.846   4.956
29311SOL     OW87890   9.038   8.970   4.429
29311SOL    HW187891   8.991   8.939   4.507
29311SOL    HW287892   8.971   8.972   4.360
29312SOL     OW87893   8.586   8.152   4.410
29312SOL    HW187894   8.632   8.235   4.399
29312SOL    HW287895   8.537   8.162   4.491
29313SOL     OW87896   9.249   8.027   3.944
29313SOL    HW187897   9.210   8.027   3.856
29313SOL    HW287898   9.205   7.955   3.990
29314SOL     OW87899   8.175   8.577   4.782
29314SOL    HW187900   8.116   8.617   4.846
29314SOL    HW287901   8.218   8.651   4.739
29315SOL     OW87902   8.336   8.189   5.553
29315SOL    HW187903   8.326   8.257   5.620
29315SOL    HW287904   8.353   8.238   5.472
29316SOL     OW87905   8.134   8.433   4.368
29316SOL    HW187906   8.201   8.433   4.436
29316SOL    HW287907   8.068   8.495   4.399
29317SOL     OW87908   8.159   8.597   5.557
29317SOL    HW187909   8.211   8.670   5.591
29317SOL    HW287910   8.083   8.639   5.516
29318SOL     OW87911   7.791   8.845   4.793
29318SOL    HW187912   7.715   8.802   4.753
29318SOL    HW287913   7.827   8.899   4.723
29319SOL     OW87914   8.901   8.954   5.096
29319SOL    HW187915   8.957   9.031   5.108
29319SOL    HW287916   8.830   8.966   5.159
29320SOL     OW87917   7.906   7.823   5.180
29320SOL    HW187918   7.980   7.765   5.195
29320SOL    HW287919   7.829   7.772   5.207
29321SOL     OW87920   9.027   7.880   4.479
29321SOL    HW187921   8.957   7.889   4.415
29321SOL    HW287922   9.011   7.950   4.542
29322SOL     OW87923   7.666   9.178   4.189
29322SOL    HW187924   7.692   9.249   4.247
29322SOL    HW287925   7.740   9.167   4.129
29323SOL     OW87926   8.583   8.789   5.421
29323SOL    HW187927   8.628   8.778   5.504
29323SOL    HW287928   8.529   8.710   5.412
29324SOL     OW87929   7.681   8.906   4.257
29324SOL    HW187930   7.659   8.999   4.262
29324SOL    HW287931   7.632   8.866   4.328
29325SOL     OW87932   7.734   8.538   4.604
29325SOL    HW187933   7.735   8.448   4.637
29325SOL    HW287934   7.677   8.585   4.664
29326SOL     OW87935   8.023   9.246   5.147
29326SOL    HW187936   7.945   9.228   5.200
29326SOL    HW287937   8.053   9.332   5.177
29327SOL     OW87938   8.013   8.435   3.876
29327SOL    HW187939   8.064   8.477   3.807
29327SOL    HW287940   8.054   8.465   3.958
29328SOL     OW87941   9.040   7.580   5.184
29328SOL    HW187942   9.077   7.657   5.141
29328SOL    HW287943   9.006   7.613   5.268
29329SOL     OW87944   7.567   8.106   4.291
29329SOL    HW187945   7.534   8.019   4.314
29329SOL    HW287946   7.561   8.157   4.372
29330SOL     OW87947   9.294   9.191   4.043
29330SOL    HW187948   9.366   9.174   4.104
29330SOL    HW287949   9.306   9.282   4.016
29331SOL     OW87950   7.509   9.027   3.833
29331SOL    HW187951   7.488   8.935   3.851
29331SOL    HW287952   7.477   9.075   3.909
29332SOL     OW87953   9.141   8.374   4.381
29332SOL    HW187954   9.227   8.333   4.369
29332SOL    HW287955   9.126   8.423   4.300
29333SOL     OW87956   9.103   8.552   4.158
29333SOL    HW187957   9.188   8.543   4.114
29333SOL    HW287958   9.119   8.616   4.227
29334SOL     OW87959   7.569   8.196   5.302
29334SOL    HW187960   7.655   8.239   5.305
29334SOL    HW287961   7.507   8.268   5.288
29335SOL     OW87962   8.071   8.846   4.454
29335SOL    HW187963   8.030   8.760   4.459
29335SOL    HW287964   8.055   8.875   4.364
29336SOL     OW87965   8.718   8.674   5.140
29336SOL    HW187966   8.745   8.604   5.080
29336SOL    HW287967   8.780   8.668   5.213
29337SOL     OW87968   8.280   7.461   4.242
29337SOL    HW187969   8.320   7.543   4.215
29337SOL    HW287970   8.186   7.478   4.243
29338SOL     OW87971   7.635   8.404   5.025
29338SOL    HW187972   7.723   8.369   5.009
29338SOL    HW287973   7.581   8.366   4.956
29339SOL     OW87974   8.980   8.464   3.925
29339SOL    HW187975   8.912   8.404   3.955
29339SOL    HW287976   9.022   8.494   4.006
29340SOL     OW87977   8.631   9.268   5.356
29340SOL    HW187978   8.630   9.328   5.282
29340SOL    HW287979   8.645   9.182   5.317
29341SOL     OW87980   7.807   7.702   5.600
29341SOL    HW187981   7.842   7.782   5.637
29341SOL    HW287982   7.712   7.716   5.597
29342SOL     OW87983   8.919   8.866   4.654
29342SOL    HW187984   8.856   8.885   4.723
29342SOL    HW287985   8.901   8.775   4.630
29343SOL     OW87986   9.092   9.233   4.290
29343SOL    HW187987   9.070   9.190   4.207
29343SOL    HW287988   9.088   9.164   4.355
29344SOL     OW87989   8.034   8.147   3.996
29344SOL    HW187990   8.037   8.235   3.957
29344SOL    HW287991   7.970   8.154   4.066
29345SOL     OW87992   8.729   7.841   4.665
29345SOL    HW187993   8.640   7.805   4.670
29345SOL    HW287994   8.781   7.782   4.720
29346SOL     OW87995   9.026   9.121   4.043
29346SOL    HW187996   9.120   9.137   4.032
29346SOL    HW287997   8.994   9.109   3.954
29347SOL     OW87998   8.238   8.061   5.155
29347SOL    HW187999   8.216   8.032   5.243
29347SOL    HW288000   8.214   7.988   5.098
29348SOL     OW88001   8.840   7.925   5.398
29348SOL    HW188002   8.844   7.968   5.483
29348SOL    HW288003   8.888   7.844   5.409
29349SOL     OW88004   8.392   8.328   5.318
29349SOL    HW188005   8.448   8.264   5.273
29349SOL    HW288006   8.343   8.370   5.247
29350SOL     OW88007   8.456   7.845   4.932
29350SOL    HW188008   8.364   7.858   4.955
29350SOL    HW288009   8.454   7.802   4.847
29351SOL     OW88010   8.506   8.146   4.142
29351SOL    HW188011   8.527   8.142   4.235
29351SOL    HW288012   8.421   8.102   4.135
29352SOL     OW88013   7.541   8.273   4.507
29352SOL    HW188014   7.623   8.268   4.556
29352SOL    HW288015   7.494   8.345   4.548
29353SOL     OW88016   7.553   9.318   5.308
29353SOL    HW188017   7.561   9.302   5.402
29353SOL    HW288018   7.470   9.277   5.284
29354SOL     OW88019   8.335   7.799   3.924
29354SOL    HW188020   8.387   7.852   3.863
29354SOL    HW288021   8.310   7.722   3.874
29355SOL     OW88022   9.135   8.012   5.564
29355SOL    HW188023   9.112   8.089   5.513
29355SOL    HW288024   9.161   7.947   5.499
29356SOL     OW88025   8.841   8.598   4.268
29356SOL    HW188026   8.920   8.586   4.217
29356SOL    HW288027   8.788   8.658   4.216
29357SOL     OW88028   8.000   7.608   4.639
29357SOL    HW188029   8.006   7.637   4.730
29357SOL    HW288030   7.995   7.690   4.589
29358SOL     OW88031   8.445   8.903   4.189
29358SOL    HW188032   8.420   8.979   4.136
29358SOL    HW288033   8.415   8.925   4.278
29359SOL     OW88034   7.802   9.264   4.602
29359SOL    HW188035   7.847   9.180   4.607
29359SOL    HW288036   7.869   9.329   4.623
29360SOL     OW88037   9.249   8.500   4.616
29360SOL    HW188038   9.199   8.488   4.535
29360SOL    HW288039   9.182   8.506   4.684
29361SOL     OW88040   8.665   8.990   5.240
29361SOL    HW188041   8.654   8.920   5.304
29361SOL    HW288042   8.600   8.971   5.173
29362SOL     OW88043   7.748   8.406   3.990
29362SOL    HW188044   7.831   8.427   3.946
29362SOL    HW288045   7.725   8.319   3.958
29363SOL     OW88046   8.930   8.210   4.435
29363SOL    HW188047   8.933   8.167   4.520
29363SOL    HW288048   9.009   8.264   4.433
29364SOL     OW88049   7.921   8.732   5.472
29364SOL    HW188050   7.896   8.737   5.380
29364SOL    HW288051   7.838   8.719   5.519
29365SOL     OW88052   8.583   9.224   3.948
29365SOL    HW188053   8.503   9.193   3.989
29365SOL    HW288054   8.603   9.158   3.881
29366SOL     OW88055   7.656   7.705   5.222
29366SOL    HW188056   7.581   7.763   5.236
29366SOL    HW288057   7.626   7.620   5.256
29367SOL     OW88058   9.071   8.840   3.821
29367SOL    HW188059   9.030   8.925   3.807
29367SOL    HW288060   9.005   8.777   3.793
29368SOL     OW88061   7.905   9.193   4.038
29368SOL    HW188062   7.954   9.242   4.103
29368SOL    HW288063   7.972   9.149   3.985
29369SOL     OW88064   8.845   7.553   4.183
29369SOL    HW188065   8.845   7.529   4.090
29369SOL    HW288066   8.935   7.536   4.211
29370SOL     OW88067   7.699   9.232   4.937
29370SOL    HW188068   7.748   9.157   4.970
29370SOL    HW288069   7.683   9.211   4.845
29371SOL     OW88070   8.396   9.146   4.614
29371SOL    HW188071   8.482   9.106   4.626
29371SOL    HW288072   8.355   9.094   4.544
29372SOL     OW88073   7.843   8.133   4.197
29372SOL    HW188074   7.856   8.039   4.210
29372SOL    HW288075   7.750   8.147   4.214
29373SOL     OW88076   8.953   7.670   5.441
29373SOL    HW188077   8.966   7.688   5.534
29373SOL    HW288078   8.887   7.600   5.439
29374SOL     OW88079   8.111   7.557   3.827
29374SOL    HW188080   8.157   7.478   3.854
29374SOL    HW288081   8.050   7.527   3.759
29375SOL     OW88082   8.208   7.721   5.477
29375SOL    HW188083   8.292   7.675   5.475
29375SOL    HW288084   8.160   7.681   5.550
29376SOL     OW88085   8.318   8.976   4.923
29376SOL    HW188086   8.300   8.934   4.839
29376SOL    HW288087   8.385   8.921   4.964
29377SOL     OW88088   8.777   8.039   5.157
29377SOL    HW188089   8.810   8.009   5.241
29377SOL    HW288090   8.816   8.126   5.145
29378SOL     OW88091   8.264   8.823   4.682
29378SOL    HW188092   8.352   8.819   4.643
29378SOL    HW288093   8.206   8.838   4.608
29379SOL     OW88094   8.379   7.964   4.612
29379SOL    HW188095   8.353   7.952   4.520
29379SOL    HW288096   8.405   7.876   4.640
29380SOL     OW88097   8.012   7.512   4.214
29380SOL    HW188098   7.934   7.512   4.270
29380SOL    HW288099   8.000   7.586   4.155
29381SOL     OW88100   8.876   8.657   3.754
29381SOL    HW188101   8.908   8.584   3.808
29381SOL    HW288102   8.791   8.680   3.792
29382SOL     OW88103   7.730   7.496   3.913
29382SOL    HW188104   7.784   7.563   3.870
29382SOL    HW288105   7.794   7.438   3.954
29383SOL     OW88106   8.400   7.700   4.175
29383SOL    HW188107   8.374   7.735   4.089
29383SOL    HW288108   8.494   7.716   4.180
29384SOL     OW88109   8.523   8.142   5.169
29384SOL    HW188110   8.460   8.070   5.173
29384SOL    HW288111   8.608   8.098   5.165
29385SOL     OW88112   8.654   9.035   4.528
29385SOL    HW188113   8.669   9.095   4.454
29385SOL    HW288114   8.729   9.048   4.585
29386SOL     OW88115   7.930   8.610   4.432
29386SOL    HW188116   7.868   8.585   4.501
29386SOL    HW288117   7.880   8.603   4.351
29387SOL     OW88118   8.700   9.236   4.339
29387SOL    HW188119   8.748   9.300   4.286
29387SOL    HW288120   8.628   9.287   4.376
29388SOL     OW88121   8.480   7.962   3.754
29388SOL    HW188122   8.437   8.046   3.735
29388SOL    HW288123   8.543   7.982   3.823
29389SOL     OW88124   7.548   7.999   5.115
29389SOL    HW188125   7.640   8.000   5.088
29389SOL    HW288126   7.541   8.068   5.181
29390SOL     OW88127   8.008   7.669   4.909
29390SOL    HW188128   8.045   7.605   4.969
29390SOL    HW288129   7.914   7.670   4.929
29391SOL     OW88130   8.318   7.903   4.353
29391SOL    HW188131   8.279   7.959   4.287
29391SOL    HW288132   8.343   7.824   4.307
29392SOL     OW88133   8.469   7.506   4.463
29392SOL    HW188134   8.408   7.500   4.390
29392SOL    HW288135   8.445   7.434   4.521
29393SOL     OW88136   8.880   8.601   4.578
29393SOL    HW188137   8.811   8.536   4.587
29393SOL    HW288138   8.896   8.608   4.484
29394SOL     OW88139   8.908   8.064   4.673
29394SOL    HW188140   8.844   7.994   4.683
29394SOL    HW288141   8.964   8.058   4.750
29395SOL     OW88142   9.277   8.242   4.110
29395SOL    HW188143   9.334   8.198   4.173
29395SOL    HW288144   9.263   8.177   4.041
29396SOL     OW88145   7.946   8.873   3.875
29396SOL    HW188146   7.871   8.841   3.924
29396SOL    HW288147   7.943   8.824   3.792
29397SOL     OW88148   9.159   8.716   4.361
29397SOL    HW188149   9.253   8.710   4.378
29397SOL    HW288150   9.136   8.806   4.385
29398SOL     OW88151   8.840   8.023   3.790
29398SOL    HW188152   8.783   7.996   3.862
29398SOL    HW288153   8.928   7.998   3.818
29399SOL     OW88154   7.975   7.705   4.026
29399SOL    HW188155   8.028   7.663   3.958
29399SOL    HW288156   7.943   7.786   3.984
29400SOL     OW88157   9.180   8.693   5.257
29400SOL    HW188158   9.267   8.656   5.244
29400SOL    HW288159   9.195   8.780   5.293
29401SOL     OW88160   8.490   8.805   5.061
29401SOL    HW188161   8.413   8.769   5.104
29401SOL    HW288162   8.564   8.758   5.100
29402SOL     OW88163   9.055   9.085   5.395
29402SOL    HW188164   9.045   9.119   5.307
29402SOL    HW288165   9.132   9.028   5.390
29403SOL     OW88166   8.598   8.686   4.830
29403SOL    HW188167   8.536   8.720   4.894
29403SOL    HW288168   8.565   8.718   4.745
29404SOL     OW88169   9.053   8.539   4.803
29404SOL    HW188170   9.046   8.606   4.871
29404SOL    HW288171   8.984   8.560   4.740
29405SOL     OW88172   8.366   7.530   5.107
29405SOL    HW188173   8.388   7.514   5.015
29405SOL    HW288174   8.445   7.570   5.143
29406SOL     OW88175   8.427   8.563   5.448
29406SOL    HW188176   8.337   8.579   5.476
29406SOL    HW288177   8.423   8.482   5.397
29407SOL     OW88178   8.162   8.510   4.100
29407SOL    HW188179   8.147   8.484   4.191
29407SOL    HW288180   8.237   8.457   4.071
29408SOL     OW88181   7.875   8.276   4.983
29408SOL    HW188182   7.942   8.285   5.050
29408SOL    HW288183   7.844   8.186   4.992
29409SOL     OW88184   8.712   7.816   5.016
29409SOL    HW188185   8.740   7.896   5.060
29409SOL    HW288186   8.623   7.834   4.985
29410SOL     OW88187   7.526   9.017   5.088
29410SOL    HW188188   7.495   9.087   5.030
29410SOL    HW288189   7.621   9.017   5.077
29411SOL     OW88190   7.765   8.582   4.210
29411SOL    HW188191   7.766   8.654   4.147
29411SOL    HW288192   7.762   8.503   4.157
29412SOL     OW88193   7.982   7.965   4.583
29412SOL    HW188194   7.994   8.023   4.508
29412SOL    HW288195   8.050   7.991   4.645
29413SOL     OW88196   8.695   8.802   4.122
29413SOL    HW188197   8.752   8.871   4.156
29413SOL    HW288198   8.607   8.826   4.152
29414SOL     OW88199   8.757   8.915   4.867
29414SOL    HW188200   8.805   8.922   4.949
29414SOL    HW288201   8.707   8.834   4.875
29415SOL     OW88202   9.021   8.066   4.209
29415SOL    HW188203   8.971   8.105   4.280
29415SOL    HW288204   9.066   8.140   4.167
29416SOL     OW88205   7.792   8.979   5.026
29416SOL    HW188206   7.785   8.926   4.946
29416SOL    HW288207   7.886   8.995   5.035
29417SOL     OW88208   7.877   8.197   5.340
29417SOL    HW188209   7.938   8.239   5.280
29417SOL    HW288210   7.916   8.112   5.359
29418SOL     OW88211   9.071   8.234   5.424
29418SOL    HW188212   8.984   8.272   5.414
29418SOL    HW288213   9.121   8.271   5.351
29419SOL     OW88214   8.444   7.588   5.481
29419SOL    HW188215   8.502   7.661   5.463
29419SOL    HW288216   8.495   7.510   5.460
29420SOL     OW88217   7.942   7.484   5.487
29420SOL    HW188218   7.888   7.433   5.427
29420SOL    HW288219   7.890   7.561   5.509
29421SOL     OW88220   8.040   8.322   4.763
29421SOL    HW188221   8.078   8.410   4.766
29421SOL    HW288222   7.982   8.318   4.839
29422SOL     OW88223   8.756   8.301   4.727
29422SOL    HW188224   8.667   8.274   4.702
29422SOL    HW288225   8.810   8.225   4.708
29423SOL     OW88226   8.646   7.971   3.981
29423SOL    HW188227   8.657   7.894   4.038
29423SOL    HW288228   8.605   8.036   4.037
29424SOL     OW88229   7.741   7.642   4.963
29424SOL    HW188230   7.705   7.670   5.047
29424SOL    HW288231   7.724   7.548   4.959
29425SOL     OW88232   7.499   8.760   4.989
29425SOL    HW188233   7.528   8.703   5.061
29425SOL    HW288234   7.501   8.848   5.026
29426SOL     OW88235   8.160   8.070   4.763
29426SOL    HW188236   8.238   8.063   4.707
29426SOL    HW288237   8.132   8.161   4.753
29427SOL     OW88238   9.193   8.415   5.597
29427SOL    HW188239   9.153   8.343   5.547
29427SOL    HW288240   9.129   8.435   5.665
29428SOL     OW88241   7.773   7.509   4.351
29428SOL    HW188242   7.739   7.596   4.370
29428SOL    HW288243   7.779   7.466   4.437
29429SOL     OW88244   9.079   7.838   4.067
29429SOL    HW188245   9.112   7.773   4.129
29429SOL    HW288246   9.049   7.911   4.123
29430SOL     OW88247   8.482   8.207   4.680
29430SOL    HW188248   8.460   8.221   4.772
29430SOL    HW288249   8.452   8.117   4.663
29431SOL     OW88250   8.429   9.014   5.458
29431SOL    HW188251   8.407   9.057   5.376
29431SOL    HW288252   8.467   8.930   5.432
29432SOL     OW88253   9.285   8.943   5.325
29432SOL    HW188254   9.312   8.970   5.237
29432SOL    HW288255   9.365   8.952   5.378
29433SOL     OW88256   7.797   8.368   5.540
29433SOL    HW188257   7.875   8.384   5.594
29433SOL    HW288258   7.827   8.306   5.474
29434SOL     OW88259   8.968   7.717   3.843
29434SOL    HW188260   8.917   7.646   3.880
29434SOL    HW288261   9.009   7.760   3.918
29435SOL     OW88262   8.728   8.269   3.744
29435SOL    HW188263   8.768   8.182   3.751
29435SOL    HW288264   8.764   8.305   3.662
29436SOL     OW88265   8.517   8.801   4.590
29436SOL    HW188266   8.529   8.728   4.529
29436SOL    HW288267   8.570   8.872   4.553
29437SOL     OW88268   7.766   8.264   4.668
29437SOL    HW188269   7.861   8.277   4.666
29437SOL    HW288270   7.756   8.174   4.699
29438SOL     OW88271   7.761   7.986   4.735
29438SOL    HW188272   7.721   7.899   4.725
29438SOL    HW288273   7.838   7.984   4.679
29439SOL     OW88274   8.587   7.815   5.409
29439SOL    HW188275   8.541   7.866   5.476
29439SOL    HW288276   8.671   7.859   5.400
29440SOL     OW88277   8.604   7.637   5.197
29440SOL    HW188278   8.592   7.699   5.269
29440SOL    HW288279   8.650   7.687   5.130
29441SOL     OW88280   7.472   8.750   3.903
29441SOL    HW188281   7.383   8.773   3.878
29441SOL    HW288282   7.465   8.664   3.944
29442SOL     OW88283   7.542   9.216   4.676
29442SOL    HW188284   7.508   9.143   4.624
29442SOL    HW288285   7.628   9.234   4.638
29443SOL     OW88286   7.933   9.018   4.624
29443SOL    HW188287   8.003   9.079   4.646
29443SOL    HW288288   7.973   8.956   4.563
29444SOL     OW88289   8.396   8.229   4.939
29444SOL    HW188290   8.458   8.217   5.011
29444SOL    HW288291   8.317   8.183   4.967
29445SOL     OW88292   7.487   8.022   4.845
29445SOL    HW188293   7.568   8.017   4.794
29445SOL    HW288294   7.515   8.013   4.936
29446SOL     OW88295   7.633   7.985   5.468
29446SOL    HW188296   7.700   7.947   5.412
29446SOL    HW288297   7.599   8.059   5.418
29447SOL     OW88298   8.837   8.368   5.375
29447SOL    HW188299   8.854   8.462   5.370
29447SOL    HW288300   8.830   8.340   5.284
29448SOL     OW88301   8.266   8.017   4.095
29448SOL    HW188302   8.275   7.943   4.036
29448SOL    HW288303   8.189   8.064   4.064
29449SOL     OW88304   9.081   8.049   4.886
29449SOL    HW188305   9.071   7.990   4.961
29449SOL    HW288306   9.171   8.037   4.858
29450SOL     OW88307   7.673   8.986   5.449
29450SOL    HW188308   7.647   9.031   5.530
29450SOL    HW288309   7.686   8.895   5.476
29451SOL     OW88310   8.182   7.881   4.958
29451SOL    HW188311   8.118   7.811   4.943
29451SOL    HW288312   8.164   7.945   4.889
29452SOL     OW88313   8.350   9.129   5.215
29452SOL    HW188314   8.329   9.080   5.135
29452SOL    HW288315   8.353   9.221   5.186
29453SOL     OW88316   7.890   7.929   3.888
29453SOL    HW188317   7.955   7.995   3.913
29453SOL    HW288318   7.806   7.975   3.891
29454SOL     OW88319   7.578   8.598   5.204
29454SOL    HW188320   7.582   8.558   5.291
29454SOL    HW288321   7.599   8.527   5.144
29455SOL     OW88322   8.750   8.482   4.933
29455SOL    HW188323   8.760   8.418   4.862
29455SOL    HW288324   8.697   8.552   4.895
29456SOL     OW88325   8.773   8.308   4.016
29456SOL    HW188326   8.703   8.272   4.070
29456SOL    HW288327   8.744   8.292   3.926
29457SOL     OW88328   9.238   9.168   4.896
29457SOL    HW188329   9.298   9.196   4.826
29457SOL    HW288330   9.204   9.084   4.866
29458SOL     OW88331   8.689   9.181   4.819
29458SOL    HW188332   8.773   9.210   4.783
29458SOL    HW288333   8.703   9.089   4.841
29459SOL     OW88334   7.554   8.696   4.732
29459SOL    HW188335   7.526   8.717   4.821
29459SOL    HW288336   7.483   8.642   4.697
29460SOL     OW88337   8.138   9.129   5.473
29460SOL    HW188338   8.074   9.198   5.460
29460SOL    HW288339   8.210   9.151   5.414
29461SOL     OW88340   9.197   7.634   4.217
29461SOL    HW188341   9.256   7.612   4.145
29461SOL    HW288342   9.168   7.549   4.251
29462SOL     OW88343   8.846   9.016   4.227
29462SOL    HW188344   8.900   9.051   4.157
29462SOL    HW288345   8.791   9.090   4.255
29463SOL     OW88346   7.579   9.257   5.568
29463SOL    HW188347   7.541   9.180   5.609
29463SOL    HW288348   7.631   9.297   5.637
29464SOL     OW88349   8.726   8.384   4.389
29464SOL    HW188350   8.800   8.324   4.402
29464SOL    HW288351   8.763   8.456   4.336
29465SOL     OW88352   8.232   8.728   5.137
29465SOL    HW188353   8.205   8.775   5.216
29465SOL    HW288354   8.157   8.737   5.077
29466SOL     OW88355   8.116   9.085   3.884
29466SOL    HW188356   8.132   9.098   3.791
29466SOL    HW288357   8.064   9.004   3.888
29467SOL     OW88358   9.065   9.176   5.125
29467SOL    HW188359   9.123   9.175   5.048
29467SOL    HW288360   9.050   9.269   5.141
29468SOL     OW88361   9.290   7.607   4.690
29468SOL    HW188362   9.320   7.518   4.669
29468SOL    HW288363   9.203   7.612   4.651
29469SOL     OW88364   7.691   7.755   4.432
29469SOL    HW188365   7.605   7.791   4.411
29469SOL    HW288366   7.694   7.756   4.528
29470SOL     OW88367   8.655   9.035   3.762
29470SOL    HW188368   8.646   8.944   3.790
29470SOL    HW288369   8.586   9.047   3.698
29471SOL     OW88370   8.271   8.458   5.110
29471SOL    HW188371   8.309   8.448   5.022
29471SOL    HW288372   8.261   8.553   5.120
29472SOL     OW88373   8.368   8.359   4.017
29472SOL    HW188374   8.426   8.393   3.949
29472SOL    HW288375   8.420   8.291   4.061
29473SOL     OW88376   8.927   9.096   3.780
29473SOL    HW188377   8.836   9.075   3.762
29473SOL    HW288378   8.969   9.100   3.694
29474SOL     OW88379   7.810   8.762   5.227
29474SOL    HW188380   7.803   8.834   5.164
29474SOL    HW288381   7.733   8.707   5.210
29475SOL     OW88382   9.045   8.738   5.001
29475SOL    HW188383   9.099   8.713   5.076
29475SOL    HW288384   8.986   8.805   5.035
29476SOL     OW88385   8.524   8.568   4.453
29476SOL    HW188386   8.449   8.518   4.485
29476SOL    HW288387   8.586   8.501   4.424
29477SOL     OW88388   8.481   7.697   4.684
29477SOL    HW188389   8.479   7.654   4.598
29477SOL    HW288390   8.474   7.625   4.747
29478SOL     OW88391   8.051   8.933   4.198
29478SOL    HW188392   8.107   8.885   4.137
29478SOL    HW288393   7.968   8.944   4.151
29479SOL     OW88394   9.190   7.829   5.113
29479SOL    HW188395   9.259   7.895   5.107
29479SOL    HW288396   9.217   7.761   5.051
29480SOL     OW88397   7.727   8.789   4.023
29480SOL    HW188398   7.640   8.781   3.984
29480SOL    HW288399   7.713   8.837   4.104
29481SOL     OW88400   7.568   8.494   5.459
29481SOL    HW188401   7.491   8.466   5.508
29481SOL    HW288402   7.640   8.443   5.496
29482SOL     OW88403   8.127   7.637   5.219
29482SOL    HW188404   8.210   7.611   5.180
29482SOL    HW288405   8.150   7.670   5.306
29483SOL     OW88406   7.534   7.765   3.740
29483SOL    HW188407   7.456   7.743   3.688
29483SOL    HW288408   7.561   7.851   3.708
29484SOL     OW88409   8.862   8.302   5.112
29484SOL    HW188410   8.810   8.360   5.057
29484SOL    HW288411   8.950   8.306   5.074
29485SOL     OW88412   7.492   7.597   3.997
29485SOL    HW188413   7.480   7.667   3.933
29485SOL    HW288414   7.580   7.565   3.980
29486SOL     OW88415   8.630   8.769   3.848
29486SOL    HW188416   8.539   8.737   3.848
29486SOL    HW288417   8.654   8.773   3.940
29487SOL     OW88418   8.074   8.279   5.166
29487SOL    HW188419   8.133   8.353   5.155
29487SOL    HW288420   8.131   8.202   5.165
29488SOL     OW88421   8.934   9.243   4.716
29488SOL    HW188422   8.960   9.319   4.665
29488SOL    HW288423   9.017   9.199   4.736
29489SOL     OW88424   8.175   7.995   5.410
29489SOL    HW188425   8.221   8.048   5.475
29489SOL    HW288426   8.185   7.905   5.442
29490SOL     OW88427   8.914   8.632   5.342
29490SOL    HW188428   8.907   8.653   5.435
29490SOL    HW288429   9.004   8.655   5.319
29491SOL     OW88430   7.799   9.189   5.301
29491SOL    HW188431   7.718   9.235   5.283
29491SOL    HW288432   7.772   9.106   5.341
29492SOL     OW88433   9.101   8.322   4.975
29492SOL    HW188434   9.099   8.239   4.928
29492SOL    HW288435   9.089   8.388   4.907
29493SOL     OW88436   8.669   7.771   4.180
29493SOL    HW188437   8.729   7.696   4.178
29493SOL    HW288438   8.698   7.823   4.255
29494SOL     OW88439   8.024   8.174   4.405
29494SOL    HW188440   8.068   8.258   4.389
29494SOL    HW288441   7.963   8.165   4.332
29495SOL     OW88442   9.189   7.804   5.388
29495SOL    HW188443   9.187   7.820   5.294
29495SOL    HW288444   9.112   7.750   5.406
29496SOL     OW88445   9.202   8.368   5.227
29496SOL    HW188446   9.190   8.462   5.239
29496SOL    HW288447   9.176   8.352   5.136
29497SOL     OW88448   8.316   8.805   3.786
29497SOL    HW188449   8.280   8.823   3.872
29497SOL    HW288450   8.327   8.892   3.746
29498SOL     OW88451   8.116   9.215   4.647
29498SOL    HW188452   8.097   9.309   4.639
29498SOL    HW288453   8.212   9.210   4.647
29499SOL     OW88454   8.320   8.425   4.580
29499SOL    HW188455   8.370   8.351   4.615
29499SOL    HW288456   8.274   8.461   4.656
29500SOL     OW88457   8.523   8.436   3.811
29500SOL    HW188458   8.501   8.487   3.734
29500SOL    HW288459   8.595   8.380   3.783
29501SOL     OW88460   9.282   9.003   4.562
29501SOL    HW188461   9.204   8.995   4.507
29501SOL    HW288462   9.263   8.948   4.638
29502SOL     OW88463   7.660   8.732   5.560
29502SOL    HW188464   7.628   8.652   5.517
29502SOL    HW288465   7.601   8.744   5.634
29503SOL     OW88466   7.566   8.675   4.391
29503SOL    HW188467   7.594   8.633   4.473
29503SOL    HW288468   7.625   8.640   4.325
29504SOL     OW88469   8.138   8.866   5.356
29504SOL    HW188470   8.062   8.827   5.398
29504SOL    HW288471   8.144   8.954   5.393
29505SOL     OW88472   9.261   7.620   4.960
29505SOL    HW188473   9.268   7.525   4.975
29505SOL    HW288474   9.272   7.630   4.865
29506SOL     OW88475   7.866   7.871   4.242
29506SOL    HW188476   7.900   7.799   4.188
29506SOL    HW288477   7.814   7.827   4.309
29507SOL     OW88478   9.142   8.928   4.806
29507SOL    HW188479   9.064   8.909   4.753
29507SOL    HW288480   9.142   8.860   4.873
29508SOL     OW88481   7.801   8.014   5.015
29508SOL    HW188482   7.850   7.949   5.066
29508SOL    HW288483   7.808   7.984   4.925
29509SOL     OW88484   8.284   9.024   4.397
29509SOL    HW188485   8.248   9.087   4.334
29509SOL    HW288486   8.212   8.962   4.412
29510SOL     OW88487   8.869   7.680   4.838
29510SOL    HW188488   8.877   7.590   4.870
29510SOL    HW288489   8.823   7.727   4.908
29511SOL     OW88490   8.458   7.466   4.843
29511SOL    HW188491   8.404   7.402   4.796
29511SOL    HW288492   8.545   7.425   4.847
29512SOL     OW88493   8.229   8.780   4.052
29512SOL    HW188494   8.205   8.688   4.064
29512SOL    HW288495   8.309   8.791   4.104
29513SOL     OW88496   8.063   9.015   5.011
29513SOL    HW188497   8.058   9.098   5.058
29513SOL    HW288498   8.153   9.012   4.978
29514SOL     OW88499   8.829   7.487   3.915
29514SOL    HW188500   8.869   7.414   3.868
29514SOL    HW288501   8.737   7.460   3.926
29515SOL     OW88502   8.747   7.919   4.399
29515SOL    HW188503   8.696   8.000   4.396
29515SOL    HW288504   8.738   7.889   4.490
29516SOL     OW88505   9.028   7.635   4.616
29516SOL    HW188506   8.977   7.664   4.691
29516SOL    HW288507   9.028   7.709   4.556
29517SOL     OW88508   7.485   8.499   4.032
29517SOL    HW188509   7.578   8.487   4.014
29517SOL    HW288510   7.453   8.411   4.052
29518SOL     OW88511   8.342   9.125   4.058
29518SOL    HW188512   8.263   9.110   4.006
29518SOL    HW288513   8.318   9.197   4.117
29519SOL     OW88514   7.655   8.071   5.733
29519SOL    HW188515   7.568   8.058   5.770
29519SOL    HW288516   7.645   8.056   5.639
29520SOL     OW88517   7.667   7.737   6.576
29520SOL    HW188518   7.698   7.701   6.659
29520SOL    HW288519   7.580   7.699   6.564
29521SOL     OW88520   7.435   7.845   6.232
29521SOL    HW188521   7.355   7.870   6.279
29521SOL    HW288522   7.409   7.771   6.177
29522SOL     OW88523   8.023   8.755   6.795
29522SOL    HW188524   7.940   8.758   6.746
29522SOL    HW288525   8.040   8.846   6.818
29523SOL     OW88526   9.038   8.970   6.291
29523SOL    HW188527   8.991   8.939   6.368
29523SOL    HW288528   8.971   8.972   6.222
29524SOL     OW88529   8.586   8.152   6.272
29524SOL    HW188530   8.632   8.235   6.261
29524SOL    HW288531   8.537   8.162   6.353
29525SOL     OW88532   9.249   8.027   5.806
29525SOL    HW188533   9.210   8.027   5.719
29525SOL    HW288534   9.205   7.955   5.852
29526SOL     OW88535   8.175   8.577   6.644
29526SOL    HW188536   8.116   8.617   6.708
29526SOL    HW288537   8.218   8.651   6.601
29527SOL     OW88538   8.336   8.189   7.414
29527SOL    HW188539   8.326   8.257   7.482
29527SOL    HW288540   8.353   8.238   7.334
29528SOL     OW88541   8.134   8.433   6.230
29528SOL    HW188542   8.201   8.433   6.298
29528SOL    HW288543   8.068   8.495   6.261
29529SOL     OW88544   8.160   8.598   7.419
29529SOL    HW188545   8.211   8.670   7.454
29529SOL    HW288546   8.084   8.639   7.378
29530SOL     OW88547   7.791   8.844   6.655
29530SOL    HW188548   7.715   8.802   6.615
29530SOL    HW288549   7.827   8.899   6.585
29531SOL     OW88550   8.901   8.954   6.958
29531SOL    HW188551   8.957   9.031   6.970
29531SOL    HW288552   8.830   8.966   7.021
29532SOL     OW88553   7.906   7.823   7.042
29532SOL    HW188554   7.981   7.765   7.057
29532SOL    HW288555   7.830   7.772   7.068
29533SOL     OW88556   9.027   7.880   6.341
29533SOL    HW188557   8.958   7.889   6.276
29533SOL    HW288558   9.011   7.950   6.404
29534SOL     OW88559   7.666   9.178   6.051
29534SOL    HW188560   7.692   9.249   6.109
29534SOL    HW288561   7.740   9.167   5.991
29535SOL     OW88562   8.583   8.789   7.283
29535SOL    HW188563   8.628   8.778   7.366
29535SOL    HW288564   8.529   8.710   7.274
29536SOL     OW88565   7.681   8.906   6.119
29536SOL    HW188566   7.659   8.999   6.124
29536SOL    HW288567   7.631   8.866   6.190
29537SOL     OW88568   7.734   8.538   6.466
29537SOL    HW188569   7.734   8.448   6.499
29537SOL    HW288570   7.677   8.585   6.526
29538SOL     OW88571   8.023   9.246   7.009
29538SOL    HW188572   7.945   9.228   7.062
29538SOL    HW288573   8.053   9.332   7.039
29539SOL     OW88574   8.014   8.435   5.738
29539SOL    HW188575   8.065   8.477   5.669
29539SOL    HW288576   8.054   8.465   5.820
29540SOL     OW88577   9.040   7.579   7.047
29540SOL    HW188578   9.077   7.656   7.003
29540SOL    HW288579   9.006   7.613   7.130
29541SOL     OW88580   7.567   8.106   6.153
29541SOL    HW188581   7.534   8.019   6.176
29541SOL    HW288582   7.561   8.156   6.234
29542SOL     OW88583   9.294   9.191   5.905
29542SOL    HW188584   9.366   9.174   5.966
29542SOL    HW288585   9.306   9.282   5.878
29543SOL     OW88586   7.510   9.027   5.695
29543SOL    HW188587   7.488   8.936   5.712
29543SOL    HW288588   7.477   9.075   5.771
29544SOL     OW88589   9.141   8.374   6.243
29544SOL    HW188590   9.227   8.333   6.230
29544SOL    HW288591   9.126   8.423   6.162
29545SOL     OW88592   9.103   8.552   6.020
29545SOL    HW188593   9.188   8.543   5.976
29545SOL    HW288594   9.119   8.616   6.090
29546SOL     OW88595   7.569   8.197   7.164
29546SOL    HW188596   7.654   8.240   7.167
29546SOL    HW288597   7.507   8.268   7.150
29547SOL     OW88598   8.071   8.846   6.316
29547SOL    HW188599   8.030   8.760   6.321
29547SOL    HW288600   8.055   8.875   6.226
29548SOL     OW88601   8.718   8.673   7.003
29548SOL    HW188602   8.745   8.604   6.942
29548SOL    HW288603   8.780   8.668   7.075
29549SOL     OW88604   8.280   7.460   6.105
29549SOL    HW188605   8.320   7.542   6.077
29549SOL    HW288606   8.186   7.478   6.105
29550SOL     OW88607   7.635   8.404   6.887
29550SOL    HW188608   7.722   8.369   6.871
29550SOL    HW288609   7.581   8.368   6.817
29551SOL     OW88610   8.980   8.464   5.787
29551SOL    HW188611   8.912   8.403   5.817
29551SOL    HW288612   9.022   8.494   5.868
29552SOL     OW88613   8.631   9.268   7.218
29552SOL    HW188614   8.630   9.328   7.144
29552SOL    HW288615   8.645   9.182   7.179
29553SOL     OW88616   7.807   7.701   7.462
29553SOL    HW188617   7.843   7.782   7.500
29553SOL    HW288618   7.712   7.716   7.459
29554SOL     OW88619   8.919   8.866   6.516
29554SOL    HW188620   8.856   8.885   6.585
29554SOL    HW288621   8.901   8.775   6.492
29555SOL     OW88622   9.092   9.233   6.152
29555SOL    HW188623   9.070   9.190   6.069
29555SOL    HW288624   9.088   9.164   6.217
29556SOL     OW88625   8.035   8.148   5.858
29556SOL    HW188626   8.037   8.235   5.819
29556SOL    HW288627   7.970   8.154   5.928
29557SOL     OW88628   8.729   7.841   6.527
29557SOL    HW188629   8.640   7.805   6.532
29557SOL    HW288630   8.781   7.783   6.582
29558SOL     OW88631   9.026   9.121   5.905
29558SOL    HW188632   9.120   9.137   5.894
29558SOL    HW288633   8.994   9.109   5.816
29559SOL     OW88634   8.238   8.061   7.017
29559SOL    HW188635   8.215   8.032   7.105
29559SOL    HW288636   8.214   7.988   6.960
29560SOL     OW88637   8.839   7.925   7.260
29560SOL    HW188638   8.844   7.968   7.345
29560SOL    HW288639   8.888   7.844   7.271
29561SOL     OW88640   8.392   8.328   7.179
29561SOL    HW188641   8.448   8.265   7.135
29561SOL    HW288642   8.343   8.370   7.109
29562SOL     OW88643   8.456   7.845   6.795
29562SOL    HW188644   8.364   7.858   6.817
29562SOL    HW288645   8.454   7.802   6.709
29563SOL     OW88646   8.506   8.146   6.004
29563SOL    HW188647   8.527   8.142   6.097
29563SOL    HW288648   8.422   8.102   5.997
29564SOL     OW88649   7.541   8.272   6.369
29564SOL    HW188650   7.623   8.267   6.419
29564SOL    HW288651   7.493   8.344   6.410
29565SOL     OW88652   7.553   9.318   7.170
29565SOL    HW188653   7.561   9.302   7.264
29565SOL    HW288654   7.470   9.278   7.146
29566SOL     OW88655   8.335   7.799   5.787
29566SOL    HW188656   8.387   7.852   5.725
29566SOL    HW288657   8.309   7.722   5.736
29567SOL     OW88658   9.135   8.012   7.427
29567SOL    HW188659   9.112   8.089   7.376
29567SOL    HW288660   9.160   7.947   7.361
29568SOL     OW88661   8.841   8.598   6.130
29568SOL    HW188662   8.920   8.586   6.078
29568SOL    HW288663   8.787   8.658   6.078
29569SOL     OW88664   8.000   7.608   6.501
29569SOL    HW188665   8.005   7.637   6.592
29569SOL    HW288666   7.995   7.689   6.450
29570SOL     OW88667   8.445   8.903   6.051
29570SOL    HW188668   8.420   8.979   5.998
29570SOL    HW288669   8.415   8.926   6.139
29571SOL     OW88670   7.802   9.264   6.464
29571SOL    HW188671   7.847   9.180   6.469
29571SOL    HW288672   7.869   9.329   6.485
29572SOL     OW88673   9.249   8.500   6.478
29572SOL    HW188674   9.200   8.488   6.397
29572SOL    HW288675   9.182   8.506   6.546
29573SOL     OW88676   8.664   8.990   7.102
29573SOL    HW188677   8.654   8.920   7.166
29573SOL    HW288678   8.600   8.971   7.034
29574SOL     OW88679   7.748   8.406   5.852
29574SOL    HW188680   7.831   8.427   5.808
29574SOL    HW288681   7.725   8.319   5.820
29575SOL     OW88682   8.930   8.210   6.297
29575SOL    HW188683   8.933   8.167   6.382
29575SOL    HW288684   9.009   8.264   6.295
29576SOL     OW88685   7.921   8.732   7.334
29576SOL    HW188686   7.896   8.737   7.242
29576SOL    HW288687   7.838   8.719   7.381
29577SOL     OW88688   8.583   9.224   5.810
29577SOL    HW188689   8.503   9.193   5.851
29577SOL    HW288690   8.603   9.158   5.743
29578SOL     OW88691   7.656   7.704   7.084
29578SOL    HW188692   7.583   7.764   7.098
29578SOL    HW288693   7.626   7.620   7.118
29579SOL     OW88694   9.071   8.840   5.684
29579SOL    HW188695   9.030   8.925   5.669
29579SOL    HW288696   9.005   8.777   5.656
29580SOL     OW88697   7.905   9.193   5.900
29580SOL    HW188698   7.954   9.242   5.965
29580SOL    HW288699   7.972   9.149   5.847
29581SOL     OW88700   8.845   7.552   6.045
29581SOL    HW188701   8.845   7.528   5.952
29581SOL    HW288702   8.935   7.536   6.073
29582SOL     OW88703   7.699   9.232   6.799
29582SOL    HW188704   7.748   9.157   6.832
29582SOL    HW288705   7.683   9.211   6.707
29583SOL     OW88706   8.396   9.146   6.475
29583SOL    HW188707   8.482   9.106   6.488
29583SOL    HW288708   8.355   9.094   6.406
29584SOL     OW88709   7.843   8.133   6.059
29584SOL    HW188710   7.856   8.039   6.072
29584SOL    HW288711   7.750   8.147   6.076
29585SOL     OW88712   8.953   7.670   7.303
29585SOL    HW188713   8.966   7.688   7.396
29585SOL    HW288714   8.887   7.600   7.302
29586SOL     OW88715   8.111   7.557   5.689
29586SOL    HW188716   8.158   7.478   5.715
29586SOL    HW288717   8.049   7.527   5.622
29587SOL     OW88718   8.208   7.721   7.339
29587SOL    HW188719   8.292   7.676   7.337
29587SOL    HW288720   8.160   7.681   7.412
29588SOL     OW88721   8.318   8.976   6.785
29588SOL    HW188722   8.300   8.934   6.701
29588SOL    HW288723   8.385   8.921   6.826
29589SOL     OW88724   8.777   8.039   7.019
29589SOL    HW188725   8.810   8.009   7.103
29589SOL    HW288726   8.816   8.126   7.007
29590SOL     OW88727   8.264   8.823   6.544
29590SOL    HW188728   8.352   8.819   6.505
29590SOL    HW288729   8.206   8.838   6.470
29591SOL     OW88730   8.378   7.963   6.474
29591SOL    HW188731   8.353   7.952   6.382
29591SOL    HW288732   8.405   7.876   6.502
29592SOL     OW88733   8.012   7.512   6.076
29592SOL    HW188734   7.934   7.512   6.131
29592SOL    HW288735   8.000   7.586   6.017
29593SOL     OW88736   8.876   8.657   5.616
29593SOL    HW188737   8.908   8.584   5.670
29593SOL    HW288738   8.791   8.679   5.654
29594SOL     OW88739   7.730   7.496   5.775
29594SOL    HW188740   7.783   7.563   5.731
29594SOL    HW288741   7.794   7.438   5.815
29595SOL     OW88742   8.400   7.699   6.037
29595SOL    HW188743   8.374   7.734   5.951
29595SOL    HW288744   8.494   7.716   6.042
29596SOL     OW88745   8.523   8.142   7.031
29596SOL    HW188746   8.460   8.070   7.035
29596SOL    HW288747   8.608   8.098   7.027
29597SOL     OW88748   8.654   9.036   6.390
29597SOL    HW188749   8.669   9.095   6.316
29597SOL    HW288750   8.729   9.048   6.447
29598SOL     OW88751   7.930   8.610   6.294
29598SOL    HW188752   7.868   8.585   6.363
29598SOL    HW288753   7.880   8.603   6.213
29599SOL     OW88754   8.700   9.237   6.201
29599SOL    HW188755   8.748   9.300   6.148
29599SOL    HW288756   8.628   9.287   6.238
29600SOL     OW88757   8.480   7.962   5.616
29600SOL    HW188758   8.438   8.046   5.597
29600SOL    HW288759   8.543   7.982   5.685
29601SOL     OW88760   7.548   7.998   6.977
29601SOL    HW188761   7.640   8.000   6.951
29601SOL    HW288762   7.541   8.068   7.043
29602SOL     OW88763   8.008   7.669   6.770
29602SOL    HW188764   8.045   7.604   6.830
29602SOL    HW288765   7.914   7.670   6.791
29603SOL     OW88766   8.318   7.903   6.215
29603SOL    HW188767   8.279   7.959   6.148
29603SOL    HW288768   8.343   7.823   6.169
29604SOL     OW88769   8.469   7.507   6.326
29604SOL    HW188770   8.408   7.501   6.252
29604SOL    HW288771   8.445   7.434   6.383
29605SOL     OW88772   8.880   8.602   6.440
29605SOL    HW188773   8.811   8.536   6.448
29605SOL    HW288774   8.896   8.608   6.346
29606SOL     OW88775   8.908   8.064   6.535
29606SOL    HW188776   8.845   7.994   6.545
29606SOL    HW288777   8.964   8.058   6.612
29607SOL     OW88778   9.278   8.242   5.972
29607SOL    HW188779   9.334   8.198   6.035
29607SOL    HW288780   9.263   8.178   5.903
29608SOL     OW88781   7.946   8.873   5.737
29608SOL    HW188782   7.871   8.840   5.786
29608SOL    HW288783   7.943   8.824   5.654
29609SOL     OW88784   9.159   8.716   6.223
29609SOL    HW188785   9.253   8.710   6.240
29609SOL    HW288786   9.136   8.806   6.247
29610SOL     OW88787   8.840   8.023   5.652
29610SOL    HW188788   8.783   7.996   5.724
29610SOL    HW288789   8.928   7.997   5.680
29611SOL     OW88790   7.975   7.706   5.888
29611SOL    HW188791   8.029   7.663   5.820
29611SOL    HW288792   7.943   7.786   5.846
29612SOL     OW88793   9.180   8.693   7.119
29612SOL    HW188794   9.267   8.656   7.106
29612SOL    HW288795   9.195   8.780   7.155
29613SOL     OW88796   8.490   8.805   6.923
29613SOL    HW188797   8.413   8.769   6.966
29613SOL    HW288798   8.564   8.758   6.962
29614SOL     OW88799   9.055   9.085   7.257
29614SOL    HW188800   9.045   9.119   7.169
29614SOL    HW288801   9.132   9.028   7.252
29615SOL     OW88802   8.598   8.686   6.692
29615SOL    HW188803   8.536   8.720   6.756
29615SOL    HW288804   8.566   8.718   6.608
29616SOL     OW88805   9.053   8.539   6.665
29616SOL    HW188806   9.046   8.605   6.733
29616SOL    HW288807   8.984   8.560   6.602
29617SOL     OW88808   8.366   7.529   6.969
29617SOL    HW188809   8.387   7.514   6.877
29617SOL    HW288810   8.445   7.570   7.005
29618SOL     OW88811   8.427   8.563   7.310
29618SOL    HW188812   8.337   8.579   7.338
29618SOL    HW288813   8.423   8.482   7.259
29619SOL     OW88814   8.163   8.511   5.962
29619SOL    HW188815   8.147   8.484   6.053
29619SOL    HW288816   8.237   8.458   5.933
29620SOL     OW88817   7.875   8.276   6.846
29620SOL    HW188818   7.942   8.285   6.912
29620SOL    HW288819   7.844   8.186   6.855
29621SOL     OW88820   8.712   7.815   6.878
29621SOL    HW188821   8.740   7.896   6.922
29621SOL    HW288822   8.623   7.834   6.848
29622SOL     OW88823   7.526   9.017   6.950
29622SOL    HW188824   7.495   9.087   6.892
29622SOL    HW288825   7.621   9.017   6.939
29623SOL     OW88826   7.765   8.582   6.072
29623SOL    HW188827   7.766   8.653   6.008
29623SOL    HW288828   7.762   8.503   6.019
29624SOL     OW88829   7.982   7.965   6.446
29624SOL    HW188830   7.994   8.024   6.371
29624SOL    HW288831   8.051   7.991   6.507
29625SOL     OW88832   8.695   8.802   5.984
29625SOL    HW188833   8.752   8.871   6.018
29625SOL    HW288834   8.607   8.826   6.014
29626SOL     OW88835   8.757   8.915   6.729
29626SOL    HW188836   8.805   8.922   6.811
29626SOL    HW288837   8.707   8.834   6.736
29627SOL     OW88838   9.020   8.066   6.071
29627SOL    HW188839   8.971   8.105   6.142
29627SOL    HW288840   9.065   8.139   6.029
29628SOL     OW88841   7.792   8.979   6.888
29628SOL    HW188842   7.785   8.926   6.808
29628SOL    HW288843   7.886   8.995   6.897
29629SOL     OW88844   7.878   8.196   7.203
29629SOL    HW188845   7.938   8.238   7.142
29629SOL    HW288846   7.919   8.111   7.222
29630SOL     OW88847   9.071   8.234   7.286
29630SOL    HW188848   8.984   8.272   7.276
29630SOL    HW288849   9.121   8.271   7.213
29631SOL     OW88850   8.444   7.588   7.344
29631SOL    HW188851   8.502   7.661   7.325
29631SOL    HW288852   8.495   7.510   7.322
29632SOL     OW88853   7.942   7.483   7.349
29632SOL    HW188854   7.888   7.433   7.289
29632SOL    HW288855   7.890   7.560   7.370
29633SOL     OW88856   8.040   8.322   6.625
29633SOL    HW188857   8.078   8.410   6.629
29633SOL    HW288858   7.982   8.318   6.701
29634SOL     OW88859   8.756   8.301   6.589
29634SOL    HW188860   8.667   8.274   6.564
29634SOL    HW288861   8.811   8.225   6.570
29635SOL     OW88862   8.646   7.971   5.843
29635SOL    HW188863   8.657   7.894   5.900
29635SOL    HW288864   8.605   8.036   5.899
29636SOL     OW88865   7.740   7.642   6.825
29636SOL    HW188866   7.705   7.670   6.909
29636SOL    HW288867   7.724   7.548   6.822
29637SOL     OW88868   7.498   8.759   6.852
29637SOL    HW188869   7.528   8.703   6.923
29637SOL    HW288870   7.501   8.848   6.888
29638SOL     OW88871   8.161   8.070   6.625
29638SOL    HW188872   8.238   8.063   6.569
29638SOL    HW288873   8.132   8.161   6.615
29639SOL     OW88874   9.193   8.415   7.459
29639SOL    HW188875   9.153   8.343   7.409
29639SOL    HW288876   9.129   8.435   7.527
29640SOL     OW88877   7.773   7.508   6.214
29640SOL    HW188878   7.740   7.596   6.232
29640SOL    HW288879   7.779   7.466   6.299
29641SOL     OW88880   9.079   7.838   5.930
29641SOL    HW188881   9.113   7.773   5.991
29641SOL    HW288882   9.049   7.910   5.985
29642SOL     OW88883   8.482   8.207   6.542
29642SOL    HW188884   8.460   8.221   6.634
29642SOL    HW288885   8.452   8.117   6.524
29643SOL     OW88886   8.429   9.013   7.321
29643SOL    HW188887   8.407   9.057   7.238
29643SOL    HW288888   8.467   8.930   7.294
29644SOL     OW88889   9.286   8.943   7.187
29644SOL    HW188890   9.312   8.970   7.099
29644SOL    HW288891   9.365   8.952   7.240
29645SOL     OW88892   7.797   8.367   7.402
29645SOL    HW188893   7.875   8.384   7.456
29645SOL    HW288894   7.827   8.305   7.336
29646SOL     OW88895   8.968   7.717   5.705
29646SOL    HW188896   8.916   7.646   5.742
29646SOL    HW288897   9.008   7.760   5.780
29647SOL     OW88898   8.729   8.269   5.606
29647SOL    HW188899   8.769   8.182   5.613
29647SOL    HW288900   8.764   8.305   5.525
29648SOL     OW88901   8.518   8.801   6.453
29648SOL    HW188902   8.529   8.728   6.391
29648SOL    HW288903   8.570   8.872   6.415
29649SOL     OW88904   7.767   8.264   6.531
29649SOL    HW188905   7.861   8.277   6.528
29649SOL    HW288906   7.756   8.174   6.561
29650SOL     OW88907   7.761   7.986   6.597
29650SOL    HW188908   7.722   7.899   6.587
29650SOL    HW288909   7.838   7.984   6.541
29651SOL     OW88910   8.586   7.815   7.271
29651SOL    HW188911   8.541   7.866   7.338
29651SOL    HW288912   8.671   7.858   7.262
29652SOL     OW88913   8.604   7.637   7.060
29652SOL    HW188914   8.592   7.699   7.132
29652SOL    HW288915   8.650   7.687   6.992
29653SOL     OW88916   7.472   8.750   5.765
29653SOL    HW188917   7.383   8.773   5.740
29653SOL    HW288918   7.465   8.664   5.806
29654SOL     OW88919   7.542   9.216   6.538
29654SOL    HW188920   7.508   9.143   6.486
29654SOL    HW288921   7.628   9.234   6.500
29655SOL     OW88922   7.933   9.018   6.487
29655SOL    HW188923   8.003   9.079   6.509
29655SOL    HW288924   7.973   8.956   6.425
29656SOL     OW88925   8.396   8.229   6.801
29656SOL    HW188926   8.458   8.217   6.872
29656SOL    HW288927   8.317   8.183   6.829
29657SOL     OW88928   7.487   8.021   6.707
29657SOL    HW188929   7.568   8.017   6.656
29657SOL    HW288930   7.515   8.012   6.798
29658SOL     OW88931   7.634   7.986   7.330
29658SOL    HW188932   7.703   7.950   7.275
29658SOL    HW288933   7.599   8.060   7.280
29659SOL     OW88934   8.837   8.368   7.237
29659SOL    HW188935   8.854   8.462   7.232
29659SOL    HW288936   8.830   8.340   7.146
29660SOL     OW88937   8.266   8.018   5.958
29660SOL    HW188938   8.275   7.943   5.898
29660SOL    HW288939   8.189   8.064   5.926
29661SOL     OW88940   9.081   8.049   6.748
29661SOL    HW188941   9.071   7.989   6.823
29661SOL    HW288942   9.171   8.037   6.720
29662SOL     OW88943   7.673   8.986   7.311
29662SOL    HW188944   7.647   9.031   7.391
29662SOL    HW288945   7.686   8.895   7.338
29663SOL     OW88946   8.182   7.881   6.820
29663SOL    HW188947   8.118   7.811   6.805
29663SOL    HW288948   8.164   7.945   6.751
29664SOL     OW88949   8.349   9.130   7.077
29664SOL    HW188950   8.328   9.080   6.998
29664SOL    HW288951   8.353   9.221   7.049
29665SOL     OW88952   7.890   7.929   5.750
29665SOL    HW188953   7.955   7.996   5.775
29665SOL    HW288954   7.806   7.975   5.754
29666SOL     OW88955   7.578   8.598   7.066
29666SOL    HW188956   7.582   8.558   7.153
29666SOL    HW288957   7.599   8.527   7.006
29667SOL     OW88958   8.750   8.482   6.795
29667SOL    HW188959   8.760   8.418   6.724
29667SOL    HW288960   8.697   8.552   6.757
29668SOL     OW88961   8.773   8.307   5.878
29668SOL    HW188962   8.702   8.271   5.932
29668SOL    HW288963   8.745   8.292   5.788
29669SOL     OW88964   9.238   9.168   6.758
29669SOL    HW188965   9.298   9.196   6.689
29669SOL    HW288966   9.204   9.084   6.728
29670SOL     OW88967   8.690   9.181   6.682
29670SOL    HW188968   8.773   9.210   6.645
29670SOL    HW288969   8.703   9.089   6.704
29671SOL     OW88970   7.554   8.696   6.594
29671SOL    HW188971   7.526   8.717   6.683
29671SOL    HW288972   7.483   8.642   6.559
29672SOL     OW88973   8.138   9.129   7.335
29672SOL    HW188974   8.073   9.198   7.322
29672SOL    HW288975   8.209   9.151   7.275
29673SOL     OW88976   9.197   7.634   6.079
29673SOL    HW188977   9.256   7.612   6.007
29673SOL    HW288978   9.168   7.549   6.113
29674SOL     OW88979   8.846   9.016   6.090
29674SOL    HW188980   8.900   9.051   6.019
29674SOL    HW288981   8.791   9.090   6.117
29675SOL     OW88982   7.579   9.257   7.430
29675SOL    HW188983   7.541   9.179   7.471
29675SOL    HW288984   7.631   9.297   7.499
29676SOL     OW88985   8.726   8.384   6.251
29676SOL    HW188986   8.800   8.324   6.264
29676SOL    HW288987   8.763   8.456   6.198
29677SOL     OW88988   8.232   8.728   6.999
29677SOL    HW188989   8.205   8.775   7.078
29677SOL    HW288990   8.157   8.737   6.940
29678SOL     OW88991   8.116   9.085   5.746
29678SOL    HW188992   8.132   9.098   5.653
29678SOL    HW288993   8.064   9.004   5.750
29679SOL     OW88994   9.065   9.176   6.987
29679SOL    HW188995   9.123   9.175   6.910
29679SOL    HW288996   9.050   9.269   7.003
29680SOL     OW88997   9.290   7.607   6.552
29680SOL    HW188998   9.320   7.518   6.531
29680SOL    HW288999   9.203   7.612   6.513
29681SOL     OW89000   7.691   7.754   6.294
29681SOL    HW189001   7.605   7.791   6.273
29681SOL    HW289002   7.695   7.756   6.390
29682SOL     OW89003   8.655   9.035   5.624
29682SOL    HW189004   8.646   8.944   5.652
29682SOL    HW289005   8.586   9.047   5.559
29683SOL     OW89006   8.271   8.459   6.971
29683SOL    HW189007   8.309   8.448   6.884
29683SOL    HW289008   8.261   8.553   6.982
29684SOL     OW89009   8.369   8.360   5.880
29684SOL    HW189010   8.426   8.393   5.811
29684SOL    HW289011   8.420   8.292   5.923
29685SOL     OW89012   8.927   9.097   5.642
29685SOL    HW189013   8.836   9.075   5.624
29685SOL    HW289014   8.968   9.100   5.556
29686SOL     OW89015   7.810   8.762   7.089
29686SOL    HW189016   7.803   8.834   7.026
29686SOL    HW289017   7.733   8.707   7.072
29687SOL     OW89018   9.045   8.738   6.863
29687SOL    HW189019   9.099   8.713   6.938
29687SOL    HW289020   8.986   8.805   6.897
29688SOL     OW89021   8.524   8.568   6.316
29688SOL    HW189022   8.449   8.518   6.347
29688SOL    HW289023   8.587   8.501   6.286
29689SOL     OW89024   8.481   7.697   6.546
29689SOL    HW189025   8.479   7.654   6.460
29689SOL    HW289026   8.474   7.625   6.609
29690SOL     OW89027   8.051   8.933   6.060
29690SOL    HW189028   8.107   8.885   5.999
29690SOL    HW289029   7.968   8.944   6.013
29691SOL     OW89030   9.190   7.828   6.975
29691SOL    HW189031   9.259   7.895   6.969
29691SOL    HW289032   9.218   7.760   6.913
29692SOL     OW89033   7.728   8.789   5.885
29692SOL    HW189034   7.641   8.781   5.846
29692SOL    HW289035   7.713   8.837   5.966
29693SOL     OW89036   7.568   8.494   7.321
29693SOL    HW189037   7.491   8.466   7.370
29693SOL    HW289038   7.640   8.443   7.358
29694SOL     OW89039   8.127   7.636   7.081
29694SOL    HW189040   8.211   7.611   7.042
29694SOL    HW289041   8.150   7.670   7.168
29695SOL     OW89042   7.533   7.765   5.602
29695SOL    HW189043   7.456   7.743   5.549
29695SOL    HW289044   7.559   7.851   5.571
29696SOL     OW89045   8.862   8.301   6.974
29696SOL    HW189046   8.810   8.360   6.919
29696SOL    HW289047   8.950   8.305   6.936
29697SOL     OW89048   7.492   7.598   5.858
29697SOL    HW189049   7.479   7.667   5.793
29697SOL    HW289050   7.580   7.565   5.842
29698SOL     OW89051   8.629   8.769   5.710
29698SOL    HW189052   8.539   8.737   5.709
29698SOL    HW289053   8.653   8.773   5.802
29699SOL     OW89054   8.074   8.279   7.028
29699SOL    HW189055   8.133   8.353   7.016
29699SOL    HW289056   8.131   8.202   7.027
29700SOL     OW89057   8.934   9.243   6.578
29700SOL    HW189058   8.960   9.320   6.527
29700SOL    HW289059   9.017   9.198   6.598
29701SOL     OW89060   8.174   7.995   7.272
29701SOL    HW189061   8.221   8.049   7.336
29701SOL    HW289062   8.184   7.905   7.304
29702SOL     OW89063   8.915   8.632   7.204
29702SOL    HW189064   8.907   8.653   7.297
29702SOL    HW289065   9.004   8.656   7.181
29703SOL     OW89066   7.799   9.189   7.163
29703SOL    HW189067   7.718   9.235   7.145
29703SOL    HW289068   7.772   9.106   7.202
29704SOL     OW89069   9.101   8.322   6.837
29704SOL    HW189070   9.099   8.239   6.790
29704SOL    HW289071   9.089   8.388   6.769
29705SOL     OW89072   8.669   7.771   6.042
29705SOL    HW189073   8.729   7.696   6.040
29705SOL    HW289074   8.698   7.822   6.117
29706SOL     OW89075   8.024   8.175   6.267
29706SOL    HW189076   8.068   8.258   6.252
29706SOL    HW289077   7.963   8.166   6.194
29707SOL     OW89078   9.189   7.804   7.251
29707SOL    HW189079   9.187   7.820   7.156
29707SOL    HW289080   9.112   7.750   7.268
29708SOL     OW89081   9.202   8.368   7.089
29708SOL    HW189082   9.190   8.462   7.101
29708SOL    HW289083   9.176   8.352   6.998
29709SOL     OW89084   8.316   8.805   5.648
29709SOL    HW189085   8.280   8.824   5.734
29709SOL    HW289086   8.328   8.892   5.608
29710SOL     OW89087   8.116   9.215   6.509
29710SOL    HW189088   8.097   9.309   6.501
29710SOL    HW289089   8.212   9.210   6.510
29711SOL     OW89090   8.320   8.425   6.442
29711SOL    HW189091   8.370   8.351   6.476
29711SOL    HW289092   8.275   8.461   6.518
29712SOL     OW89093   8.523   8.436   5.674
29712SOL    HW189094   8.501   8.487   5.596
29712SOL    HW289095   8.596   8.380   5.645
29713SOL     OW89096   9.282   9.003   6.424
29713SOL    HW189097   9.205   8.995   6.369
29713SOL    HW289098   9.264   8.947   6.499
29714SOL     OW89099   7.660   8.732   7.422
29714SOL    HW189100   7.628   8.652   7.379
29714SOL    HW289101   7.601   8.744   7.496
29715SOL     OW89102   7.566   8.675   6.253
29715SOL    HW189103   7.594   8.633   6.334
29715SOL    HW289104   7.624   8.640   6.186
29716SOL     OW89105   8.139   8.866   7.218
29716SOL    HW189106   8.062   8.827   7.260
29716SOL    HW289107   8.144   8.954   7.255
29717SOL     OW89108   9.261   7.619   6.822
29717SOL    HW189109   9.268   7.525   6.837
29717SOL    HW289110   9.272   7.630   6.728
29718SOL     OW89111   7.867   7.870   6.105
29718SOL    HW189112   7.900   7.800   6.050
29718SOL    HW289113   7.815   7.826   6.172
29719SOL     OW89114   9.141   8.928   6.668
29719SOL    HW189115   9.064   8.909   6.615
29719SOL    HW289116   9.141   8.860   6.736
29720SOL     OW89117   7.801   8.014   6.877
29720SOL    HW189118   7.850   7.949   6.928
29720SOL    HW289119   7.808   7.984   6.787
29721SOL     OW89120   8.283   9.025   6.259
29721SOL    HW189121   8.248   9.087   6.196
29721SOL    HW289122   8.212   8.963   6.274
29722SOL     OW89123   8.869   7.680   6.700
29722SOL    HW189124   8.876   7.590   6.732
29722SOL    HW289125   8.823   7.727   6.770
29723SOL     OW89126   8.458   7.465   6.705
29723SOL    HW189127   8.404   7.402   6.657
29723SOL    HW289128   8.545   7.425   6.710
29724SOL     OW89129   8.229   8.780   5.914
29724SOL    HW189130   8.204   8.689   5.926
29724SOL    HW289131   8.309   8.791   5.966
29725SOL     OW89132   8.063   9.015   6.873
29725SOL    HW189133   8.058   9.098   6.920
29725SOL    HW289134   8.153   9.012   6.840
29726SOL     OW89135   8.828   7.487   5.777
29726SOL    HW189136   8.869   7.414   5.729
29726SOL    HW289137   8.737   7.460   5.789
29727SOL     OW89138   8.746   7.919   6.261
29727SOL    HW189139   8.696   8.000   6.258
29727SOL    HW289140   8.738   7.890   6.352
29728SOL     OW89141   9.028   7.635   6.478
29728SOL    HW189142   8.977   7.664   6.553
29728SOL    HW289143   9.028   7.709   6.418
29729SOL     OW89144   7.485   8.499   5.894
29729SOL    HW189145   7.578   8.487   5.876
29729SOL    HW289146   7.453   8.411   5.915
29730SOL     OW89147   8.342   9.125   5.920
29730SOL    HW189148   8.263   9.110   5.868
29730SOL    HW289149   8.318   9.197   5.979
29731SOL     OW89150   7.656   8.071   7.595
29731SOL    HW189151   7.568   8.058   7.632
29731SOL    HW289152   7.645   8.056   7.501
29732SOL     OW89153   7.667   7.737   8.438
29732SOL    HW189154   7.698   7.701   8.521
29732SOL    HW289155   7.580   7.699   8.426
29733SOL     OW89156   7.435   7.844   8.094
29733SOL    HW189157   7.355   7.869   8.141
29733SOL    HW289158   7.408   7.771   8.039
29734SOL     OW89159   8.023   8.755   8.656
29734SOL    HW189160   7.940   8.758   8.608
29734SOL    HW289161   8.040   8.846   8.680
29735SOL     OW89162   9.038   8.970   8.153
29735SOL    HW189163   8.991   8.939   8.231
29735SOL    HW289164   8.971   8.972   8.084
29736SOL     OW89165   8.586   8.152   8.134
29736SOL    HW189166   8.632   8.235   8.123
29736SOL    HW289167   8.537   8.162   8.215
29737SOL     OW89168   9.249   8.027   7.668
29737SOL    HW189169   9.210   8.027   7.581
29737SOL    HW289170   9.205   7.955   7.714
29738SOL     OW89171   8.175   8.577   8.506
29738SOL    HW189172   8.116   8.617   8.570
29738SOL    HW289173   8.218   8.651   8.463
29739SOL     OW89174   8.336   8.192   9.276
29739SOL    HW189175   8.334   8.260   9.343
29739SOL    HW289176   8.352   8.239   9.194
29740SOL     OW89177   8.134   8.433   8.092
29740SOL    HW189178   8.201   8.433   8.160
29740SOL    HW289179   8.068   8.495   8.123
29741SOL     OW89180   8.160   8.599   9.273
29741SOL    HW189181   8.211   8.672   9.307
29741SOL    HW289182   8.082   8.640   9.234
29742SOL     OW89183   7.791   8.844   8.517
29742SOL    HW189184   7.715   8.802   8.477
29742SOL    HW289185   7.827   8.899   8.447
29743SOL     OW89186   8.901   8.955   8.819
29743SOL    HW189187   8.956   9.032   8.830
29743SOL    HW289188   8.830   8.967   8.882
29744SOL     OW89189   7.905   7.822   8.905
29744SOL    HW189190   7.980   7.765   8.920
29744SOL    HW289191   7.829   7.771   8.931
29745SOL     OW89192   9.027   7.880   8.203
29745SOL    HW189193   8.958   7.889   8.138
29745SOL    HW289194   9.011   7.950   8.266
29746SOL     OW89195   7.666   9.178   7.913
29746SOL    HW189196   7.692   9.249   7.971
29746SOL    HW289197   7.740   9.167   7.853
29747SOL     OW89198   8.582   8.790   9.142
29747SOL    HW189199   8.625   8.780   9.227
29747SOL    HW289200   8.530   8.710   9.132
29748SOL     OW89201   7.681   8.907   7.981
29748SOL    HW189202   7.659   9.000   7.986
29748SOL    HW289203   7.631   8.866   8.052
29749SOL     OW89204   7.734   8.538   8.328
29749SOL    HW189205   7.734   8.448   8.361
29749SOL    HW289206   7.677   8.585   8.388
29750SOL     OW89207   8.023   9.247   8.870
29750SOL    HW189208   7.945   9.229   8.923
29750SOL    HW289209   8.053   9.332   8.900
29751SOL     OW89210   8.014   8.435   7.600
29751SOL    HW189211   8.064   8.478   7.531
29751SOL    HW289212   8.054   8.465   7.682
29752SOL     OW89213   9.039   7.580   8.905
29752SOL    HW189214   9.076   7.658   8.864
29752SOL    HW289215   9.005   7.612   8.989
29753SOL     OW89216   7.567   8.106   8.015
29753SOL    HW189217   7.535   8.019   8.038
29753SOL    HW289218   7.561   8.157   8.096
29754SOL     OW89219   9.294   9.191   7.767
29754SOL    HW189220   9.366   9.174   7.828
29754SOL    HW289221   9.306   9.282   7.740
29755SOL     OW89222   7.510   9.027   7.557
29755SOL    HW189223   7.488   8.935   7.575
29755SOL    HW289224   7.477   9.075   7.633
29756SOL     OW89225   9.141   8.374   8.104
29756SOL    HW189226   9.226   8.333   8.092
29756SOL    HW289227   9.125   8.423   8.024
29757SOL     OW89228   9.103   8.552   7.882
29757SOL    HW189229   9.188   8.543   7.838
29757SOL    HW289230   9.119   8.617   7.951
29758SOL     OW89231   7.569   8.196   9.026
29758SOL    HW189232   7.654   8.240   9.029
29758SOL    HW289233   7.506   8.267   9.013
29759SOL     OW89234   8.071   8.846   8.178
29759SOL    HW189235   8.029   8.760   8.183
29759SOL    HW289236   8.055   8.875   8.088
29760SOL     OW89237   8.718   8.674   8.865
29760SOL    HW189238   8.746   8.605   8.805
29760SOL    HW289239   8.780   8.668   8.938
29761SOL     OW89240   8.279   7.460   7.967
29761SOL    HW189241   8.320   7.542   7.939
29761SOL    HW289242   8.185   7.478   7.967
29762SOL     OW89243   7.635   8.404   8.749
29762SOL    HW189244   7.722   8.369   8.733
29762SOL    HW289245   7.581   8.368   8.679
29763SOL     OW89246   8.980   8.464   7.649
29763SOL    HW189247   8.912   8.403   7.679
29763SOL    HW289248   9.022   8.494   7.730
29764SOL     OW89249   8.628   9.268   9.080
29764SOL    HW189250   8.629   9.328   9.006
29764SOL    HW289251   8.643   9.182   9.041
29765SOL     OW89252   7.808   7.702   9.323
29765SOL    HW189253   7.844   7.781   9.363
29765SOL    HW289254   7.713   7.718   9.319
29766SOL     OW89255   8.919   8.866   8.378
29766SOL    HW189256   8.856   8.885   8.447
29766SOL    HW289257   8.901   8.775   8.354
29767SOL     OW89258   9.092   9.233   8.014
29767SOL    HW189259   9.070   9.190   7.931
29767SOL    HW289260   9.088   9.163   8.079
29768SOL     OW89261   8.035   8.147   7.720
29768SOL    HW189262   8.038   8.235   7.681
29768SOL    HW289263   7.970   8.154   7.790
29769SOL     OW89264   8.729   7.841   8.389
29769SOL    HW189265   8.640   7.805   8.394
29769SOL    HW289266   8.781   7.783   8.444
29770SOL     OW89267   9.026   9.121   7.767
29770SOL    HW189268   9.120   9.137   7.756
29770SOL    HW289269   8.994   9.109   7.678
29771SOL     OW89270   8.237   8.061   8.879
29771SOL    HW189271   8.215   8.032   8.967
29771SOL    HW289272   8.213   7.988   8.822
29772SOL     OW89273   8.839   7.923   9.118
29772SOL    HW189274   8.844   7.967   9.204
29772SOL    HW289275   8.888   7.841   9.131
29773SOL     OW89276   8.393   8.328   9.040
29773SOL    HW189277   8.449   8.264   8.995
29773SOL    HW289278   8.344   8.370   8.970
29774SOL     OW89279   8.456   7.845   8.657
29774SOL    HW189280   8.363   7.858   8.679
29774SOL    HW289281   8.453   7.802   8.571
29775SOL     OW89282   8.506   8.145   7.866
29775SOL    HW189283   8.527   8.142   7.960
29775SOL    HW289284   8.421   8.102   7.859
29776SOL     OW89285   7.541   8.272   8.231
29776SOL    HW189286   7.623   8.267   8.280
29776SOL    HW289287   7.493   8.345   8.272
29777SOL     OW89288   7.554   9.317   9.037
29777SOL    HW189289   7.564   9.300   9.131
29777SOL    HW289290   7.471   9.276   9.014
29778SOL     OW89291   8.336   7.799   7.648
29778SOL    HW189292   8.387   7.852   7.587
29778SOL    HW289293   8.311   7.722   7.598
29779SOL     OW89294   9.130   8.010   9.285
29779SOL    HW189295   9.109   8.089   9.235
29779SOL    HW289296   9.157   7.946   9.219
29780SOL     OW89297   8.840   8.598   7.992
29780SOL    HW189298   8.920   8.586   7.941
29780SOL    HW289299   8.787   8.658   7.940
29781SOL     OW89300   7.999   7.608   8.363
29781SOL    HW189301   8.005   7.637   8.454
29781SOL    HW289302   7.995   7.690   8.312
29782SOL     OW89303   8.445   8.903   7.913
29782SOL    HW189304   8.420   8.979   7.860
29782SOL    HW289305   8.415   8.926   8.002
29783SOL     OW89306   7.802   9.264   8.326
29783SOL    HW189307   7.847   9.180   8.331
29783SOL    HW289308   7.869   9.329   8.347
29784SOL     OW89309   9.249   8.499   8.340
29784SOL    HW189310   9.200   8.488   8.259
29784SOL    HW289311   9.182   8.506   8.408
29785SOL     OW89312   8.665   8.991   8.963
29785SOL    HW189313   8.654   8.921   9.027
29785SOL    HW289314   8.600   8.972   8.895
29786SOL     OW89315   7.748   8.406   7.714
29786SOL    HW189316   7.831   8.427   7.670
29786SOL    HW289317   7.725   8.319   7.681
29787SOL     OW89318   8.930   8.210   8.158
29787SOL    HW189319   8.933   8.167   8.244
29787SOL    HW289320   9.009   8.264   8.157
29788SOL     OW89321   7.919   8.734   9.196
29788SOL    HW189322   7.895   8.738   9.104
29788SOL    HW289323   7.836   8.723   9.242
29789SOL     OW89324   8.583   9.224   7.672
29789SOL    HW189325   8.502   9.192   7.713
29789SOL    HW289326   8.603   9.158   7.606
29790SOL     OW89327   7.656   7.703   8.947
29790SOL    HW189328   7.581   7.762   8.960
29790SOL    HW289329   7.626   7.620   8.982
29791SOL     OW89330   9.071   8.840   7.546
29791SOL    HW189331   9.030   8.925   7.531
29791SOL    HW289332   9.005   8.777   7.518
29792SOL     OW89333   7.905   9.193   7.762
29792SOL    HW189334   7.954   9.242   7.827
29792SOL    HW289335   7.972   9.150   7.709
29793SOL     OW89336   8.845   7.552   7.907
29793SOL    HW189337   8.845   7.529   7.814
29793SOL    HW289338   8.935   7.536   7.935
29794SOL     OW89339   7.700   9.232   8.660
29794SOL    HW189340   7.749   9.157   8.693
29794SOL    HW289341   7.683   9.211   8.568
29795SOL     OW89342   8.396   9.146   8.337
29795SOL    HW189343   8.482   9.106   8.350
29795SOL    HW289344   8.355   9.094   8.268
29796SOL     OW89345   7.843   8.133   7.921
29796SOL    HW189346   7.856   8.039   7.934
29796SOL    HW289347   7.750   8.147   7.938
29797SOL     OW89348   8.952   7.667   9.163
29797SOL    HW189349   8.965   7.688   9.255
29797SOL    HW289350   8.889   7.596   9.163
29798SOL     OW89351   8.111   7.557   7.551
29798SOL    HW189352   8.158   7.478   7.577
29798SOL    HW289353   8.049   7.527   7.484
29799SOL     OW89354   8.206   7.720   9.202
29799SOL    HW189355   8.290   7.675   9.201
29799SOL    HW289356   8.159   7.682   9.276
29800SOL     OW89357   8.318   8.976   8.648
29800SOL    HW189358   8.300   8.934   8.563
29800SOL    HW289359   8.385   8.921   8.688
29801SOL     OW89360   8.778   8.040   8.879
29801SOL    HW189361   8.810   8.009   8.963
29801SOL    HW289362   8.816   8.127   8.868
29802SOL     OW89363   8.264   8.823   8.406
29802SOL    HW189364   8.352   8.819   8.367
29802SOL    HW289365   8.206   8.838   8.332
29803SOL     OW89366   8.378   7.963   8.336
29803SOL    HW189367   8.353   7.952   8.244
29803SOL    HW289368   8.405   7.876   8.364
29804SOL     OW89369   8.012   7.512   7.938
29804SOL    HW189370   7.934   7.512   7.993
29804SOL    HW289371   8.000   7.586   7.879
29805SOL     OW89372   8.876   8.657   7.478
29805SOL    HW189373   8.908   8.584   7.532
29805SOL    HW289374   8.791   8.680   7.516
29806SOL     OW89375   7.730   7.496   7.636
29806SOL    HW189376   7.783   7.563   7.593
29806SOL    HW289377   7.794   7.438   7.677
29807SOL     OW89378   8.400   7.699   7.899
29807SOL    HW189379   8.374   7.734   7.813
29807SOL    HW289380   8.494   7.716   7.904
29808SOL     OW89381   8.523   8.141   8.892
29808SOL    HW189382   8.461   8.069   8.897
29808SOL    HW289383   8.609   8.099   8.888
29809SOL     OW89384   8.654   9.035   8.252
29809SOL    HW189385   8.669   9.095   8.178
29809SOL    HW289386   8.729   9.048   8.309
29810SOL     OW89387   7.930   8.610   8.156
29810SOL    HW189388   7.868   8.585   8.225
29810SOL    HW289389   7.880   8.603   8.075
29811SOL     OW89390   8.700   9.237   8.063
29811SOL    HW189391   8.748   9.300   8.010
29811SOL    HW289392   8.628   9.287   8.100
29812SOL     OW89393   8.480   7.962   7.478
29812SOL    HW189394   8.438   8.046   7.459
29812SOL    HW289395   8.543   7.982   7.547
29813SOL     OW89396   7.548   7.998   8.839
29813SOL    HW189397   7.640   8.000   8.813
29813SOL    HW289398   7.540   8.068   8.905
29814SOL     OW89399   8.007   7.669   8.633
29814SOL    HW189400   8.044   7.604   8.692
29814SOL    HW289401   7.914   7.670   8.653
29815SOL     OW89402   8.318   7.903   8.077
29815SOL    HW189403   8.279   7.959   8.010
29815SOL    HW289404   8.343   7.823   8.031
29816SOL     OW89405   8.469   7.507   8.188
29816SOL    HW189406   8.408   7.501   8.114
29816SOL    HW289407   8.445   7.434   8.245
29817SOL     OW89408   8.880   8.602   8.302
29817SOL    HW189409   8.811   8.536   8.311
29817SOL    HW289410   8.896   8.608   8.208
29818SOL     OW89411   8.908   8.065   8.397
29818SOL    HW189412   8.844   7.994   8.407
29818SOL    HW289413   8.964   8.058   8.474
29819SOL     OW89414   9.278   8.242   7.834
29819SOL    HW189415   9.335   8.197   7.897
29819SOL    HW289416   9.263   8.178   7.765
29820SOL     OW89417   7.946   8.873   7.599
29820SOL    HW189418   7.871   8.841   7.648
29820SOL    HW289419   7.943   8.824   7.516
29821SOL     OW89420   9.159   8.716   8.085
29821SOL    HW189421   9.253   8.711   8.102
29821SOL    HW289422   9.135   8.806   8.108
29822SOL     OW89423   8.840   8.023   7.514
29822SOL    HW189424   8.784   7.996   7.586
29822SOL    HW289425   8.928   7.998   7.542
29823SOL     OW89426   7.975   7.705   7.750
29823SOL    HW189427   8.029   7.663   7.683
29823SOL    HW289428   7.943   7.785   7.709
29824SOL     OW89429   9.180   8.692   8.981
29824SOL    HW189430   9.267   8.655   8.968
29824SOL    HW289431   9.195   8.779   9.018
29825SOL     OW89432   8.490   8.805   8.785
29825SOL    HW189433   8.413   8.769   8.828
29825SOL    HW289434   8.564   8.758   8.824
29826SOL     OW89435   9.055   9.084   9.112
29826SOL    HW189436   9.047   9.119   9.023
29826SOL    HW289437   9.132   9.027   9.109
29827SOL     OW89438   8.598   8.686   8.554
29827SOL    HW189439   8.536   8.720   8.618
29827SOL    HW289440   8.565   8.718   8.470
29828SOL     OW89441   9.054   8.539   8.527
29828SOL    HW189442   9.046   8.606   8.595
29828SOL    HW289443   8.984   8.561   8.465
29829SOL     OW89444   8.366   7.530   8.830
29829SOL    HW189445   8.387   7.514   8.738
29829SOL    HW289446   8.445   7.570   8.867
29830SOL     OW89447   8.429   8.562   9.172
29830SOL    HW189448   8.338   8.579   9.197
29830SOL    HW289449   8.425   8.481   9.120
29831SOL     OW89450   8.162   8.510   7.824
29831SOL    HW189451   8.147   8.484   7.915
29831SOL    HW289452   8.237   8.457   7.795
29832SOL     OW89453   7.875   8.276   8.707
29832SOL    HW189454   7.942   8.286   8.774
29832SOL    HW289455   7.844   8.186   8.717
29833SOL     OW89456   8.712   7.815   8.739
29833SOL    HW189457   8.740   7.896   8.783
29833SOL    HW289458   8.623   7.834   8.709
29834SOL     OW89459   7.526   9.017   8.810
29834SOL    HW189460   7.495   9.087   8.753
29834SOL    HW289461   7.621   9.017   8.800
29835SOL     OW89462   7.765   8.582   7.934
29835SOL    HW189463   7.766   8.654   7.870
29835SOL    HW289464   7.763   8.503   7.881
29836SOL     OW89465   7.982   7.965   8.308
29836SOL    HW189466   7.994   8.023   8.233
29836SOL    HW289467   8.050   7.991   8.369
29837SOL     OW89468   8.695   8.802   7.846
29837SOL    HW189469   8.752   8.871   7.880
29837SOL    HW289470   8.607   8.826   7.876
29838SOL     OW89471   8.757   8.915   8.590
29838SOL    HW189472   8.804   8.922   8.673
29838SOL    HW289473   8.706   8.835   8.598
29839SOL     OW89474   9.020   8.065   7.933
29839SOL    HW189475   8.971   8.105   8.004
29839SOL    HW289476   9.064   8.139   7.891
29840SOL     OW89477   7.792   8.979   8.749
29840SOL    HW189478   7.785   8.926   8.670
29840SOL    HW289479   7.886   8.995   8.759
29841SOL     OW89480   7.877   8.196   9.064
29841SOL    HW189481   7.938   8.239   9.004
29841SOL    HW289482   7.918   8.111   9.084
29842SOL     OW89483   9.070   8.236   9.150
29842SOL    HW189484   8.983   8.274   9.140
29842SOL    HW289485   9.121   8.273   9.078
29843SOL     OW89486   8.444   7.590   9.209
29843SOL    HW189487   8.502   7.663   9.188
29843SOL    HW289488   8.494   7.512   9.186
29844SOL     OW89489   7.944   7.483   9.211
29844SOL    HW189490   7.890   7.433   9.150
29844SOL    HW289491   7.891   7.560   9.232
29845SOL     OW89492   8.040   8.322   8.487
29845SOL    HW189493   8.078   8.410   8.490
29845SOL    HW289494   7.982   8.318   8.563
29846SOL     OW89495   8.756   8.302   8.451
29846SOL    HW189496   8.667   8.274   8.425
29846SOL    HW289497   8.810   8.226   8.432
29847SOL     OW89498   8.646   7.971   7.705
29847SOL    HW189499   8.657   7.894   7.762
29847SOL    HW289500   8.605   8.036   7.761
29848SOL     OW89501   7.740   7.642   8.687
29848SOL    HW189502   7.705   7.669   8.772
29848SOL    HW289503   7.723   7.547   8.684
29849SOL     OW89504   7.499   8.759   8.713
29849SOL    HW189505   7.528   8.703   8.785
29849SOL    HW289506   7.501   8.848   8.750
29850SOL     OW89507   8.160   8.070   8.487
29850SOL    HW189508   8.238   8.063   8.431
29850SOL    HW289509   8.132   8.160   8.477
29851SOL     OW89510   9.197   8.417   9.322
29851SOL    HW189511   9.152   8.346   9.275
29851SOL    HW289512   9.137   8.441   9.393
29852SOL     OW89513   7.773   7.508   8.076
29852SOL    HW189514   7.740   7.596   8.094
29852SOL    HW289515   7.779   7.466   8.162
29853SOL     OW89516   9.079   7.838   7.792
29853SOL    HW189517   9.113   7.773   7.853
29853SOL    HW289518   9.049   7.910   7.847
29854SOL     OW89519   8.482   8.207   8.404
29854SOL    HW189520   8.460   8.221   8.496
29854SOL    HW289521   8.452   8.117   8.386
29855SOL     OW89522   8.429   9.014   9.180
29855SOL    HW189523   8.407   9.058   9.098
29855SOL    HW289524   8.467   8.931   9.154
29856SOL     OW89525   9.286   8.941   9.048
29856SOL    HW189526   9.313   8.969   8.961
29856SOL    HW289527   9.365   8.952   9.102
29857SOL     OW89528   7.798   8.364   9.266
29857SOL    HW189529   7.878   8.384   9.316
29857SOL    HW289530   7.826   8.303   9.199
29858SOL     OW89531   8.968   7.717   7.567
29858SOL    HW189532   8.916   7.646   7.604
29858SOL    HW289533   9.008   7.760   7.642
29859SOL     OW89534   8.729   8.269   7.468
29859SOL    HW189535   8.769   8.182   7.475
29859SOL    HW289536   8.764   8.305   7.387
29860SOL     OW89537   8.517   8.801   8.315
29860SOL    HW189538   8.529   8.728   8.253
29860SOL    HW289539   8.570   8.872   8.277
29861SOL     OW89540   7.766   8.264   8.392
29861SOL    HW189541   7.861   8.277   8.390
29861SOL    HW289542   7.756   8.174   8.423
29862SOL     OW89543   7.761   7.986   8.459
29862SOL    HW189544   7.722   7.899   8.449
29862SOL    HW289545   7.838   7.984   8.403
29863SOL     OW89546   8.586   7.816   9.132
29863SOL    HW189547   8.541   7.868   9.199
29863SOL    HW289548   8.671   7.858   9.123
29864SOL     OW89549   8.603   7.637   8.922
29864SOL    HW189550   8.592   7.700   8.993
29864SOL    HW289551   8.650   7.687   8.854
29865SOL     OW89552   7.472   8.750   7.627
29865SOL    HW189553   7.383   8.773   7.602
29865SOL    HW289554   7.465   8.664   7.668
29866SOL     OW89555   7.542   9.216   8.399
29866SOL    HW189556   7.508   9.143   8.348
29866SOL    HW289557   7.628   9.234   8.361
29867SOL     OW89558   7.933   9.018   8.349
29867SOL    HW189559   8.003   9.079   8.371
29867SOL    HW289560   7.973   8.956   8.287
29868SOL     OW89561   8.396   8.229   8.662
29868SOL    HW189562   8.458   8.217   8.734
29868SOL    HW289563   8.317   8.183   8.691
29869SOL     OW89564   7.487   8.020   8.569
29869SOL    HW189565   7.568   8.017   8.518
29869SOL    HW289566   7.515   8.012   8.660
29870SOL     OW89567   7.635   7.982   9.187
29870SOL    HW189568   7.702   7.945   9.130
29870SOL    HW289569   7.600   8.057   9.139
29871SOL     OW89570   8.836   8.368   9.098
29871SOL    HW189571   8.853   8.462   9.093
29871SOL    HW289572   8.830   8.341   9.007
29872SOL     OW89573   8.266   8.017   7.820
29872SOL    HW189574   8.275   7.943   7.760
29872SOL    HW289575   8.189   8.064   7.788
29873SOL     OW89576   9.080   8.049   8.610
29873SOL    HW189577   9.070   7.990   8.685
29873SOL    HW289578   9.171   8.037   8.582
29874SOL     OW89579   7.672   8.989   9.171
29874SOL    HW189580   7.652   9.042   9.248
29874SOL    HW289581   7.683   8.900   9.205
29875SOL     OW89582   8.182   7.881   8.682
29875SOL    HW189583   8.118   7.811   8.667
29875SOL    HW289584   8.164   7.945   8.613
29876SOL     OW89585   8.349   9.130   8.938
29876SOL    HW189586   8.328   9.080   8.858
29876SOL    HW289587   8.352   9.221   8.909
29877SOL     OW89588   7.890   7.929   7.612
29877SOL    HW189589   7.955   7.995   7.637
29877SOL    HW289590   7.806   7.975   7.616
29878SOL     OW89591   7.578   8.598   8.928
29878SOL    HW189592   7.582   8.559   9.015
29878SOL    HW289593   7.599   8.526   8.868
29879SOL     OW89594   8.751   8.482   8.656
29879SOL    HW189595   8.760   8.419   8.585
29879SOL    HW289596   8.698   8.552   8.619
29880SOL     OW89597   8.773   8.307   7.740
29880SOL    HW189598   8.703   8.272   7.794
29880SOL    HW289599   8.745   8.292   7.650
29881SOL     OW89600   9.238   9.168   8.619
29881SOL    HW189601   9.298   9.196   8.550
29881SOL    HW289602   9.205   9.084   8.590
29882SOL     OW89603   8.689   9.181   8.544
29882SOL    HW189604   8.773   9.210   8.507
29882SOL    HW289605   8.703   9.089   8.566
29883SOL     OW89606   7.554   8.696   8.456
29883SOL    HW189607   7.526   8.717   8.545
29883SOL    HW289608   7.483   8.642   8.421
29884SOL     OW89609   8.138   9.128   9.199
29884SOL    HW189610   8.074   9.198   9.184
29884SOL    HW289611   8.211   9.150   9.140
29885SOL     OW89612   9.197   7.633   7.941
29885SOL    HW189613   9.256   7.612   7.869
29885SOL    HW289614   9.169   7.548   7.975
29886SOL     OW89615   8.846   9.016   7.952
29886SOL    HW189616   8.900   9.051   7.881
29886SOL    HW289617   8.791   9.090   7.979
29887SOL     OW89618   7.587   9.253   9.296
29887SOL    HW189619   7.543   9.180   9.340
29887SOL    HW289620   7.638   9.295   9.365
29888SOL     OW89621   8.726   8.384   8.113
29888SOL    HW189622   8.800   8.324   8.125
29888SOL    HW289623   8.763   8.456   8.060
29889SOL     OW89624   8.231   8.728   8.860
29889SOL    HW189625   8.204   8.775   8.939
29889SOL    HW289626   8.157   8.737   8.800
29890SOL     OW89627   8.116   9.085   7.608
29890SOL    HW189628   8.133   9.098   7.514
29890SOL    HW289629   8.064   9.005   7.612
29891SOL     OW89630   9.065   9.178   8.845
29891SOL    HW189631   9.122   9.177   8.769
29891SOL    HW289632   9.049   9.271   8.862
29892SOL     OW89633   9.290   7.606   8.413
29892SOL    HW189634   9.320   7.518   8.392
29892SOL    HW289635   9.203   7.612   8.374
29893SOL     OW89636   7.691   7.754   8.156
29893SOL    HW189637   7.605   7.791   8.135
29893SOL    HW289638   7.695   7.756   8.252
29894SOL     OW89639   8.656   9.035   7.486
29894SOL    HW189640   8.646   8.944   7.514
29894SOL    HW289641   8.586   9.047   7.422
29895SOL     OW89642   8.271   8.459   8.833
29895SOL    HW189643   8.308   8.449   8.745
29895SOL    HW289644   8.260   8.553   8.844
29896SOL     OW89645   8.369   8.359   7.742
29896SOL    HW189646   8.426   8.393   7.673
29896SOL    HW289647   8.420   8.291   7.785
29897SOL     OW89648   8.927   9.097   7.504
29897SOL    HW189649   8.836   9.075   7.486
29897SOL    HW289650   8.969   9.100   7.418
29898SOL     OW89651   7.809   8.761   8.950
29898SOL    HW189652   7.802   8.834   8.888
29898SOL    HW289653   7.732   8.708   8.933
29899SOL     OW89654   9.046   8.738   8.726
29899SOL    HW189655   9.099   8.713   8.802
29899SOL    HW289656   8.987   8.805   8.760
29900SOL     OW89657   8.524   8.568   8.178
29900SOL    HW189658   8.449   8.518   8.209
29900SOL    HW289659   8.587   8.501   8.148
29901SOL     OW89660   8.481   7.697   8.408
29901SOL    HW189661   8.479   7.654   8.322
29901SOL    HW289662   8.474   7.625   8.471
29902SOL     OW89663   8.051   8.933   7.922
29902SOL    HW189664   8.107   8.885   7.861
29902SOL    HW289665   7.968   8.945   7.875
29903SOL     OW89666   9.190   7.829   8.836
29903SOL    HW189667   9.258   7.896   8.830
29903SOL    HW289668   9.218   7.761   8.774
29904SOL     OW89669   7.728   8.789   7.747
29904SOL    HW189670   7.641   8.781   7.708
29904SOL    HW289671   7.713   8.837   7.828
29905SOL     OW89672   7.571   8.496   9.184
29905SOL    HW189673   7.493   8.468   9.232
29905SOL    HW289674   7.642   8.444   9.221
29906SOL     OW89675   8.127   7.637   8.944
29906SOL    HW189676   8.210   7.612   8.905
29906SOL    HW289677   8.149   7.670   9.031
29907SOL     OW89678   7.533   7.766   7.463
29907SOL    HW189679   7.456   7.744   7.410
29907SOL    HW289680   7.561   7.852   7.432
29908SOL     OW89681   8.863   8.302   8.835
29908SOL    HW189682   8.811   8.361   8.780
29908SOL    HW289683   8.951   8.306   8.797
29909SOL     OW89684   7.491   7.597   7.720
29909SOL    HW189685   7.479   7.667   7.656
29909SOL    HW289686   7.580   7.565   7.703
29910SOL     OW89687   8.629   8.769   7.572
29910SOL    HW189688   8.539   8.738   7.571
29910SOL    HW289689   8.653   8.773   7.664
29911SOL     OW89690   8.073   8.279   8.890
29911SOL    HW189691   8.132   8.354   8.879
29911SOL    HW289692   8.131   8.203   8.889
29912SOL     OW89693   8.934   9.243   8.440
29912SOL    HW189694   8.960   9.320   8.389
29912SOL    HW289695   9.016   9.198   8.459
29913SOL     OW89696   8.173   7.995   9.135
29913SOL    HW189697   8.219   8.049   9.199
29913SOL    HW289698   8.183   7.906   9.167
29914SOL     OW89699   8.915   8.631   9.068
29914SOL    HW189700   8.908   8.650   9.162
29914SOL    HW289701   9.004   8.655   9.045
29915SOL     OW89702   7.801   9.190   9.023
29915SOL    HW189703   7.718   9.237   9.007
29915SOL    HW289704   7.773   9.107   9.062
29916SOL     OW89705   9.102   8.322   8.699
29916SOL    HW189706   9.100   8.239   8.652
29916SOL    HW289707   9.090   8.389   8.631
29917SOL     OW89708   8.669   7.771   7.904
29917SOL    HW189709   8.729   7.696   7.902
29917SOL    HW289710   8.698   7.822   7.979
29918SOL     OW89711   8.024   8.174   8.129
29918SOL    HW189712   8.067   8.258   8.114
29918SOL    HW289713   7.963   8.165   8.056
29919SOL     OW89714   9.188   7.802   9.110
29919SOL    HW189715   9.186   7.818   9.016
29919SOL    HW289716   9.111   7.748   9.127
29920SOL     OW89717   9.201   8.368   8.951
29920SOL    HW189718   9.189   8.462   8.963
29920SOL    HW289719   9.176   8.352   8.861
29921SOL     OW89720   8.317   8.805   7.510
29921SOL    HW189721   8.280   8.824   7.596
29921SOL    HW289722   8.328   8.892   7.470
29922SOL     OW89723   8.116   9.215   8.372
29922SOL    HW189724   8.098   9.309   8.363
29922SOL    HW289725   8.212   9.210   8.371
29923SOL     OW89726   8.320   8.425   8.304
29923SOL    HW189727   8.370   8.351   8.338
29923SOL    HW289728   8.275   8.461   8.380
29924SOL     OW89729   8.523   8.435   7.535
29924SOL    HW189730   8.501   8.487   7.458
29924SOL    HW289731   8.595   8.380   7.507
29925SOL     OW89732   9.282   9.003   8.286
29925SOL    HW189733   9.204   8.995   8.231
29925SOL    HW289734   9.264   8.947   8.361
29926SOL     OW89735   7.659   8.736   9.284
29926SOL    HW189736   7.628   8.656   9.241
29926SOL    HW289737   7.597   8.750   9.355
29927SOL     OW89738   7.566   8.675   8.115
29927SOL    HW189739   7.594   8.633   8.196
29927SOL    HW289740   7.624   8.640   8.048
29928SOL     OW89741   8.136   8.867   9.078
29928SOL    HW189742   8.059   8.828   9.120
29928SOL    HW289743   8.143   8.955   9.116
29929SOL     OW89744   9.263   7.620   8.684
29929SOL    HW189745   9.269   7.526   8.699
29929SOL    HW289746   9.273   7.630   8.589
29930SOL     OW89747   7.867   7.871   7.966
29930SOL    HW189748   7.900   7.800   7.912
29930SOL    HW289749   7.815   7.826   8.033
29931SOL     OW89750   9.141   8.927   8.531
29931SOL    HW189751   9.064   8.909   8.477
29931SOL    HW289752   9.141   8.860   8.598
29932SOL     OW89753   7.801   8.014   8.740
29932SOL    HW189754   7.850   7.949   8.790
29932SOL    HW289755   7.808   7.984   8.649
29933SOL     OW89756   8.283   9.025   8.121
29933SOL    HW189757   8.248   9.087   8.057
29933SOL    HW289758   8.212   8.963   8.136
29934SOL     OW89759   8.869   7.680   8.562
29934SOL    HW189760   8.877   7.590   8.594
29934SOL    HW289761   8.823   7.727   8.632
29935SOL     OW89762   8.458   7.465   8.567
29935SOL    HW189763   8.404   7.402   8.519
29935SOL    HW289764   8.544   7.425   8.571
29936SOL     OW89765   8.228   8.780   7.776
29936SOL    HW189766   8.204   8.688   7.788
29936SOL    HW289767   8.309   8.791   7.828
29937SOL     OW89768   8.063   9.016   8.735
29937SOL    HW189769   8.058   9.099   8.781
29937SOL    HW289770   8.153   9.012   8.702
29938SOL     OW89771   8.828   7.487   7.639
29938SOL    HW189772   8.869   7.414   7.592
29938SOL    HW289773   8.737   7.460   7.651
29939SOL     OW89774   8.746   7.919   8.123
29939SOL    HW189775   8.696   8.000   8.120
29939SOL    HW289776   8.738   7.889   8.214
29940SOL     OW89777   9.028   7.635   8.340
29940SOL    HW189778   8.977   7.664   8.415
29940SOL    HW289779   9.028   7.709   8.280
29941SOL     OW89780   7.485   8.499   7.756
29941SOL    HW189781   7.578   8.487   7.738
29941SOL    HW289782   7.453   8.411   7.777
29942SOL     OW89783   8.342   9.125   7.782
29942SOL    HW189784   8.263   9.110   7.730
29942SOL    HW289785   8.318   9.197   7.841
29943SOL     OW89786   7.659   8.054   9.454
29943SOL    HW189787   7.570   8.044   9.488
29943SOL    HW289788   7.650   8.047   9.359
29944SOL     OW89789   9.251   8.026   9.522
29944SOL    HW189790   9.209   8.026   9.436
29944SOL    HW289791   9.204   7.958   9.572
29945SOL     OW89792   7.659   9.205   9.767
29945SOL    HW189793   7.682   9.279   9.822
29945SOL    HW289794   7.739   9.185   9.719
29946SOL     OW89795   7.672   8.914   9.844
29946SOL    HW189796   7.648   8.997   9.886
29946SOL    HW289797   7.605   8.852   9.872
29947SOL     OW89798   8.019   8.433   9.451
29947SOL    HW189799   8.069   8.476   9.383
29947SOL    HW289800   8.059   8.462   9.533
29948SOL     OW89801   7.513   8.124   9.883
29948SOL    HW189802   7.427   8.089   9.859
29948SOL    HW289803   7.494   8.201   9.935
29949SOL     OW89804   9.275   9.199   9.641
29949SOL    HW189805   9.350   9.178   9.696
29949SOL    HW289806   9.294   9.285   9.605
29950SOL     OW89807   7.500   9.037   9.431
29950SOL    HW189808   7.485   8.944   9.446
29950SOL    HW289809   7.463   9.080   9.508
29951SOL     OW89810   9.123   8.318   9.916
29951SOL    HW189811   9.190   8.339   9.980
29951SOL    HW289812   9.114   8.397   9.863
29952SOL     OW89813   9.135   8.549   9.761
29952SOL    HW189814   9.219   8.551   9.716
29952SOL    HW289815   9.132   8.633   9.809
29953SOL     OW89816   8.088   8.791   9.992
29953SOL    HW189817   8.032   8.713   9.990
29953SOL    HW289818   8.065   8.840   9.913
29954SOL     OW89819   8.266   7.477   9.827
29954SOL    HW189820   8.311   7.556   9.798
29954SOL    HW289821   8.174   7.502   9.829
29955SOL     OW89822   9.002   8.473   9.522
29955SOL    HW189823   8.942   8.403   9.548
29955SOL    HW289824   9.039   8.503   9.605
29956SOL     OW89825   8.033   8.147   9.583
29956SOL    HW189826   8.041   8.233   9.542
29956SOL    HW289827   7.974   8.161   9.657
29957SOL     OW89828   9.007   9.123   9.625
29957SOL    HW189829   9.101   9.144   9.632
29957SOL    HW289830   8.992   9.111   9.532
29958SOL     OW89831   8.494   8.138   9.734
29958SOL    HW189832   8.522   8.114   9.823
29958SOL    HW289833   8.408   8.096   9.724
29959SOL     OW89834   7.501   8.331   0.069
29959SOL    HW189835   7.574   8.284   0.108
29959SOL    HW289836   7.478   8.398   0.133
29960SOL     OW89837   8.339   7.796   9.503
29960SOL    HW189838   8.388   7.852   9.444
29960SOL    HW289839   8.323   7.716   9.453
29961SOL     OW89840   8.763   8.543   9.796
29961SOL    HW189841   8.814   8.572   9.871
29961SOL    HW289842   8.738   8.623   9.751
29962SOL     OW89843   8.441   8.883   9.783
29962SOL    HW189844   8.411   8.969   9.751
29962SOL    HW289845   8.413   8.881   9.874
29963SOL     OW89846   7.772   9.318   0.174
29963SOL    HW189847   7.768   9.227   0.204
29963SOL    HW289848   7.866   9.339   0.175
29964SOL     OW89849   7.764   8.406   9.575
29964SOL    HW189850   7.845   8.421   9.526
29964SOL    HW289851   7.724   8.330   9.534
29965SOL     OW89852   8.585   9.224   9.541
29965SOL    HW189853   8.506   9.191   9.585
29965SOL    HW289854   8.605   9.158   9.475
29966SOL     OW89855   9.070   8.844   9.399
29966SOL    HW189856   9.026   8.929   9.386
29966SOL    HW289857   9.004   8.779   9.375
29967SOL     OW89858   7.916   9.211   9.634
29967SOL    HW189859   7.967   9.229   9.713
29967SOL    HW289860   7.977   9.163   9.577
29968SOL     OW89861   8.873   7.599   9.738
29968SOL    HW189862   8.862   7.557   9.652
29968SOL    HW289863   8.968   7.602   9.750
29969SOL     OW89864   7.844   8.136   9.800
29969SOL    HW189865   7.848   8.043   9.820
29969SOL    HW289866   7.751   8.156   9.794
29970SOL     OW89867   8.109   7.555   9.416
29970SOL    HW189868   8.154   7.475   9.443
29970SOL    HW289869   8.048   7.527   9.348
29971SOL     OW89870   7.993   7.547   9.840
29971SOL    HW189871   7.901   7.541   9.866
29971SOL    HW289872   7.993   7.604   9.764
29972SOL     OW89873   8.881   8.652   9.343
29972SOL    HW189874   8.917   8.586   9.402
29972SOL    HW289875   8.795   8.672   9.379
29973SOL     OW89876   7.733   7.502   9.500
29973SOL    HW189877   7.783   7.567   9.452
29973SOL    HW289878   7.799   7.449   9.545
29974SOL     OW89879   8.397   7.709   9.757
29974SOL    HW189880   8.372   7.739   9.670
29974SOL    HW289881   8.490   7.727   9.764
29975SOL     OW89882   7.892   8.599   0.033
29975SOL    HW189883   7.822   8.632   0.089
29975SOL    HW289884   7.850   8.583   9.949
29976SOL     OW89885   8.747   9.281   9.903
29976SOL    HW189886   8.794   9.340   9.844
29976SOL    HW289887   8.657   9.313   9.903
29977SOL     OW89888   8.480   7.965   9.338
29977SOL    HW189889   8.437   8.048   9.319
29977SOL    HW289890   8.543   7.986   9.407
29978SOL     OW89891   8.293   7.889   9.941
29978SOL    HW189892   8.255   7.952   9.880
29978SOL    HW289893   8.325   7.818   9.886
29979SOL     OW89894   9.361   8.253   9.633
29979SOL    HW189895   9.367   8.216   9.720
29979SOL    HW289896   9.315   8.187   9.581
29980SOL     OW89897   7.942   8.875   9.463
29980SOL    HW189898   7.867   8.841   9.511
29980SOL    HW289899   7.943   8.826   9.381
29981SOL     OW89900   8.837   8.023   9.371
29981SOL    HW189901   8.781   8.000   9.445
29981SOL    HW289902   8.925   7.997   9.399
29982SOL     OW89903   7.990   7.708   9.624
29982SOL    HW189904   8.037   7.663   9.554
29982SOL    HW289905   7.952   7.785   9.582
29983SOL     OW89906   8.154   8.501   9.685
29983SOL    HW189907   8.121   8.453   9.761
29983SOL    HW289908   8.235   8.455   9.661
29984SOL     OW89909   7.758   8.574   9.797
29984SOL    HW189910   7.758   8.650   9.739
29984SOL    HW289911   7.766   8.499   9.738
29985SOL     OW89912   8.686   8.802   9.692
29985SOL    HW189913   8.742   8.873   9.723
29985SOL    HW289914   8.599   8.822   9.727
29986SOL     OW89915   9.080   8.086   9.788
29986SOL    HW189916   9.085   8.162   9.847
29986SOL    HW289917   9.023   8.115   9.716
29987SOL     OW89918   8.644   7.979   9.565
29987SOL    HW189919   8.651   7.903   9.623
29987SOL    HW289920   8.604   8.048   9.620
29988SOL     OW89921   7.730   7.537   9.928
29988SOL    HW189922   7.662   7.602   9.945
29988SOL    HW289923   7.746   7.496   0.012
29989SOL     OW89924   9.080   7.844   9.654
29989SOL    HW189925   9.104   7.767   9.707
29989SOL    HW289926   9.070   7.915   9.718
29990SOL     OW89927   8.967   7.722   9.425
29990SOL    HW189928   8.915   7.650   9.460
29990SOL    HW289929   9.006   7.764   9.502
29991SOL     OW89930   8.729   8.272   9.331
29991SOL    HW189931   8.767   8.184   9.337
29991SOL    HW289932   8.763   8.307   9.249
29992SOL     OW89933   7.472   8.763   9.484
29992SOL    HW189934   7.381   8.782   9.459
29992SOL    HW289935   7.468   8.676   9.524
29993SOL     OW89936   8.255   8.007   9.682
29993SOL    HW189937   8.268   7.938   9.617
29993SOL    HW289938   8.182   8.059   9.649
29994SOL     OW89939   7.895   7.925   9.483
29994SOL    HW189940   7.956   7.994   9.506
29994SOL    HW289941   7.809   7.968   9.481
29995SOL     OW89942   8.816   8.291   9.606
29995SOL    HW189943   8.761   8.341   9.666
29995SOL    HW289944   8.763   8.283   9.526
29996SOL     OW89945   9.158   7.606   9.769
29996SOL    HW189946   9.229   7.607   9.704
29996SOL    HW289947   9.174   7.527   9.820
29997SOL     OW89948   8.811   9.036   9.794
29997SOL    HW189949   8.881   9.055   9.732
29997SOL    HW289950   8.783   9.122   9.825
29998SOL     OW89951   8.115   9.088   9.473
29998SOL    HW189952   8.132   9.099   9.379
29998SOL    HW289953   8.062   9.008   9.478
29999SOL     OW89954   8.654   9.040   9.348
29999SOL    HW189955   8.646   8.948   9.373
29999SOL    HW289956   8.584   9.053   9.283
30000SOL     OW89957   8.372   8.362   9.613
30000SOL    HW189958   8.429   8.391   9.541
30000SOL    HW289959   8.422   8.292   9.657
30001SOL     OW89960   8.927   9.099   9.356
30001SOL    HW189961   8.836   9.077   9.339
30001SOL    HW289962   8.968   9.100   9.269
30002SOL     OW89963   8.038   8.927   9.760
30002SOL    HW189964   8.100   8.883   9.702
30002SOL    HW289965   7.955   8.927   9.713
30003SOL     OW89966   7.726   8.790   9.614
30003SOL    HW189967   7.640   8.785   9.572
30003SOL    HW289968   7.711   8.843   9.693
30004SOL     OW89969   7.531   7.764   9.323
30004SOL    HW189970   7.455   7.743   9.269
30004SOL    HW289971   7.560   7.850   9.292
30005SOL     OW89972   7.490   7.603   9.577
30005SOL    HW189973   7.482   7.668   9.508
30005SOL    HW289974   7.579   7.568   9.566
30006SOL     OW89975   8.628   8.770   9.423
30006SOL    HW189976   8.537   8.738   9.423
30006SOL    HW289977   8.651   8.775   9.516
30007SOL     OW89978   8.664   7.783   9.768
30007SOL    HW189979   8.739   7.724   9.760
30007SOL    HW289980   8.684   7.836   9.845
30008SOL     OW89981   8.053   8.301   9.886
30008SOL    HW189982   8.061   8.297   9.982
30008SOL    HW289983   7.982   8.241   9.865
30009SOL     OW89984   8.317   8.806   9.363
30009SOL    HW189985   8.282   8.822   9.451
30009SOL    HW289986   8.329   8.893   9.326
30010SOL     OW89987   8.519   8.430   9.398
30010SOL    HW189988   8.500   8.484   9.321
30010SOL    HW289989   8.593   8.376   9.371
30011SOL     OW89990   7.512   8.696   9.899
30011SOL    HW189991   7.501   8.697   9.994
30011SOL    HW289992   7.580   8.630   9.884
30012SOL     OW89993   7.858   7.874   9.865
30012SOL    HW189994   7.905   7.810   9.811
30012SOL    HW289995   7.894   7.862   9.953
30013SOL     OW89996   8.229   8.776   9.628
30013SOL    HW189997   8.204   8.685   9.644
30013SOL    HW289998   8.306   8.790   9.683
30014SOL     OW89999   8.826   7.490   9.492
30014SOL    HW190000   8.868   7.413   9.452
30014SOL    HW290001   8.736   7.461   9.508
30015SOL     OW90002   7.505   8.517   9.600
30015SOL    HW190003   7.600   8.510   9.592
30015SOL    HW290004   7.474   8.427   9.603
30016SOL     OW90005   8.343   9.122   9.665
30016SOL    HW190006   8.267   9.105   9.610
30016SOL    HW290007   8.315   9.193   9.723
30017SOL     OW90008   7.659   9.601   0.997
30017SOL    HW190009   7.690   9.560   1.077
30017SOL    HW290010   7.574   9.562   0.981
30018SOL     OW90011   7.435   9.687   0.647
30018SOL    HW190012   7.356   9.706   0.697
30018SOL    HW290013   7.410   9.615   0.588
30019SOL     OW90014   9.197   9.893   0.196
30019SOL    HW190015   9.197   9.860   0.106
30019SOL    HW290016   9.153   9.825   0.247
30020SOL     OW90017   7.869   9.721   1.497
30020SOL    HW190018   7.953   9.677   1.491
30020SOL    HW290019   7.804   9.651   1.492
30021SOL     OW90020   9.033   9.717   0.755
30021SOL    HW190021   8.957   9.727   0.696
30021SOL    HW290022   9.016   9.780   0.825
30022SOL     OW90023   9.040   9.442   1.453
30022SOL    HW190024   9.086   9.517   1.413
30022SOL    HW290025   9.009   9.476   1.537
30023SOL     OW90026   7.481   9.965   0.608
30023SOL    HW190027   7.476   9.870   0.617
30023SOL    HW290028   7.574   9.984   0.605
30024SOL     OW90029   8.282   9.338   0.522
30024SOL    HW190030   8.319   9.423   0.496
30024SOL    HW290031   8.188   9.353   0.526
30025SOL     OW90032   7.794   9.549   1.837
30025SOL    HW190033   7.817   9.635   1.802
30025SOL    HW290034   7.700   9.555   1.853
30026SOL     OW90035   8.723   9.682   0.940
30026SOL    HW190036   8.635   9.646   0.941
30026SOL    HW290037   8.773   9.625   0.998
30027SOL     OW90038   8.298   9.833   1.432
30027SOL    HW190039   8.255   9.842   1.517
30027SOL    HW290040   8.226   9.823   1.370
30028SOL     OW90041   8.850   9.783   1.679
30028SOL    HW190042   8.876   9.820   1.763
30028SOL    HW290043   8.887   9.695   1.679
30029SOL     OW90044   8.459   9.762   1.227
30029SOL    HW190045   8.407   9.781   1.305
30029SOL    HW290046   8.403   9.704   1.175
30030SOL     OW90047   8.513   9.982   0.435
30030SOL    HW190048   8.499   0.058   0.492
30030SOL    HW290049   8.426   9.958   0.405
30031SOL     OW90050   8.271   9.642   0.194
30031SOL    HW190051   8.277   9.690   0.111
30031SOL    HW290052   8.288   9.551   0.171
30032SOL     OW90053   9.149   9.907   1.814
30032SOL    HW190054   9.151   9.973   1.745
30032SOL    HW290055   9.168   9.824   1.770
30033SOL     OW90056   7.997   9.471   0.912
30033SOL    HW190057   8.002   9.498   1.004
30033SOL    HW290058   7.997   9.553   0.863
30034SOL     OW90059   8.934   0.020   0.734
30034SOL    HW190060   8.925   9.971   0.816
30034SOL    HW290061   8.974   0.103   0.760
30035SOL     OW90062   7.647   9.558   1.497
30035SOL    HW190063   7.587   9.619   1.539
30035SOL    HW290064   7.618   9.472   1.526
30036SOL     OW90065   8.846   9.406   0.448
30036SOL    HW190066   8.844   9.384   0.355
30036SOL    HW290067   8.937   9.395   0.473
30037SOL     OW90068   8.953   9.524   1.710
30037SOL    HW190069   8.961   9.541   1.804
30037SOL    HW290070   8.891   9.452   1.704
30038SOL     OW90071   8.039   9.402   0.123
30038SOL    HW190072   8.131   9.381   0.136
30038SOL    HW290073   8.028   9.407   0.028
30039SOL     OW90074   8.207   9.574   1.749
30039SOL    HW190075   8.292   9.529   1.748
30039SOL    HW290076   8.161   9.536   1.824
30040SOL     OW90077   8.832   9.898   1.423
30040SOL    HW190078   8.829   9.867   1.513
30040SOL    HW290079   8.884   9.978   1.427
30041SOL     OW90080   8.387   9.798   0.898
30041SOL    HW190081   8.357   9.783   0.808
30041SOL    HW290082   8.422   9.713   0.926
30042SOL     OW90083   8.012   9.390   0.499
30042SOL    HW190084   7.935   9.386   0.556
30042SOL    HW290085   8.006   9.475   0.457
30043SOL     OW90086   8.390   9.583   0.446
30043SOL    HW190087   8.366   9.611   0.358
30043SOL    HW290088   8.485   9.595   0.451
30044SOL     OW90089   8.522   9.950   1.563
30044SOL    HW190090   8.456   9.910   1.508
30044SOL    HW290091   8.559   0.020   1.509
30045SOL     OW90092   8.556   9.874   0.027
30045SOL    HW190093   8.467   9.838   0.023
30045SOL    HW290094   8.580   9.865   0.119
30046SOL     OW90095   7.522   9.892   1.379
30046SOL    HW190096   7.617   9.895   1.368
30046SOL    HW290097   7.498   9.981   1.406
30047SOL     OW90098   8.001   9.537   1.180
30047SOL    HW190099   8.045   9.487   1.249
30047SOL    HW290100   7.908   9.528   1.200
30048SOL     OW90101   8.310   9.772   0.645
30048SOL    HW190102   8.289   9.854   0.598
30048SOL    HW290103   8.329   9.710   0.575
30049SOL     OW90104   8.473   9.355   0.734
30049SOL    HW190105   8.409   9.354   0.663
30049SOL    HW290106   8.447   9.284   0.793
30050SOL     OW90107   8.930   9.873   0.959
30050SOL    HW190108   8.853   9.820   0.980
30050SOL    HW290109   8.974   9.884   1.044
30051SOL     OW90110   7.996   9.605   0.309
30051SOL    HW190111   7.992   9.534   0.245
30051SOL    HW290112   8.083   9.642   0.298
30052SOL     OW90113   8.369   9.391   1.381
30052SOL    HW190114   8.391   9.371   1.290
30052SOL    HW290115   8.448   9.432   1.416
30053SOL     OW90116   8.715   9.688   1.294
30053SOL    HW190117   8.755   9.764   1.336
30053SOL    HW290118   8.629   9.718   1.265
30054SOL     OW90119   7.999   9.764   0.866
30054SOL    HW190120   8.000   9.760   0.770
30054SOL    HW290121   8.066   9.828   0.888
30055SOL     OW90122   9.030   9.924   0.500
30055SOL    HW190123   8.994   9.951   0.584
30055SOL    HW290124   9.120   9.956   0.501
30056SOL     OW90125   8.446   9.445   1.763
30056SOL    HW190126   8.506   9.517   1.746
30056SOL    HW290127   8.495   9.366   1.739
30057SOL     OW90128   7.942   9.333   1.758
30057SOL    HW190129   7.890   9.281   1.697
30057SOL    HW290130   7.888   9.410   1.776
30058SOL     OW90131   8.668   9.841   0.272
30058SOL    HW190132   8.684   9.758   0.318
30058SOL    HW290133   8.621   9.895   0.335
30059SOL     OW90134   7.737   9.498   1.241
30059SOL    HW190135   7.698   9.525   1.323
30059SOL    HW290136   7.722   9.404   1.237
30060SOL     OW90137   8.174   9.935   1.002
30060SOL    HW190138   8.257   9.899   0.970
30060SOL    HW290139   8.180   0.029   0.982
30061SOL     OW90140   7.767   9.375   0.631
30061SOL    HW190141   7.738   9.463   0.652
30061SOL    HW290142   7.774   9.331   0.716
30062SOL     OW90143   9.066   9.693   0.347
30062SOL    HW190144   9.108   9.628   0.402
30062SOL    HW290145   9.042   9.764   0.407
30063SOL     OW90146   8.915   9.613   0.129
30063SOL    HW190147   8.881   9.527   0.153
30063SOL    HW290148   8.967   9.640   0.205
30064SOL     OW90149   7.769   0.056   0.899
30064SOL    HW190150   7.846   0.112   0.910
30064SOL    HW290151   7.783   9.984   0.961
30065SOL     OW90152   7.806   9.821   1.046
30065SOL    HW190153   7.751   9.744   1.031
30065SOL    HW290154   7.882   9.808   0.990
30066SOL     OW90155   8.593   9.668   1.693
30066SOL    HW190156   8.539   9.725   1.746
30066SOL    HW290157   8.673   9.719   1.676
30067SOL     OW90158   8.604   9.502   1.470
30067SOL    HW190159   8.594   9.559   1.546
30067SOL    HW290160   8.650   9.556   1.406
30068SOL     OW90161   7.474   9.846   1.109
30068SOL    HW190162   7.552   9.830   1.057
30068SOL    HW290163   7.507   9.860   1.198
30069SOL     OW90164   7.718   9.811   1.724
30069SOL    HW190165   7.765   9.796   1.642
30069SOL    HW290166   7.760   9.888   1.763
30070SOL     OW90167   8.283   9.901   0.307
30070SOL    HW190168   8.270   9.813   0.273
30070SOL    HW290169   8.195   9.933   0.325
30071SOL     OW90170   9.088   9.899   1.186
30071SOL    HW190171   9.071   9.844   1.262
30071SOL    HW290172   9.172   9.868   1.152
30072SOL     OW90173   8.122   9.785   1.229
30072SOL    HW190174   8.077   9.705   1.201
30072SOL    HW290175   8.127   9.839   1.150
30073SOL     OW90176   8.323   9.383   0.102
30073SOL    HW190177   8.320   9.361   0.009
30073SOL    HW290178   8.401   9.338   0.135
30074SOL     OW90179   9.199   9.483   0.482
30074SOL    HW190180   9.264   9.460   0.416
30074SOL    HW290181   9.172   9.399   0.520
30075SOL     OW90182   9.292   9.469   0.964
30075SOL    HW190183   9.323   9.380   0.946
30075SOL    HW290184   9.203   9.470   0.930
30076SOL     OW90185   7.694   9.624   0.715
30076SOL    HW190186   7.605   9.652   0.692
30076SOL    HW290187   7.694   9.624   0.811
30077SOL     OW90188   8.485   9.541   0.949
30077SOL    HW190189   8.484   9.491   0.867
30077SOL    HW290190   8.474   9.476   1.018
30078SOL     OW90191   9.208   9.691   1.408
30078SOL    HW190192   9.265   9.767   1.395
30078SOL    HW290193   9.234   9.631   1.337
30079SOL     OW90194   8.128   9.494   1.487
30079SOL    HW190195   8.212   9.469   1.450
30079SOL    HW290196   8.149   9.528   1.574
30080SOL     OW90197   7.523   9.609   0.027
30080SOL    HW190198   7.435   9.596   9.993
30080SOL    HW290199   7.544   9.700   0.006
30081SOL     OW90200   7.529   9.443   0.266
30081SOL    HW190201   7.517   9.509   0.197
30081SOL    HW290202   7.617   9.410   0.251
30082SOL     OW90203   8.190   9.847   1.683
30082SOL    HW190204   8.243   9.895   1.747
30082SOL    HW290205   8.193   9.756   1.714
30083SOL     OW90206   8.668   9.622   0.455
30083SOL    HW190207   8.727   9.547   0.451
30083SOL    HW290208   8.697   9.673   0.531
30084SOL     OW90209   9.191   9.672   1.680
30084SOL    HW190210   9.195   9.683   1.585
30084SOL    HW290211   9.119   9.611   1.694
30085SOL     OW90212   8.578   0.238   0.067
30085SOL    HW190213   8.577   0.332   0.048
30085SOL    HW290214   8.666   0.222   0.101
30086SOL     OW90215   9.261   9.489   1.236
30086SOL    HW190216   9.270   9.396   1.254
30086SOL    HW290217   9.271   9.496   1.141
30087SOL     OW90218   7.940   9.692   0.604
30087SOL    HW190219   7.931   9.703   0.509
30087SOL    HW290220   7.851   9.676   0.635
30088SOL     OW90221   7.783   9.909   1.306
30088SOL    HW190222   7.833   9.854   1.366
30088SOL    HW290223   7.805   9.876   1.219
30089SOL     OW90224   8.868   9.539   1.123
30089SOL    HW190225   8.879   9.453   1.163
30089SOL    HW290226   8.821   9.590   1.190
30090SOL     OW90227   8.457   9.320   1.122
30090SOL    HW190228   8.404   9.257   1.074
30090SOL    HW290229   8.544   9.282   1.125
30091SOL     OW90230   8.798   9.357   0.178
30091SOL    HW190231   8.820   9.320   0.092
30091SOL    HW290232   8.708   9.328   0.195
30092SOL     OW90233   8.764   9.761   0.674
30092SOL    HW190234   8.757   9.856   0.673
30092SOL    HW290235   8.742   9.736   0.764
30093SOL     OW90236   9.027   9.485   0.902
30093SOL    HW190237   8.974   9.518   0.975
30093SOL    HW290238   9.027   9.557   0.839
30094SOL     OW90239   7.656   9.606   2.862
30094SOL    HW190240   7.688   9.563   2.941
30094SOL    HW290241   7.572   9.565   2.843
30095SOL     OW90242   7.442   9.687   2.509
30095SOL    HW190243   7.365   9.705   2.564
30095SOL    HW290244   7.415   9.615   2.453
30096SOL     OW90245   9.077   9.915   2.079
30096SOL    HW190246   9.118   9.917   1.993
30096SOL    HW290247   9.089   9.826   2.109
30097SOL     OW90248   7.868   9.722   3.359
30097SOL    HW190249   7.953   9.677   3.353
30097SOL    HW290250   7.803   9.652   3.353
30098SOL     OW90251   9.047   9.725   2.618
30098SOL    HW190252   9.021   9.765   2.535
30098SOL    HW290253   9.012   9.783   2.685
30099SOL     OW90254   9.041   9.442   3.315
30099SOL    HW190255   9.086   9.516   3.275
30099SOL    HW290256   9.010   9.476   3.399
30100SOL     OW90257   7.478   9.973   2.467
30100SOL    HW190258   7.472   9.878   2.475
30100SOL    HW290259   7.572   9.992   2.466
30101SOL     OW90260   8.283   9.334   2.376
30101SOL    HW190261   8.318   9.419   2.351
30101SOL    HW290262   8.188   9.347   2.378
30102SOL     OW90263   7.793   9.549   3.699
30102SOL    HW190264   7.816   9.635   3.664
30102SOL    HW290265   7.699   9.554   3.716
30103SOL     OW90266   8.724   9.683   2.803
30103SOL    HW190267   8.636   9.647   2.803
30103SOL    HW290268   8.774   9.626   2.860
30104SOL     OW90269   8.298   9.833   3.295
30104SOL    HW190270   8.255   9.842   3.380
30104SOL    HW290271   8.226   9.822   3.233
30105SOL     OW90272   8.850   9.783   3.541
30105SOL    HW190273   8.874   9.819   3.626
30105SOL    HW290274   8.887   9.695   3.541
30106SOL     OW90275   8.459   9.763   3.088
30106SOL    HW190276   8.407   9.783   3.166
30106SOL    HW290277   8.405   9.703   3.038
30107SOL     OW90278   8.523   9.982   2.299
30107SOL    HW190279   8.577   0.025   2.366
30107SOL    HW290280   8.433   9.996   2.329
30108SOL     OW90281   8.336   9.660   2.049
30108SOL    HW190282   8.386   9.719   1.992
30108SOL    HW290283   8.337   9.576   2.004
30109SOL     OW90284   9.152   9.907   3.677
30109SOL    HW190285   9.151   9.973   3.607
30109SOL    HW290286   9.169   9.824   3.632
30110SOL     OW90287   7.997   9.473   2.776
30110SOL    HW190288   8.003   9.498   2.868
30110SOL    HW290289   7.997   9.556   2.728
30111SOL     OW90290   8.930   0.024   2.592
30111SOL    HW190291   8.922   9.975   2.675
30111SOL    HW290292   8.972   0.106   2.617
30112SOL     OW90293   7.647   9.558   3.358
30112SOL    HW190294   7.586   9.619   3.400
30112SOL    HW290295   7.618   9.472   3.387
30113SOL     OW90296   8.841   9.412   2.316
30113SOL    HW190297   8.842   9.388   2.223
30113SOL    HW290298   8.933   9.408   2.342
30114SOL     OW90299   8.953   9.524   3.572
30114SOL    HW190300   8.960   9.541   3.666
30114SOL    HW290301   8.891   9.452   3.566
30115SOL     OW90302   8.100   9.417   1.964
30115SOL    HW190303   8.149   9.341   1.993
30115SOL    HW290304   8.043   9.384   1.895
30116SOL     OW90305   8.207   9.573   3.611
30116SOL    HW190306   8.292   9.529   3.610
30116SOL    HW290307   8.161   9.536   3.686
30117SOL     OW90308   8.831   9.899   3.285
30117SOL    HW190309   8.829   9.867   3.375
30117SOL    HW290310   8.883   9.979   3.289
30118SOL     OW90311   8.385   9.800   2.757
30118SOL    HW190312   8.355   9.781   2.668
30118SOL    HW290313   8.424   9.717   2.787
30119SOL     OW90314   8.013   9.374   2.351
30119SOL    HW190315   7.936   9.376   2.408
30119SOL    HW290316   8.005   9.454   2.298
30120SOL     OW90317   7.734   9.363   2.046
30120SOL    HW190318   7.789   9.426   1.999
30120SOL    HW290319   7.795   9.304   2.088
30121SOL     OW90320   8.390   9.583   2.308
30121SOL    HW190321   8.369   9.611   2.219
30121SOL    HW290322   8.485   9.593   2.315
30122SOL     OW90323   8.523   9.950   3.426
30122SOL    HW190324   8.456   9.909   3.370
30122SOL    HW290325   8.560   0.019   3.371
30123SOL     OW90326   8.475   9.831   1.890
30123SOL    HW190327   8.454   9.919   1.860
30123SOL    HW290328   8.542   9.844   1.958
30124SOL     OW90329   7.522   9.892   3.240
30124SOL    HW190330   7.617   9.894   3.228
30124SOL    HW290331   7.498   9.980   3.266
30125SOL     OW90332   8.002   9.536   3.044
30125SOL    HW190333   8.045   9.485   3.113
30125SOL    HW290334   7.908   9.528   3.064
30126SOL     OW90335   8.307   9.767   2.504
30126SOL    HW190336   8.284   9.844   2.452
30126SOL    HW290337   8.329   9.700   2.440
30127SOL     OW90338   8.469   9.358   2.595
30127SOL    HW190339   8.408   9.354   2.521
30127SOL    HW290340   8.443   9.286   2.652
30128SOL     OW90341   8.926   9.875   2.816
30128SOL    HW190342   8.851   9.819   2.835
30128SOL    HW290343   8.971   9.884   2.900
30129SOL     OW90344   7.997   9.582   2.170
30129SOL    HW190345   8.031   9.529   2.097
30129SOL    HW290346   8.015   9.672   2.144
30130SOL     OW90347   8.368   9.391   3.242
30130SOL    HW190348   8.390   9.371   3.151
30130SOL    HW290349   8.448   9.431   3.278
30131SOL     OW90350   8.715   9.687   3.157
30131SOL    HW190351   8.755   9.764   3.198
30131SOL    HW290352   8.630   9.718   3.127
30132SOL     OW90353   7.996   9.763   2.714
30132SOL    HW190354   7.992   9.771   2.619
30132SOL    HW290355   8.062   9.826   2.741
30133SOL     OW90356   9.021   9.879   2.381
30133SOL    HW190357   8.987   9.941   2.446
30133SOL    HW290358   9.073   9.933   2.322
30134SOL     OW90359   8.446   9.444   3.625
30134SOL    HW190360   8.506   9.517   3.608
30134SOL    HW290361   8.495   9.366   3.601
30135SOL     OW90362   7.942   9.334   3.620
30135SOL    HW190363   7.890   9.281   3.559
30135SOL    HW290364   7.888   9.410   3.639
30136SOL     OW90365   8.646   9.841   2.108
30136SOL    HW190366   8.664   9.759   2.153
30136SOL    HW290367   8.600   9.894   2.172
30137SOL     OW90368   7.737   9.498   3.103
30137SOL    HW190369   7.698   9.525   3.186
30137SOL    HW290370   7.722   9.404   3.098
30138SOL     OW90371   8.168   9.931   2.861
30138SOL    HW190372   8.252   9.896   2.831
30138SOL    HW290373   8.174   0.025   2.846
30139SOL     OW90374   7.773   9.373   2.490
30139SOL    HW190375   7.743   9.461   2.511
30139SOL    HW290376   7.779   9.329   2.575
30140SOL     OW90377   9.060   9.668   2.210
30140SOL    HW190378   9.109   9.603   2.259
30140SOL    HW290379   9.031   9.731   2.275
30141SOL     OW90380   8.956   9.573   1.973
30141SOL    HW190381   8.904   9.499   2.005
30141SOL    HW290382   8.994   9.612   2.051
30142SOL     OW90383   7.772   0.055   2.759
30142SOL    HW190384   7.849   0.111   2.770
30142SOL    HW290385   7.785   9.984   2.822
30143SOL     OW90386   7.812   9.821   2.906
30143SOL    HW190387   7.755   9.745   2.892
30143SOL    HW290388   7.885   9.807   2.846
30144SOL     OW90389   8.593   9.668   3.555
30144SOL    HW190390   8.538   9.725   3.608
30144SOL    HW290391   8.672   9.719   3.538
30145SOL     OW90392   8.604   9.502   3.332
30145SOL    HW190393   8.594   9.558   3.409
30145SOL    HW290394   8.650   9.556   3.268
30146SOL     OW90395   7.470   9.844   2.970
30146SOL    HW190396   7.545   9.815   2.918
30146SOL    HW290397   7.506   9.859   3.057
30147SOL     OW90398   7.717   9.810   3.587
30147SOL    HW190399   7.764   9.796   3.504
30147SOL    HW290400   7.759   9.888   3.625
30148SOL     OW90401   8.173   9.885   2.112
30148SOL    HW190402   8.232   9.810   2.099
30148SOL    HW290403   8.181   9.906   2.205
30149SOL     OW90404   9.087   9.899   3.043
30149SOL    HW190405   9.068   9.844   3.120
30149SOL    HW290406   9.172   9.867   3.013
30150SOL     OW90407   8.121   9.784   3.093
30150SOL    HW190408   8.077   9.704   3.067
30150SOL    HW290409   8.125   9.837   3.013
30151SOL     OW90410   9.199   9.479   2.354
30151SOL    HW190411   9.261   9.458   2.284
30151SOL    HW290412   9.173   9.394   2.388
30152SOL     OW90413   9.291   9.470   2.826
30152SOL    HW190414   9.321   9.381   2.807
30152SOL    HW290415   9.202   9.473   2.790
30153SOL     OW90416   7.697   9.620   2.578
30153SOL    HW190417   7.609   9.649   2.553
30153SOL    HW290418   7.697   9.622   2.674
30154SOL     OW90419   8.486   9.543   2.810
30154SOL    HW190420   8.483   9.494   2.728
30154SOL    HW290421   8.475   9.477   2.879
30155SOL     OW90422   9.209   9.690   3.271
30155SOL    HW190423   9.265   9.767   3.259
30155SOL    HW290424   9.234   9.631   3.199
30156SOL     OW90425   8.128   9.494   3.349
30156SOL    HW190426   8.212   9.469   3.312
30156SOL    HW290427   8.149   9.528   3.436
30157SOL     OW90428   7.533   9.640   1.863
30157SOL    HW190429   7.454   9.637   1.810
30157SOL    HW290430   7.582   9.715   1.829
30158SOL     OW90431   7.493   9.454   2.134
30158SOL    HW190432   7.476   9.525   2.073
30158SOL    HW290433   7.582   9.426   2.114
30159SOL     OW90434   8.190   9.847   3.545
30159SOL    HW190435   8.243   9.895   3.609
30159SOL    HW290436   8.193   9.756   3.576
30160SOL     OW90437   8.664   9.632   2.309
30160SOL    HW190438   8.724   9.557   2.311
30160SOL    HW290439   8.687   9.684   2.386
30161SOL     OW90440   9.191   9.672   3.543
30161SOL    HW190441   9.195   9.683   3.448
30161SOL    HW290442   9.118   9.611   3.557
30162SOL     OW90443   8.584   0.222   1.923
30162SOL    HW190444   8.585   0.318   1.919
30162SOL    HW290445   8.655   0.200   1.982
30163SOL     OW90446   9.262   9.489   3.097
30163SOL    HW190447   9.270   9.396   3.115
30163SOL    HW290448   9.271   9.497   3.002
30164SOL     OW90449   7.921   9.716   2.443
30164SOL    HW190450   7.920   9.672   2.357
30164SOL    HW290451   7.839   9.688   2.484
30165SOL     OW90452   7.784   9.909   3.166
30165SOL    HW190453   7.833   9.854   3.227
30165SOL    HW290454   7.807   9.876   3.079
30166SOL     OW90455   8.869   9.540   2.985
30166SOL    HW190456   8.879   9.452   3.023
30166SOL    HW290457   8.823   9.589   3.052
30167SOL     OW90458   8.457   9.321   2.983
30167SOL    HW190459   8.404   9.257   2.935
30167SOL    HW290460   8.544   9.282   2.986
30168SOL     OW90461   8.825   9.344   2.048
30168SOL    HW190462   8.865   9.269   2.003
30168SOL    HW290463   8.733   9.318   2.060
30169SOL     OW90464   8.735   9.773   2.534
30169SOL    HW190465   8.772   9.861   2.543
30169SOL    HW290466   8.731   9.740   2.624
30170SOL     OW90467   9.027   9.489   2.761
30170SOL    HW190468   8.974   9.521   2.834
30170SOL    HW290469   9.027   9.560   2.697
30171SOL     OW90470   7.656   9.607   4.724
30171SOL    HW190471   7.688   9.564   4.803
30171SOL    HW290472   7.572   9.565   4.705
30172SOL     OW90473   7.442   9.687   4.371
30172SOL    HW190474   7.365   9.705   4.426
30172SOL    HW290475   7.415   9.615   4.315
30173SOL     OW90476   9.077   9.916   3.941
30173SOL    HW190477   9.119   9.918   3.855
30173SOL    HW290478   9.089   9.826   3.971
30174SOL     OW90479   7.868   9.721   5.221
30174SOL    HW190480   7.953   9.677   5.215
30174SOL    HW290481   7.803   9.651   5.215
30175SOL     OW90482   9.047   9.725   4.480
30175SOL    HW190483   9.021   9.764   4.397
30175SOL    HW290484   9.012   9.783   4.547
30176SOL     OW90485   9.041   9.442   5.177
30176SOL    HW190486   9.086   9.516   5.138
30176SOL    HW290487   9.010   9.475   5.261
30177SOL     OW90488   7.478   9.973   4.329
30177SOL    HW190489   7.472   9.878   4.337
30177SOL    HW290490   7.572   9.992   4.328
30178SOL     OW90491   8.283   9.334   4.238
30178SOL    HW190492   8.319   9.419   4.213
30178SOL    HW290493   8.188   9.347   4.240
30179SOL     OW90494   7.793   9.549   5.561
30179SOL    HW190495   7.815   9.635   5.526
30179SOL    HW290496   7.699   9.554   5.578
30180SOL     OW90497   8.724   9.684   4.665
30180SOL    HW190498   8.636   9.647   4.665
30180SOL    HW290499   8.774   9.626   4.722
30181SOL     OW90500   8.298   9.833   5.157
30181SOL    HW190501   8.255   9.842   5.242
30181SOL    HW290502   8.226   9.822   5.095
30182SOL     OW90503   8.850   9.783   5.403
30182SOL    HW190504   8.874   9.819   5.489
30182SOL    HW290505   8.887   9.695   5.403
30183SOL     OW90506   8.459   9.763   4.950
30183SOL    HW190507   8.407   9.782   5.028
30183SOL    HW290508   8.405   9.703   4.900
30184SOL     OW90509   8.523   9.983   4.161
30184SOL    HW190510   8.576   0.026   4.228
30184SOL    HW290511   8.433   9.996   4.190
30185SOL     OW90512   8.336   9.661   3.911
30185SOL    HW190513   8.386   9.719   3.854
30185SOL    HW290514   8.336   9.576   3.866
30186SOL     OW90515   9.153   9.907   5.539
30186SOL    HW190516   9.151   9.972   5.468
30186SOL    HW290517   9.170   9.824   5.494
30187SOL     OW90518   7.997   9.473   4.638
30187SOL    HW190519   8.003   9.498   4.730
30187SOL    HW290520   7.997   9.556   4.590
30188SOL     OW90521   8.931   0.024   4.454
30188SOL    HW190522   8.922   9.975   4.536
30188SOL    HW290523   8.973   0.106   4.480
30189SOL     OW90524   7.647   9.558   5.220
30189SOL    HW190525   7.585   9.619   5.262
30189SOL    HW290526   7.618   9.471   5.249
30190SOL     OW90527   8.841   9.412   4.178
30190SOL    HW190528   8.842   9.388   4.085
30190SOL    HW290529   8.933   9.408   4.204
30191SOL     OW90530   8.953   9.524   5.434
30191SOL    HW190531   8.960   9.541   5.528
30191SOL    HW290532   8.891   9.451   5.428
30192SOL     OW90533   8.100   9.417   3.826
30192SOL    HW190534   8.149   9.340   3.856
30192SOL    HW290535   8.043   9.384   3.757
30193SOL     OW90536   8.207   9.574   5.473
30193SOL    HW190537   8.292   9.529   5.472
30193SOL    HW290538   8.161   9.536   5.548
30194SOL     OW90539   8.831   9.899   5.147
30194SOL    HW190540   8.829   9.867   5.238
30194SOL    HW290541   8.883   9.979   5.152
30195SOL     OW90542   8.385   9.800   4.619
30195SOL    HW190543   8.355   9.781   4.530
30195SOL    HW290544   8.423   9.717   4.649
30196SOL     OW90545   8.013   9.374   4.213
30196SOL    HW190546   7.936   9.376   4.270
30196SOL    HW290547   8.005   9.453   4.160
30197SOL     OW90548   7.734   9.363   3.908
30197SOL    HW190549   7.789   9.426   3.861
30197SOL    HW290550   7.795   9.304   3.951
30198SOL     OW90551   8.390   9.583   4.170
30198SOL    HW190552   8.369   9.611   4.081
30198SOL    HW290553   8.485   9.594   4.176
30199SOL     OW90554   8.523   9.949   5.288
30199SOL    HW190555   8.456   9.909   5.232
30199SOL    HW290556   8.561   0.018   5.233
30200SOL     OW90557   8.475   9.831   3.752
30200SOL    HW190558   8.454   9.919   3.722
30200SOL    HW290559   8.541   9.844   3.820
30201SOL     OW90560   7.522   9.892   5.101
30201SOL    HW190561   7.617   9.894   5.090
30201SOL    HW290562   7.499   9.981   5.128
30202SOL     OW90563   8.002   9.536   4.906
30202SOL    HW190564   8.045   9.485   4.975
30202SOL    HW290565   7.909   9.528   4.926
30203SOL     OW90566   8.307   9.768   4.366
30203SOL    HW190567   8.285   9.844   4.314
30203SOL    HW290568   8.329   9.700   4.302
30204SOL     OW90569   8.469   9.358   4.457
30204SOL    HW190570   8.408   9.354   4.383
30204SOL    HW290571   8.443   9.286   4.514
30205SOL     OW90572   8.926   9.875   4.678
30205SOL    HW190573   8.851   9.819   4.697
30205SOL    HW290574   8.971   9.884   4.762
30206SOL     OW90575   7.996   9.582   4.032
30206SOL    HW190576   8.031   9.529   3.960
30206SOL    HW290577   8.014   9.672   4.005
30207SOL     OW90578   8.368   9.391   5.104
30207SOL    HW190579   8.390   9.371   5.013
30207SOL    HW290580   8.447   9.431   5.140
30208SOL     OW90581   8.715   9.687   5.019
30208SOL    HW190582   8.755   9.764   5.060
30208SOL    HW290583   8.630   9.718   4.989
30209SOL     OW90584   7.996   9.763   4.576
30209SOL    HW190585   7.992   9.771   4.480
30209SOL    HW290586   8.062   9.826   4.602
30210SOL     OW90587   9.021   9.879   4.243
30210SOL    HW190588   8.987   9.941   4.308
30210SOL    HW290589   9.073   9.933   4.184
30211SOL     OW90590   8.446   9.444   5.487
30211SOL    HW190591   8.506   9.517   5.470
30211SOL    HW290592   8.495   9.366   5.463
30212SOL     OW90593   7.942   9.334   5.482
30212SOL    HW190594   7.890   9.281   5.422
30212SOL    HW290595   7.887   9.410   5.501
30213SOL     OW90596   8.646   9.841   3.970
30213SOL    HW190597   8.664   9.759   4.015
30213SOL    HW290598   8.600   9.895   4.034
30214SOL     OW90599   7.738   9.499   4.965
30214SOL    HW190600   7.698   9.525   5.048
30214SOL    HW290601   7.723   9.404   4.960
30215SOL     OW90602   8.168   9.931   4.723
30215SOL    HW190603   8.252   9.896   4.693
30215SOL    HW290604   8.174   0.025   4.708
30216SOL     OW90605   7.773   9.373   4.352
30216SOL    HW190606   7.743   9.461   4.373
30216SOL    HW290607   7.779   9.329   4.437
30217SOL     OW90608   9.060   9.668   4.071
30217SOL    HW190609   9.109   9.603   4.121
30217SOL    HW290610   9.031   9.731   4.137
30218SOL     OW90611   8.955   9.573   3.835
30218SOL    HW190612   8.904   9.499   3.867
30218SOL    HW290613   8.994   9.612   3.913
30219SOL     OW90614   7.773   0.055   4.622
30219SOL    HW190615   7.850   0.111   4.633
30219SOL    HW290616   7.786   9.984   4.684
30220SOL     OW90617   7.813   9.821   4.768
30220SOL    HW190618   7.755   9.746   4.754
30220SOL    HW290619   7.886   9.807   4.708
30221SOL     OW90620   8.593   9.668   5.417
30221SOL    HW190621   8.538   9.725   5.470
30221SOL    HW290622   8.672   9.719   5.400
30222SOL     OW90623   8.604   9.502   5.194
30222SOL    HW190624   8.594   9.558   5.271
30222SOL    HW290625   8.650   9.556   5.130
30223SOL     OW90626   7.470   9.844   4.831
30223SOL    HW190627   7.544   9.813   4.779
30223SOL    HW290628   7.506   9.858   4.919
30224SOL     OW90629   7.717   9.810   5.449
30224SOL    HW190630   7.764   9.796   5.366
30224SOL    HW290631   7.758   9.887   5.487
30225SOL     OW90632   8.173   9.886   3.974
30225SOL    HW190633   8.232   9.811   3.961
30225SOL    HW290634   8.180   9.906   4.067
30226SOL     OW90635   9.087   9.899   4.905
30226SOL    HW190636   9.068   9.844   4.982
30226SOL    HW290637   9.172   9.867   4.875
30227SOL     OW90638   8.122   9.784   4.955
30227SOL    HW190639   8.077   9.704   4.929
30227SOL    HW290640   8.125   9.837   4.875
30228SOL     OW90641   9.199   9.479   4.216
30228SOL    HW190642   9.261   9.458   4.146
30228SOL    HW290643   9.173   9.394   4.250
30229SOL     OW90644   9.291   9.470   4.688
30229SOL    HW190645   9.321   9.381   4.670
30229SOL    HW290646   9.202   9.473   4.653
30230SOL     OW90647   7.697   9.620   4.440
30230SOL    HW190648   7.609   9.649   4.415
30230SOL    HW290649   7.697   9.623   4.536
30231SOL     OW90650   8.486   9.543   4.672
30231SOL    HW190651   8.483   9.494   4.590
30231SOL    HW290652   8.475   9.477   4.740
30232SOL     OW90653   9.209   9.690   5.133
30232SOL    HW190654   9.265   9.767   5.121
30232SOL    HW290655   9.234   9.631   5.062
30233SOL     OW90656   8.128   9.495   5.211
30233SOL    HW190657   8.212   9.469   5.174
30233SOL    HW290658   8.149   9.528   5.298
30234SOL     OW90659   7.533   9.640   3.727
30234SOL    HW190660   7.453   9.636   3.673
30234SOL    HW290661   7.581   9.714   3.692
30235SOL     OW90662   7.493   9.455   3.996
30235SOL    HW190663   7.476   9.525   3.934
30235SOL    HW290664   7.582   9.426   3.976
30236SOL     OW90665   8.190   9.847   5.408
30236SOL    HW190666   8.243   9.895   5.471
30236SOL    HW290667   8.193   9.756   5.438
30237SOL     OW90668   8.664   9.632   4.170
30237SOL    HW190669   8.724   9.557   4.173
30237SOL    HW290670   8.687   9.684   4.248
30238SOL     OW90671   9.191   9.672   5.405
30238SOL    HW190672   9.195   9.682   5.310
30238SOL    HW290673   9.118   9.611   5.419
30239SOL     OW90674   8.585   0.222   3.784
30239SOL    HW190675   8.586   0.318   3.782
30239SOL    HW290676   8.656   0.199   3.844
30240SOL     OW90677   9.262   9.490   4.959
30240SOL    HW190678   9.270   9.396   4.977
30240SOL    HW290679   9.271   9.497   4.864
30241SOL     OW90680   7.921   9.716   4.304
30241SOL    HW190681   7.921   9.672   4.219
30241SOL    HW290682   7.839   9.688   4.346
30242SOL     OW90683   7.784   9.909   5.028
30242SOL    HW190684   7.833   9.853   5.089
30242SOL    HW290685   7.807   9.876   4.941
30243SOL     OW90686   8.869   9.539   4.847
30243SOL    HW190687   8.878   9.452   4.884
30243SOL    HW290688   8.822   9.589   4.914
30244SOL     OW90689   8.457   9.321   4.845
30244SOL    HW190690   8.404   9.257   4.797
30244SOL    HW290691   8.544   9.282   4.848
30245SOL     OW90692   8.825   9.343   3.910
30245SOL    HW190693   8.865   9.269   3.865
30245SOL    HW290694   8.733   9.318   3.922
30246SOL     OW90695   8.736   9.773   4.396
30246SOL    HW190696   8.772   9.861   4.405
30246SOL    HW290697   8.731   9.740   4.486
30247SOL     OW90698   9.027   9.489   4.623
30247SOL    HW190699   8.974   9.521   4.696
30247SOL    HW290700   9.027   9.560   4.559
30248SOL     OW90701   7.656   9.607   6.586
30248SOL    HW190702   7.688   9.564   6.665
30248SOL    HW290703   7.572   9.565   6.567
30249SOL     OW90704   7.442   9.687   6.234
30249SOL    HW190705   7.365   9.705   6.288
30249SOL    HW290706   7.415   9.615   6.177
30250SOL     OW90707   9.077   9.915   5.802
30250SOL    HW190708   9.120   9.918   5.717
30250SOL    HW290709   9.089   9.826   5.833
30251SOL     OW90710   7.868   9.722   7.083
30251SOL    HW190711   7.953   9.677   7.077
30251SOL    HW290712   7.803   9.652   7.077
30252SOL     OW90713   9.047   9.725   6.342
30252SOL    HW190714   9.021   9.765   6.259
30252SOL    HW290715   9.012   9.784   6.409
30253SOL     OW90716   9.042   9.442   7.040
30253SOL    HW190717   9.087   9.516   7.000
30253SOL    HW290718   9.010   9.475   7.124
30254SOL     OW90719   7.478   9.973   6.191
30254SOL    HW190720   7.472   9.878   6.199
30254SOL    HW290721   7.572   9.992   6.191
30255SOL     OW90722   8.283   9.334   6.100
30255SOL    HW190723   8.318   9.419   6.075
30255SOL    HW290724   8.188   9.347   6.102
30256SOL     OW90725   7.793   9.549   7.423
30256SOL    HW190726   7.815   9.635   7.387
30256SOL    HW290727   7.699   9.553   7.440
30257SOL     OW90728   8.724   9.684   6.527
30257SOL    HW190729   8.636   9.647   6.527
30257SOL    HW290730   8.774   9.626   6.584
30258SOL     OW90731   8.298   9.833   7.019
30258SOL    HW190732   8.255   9.842   7.104
30258SOL    HW290733   8.226   9.822   6.956
30259SOL     OW90734   8.850   9.783   7.265
30259SOL    HW190735   8.874   9.819   7.350
30259SOL    HW290736   8.886   9.695   7.264
30260SOL     OW90737   8.459   9.763   6.812
30260SOL    HW190738   8.407   9.782   6.890
30260SOL    HW290739   8.405   9.703   6.762
30261SOL     OW90740   8.523   9.983   6.023
30261SOL    HW190741   8.576   0.026   6.089
30261SOL    HW290742   8.433   9.996   6.052
30262SOL     OW90743   8.336   9.661   5.773
30262SOL    HW190744   8.385   9.719   5.716
30262SOL    HW290745   8.335   9.577   5.728
30263SOL     OW90746   9.152   9.907   7.401
30263SOL    HW190747   9.151   9.973   7.331
30263SOL    HW290748   9.169   9.825   7.357
30264SOL     OW90749   7.997   9.473   6.500
30264SOL    HW190750   8.003   9.498   6.592
30264SOL    HW290751   7.997   9.556   6.452
30265SOL     OW90752   8.931   0.024   6.316
30265SOL    HW190753   8.922   9.976   6.398
30265SOL    HW290754   8.973   0.106   6.341
30266SOL     OW90755   7.647   9.558   7.082
30266SOL    HW190756   7.585   9.619   7.124
30266SOL    HW290757   7.618   9.471   7.111
30267SOL     OW90758   8.841   9.412   6.040
30267SOL    HW190759   8.841   9.388   5.947
30267SOL    HW290760   8.933   9.408   6.066
30268SOL     OW90761   8.953   9.524   7.296
30268SOL    HW190762   8.960   9.541   7.390
30268SOL    HW290763   8.891   9.452   7.290
30269SOL     OW90764   8.100   9.417   5.688
30269SOL    HW190765   8.150   9.340   5.717
30269SOL    HW290766   8.043   9.384   5.619
30270SOL     OW90767   8.208   9.574   7.335
30270SOL    HW190768   8.292   9.528   7.334
30270SOL    HW290769   8.161   9.536   7.410
30271SOL     OW90770   8.831   9.898   7.009
30271SOL    HW190771   8.829   9.867   7.099
30271SOL    HW290772   8.884   9.979   7.013
30272SOL     OW90773   8.385   9.800   6.481
30272SOL    HW190774   8.355   9.781   6.392
30272SOL    HW290775   8.423   9.717   6.511
30273SOL     OW90776   8.013   9.374   6.075
30273SOL    HW190777   7.936   9.376   6.132
30273SOL    HW290778   8.005   9.453   6.022
30274SOL     OW90779   7.734   9.363   5.770
30274SOL    HW190780   7.789   9.425   5.723
30274SOL    HW290781   7.795   9.304   5.812
30275SOL     OW90782   8.390   9.583   6.032
30275SOL    HW190783   8.369   9.611   5.943
30275SOL    HW290784   8.485   9.594   6.038
30276SOL     OW90785   8.523   9.949   7.149
30276SOL    HW190786   8.456   9.909   7.094
30276SOL    HW290787   8.560   0.018   7.095
30277SOL     OW90788   8.475   9.831   5.614
30277SOL    HW190789   8.454   9.919   5.584
30277SOL    HW290790   8.541   9.844   5.681
30278SOL     OW90791   7.522   9.892   6.963
30278SOL    HW190792   7.617   9.895   6.952
30278SOL    HW290793   7.498   9.981   6.988
30279SOL     OW90794   8.002   9.536   6.768
30279SOL    HW190795   8.045   9.485   6.836
30279SOL    HW290796   7.909   9.528   6.787
30280SOL     OW90797   8.307   9.768   6.229
30280SOL    HW190798   8.285   9.844   6.176
30280SOL    HW290799   8.329   9.700   6.164
30281SOL     OW90800   8.469   9.358   6.319
30281SOL    HW190801   8.408   9.354   6.245
30281SOL    HW290802   8.443   9.286   6.376
30282SOL     OW90803   8.926   9.876   6.540
30282SOL    HW190804   8.851   9.819   6.559
30282SOL    HW290805   8.971   9.884   6.624
30283SOL     OW90806   7.997   9.582   5.894
30283SOL    HW190807   8.031   9.528   5.822
30283SOL    HW290808   8.013   9.672   5.867
30284SOL     OW90809   8.368   9.391   6.966
30284SOL    HW190810   8.390   9.371   6.875
30284SOL    HW290811   8.448   9.431   7.002
30285SOL     OW90812   8.715   9.687   6.881
30285SOL    HW190813   8.755   9.764   6.922
30285SOL    HW290814   8.630   9.718   6.851
30286SOL     OW90815   7.996   9.763   6.438
30286SOL    HW190816   7.991   9.771   6.342
30286SOL    HW290817   8.062   9.826   6.464
30287SOL     OW90818   9.021   9.879   6.105
30287SOL    HW190819   8.987   9.941   6.170
30287SOL    HW290820   9.074   9.933   6.046
30288SOL     OW90821   8.446   9.444   7.349
30288SOL    HW190822   8.506   9.516   7.332
30288SOL    HW290823   8.495   9.366   7.325
30289SOL     OW90824   7.942   9.334   7.345
30289SOL    HW190825   7.890   9.281   7.283
30289SOL    HW290826   7.887   9.410   7.363
30290SOL     OW90827   8.646   9.841   5.832
30290SOL    HW190828   8.664   9.759   5.877
30290SOL    HW290829   8.600   9.895   5.896
30291SOL     OW90830   7.738   9.499   6.826
30291SOL    HW190831   7.698   9.525   6.909
30291SOL    HW290832   7.723   9.404   6.822
30292SOL     OW90833   8.168   9.931   6.585
30292SOL    HW190834   8.252   9.897   6.555
30292SOL    HW290835   8.174   0.025   6.569
30293SOL     OW90836   7.773   9.373   6.214
30293SOL    HW190837   7.743   9.461   6.235
30293SOL    HW290838   7.779   9.329   6.299
30294SOL     OW90839   9.060   9.668   5.933
30294SOL    HW190840   9.109   9.603   5.983
30294SOL    HW290841   9.031   9.731   5.999
30295SOL     OW90842   8.955   9.573   5.697
30295SOL    HW190843   8.904   9.499   5.729
30295SOL    HW290844   8.994   9.612   5.775
30296SOL     OW90845   7.773   0.055   6.484
30296SOL    HW190846   7.850   0.111   6.495
30296SOL    HW290847   7.786   9.984   6.546
30297SOL     OW90848   7.813   9.821   6.631
30297SOL    HW190849   7.755   9.746   6.616
30297SOL    HW290850   7.886   9.807   6.570
30298SOL     OW90851   8.593   9.667   7.279
30298SOL    HW190852   8.538   9.725   7.332
30298SOL    HW290853   8.672   9.719   7.261
30299SOL     OW90854   8.604   9.501   7.056
30299SOL    HW190855   8.594   9.558   7.133
30299SOL    HW290856   8.650   9.555   6.992
30300SOL     OW90857   7.470   9.843   6.694
30300SOL    HW190858   7.544   9.813   6.641
30300SOL    HW290859   7.506   9.858   6.781
30301SOL     OW90860   7.716   9.809   7.311
30301SOL    HW190861   7.763   9.796   7.229
30301SOL    HW290862   7.757   9.887   7.349
30302SOL     OW90863   8.173   9.886   5.836
30302SOL    HW190864   8.232   9.811   5.823
30302SOL    HW290865   8.180   9.905   5.929
30303SOL     OW90866   9.087   9.899   6.768
30303SOL    HW190867   9.067   9.844   6.844
30303SOL    HW290868   9.172   9.867   6.737
30304SOL     OW90869   8.122   9.784   6.817
30304SOL    HW190870   8.077   9.704   6.790
30304SOL    HW290871   8.125   9.837   6.737
30305SOL     OW90872   9.199   9.479   6.078
30305SOL    HW190873   9.261   9.458   6.008
30305SOL    HW290874   9.173   9.394   6.112
30306SOL     OW90875   9.291   9.470   6.550
30306SOL    HW190876   9.321   9.381   6.532
30306SOL    HW290877   9.202   9.473   6.515
30307SOL     OW90878   7.697   9.620   6.302
30307SOL    HW190879   7.609   9.649   6.277
30307SOL    HW290880   7.697   9.623   6.398
30308SOL     OW90881   8.486   9.543   6.534
30308SOL    HW190882   8.483   9.494   6.452
30308SOL    HW290883   8.475   9.477   6.602
30309SOL     OW90884   9.210   9.689   6.995
30309SOL    HW190885   9.265   9.767   6.983
30309SOL    HW290886   9.234   9.631   6.924
30310SOL     OW90887   8.128   9.495   7.073
30310SOL    HW190888   8.212   9.469   7.036
30310SOL    HW290889   8.149   9.529   7.160
30311SOL     OW90890   7.532   9.640   5.589
30311SOL    HW190891   7.453   9.635   5.536
30311SOL    HW290892   7.581   9.714   5.554
30312SOL     OW90893   7.493   9.455   5.858
30312SOL    HW190894   7.476   9.525   5.795
30312SOL    HW290895   7.582   9.426   5.838
30313SOL     OW90896   8.190   9.847   7.269
30313SOL    HW190897   8.243   9.895   7.333
30313SOL    HW290898   8.193   9.756   7.300
30314SOL     OW90899   8.664   9.632   6.032
30314SOL    HW190900   8.724   9.557   6.035
30314SOL    HW290901   8.687   9.684   6.109
30315SOL     OW90902   9.191   9.672   7.267
30315SOL    HW190903   9.196   9.682   7.172
30315SOL    HW290904   9.118   9.611   7.281
30316SOL     OW90905   8.584   0.222   5.647
30316SOL    HW190906   8.586   0.317   5.644
30316SOL    HW290907   8.656   0.199   5.706
30317SOL     OW90908   9.262   9.489   6.821
30317SOL    HW190909   9.269   9.396   6.839
30317SOL    HW290910   9.271   9.497   6.726
30318SOL     OW90911   7.921   9.716   6.167
30318SOL    HW190912   7.921   9.672   6.082
30318SOL    HW290913   7.839   9.688   6.208
30319SOL     OW90914   7.784   9.909   6.890
30319SOL    HW190915   7.833   9.854   6.951
30319SOL    HW290916   7.807   9.877   6.803
30320SOL     OW90917   8.869   9.539   6.709
30320SOL    HW190918   8.878   9.451   6.745
30320SOL    HW290919   8.822   9.589   6.776
30321SOL     OW90920   8.457   9.321   6.707
30321SOL    HW190921   8.404   9.257   6.659
30321SOL    HW290922   8.544   9.282   6.711
30322SOL     OW90923   8.825   9.343   5.772
30322SOL    HW190924   8.865   9.269   5.727
30322SOL    HW290925   8.733   9.318   5.784
30323SOL     OW90926   8.736   9.773   6.258
30323SOL    HW190927   8.772   9.861   6.267
30323SOL    HW290928   8.731   9.740   6.348
30324SOL     OW90929   9.027   9.489   6.485
30324SOL    HW190930   8.974   9.521   6.558
30324SOL    HW290931   9.027   9.561   6.421
30325SOL     OW90932   7.655   9.608   8.448
30325SOL    HW190933   7.688   9.564   8.527
30325SOL    HW290934   7.572   9.565   8.430
30326SOL     OW90935   7.442   9.687   8.096
30326SOL    HW190936   7.365   9.705   8.150
30326SOL    HW290937   7.415   9.615   8.039
30327SOL     OW90938   9.077   9.915   7.665
30327SOL    HW190939   9.120   9.918   7.579
30327SOL    HW290940   9.090   9.825   7.695
30328SOL     OW90941   7.868   9.720   8.947
30328SOL    HW190942   7.952   9.675   8.938
30328SOL    HW290943   7.803   9.650   8.939
30329SOL     OW90944   9.047   9.725   8.204
30329SOL    HW190945   9.021   9.765   8.121
30329SOL    HW290946   9.012   9.784   8.271
30330SOL     OW90947   9.042   9.443   8.903
30330SOL    HW190948   9.087   9.517   8.865
30330SOL    HW290949   9.010   9.475   8.988
30331SOL     OW90950   7.478   9.974   8.054
30331SOL    HW190951   7.472   9.878   8.061
30331SOL    HW290952   7.572   9.992   8.053
30332SOL     OW90953   8.283   9.334   7.962
30332SOL    HW190954   8.319   9.419   7.937
30332SOL    HW290955   8.188   9.347   7.964
30333SOL     OW90956   7.791   9.548   9.286
30333SOL    HW190957   7.812   9.634   9.249
30333SOL    HW290958   7.697   9.552   9.303
30334SOL     OW90959   8.724   9.684   8.389
30334SOL    HW190960   8.636   9.647   8.389
30334SOL    HW290961   8.774   9.626   8.446
30335SOL     OW90962   8.296   9.832   8.885
30335SOL    HW190963   8.251   9.842   8.969
30335SOL    HW290964   8.225   9.822   8.821
30336SOL     OW90965   8.849   9.780   9.127
30336SOL    HW190966   8.872   9.815   9.213
30336SOL    HW290967   8.886   9.692   9.126
30337SOL     OW90968   8.458   9.764   8.677
30337SOL    HW190969   8.406   9.782   8.755
30337SOL    HW290970   8.404   9.703   8.626
30338SOL     OW90971   8.523   9.983   7.885
30338SOL    HW190972   8.576   0.027   7.950
30338SOL    HW290973   8.432   9.996   7.914
30339SOL     OW90974   8.336   9.661   7.635
30339SOL    HW190975   8.385   9.719   7.578
30339SOL    HW290976   8.335   9.577   7.590
30340SOL     OW90977   9.152   9.909   9.263
30340SOL    HW190978   9.148   9.974   9.192
30340SOL    HW290979   9.169   9.826   9.219
30341SOL     OW90980   7.997   9.473   8.361
30341SOL    HW190981   8.004   9.499   8.453
30341SOL    HW290982   7.997   9.556   8.313
30342SOL     OW90983   8.931   0.024   8.178
30342SOL    HW190984   8.922   9.976   8.260
30342SOL    HW290985   8.973   0.106   8.203
30343SOL     OW90986   7.646   9.557   8.944
30343SOL    HW190987   7.585   9.618   8.985
30343SOL    HW290988   7.618   9.470   8.974
30344SOL     OW90989   8.841   9.412   7.902
30344SOL    HW190990   8.841   9.388   7.809
30344SOL    HW290991   8.933   9.408   7.928
30345SOL     OW90992   8.955   9.523   9.163
30345SOL    HW190993   8.961   9.544   9.256
30345SOL    HW290994   8.897   9.447   9.159
30346SOL     OW90995   8.100   9.417   7.550
30346SOL    HW190996   8.150   9.340   7.579
30346SOL    HW290997   8.043   9.384   7.481
30347SOL     OW90998   8.208   9.573   9.197
30347SOL    HW190999   8.293   9.529   9.195
30347SOL    HW291000   8.162   9.534   9.272
30348SOL     OW91001   8.833   9.896   8.871
30348SOL    HW191002   8.831   9.865   8.962
30348SOL    HW291003   8.885   9.977   8.875
30349SOL     OW91004   8.385   9.799   8.343
30349SOL    HW191005   8.355   9.781   8.254
30349SOL    HW291006   8.423   9.717   8.373
30350SOL     OW91007   8.013   9.374   7.937
30350SOL    HW191008   7.936   9.376   7.993
30350SOL    HW291009   8.005   9.453   7.883
30351SOL     OW91010   7.734   9.363   7.632
30351SOL    HW191011   7.789   9.425   7.585
30351SOL    HW291012   7.795   9.304   7.674
30352SOL     OW91013   8.390   9.583   7.894
30352SOL    HW191014   8.368   9.611   7.805
30352SOL    HW291015   8.485   9.594   7.900
30353SOL     OW91016   8.521   9.951   9.013
30353SOL    HW191017   8.455   9.910   8.957
30353SOL    HW291018   8.559   0.020   8.958
30354SOL     OW91019   8.475   9.831   7.476
30354SOL    HW191020   8.453   9.919   7.446
30354SOL    HW291021   8.541   9.844   7.543
30355SOL     OW91022   7.521   9.893   8.825
30355SOL    HW191023   7.616   9.897   8.814
30355SOL    HW291024   7.495   9.984   8.843
30356SOL     OW91025   8.002   9.537   8.630
30356SOL    HW191026   8.046   9.484   8.697
30356SOL    HW291027   7.909   9.529   8.649
30357SOL     OW91028   8.307   9.768   8.091
30357SOL    HW191029   8.285   9.845   8.038
30357SOL    HW291030   8.329   9.700   8.026
30358SOL     OW91031   8.469   9.358   8.181
30358SOL    HW191032   8.408   9.354   8.107
30358SOL    HW291033   8.443   9.286   8.238
30359SOL     OW91034   8.926   9.876   8.402
30359SOL    HW191035   8.851   9.819   8.421
30359SOL    HW291036   8.971   9.884   8.486
30360SOL     OW91037   7.997   9.582   7.755
30360SOL    HW191038   8.031   9.528   7.684
30360SOL    HW291039   8.013   9.672   7.728
30361SOL     OW91040   8.367   9.392   8.828
30361SOL    HW191041   8.389   9.371   8.737
30361SOL    HW291042   8.447   9.431   8.863
30362SOL     OW91043   8.715   9.687   8.743
30362SOL    HW191044   8.756   9.763   8.784
30362SOL    HW291045   8.630   9.718   8.713
30363SOL     OW91046   7.996   9.763   8.300
30363SOL    HW191047   7.991   9.770   8.205
30363SOL    HW291048   8.063   9.826   8.326
30364SOL     OW91049   9.021   9.879   7.967
30364SOL    HW191050   8.987   9.941   8.031
30364SOL    HW291051   9.072   9.933   7.907
30365SOL     OW91052   8.447   9.445   9.214
30365SOL    HW191053   8.507   9.517   9.194
30365SOL    HW291054   8.495   9.367   9.188
30366SOL     OW91055   7.942   9.335   9.206
30366SOL    HW191056   7.891   9.282   9.145
30366SOL    HW291057   7.887   9.410   9.225
30367SOL     OW91058   8.646   9.841   7.694
30367SOL    HW191059   8.664   9.759   7.739
30367SOL    HW291060   8.600   9.894   7.758
30368SOL     OW91061   7.738   9.498   8.688
30368SOL    HW191062   7.698   9.524   8.771
30368SOL    HW291063   7.724   9.404   8.683
30369SOL     OW91064   8.168   9.931   8.447
30369SOL    HW191065   8.252   9.897   8.417
30369SOL    HW291066   8.173   0.025   8.430
30370SOL     OW91067   7.773   9.373   8.076
30370SOL    HW191068   7.743   9.461   8.097
30370SOL    HW291069   7.780   9.329   8.161
30371SOL     OW91070   9.060   9.668   7.795
30371SOL    HW191071   9.109   9.602   7.845
30371SOL    HW291072   9.031   9.731   7.861
30372SOL     OW91073   8.955   9.573   7.559
30372SOL    HW191074   8.904   9.499   7.591
30372SOL    HW291075   8.994   9.612   7.637
30373SOL     OW91076   7.774   0.055   8.346
30373SOL    HW191077   7.851   0.111   8.356
30373SOL    HW291078   7.786   9.984   8.408
30374SOL     OW91079   7.813   9.821   8.493
30374SOL    HW191080   7.756   9.746   8.479
30374SOL    HW291081   7.886   9.807   8.433
30375SOL     OW91082   8.592   9.668   9.139
30375SOL    HW191083   8.538   9.727   9.192
30375SOL    HW291084   8.672   9.718   9.122
30376SOL     OW91085   8.603   9.501   8.918
30376SOL    HW191086   8.593   9.558   8.994
30376SOL    HW291087   8.650   9.554   8.853
30377SOL     OW91088   7.469   9.841   8.555
30377SOL    HW191089   7.542   9.809   8.502
30377SOL    HW291090   7.506   9.856   8.642
30378SOL     OW91091   7.709   9.804   9.168
30378SOL    HW191092   7.760   9.792   9.088
30378SOL    HW291093   7.742   9.887   9.204
30379SOL     OW91094   8.173   9.886   7.698
30379SOL    HW191095   8.231   9.811   7.686
30379SOL    HW291096   8.179   9.905   7.792
30380SOL     OW91097   9.088   9.898   8.629
30380SOL    HW191098   9.067   9.844   8.706
30380SOL    HW291099   9.173   9.867   8.600
30381SOL     OW91100   8.122   9.785   8.680
30381SOL    HW191101   8.078   9.704   8.653
30381SOL    HW291102   8.126   9.838   8.600
30382SOL     OW91103   9.200   9.479   7.940
30382SOL    HW191104   9.261   9.458   7.870
30382SOL    HW291105   9.173   9.394   7.974
30383SOL     OW91106   9.291   9.470   8.412
30383SOL    HW191107   9.321   9.381   8.394
30383SOL    HW291108   9.202   9.473   8.377
30384SOL     OW91109   7.697   9.620   8.164
30384SOL    HW191110   7.609   9.649   8.139
30384SOL    HW291111   7.697   9.623   8.260
30385SOL     OW91112   8.486   9.543   8.396
30385SOL    HW191113   8.483   9.494   8.314
30385SOL    HW291114   8.475   9.477   8.464
30386SOL     OW91115   9.213   9.688   8.861
30386SOL    HW191116   9.266   9.766   8.848
30386SOL    HW291117   9.236   9.631   8.787
30387SOL     OW91118   8.127   9.495   8.935
30387SOL    HW191119   8.211   9.470   8.898
30387SOL    HW291120   8.149   9.528   9.023
30388SOL     OW91121   7.532   9.639   7.451
30388SOL    HW191122   7.452   9.635   7.398
30388SOL    HW291123   7.581   9.714   7.416
30389SOL     OW91124   7.493   9.455   7.720
30389SOL    HW191125   7.476   9.525   7.657
30389SOL    HW291126   7.582   9.426   7.700
30390SOL     OW91127   8.184   9.846   9.137
30390SOL    HW191128   8.242   9.891   9.198
30390SOL    HW291129   8.188   9.754   9.163
30391SOL     OW91130   8.664   9.632   7.894
30391SOL    HW191131   8.724   9.557   7.897
30391SOL    HW291132   8.687   9.684   7.972
30392SOL     OW91133   9.191   9.673   9.132
30392SOL    HW191134   9.197   9.682   9.037
30392SOL    HW291135   9.119   9.611   9.146
30393SOL     OW91136   8.584   0.222   7.509
30393SOL    HW191137   8.585   0.318   7.505
30393SOL    HW291138   8.655   0.200   7.569
30394SOL     OW91139   9.263   9.490   8.684
30394SOL    HW191140   9.271   9.397   8.702
30394SOL    HW291141   9.271   9.497   8.589
30395SOL     OW91142   7.922   9.715   8.030
30395SOL    HW191143   7.922   9.672   7.944
30395SOL    HW291144   7.840   9.688   8.070
30396SOL     OW91145   7.783   9.909   8.753
30396SOL    HW191146   7.833   9.853   8.813
30396SOL    HW291147   7.806   9.877   8.666
30397SOL     OW91148   8.868   9.539   8.570
30397SOL    HW191149   8.878   9.451   8.607
30397SOL    HW291150   8.822   9.588   8.638
30398SOL     OW91151   8.456   9.321   8.569
30398SOL    HW191152   8.404   9.257   8.521
30398SOL    HW291153   8.544   9.282   8.573
30399SOL     OW91154   8.825   9.343   7.634
30399SOL    HW191155   8.865   9.269   7.589
30399SOL    HW291156   8.733   9.317   7.646
30400SOL     OW91157   8.736   9.773   8.120
30400SOL    HW191158   8.772   9.861   8.128
30400SOL    HW291159   8.732   9.740   8.210
30401SOL     OW91160   9.027   9.489   8.347
30401SOL    HW191161   8.974   9.521   8.419
30401SOL    HW291162   9.028   9.561   8.283
30402SOL     OW91163   9.080   9.917   9.527
30402SOL    HW191164   9.120   9.919   9.440
30402SOL    HW291165   9.089   9.827   9.556
30403SOL     OW91166   7.543   9.866   9.923
30403SOL    HW191167   7.514   9.876   9.832
30403SOL    HW291168   7.600   9.942   9.938
30404SOL     OW91169   8.270   9.348   9.826
30404SOL    HW191170   8.312   9.429   9.797
30404SOL    HW291171   8.177   9.370   9.830
30405SOL     OW91172   8.526   9.962   9.764
30405SOL    HW191173   8.556   9.947   9.853
30405SOL    HW291174   8.434   9.986   9.774
30406SOL     OW91175   8.343   9.654   9.492
30406SOL    HW191176   8.391   9.714   9.434
30406SOL    HW291177   8.345   9.570   9.446
30407SOL     OW91178   8.879   9.434   9.726
30407SOL    HW191179   8.871   9.392   9.640
30407SOL    HW291180   8.973   9.439   9.742
30408SOL     OW91181   8.105   9.412   9.410
30408SOL    HW191182   8.151   9.333   9.439
30408SOL    HW291183   8.046   9.381   9.342
30409SOL     OW91184   7.994   9.409   9.845
30409SOL    HW191185   7.900   9.409   9.867
30409SOL    HW291186   8.000   9.464   9.767
30410SOL     OW91187   7.736   9.369   9.498
30410SOL    HW191188   7.788   9.431   9.447
30410SOL    HW291189   7.800   9.315   9.544
30411SOL     OW91190   8.396   9.591   9.754
30411SOL    HW191191   8.371   9.613   9.665
30411SOL    HW291192   8.492   9.597   9.755
30412SOL     OW91193   8.476   9.834   9.337
30412SOL    HW191194   8.453   9.921   9.306
30412SOL    HW291195   8.542   9.849   9.405
30413SOL     OW91196   8.308   9.768   9.954
30413SOL    HW191197   8.277   9.846   9.907
30413SOL    HW291198   8.332   9.707   9.884
30414SOL     OW91199   8.011   9.565   9.624
30414SOL    HW191200   8.044   9.516   9.548
30414SOL    HW291201   8.019   9.657   9.599
30415SOL     OW91202   9.092   9.983   9.797
30415SOL    HW191203   9.005   0.019   9.813
30415SOL    HW291204   9.094   9.965   9.703
30416SOL     OW91205   8.648   9.849   9.554
30416SOL    HW191206   8.665   9.763   9.591
30416SOL    HW291207   8.605   9.898   9.624
30417SOL     OW91208   7.727   9.423   9.928
30417SOL    HW191209   7.660   9.490   9.941
30417SOL    HW291210   7.736   9.381   0.013
30418SOL     OW91211   9.056   9.685   9.670
30418SOL    HW191212   9.099   9.609   9.709
30418SOL    HW291213   9.018   9.732   9.744
30419SOL     OW91214   8.954   9.585   9.424
30419SOL    HW191215   8.904   9.508   9.450
30419SOL    HW291216   8.987   9.621   9.506
30420SOL     OW91217   7.796   9.803   0.272
30420SOL    HW191218   7.715   9.765   0.305
30420SOL    HW291219   7.861   9.733   0.281
30421SOL     OW91220   8.194   9.889   9.553
30421SOL    HW191221   8.244   9.808   9.540
30421SOL    HW291222   8.221   9.919   9.640
30422SOL     OW91223   9.165   9.455   9.772
30422SOL    HW191224   9.236   9.459   9.709
30422SOL    HW291225   9.180   9.374   9.821
30423SOL     OW91226   7.529   9.636   9.316
30423SOL    HW191227   7.450   9.632   9.263
30423SOL    HW291228   7.578   9.710   9.280
30424SOL     OW91229   7.490   9.459   9.581
30424SOL    HW191230   7.479   9.527   9.514
30424SOL    HW291231   7.580   9.428   9.567
30425SOL     OW91232   8.675   9.625   9.733
30425SOL    HW191233   8.739   9.556   9.721
30425SOL    HW291234   8.712   9.680   9.802
30426SOL     OW91235   8.578   0.238   9.369
30426SOL    HW191236   8.567   0.332   9.358
30426SOL    HW291237   8.641   0.229   9.440
30427SOL     OW91238   7.849   9.755   9.779
30427SOL    HW191239   7.878   9.667   9.754
30427SOL    HW291240   7.830   9.748   9.872
30428SOL     OW91241   8.825   9.344   9.474
30428SOL    HW191242   8.865   9.266   9.435
30428SOL    HW291243   8.736   9.318   9.494
30429SOL     OW91244   8.792   9.762   9.936
30429SOL    HW191245   8.715   9.800   9.979
30429SOL    HW291246   8.836   9.713   0.006
30430SOL     OW91247   9.496   0.605   0.142
30430SOL    HW191248   9.414   0.589   0.189
30430SOL    HW291249   9.486   0.554   0.061
30431SOL     OW91250   9.498   0.325   1.031
30431SOL    HW191251   9.544   0.275   1.097
30431SOL    HW291252   9.430   0.266   0.998
30432SOL     OW91253   9.293   0.420   0.656
30432SOL    HW191254   9.208   0.443   0.694
30432SOL    HW291255   9.274   0.343   0.601
30433SOL     OW91256   9.823   1.197   1.110
30433SOL    HW191257   9.756   1.263   1.090
30433SOL    HW291258   9.875   1.236   1.180
30434SOL     OW91259   0.116   0.820   1.895
30434SOL    HW191260   0.117   0.799   1.989
30434SOL    HW291261   0.205   0.847   1.876
30435SOL     OW91262   9.654   1.419   1.066
30435SOL    HW191263   9.576   1.385   1.022
30435SOL    HW291264   9.695   1.476   1.001
30436SOL     OW91265   9.758   0.401   1.480
30436SOL    HW191266   9.829   0.337   1.473
30436SOL    HW291267   9.679   0.348   1.490
30437SOL     OW91268   9.537   1.709   0.471
30437SOL    HW191269   9.548   1.786   0.527
30437SOL    HW291270   9.624   1.691   0.437
30438SOL     OW91271   9.533   1.432   0.489
30438SOL    HW191272   9.522   1.526   0.501
30438SOL    HW291273   9.494   1.393   0.567
30439SOL     OW91274   9.569   1.089   0.874
30439SOL    HW191275   9.574   1.002   0.912
30439SOL    HW291276   9.523   1.141   0.939
30440SOL     OW91277   9.422   0.656   0.574
30440SOL    HW191278   9.382   0.573   0.600
30440SOL    HW291279   9.414   0.712   0.651
30441SOL     OW91280   9.367   1.578   0.084
30441SOL    HW191281   9.350   1.488   0.114
30441SOL    HW291282   9.344   1.633   0.160
30442SOL     OW91283   9.422   0.747   1.575
30442SOL    HW191284   9.506   0.794   1.576
30442SOL    HW291285   9.357   0.815   1.561
30443SOL     OW91286   9.901   1.402   0.747
30443SOL    HW191287   9.860   1.316   0.747
30443SOL    HW291288   9.909   1.425   0.654
30444SOL     OW91289   9.493   0.955   1.294
30444SOL    HW191290   9.581   0.923   1.274
30444SOL    HW291291   9.439   0.924   1.220
30445SOL     OW91292   9.610   0.235   1.775
30445SOL    HW191293   9.676   0.276   1.831
30445SOL    HW291294   9.528   0.244   1.824
30446SOL     OW91295   9.871   0.709   0.282
30446SOL    HW191296   9.879   0.800   0.255
30446SOL    HW291297   9.808   0.711   0.354
30447SOL     OW91298   9.392   0.834   0.780
30447SOL    HW191299   9.474   0.821   0.827
30447SOL    HW291300   9.350   0.907   0.825
30448SOL     OW91301   9.412   1.885   1.590
30448SOL    HW191302   9.424   1.859   1.682
30448SOL    HW291303   9.326   1.850   1.567
30449SOL     OW91304   0.239   0.307   0.187
30449SOL    HW191305   0.307   0.374   0.182
30449SOL    HW291306   0.287   0.224   0.178
30450SOL     OW91307   9.906   0.232   0.923
30450SOL    HW191308   9.889   0.231   1.017
30450SOL    HW291309   9.889   0.322   0.897
30451SOL     OW91310   9.666   1.831   0.881
30451SOL    HW191311   9.724   1.755   0.890
30451SOL    HW291312   9.724   1.907   0.892
30452SOL     OW91313   9.608   0.951   0.264
30452SOL    HW191314   9.652   0.999   0.193
30452SOL    HW291315   9.624   0.859   0.243
30453SOL     OW91316   9.755   1.196   1.724
30453SOL    HW191317   9.735   1.224   1.634
30453SOL    HW291318   9.690   1.240   1.778
30454SOL     OW91319   9.519   0.266   1.512
30454SOL    HW191320   9.443   0.325   1.516
30454SOL    HW291321   9.538   0.247   1.604
30455SOL     OW91322   9.792   1.687   0.368
30455SOL    HW191323   9.826   1.767   0.406
30455SOL    HW291324   9.855   1.664   0.299
30456SOL     OW91325   9.563   1.791   1.222
30456SOL    HW191326   9.612   1.720   1.264
30456SOL    HW291327   9.559   1.767   1.130
30457SOL     OW91328   9.684   0.684   0.476
30457SOL    HW191329   9.711   0.595   0.498
30457SOL    HW291330   9.592   0.688   0.501
30458SOL     OW91331   0.158   1.442   0.841
30458SOL    HW191332   0.204   1.427   0.759
30458SOL    HW291333   0.067   1.418   0.823
30459SOL     OW91334   9.856   0.124   0.553
30459SOL    HW191335   9.782   0.076   0.589
30459SOL    HW291336   9.825   0.155   0.468
30460SOL     OW91337   9.632   0.069   0.175
30460SOL    HW191338   9.672   0.130   0.237
30460SOL    HW291339   9.632   9.985   0.222
30461SOL     OW91340   0.273   0.221   0.471
30461SOL    HW191341   0.257   0.303   0.517
30461SOL    HW291342   0.345   0.241   0.411
30462SOL     OW91343   9.773   1.168   0.716
30462SOL    HW191344   9.708   1.137   0.779
30462SOL    HW291345   9.736   1.147   0.630
30463SOL     OW91346   9.405   0.539   1.396
30463SOL    HW191347   9.495   0.549   1.364
30463SOL    HW291348   9.393   0.611   1.458
30464SOL     OW91349   9.862   0.221   1.189
30464SOL    HW191350   9.904   0.202   1.272
30464SOL    HW291351   9.768   0.214   1.207
30465SOL     OW91352   9.790   0.255   0.315
30465SOL    HW191353   9.878   0.225   0.295
30465SOL    HW291354   9.776   0.330   0.258
30466SOL     OW91355   9.735   0.831   1.247
30466SOL    HW191356   9.801   0.843   1.315
30466SOL    HW291357   9.702   0.742   1.260
30467SOL     OW91358   9.391   1.567   1.360
30467SOL    HW191359   9.360   1.638   1.304
30467SOL    HW291360   9.486   1.569   1.352
30468SOL     OW91361   9.626   1.124   0.481
30468SOL    HW191362   9.630   1.196   0.418
30468SOL    HW291363   9.628   1.045   0.427
30469SOL     OW91364   9.875   0.501   0.887
30469SOL    HW191365   9.870   0.568   0.819
30469SOL    HW291366   9.933   0.538   0.953
30470SOL     OW91367   9.663   1.537   1.312
30470SOL    HW191368   9.667   1.489   1.229
30470SOL    HW291369   9.755   1.547   1.338
30471SOL     OW91370   9.719   0.780   1.606
30471SOL    HW191371   9.782   0.828   1.552
30471SOL    HW291372   9.744   0.688   1.597
30472SOL     OW91373   9.806   0.057   1.688
30472SOL    HW191374   9.769   9.968   1.686
30472SOL    HW291375   9.732   0.113   1.713
30473SOL     OW91376   9.866   0.931   1.022
30473SOL    HW191377   9.851   1.024   1.038
30473SOL    HW291378   9.829   0.888   1.099
30474SOL     OW91379   9.598   0.184   1.257
30474SOL    HW191380   9.566   0.215   1.342
30474SOL    HW291381   9.609   0.090   1.268
30475SOL     OW91382   9.353   1.310   1.267
30475SOL    HW191383   9.382   1.254   1.338
30475SOL    HW291384   9.360   1.399   1.302
30476SOL     OW91385   9.587   0.063   0.646
30476SOL    HW191386   9.571   0.157   0.639
30476SOL    HW291387   9.611   0.049   0.738
30477SOL     OW91388   9.668   0.951   1.825
30477SOL    HW191389   9.712   1.030   1.793
30477SOL    HW291390   9.690   0.884   1.760
30478SOL     OW91391   9.615   0.818   0.940
30478SOL    HW191392   9.707   0.846   0.938
30478SOL    HW291393   9.617   0.729   0.974
30479SOL     OW91394   9.649   0.552   1.023
30479SOL    HW191395   9.593   0.474   1.013
30479SOL    HW291396   9.727   0.532   0.972
30480SOL     OW91397   9.328   1.291   0.171
30480SOL    HW191398   9.238   1.318   0.156
30480SOL    HW291399   9.321   1.211   0.223
30481SOL     OW91400   9.406   1.773   0.951
30481SOL    HW191401   9.375   1.699   0.899
30481SOL    HW291402   9.493   1.791   0.916
30482SOL     OW91403   9.818   1.602   0.915
30482SOL    HW191404   9.902   1.641   0.940
30482SOL    HW291405   9.841   1.534   0.852
30483SOL     OW91406   9.321   0.521   1.128
30483SOL    HW191407   9.381   0.464   1.080
30483SOL    HW291408   9.366   0.539   1.211
30484SOL     OW91409   9.493   0.546   1.748
30484SOL    HW191410   9.570   0.518   1.699
30484SOL    HW291411   9.454   0.615   1.695
30485SOL     OW91412   0.113   0.583   0.276
30485SOL    HW191413   0.108   0.503   0.328
30485SOL    HW291414   0.028   0.626   0.289
30486SOL     OW91415   9.536   1.546   1.713
30486SOL    HW191416   9.516   1.614   1.778
30486SOL    HW291417   9.559   1.469   1.766
30487SOL     OW91418   9.756   0.484   0.167
30487SOL    HW191419   9.811   0.557   0.193
30487SOL    HW291420   9.668   0.521   0.161
30488SOL     OW91421   9.431   1.145   1.477
30488SOL    HW191422   9.435   1.104   1.563
30488SOL    HW291423   9.454   1.074   1.416
30489SOL     OW91424   9.408   1.267   1.007
30489SOL    HW191425   9.383   1.281   1.098
30489SOL    HW291426   9.340   1.209   0.972
30490SOL     OW91427   9.988   1.607   1.671
30490SOL    HW191428   9.969   1.678   1.733
30490SOL    HW291429   0.082   1.595   1.678
30491SOL     OW91430   9.449   1.792   1.842
30491SOL    HW191431   9.403   1.722   1.887
30491SOL    HW291432   9.499   1.837   1.910
30492SOL     OW91433   9.550   0.331   0.708
30492SOL    HW191434   9.464   0.368   0.694
30492SOL    HW291435   9.557   0.320   0.803
30493SOL     OW91436   9.664   1.300   1.492
30493SOL    HW191437   9.654   1.382   1.443
30493SOL    HW291438   9.582   1.253   1.477
30494SOL     OW91439   9.930   1.456   0.479
30494SOL    HW191440   9.938   1.404   0.400
30494SOL    HW291441   9.876   1.531   0.453
30495SOL     OW91442   9.594   1.306   0.257
30495SOL    HW191443   9.507   1.311   0.217
30495SOL    HW291444   9.588   1.363   0.333
30496SOL     OW91445   9.418   1.032   1.724
30496SOL    HW191446   9.342   1.013   1.779
30496SOL    HW291447   9.493   1.000   1.775
30497SOL     OW91448   9.929   0.182   1.467
30497SOL    HW191449   0.020   0.204   1.483
30497SOL    HW291450   9.901   0.135   1.546
30498SOL     OW91451   9.364   0.421   9.961
30498SOL    HW191452   9.350   0.379   0.046
30498SOL    HW291453   9.328   0.359   9.898
30499SOL     OW91454   9.923   0.873   1.439
30499SOL    HW191455   9.953   0.955   1.400
30499SOL    HW291456   0.004   0.827   1.462
30500SOL     OW91457   9.658   1.756   1.567
30500SOL    HW191458   9.574   1.797   1.552
30500SOL    HW291459   9.637   1.669   1.602
30501SOL     OW91460   9.849   0.700   0.708
30501SOL    HW191461   9.913   0.770   0.722
30501SOL    HW291462   9.802   0.726   0.629
30502SOL     OW91463   9.565   1.319   1.874
30502SOL    HW191464   9.475   1.287   1.873
30502SOL    HW291465   9.587   1.326   1.967
30503SOL     OW91466   9.433   1.219   0.660
30503SOL    HW191467   9.464   1.180   0.742
30503SOL    HW291468   9.491   1.183   0.593
30504SOL     OW91469   9.981   1.346   1.770
30504SOL    HW191470   9.909   1.289   1.742
30504SOL    HW291471   9.968   1.427   1.721
30505SOL     OW91472   9.748   0.427   0.538
30505SOL    HW191473   9.750   0.362   0.468
30505SOL    HW291474   9.684   0.393   0.601
30506SOL     OW91475   9.654   0.575   1.297
30506SOL    HW191476   9.709   0.514   1.345
30506SOL    HW291477   9.668   0.554   1.205
30507SOL     OW91478   9.345   1.041   0.298
30507SOL    HW191479   9.441   1.039   0.298
30507SOL    HW291480   9.319   0.955   0.331
30508SOL     OW91481   9.518   0.641   2.009
30508SOL    HW191482   9.433   0.620   2.048
30508SOL    HW291483   9.508   0.620   1.916
30509SOL     OW91484   9.497   0.323   2.894
30509SOL    HW191485   9.542   0.274   2.962
30509SOL    HW291486   9.430   0.263   2.861
30510SOL     OW91487   9.293   0.409   2.504
30510SOL    HW191488   9.209   0.432   2.544
30510SOL    HW291489   9.272   0.334   2.448
30511SOL     OW91490   9.825   1.197   2.970
30511SOL    HW191491   9.758   1.262   2.952
30511SOL    HW291492   9.878   1.235   3.040
30512SOL     OW91493   0.115   0.820   3.757
30512SOL    HW191494   0.116   0.798   3.850
30512SOL    HW291495   0.205   0.847   3.738
30513SOL     OW91496   9.655   1.418   2.929
30513SOL    HW191497   9.578   1.383   2.886
30513SOL    HW291498   9.695   1.476   2.864
30514SOL     OW91499   9.757   0.401   3.342
30514SOL    HW191500   9.828   0.337   3.335
30514SOL    HW291501   9.678   0.348   3.352
30515SOL     OW91502   9.530   1.724   2.328
30515SOL    HW191503   9.548   1.797   2.388
30515SOL    HW291504   9.614   1.706   2.286
30516SOL     OW91505   9.536   1.449   2.380
30516SOL    HW191506   9.517   1.543   2.390
30516SOL    HW291507   9.495   1.408   2.456
30517SOL     OW91508   9.578   1.091   2.727
30517SOL    HW191509   9.582   1.004   2.765
30517SOL    HW291510   9.532   1.144   2.793
30518SOL     OW91511   9.421   0.657   2.432
30518SOL    HW191512   9.383   0.572   2.455
30518SOL    HW291513   9.412   0.710   2.511
30519SOL     OW91514   9.361   1.577   1.977
30519SOL    HW191515   9.341   1.485   1.995
30519SOL    HW291516   9.331   1.623   2.055
30520SOL     OW91517   9.422   0.747   3.436
30520SOL    HW191518   9.505   0.793   3.437
30520SOL    HW291519   9.356   0.815   3.423
30521SOL     OW91520   9.891   1.416   2.595
30521SOL    HW191521   9.854   1.327   2.592
30521SOL    HW291522   9.900   1.441   2.503
30522SOL     OW91523   9.494   0.955   3.156
30522SOL    HW191524   9.582   0.923   3.136
30522SOL    HW291525   9.441   0.927   3.081
30523SOL     OW91526   9.610   0.235   3.637
30523SOL    HW191527   9.676   0.276   3.694
30523SOL    HW291528   9.528   0.245   3.686
30524SOL     OW91529   9.854   0.744   2.137
30524SOL    HW191530   9.821   0.824   2.096
30524SOL    HW291531   9.795   0.730   2.212
30525SOL     OW91532   9.389   0.831   2.642
30525SOL    HW191533   9.472   0.820   2.689
30525SOL    HW291534   9.346   0.904   2.686
30526SOL     OW91535   9.412   1.885   3.452
30526SOL    HW191536   9.424   1.859   3.544
30526SOL    HW291537   9.325   1.852   3.429
30527SOL     OW91538   0.188   0.318   2.095
30527SOL    HW191539   0.214   0.403   2.059
30527SOL    HW291540   0.248   0.255   2.053
30528SOL     OW91541   9.901   0.235   2.785
30528SOL    HW191542   9.885   0.234   2.879
30528SOL    HW291543   9.885   0.326   2.759
30529SOL     OW91544   9.665   1.833   2.747
30529SOL    HW191545   9.722   1.757   2.756
30529SOL    HW291546   9.723   1.908   2.757
30530SOL     OW91547   9.599   0.926   2.093
30530SOL    HW191548   9.624   0.944   2.003
30530SOL    HW291549   9.570   0.835   2.092
30531SOL     OW91550   9.755   1.196   3.585
30531SOL    HW191551   9.735   1.224   3.496
30531SOL    HW291552   9.690   1.240   3.640
30532SOL     OW91553   9.519   0.266   3.374
30532SOL    HW191554   9.442   0.323   3.378
30532SOL    HW291555   9.538   0.246   3.466
30533SOL     OW91556   9.786   1.721   2.199
30533SOL    HW191557   9.820   1.790   2.255
30533SOL    HW291558   9.857   1.702   2.138
30534SOL     OW91559   9.562   1.791   3.085
30534SOL    HW191560   9.612   1.721   3.126
30534SOL    HW291561   9.560   1.767   2.992
30535SOL     OW91562   9.688   0.689   2.346
30535SOL    HW191563   9.715   0.600   2.369
30535SOL    HW291564   9.594   0.691   2.365
30536SOL     OW91565   9.839   0.106   1.973
30536SOL    HW191566   9.918   0.093   2.024
30536SOL    HW291567   9.866   0.088   1.883
30537SOL     OW91568   0.142   1.436   2.711
30537SOL    HW191569   0.182   1.364   2.663
30537SOL    HW291570   0.051   1.436   2.682
30538SOL     OW91571   9.881   0.138   2.388
30538SOL    HW191572   9.808   0.090   2.428
30538SOL    HW291573   9.840   0.188   2.317
30539SOL     OW91574   9.588   0.040   2.067
30539SOL    HW191575   9.672   0.060   2.026
30539SOL    HW291576   9.607   9.970   2.129
30540SOL     OW91577   0.305   0.204   2.331
30540SOL    HW191578   0.239   0.266   2.301
30540SOL    HW291579   0.382   0.224   2.277
30541SOL     OW91580   9.779   1.168   2.559
30541SOL    HW191581   9.716   1.138   2.625
30541SOL    HW291582   9.738   1.147   2.475
30542SOL     OW91583   9.404   0.539   3.257
30542SOL    HW191584   9.494   0.550   3.226
30542SOL    HW291585   9.392   0.611   3.319
30543SOL     OW91586   9.861   0.223   3.051
30543SOL    HW191587   9.904   0.204   3.134
30543SOL    HW291588   9.767   0.215   3.070
30544SOL     OW91589   9.781   0.286   2.181
30544SOL    HW191590   9.791   0.218   2.114
30544SOL    HW291591   9.773   0.368   2.131
30545SOL     OW91592   9.736   0.830   3.106
30545SOL    HW191593   9.802   0.843   3.175
30545SOL    HW291594   9.703   0.741   3.121
30546SOL     OW91595   9.390   1.566   3.222
30546SOL    HW191596   9.359   1.638   3.167
30546SOL    HW291597   9.486   1.569   3.214
30547SOL     OW91598   9.633   1.113   2.323
30547SOL    HW191599   9.624   1.187   2.263
30547SOL    HW291600   9.633   1.036   2.266
30548SOL     OW91601   9.875   0.505   2.750
30548SOL    HW191602   9.865   0.577   2.687
30548SOL    HW291603   9.933   0.541   2.817
30549SOL     OW91604   9.663   1.538   3.175
30549SOL    HW191605   9.667   1.489   3.092
30549SOL    HW291606   9.754   1.548   3.201
30550SOL     OW91607   9.718   0.780   3.468
30550SOL    HW191608   9.781   0.827   3.413
30550SOL    HW291609   9.743   0.688   3.459
30551SOL     OW91610   9.804   0.056   3.550
30551SOL    HW191611   9.767   9.968   3.548
30551SOL    HW291612   9.731   0.112   3.575
30552SOL     OW91613   9.874   0.931   2.883
30552SOL    HW191614   9.855   1.024   2.900
30552SOL    HW291615   9.831   0.885   2.955
30553SOL     OW91616   9.597   0.183   3.119
30553SOL    HW191617   9.565   0.214   3.204
30553SOL    HW291618   9.607   0.089   3.130
30554SOL     OW91619   9.356   1.310   3.127
30554SOL    HW191620   9.383   1.253   3.199
30554SOL    HW291621   9.362   1.399   3.163
30555SOL     OW91622   9.604   0.069   2.491
30555SOL    HW191623   9.583   0.162   2.490
30555SOL    HW291624   9.625   0.050   2.583
30556SOL     OW91625   9.668   0.952   3.687
30556SOL    HW191626   9.712   1.030   3.655
30556SOL    HW291627   9.689   0.884   3.622
30557SOL     OW91628   9.615   0.818   2.798
30557SOL    HW191629   9.707   0.837   2.781
30557SOL    HW291630   9.614   0.730   2.836
30558SOL     OW91631   9.646   0.551   2.886
30558SOL    HW191632   9.592   0.473   2.875
30558SOL    HW291633   9.725   0.533   2.834
30559SOL     OW91634   9.313   1.302   2.042
30559SOL    HW191635   9.225   1.327   2.014
30559SOL    HW291636   9.304   1.214   2.076
30560SOL     OW91637   9.404   1.772   2.813
30560SOL    HW191638   9.374   1.698   2.760
30560SOL    HW291639   9.492   1.791   2.779
30561SOL     OW91640   9.817   1.605   2.778
30561SOL    HW191641   9.902   1.641   2.803
30561SOL    HW291642   9.837   1.541   2.710
30562SOL     OW91643   9.320   0.520   2.990
30562SOL    HW191644   9.381   0.463   2.942
30562SOL    HW291645   9.365   0.539   3.072
30563SOL     OW91646   9.492   0.546   3.611
30563SOL    HW191647   9.569   0.517   3.560
30563SOL    HW291648   9.453   0.615   3.557
30564SOL     OW91649   0.115   0.677   2.156
30564SOL    HW191650   0.128   0.659   2.249
30564SOL    HW291651   0.021   0.695   2.148
30565SOL     OW91652   9.536   1.546   3.575
30565SOL    HW191653   9.516   1.614   3.639
30565SOL    HW291654   9.559   1.469   3.628
30566SOL     OW91655   9.760   0.506   2.022
30566SOL    HW191656   9.816   0.579   2.049
30566SOL    HW291657   9.672   0.543   2.020
30567SOL     OW91658   9.432   1.144   3.338
30567SOL    HW191659   9.435   1.104   3.425
30567SOL    HW291660   9.455   1.074   3.278
30568SOL     OW91661   9.416   1.260   2.869
30568SOL    HW191662   9.389   1.277   2.959
30568SOL    HW291663   9.346   1.205   2.833
30569SOL     OW91664   9.987   1.608   3.532
30569SOL    HW191665   9.968   1.677   3.595
30569SOL    HW291666   0.082   1.595   3.540
30570SOL     OW91667   9.449   1.792   3.703
30570SOL    HW191668   9.403   1.721   3.749
30570SOL    HW291669   9.499   1.836   3.772
30571SOL     OW91670   9.551   0.330   2.569
30571SOL    HW191671   9.463   0.363   2.553
30571SOL    HW291672   9.554   0.314   2.664
30572SOL     OW91673   9.664   1.300   3.354
30572SOL    HW191674   9.654   1.382   3.305
30572SOL    HW291675   9.582   1.253   3.339
30573SOL     OW91676   9.900   1.472   2.325
30573SOL    HW191677   9.913   1.415   2.250
30573SOL    HW291678   9.841   1.541   2.294
30574SOL     OW91679   9.566   1.321   2.149
30574SOL    HW191680   9.474   1.320   2.123
30574SOL    HW291681   9.568   1.375   2.228
30575SOL     OW91682   9.418   1.033   3.586
30575SOL    HW191683   9.342   1.013   3.641
30575SOL    HW291684   9.493   1.001   3.636
30576SOL     OW91685   9.928   0.181   3.329
30576SOL    HW191686   0.019   0.204   3.346
30576SOL    HW291687   9.900   0.134   3.408
30577SOL     OW91688   9.376   0.333   1.883
30577SOL    HW191689   9.291   0.325   1.839
30577SOL    HW291690   9.412   0.415   1.851
30578SOL     OW91691   9.376   0.203   2.133
30578SOL    HW191692   9.371   0.257   2.054
30578SOL    HW291693   9.449   0.143   2.117
30579SOL     OW91694   9.923   0.873   3.301
30579SOL    HW191695   9.953   0.955   3.263
30579SOL    HW291696   0.003   0.826   3.324
30580SOL     OW91697   9.658   1.756   3.429
30580SOL    HW191698   9.573   1.798   3.414
30580SOL    HW291699   9.636   1.669   3.464
30581SOL     OW91700   9.834   0.718   2.587
30581SOL    HW191701   9.910   0.776   2.584
30581SOL    HW291702   9.791   0.731   2.502
30582SOL     OW91703   9.565   1.319   3.736
30582SOL    HW191704   9.475   1.287   3.734
30582SOL    HW291705   9.587   1.326   3.829
30583SOL     OW91706   9.431   1.216   2.519
30583SOL    HW191707   9.468   1.177   2.598
30583SOL    HW291708   9.484   1.181   2.447
30584SOL     OW91709   9.981   1.346   3.631
30584SOL    HW191710   9.909   1.289   3.603
30584SOL    HW291711   9.968   1.427   3.581
30585SOL     OW91712   9.754   0.436   2.414
30585SOL    HW191713   9.754   0.378   2.337
30585SOL    HW291714   9.687   0.399   2.472
30586SOL     OW91715   9.653   0.575   3.159
30586SOL    HW191716   9.709   0.514   3.206
30586SOL    HW291717   9.667   0.554   3.067
30587SOL     OW91718   9.342   1.049   2.168
30587SOL    HW191719   9.433   1.038   2.143
30587SOL    HW291720   9.312   0.961   2.190
30588SOL     OW91721   9.518   0.641   3.871
30588SOL    HW191722   9.433   0.620   3.910
30588SOL    HW291723   9.508   0.620   3.778
30589SOL     OW91724   9.497   0.323   4.756
30589SOL    HW191725   9.542   0.274   4.824
30589SOL    HW291726   9.430   0.263   4.723
30590SOL     OW91727   9.293   0.409   4.366
30590SOL    HW191728   9.209   0.433   4.406
30590SOL    HW291729   9.272   0.334   4.310
30591SOL     OW91730   9.825   1.197   4.832
30591SOL    HW191731   9.758   1.262   4.814
30591SOL    HW291732   9.878   1.235   4.902
30592SOL     OW91733   0.115   0.820   5.619
30592SOL    HW191734   0.116   0.798   5.712
30592SOL    HW291735   0.205   0.847   5.601
30593SOL     OW91736   9.655   1.418   4.791
30593SOL    HW191737   9.578   1.383   4.748
30593SOL    HW291738   9.695   1.476   4.726
30594SOL     OW91739   9.757   0.401   5.204
30594SOL    HW191740   9.828   0.337   5.197
30594SOL    HW291741   9.678   0.349   5.214
30595SOL     OW91742   9.529   1.724   4.191
30595SOL    HW191743   9.548   1.797   4.250
30595SOL    HW291744   9.613   1.706   4.148
30596SOL     OW91745   9.536   1.449   4.242
30596SOL    HW191746   9.517   1.542   4.252
30596SOL    HW291747   9.495   1.408   4.318
30597SOL     OW91748   9.578   1.091   4.589
30597SOL    HW191749   9.582   1.003   4.627
30597SOL    HW291750   9.532   1.144   4.655
30598SOL     OW91751   9.421   0.657   4.294
30598SOL    HW191752   9.383   0.572   4.317
30598SOL    HW291753   9.412   0.709   4.373
30599SOL     OW91754   9.361   1.576   3.839
30599SOL    HW191755   9.341   1.484   3.857
30599SOL    HW291756   9.331   1.623   3.917
30600SOL     OW91757   9.422   0.747   5.298
30600SOL    HW191758   9.505   0.793   5.299
30600SOL    HW291759   9.356   0.815   5.285
30601SOL     OW91760   9.891   1.416   4.457
30601SOL    HW191761   9.854   1.328   4.454
30601SOL    HW291762   9.900   1.442   4.365
30602SOL     OW91763   9.494   0.955   5.018
30602SOL    HW191764   9.582   0.923   4.998
30602SOL    HW291765   9.441   0.926   4.944
30603SOL     OW91766   9.610   0.235   5.499
30603SOL    HW191767   9.676   0.276   5.556
30603SOL    HW291768   9.528   0.245   5.548
30604SOL     OW91769   9.853   0.745   4.000
30604SOL    HW191770   9.819   0.825   3.959
30604SOL    HW291771   9.795   0.730   4.075
30605SOL     OW91772   9.390   0.831   4.504
30605SOL    HW191773   9.472   0.820   4.551
30605SOL    HW291774   9.346   0.904   4.548
30606SOL     OW91775   9.412   1.885   5.314
30606SOL    HW191776   9.424   1.859   5.405
30606SOL    HW291777   9.325   1.853   5.291
30607SOL     OW91778   0.188   0.318   3.957
30607SOL    HW191779   0.214   0.402   3.921
30607SOL    HW291780   0.248   0.255   3.916
30608SOL     OW91781   9.902   0.235   4.647
30608SOL    HW191782   9.885   0.234   4.741
30608SOL    HW291783   9.886   0.326   4.621
30609SOL     OW91784   9.665   1.833   4.609
30609SOL    HW191785   9.723   1.757   4.618
30609SOL    HW291786   9.723   1.908   4.619
30610SOL     OW91787   9.600   0.926   3.955
30610SOL    HW191788   9.624   0.944   3.864
30610SOL    HW291789   9.570   0.834   3.954
30611SOL     OW91790   9.755   1.196   5.447
30611SOL    HW191791   9.735   1.224   5.358
30611SOL    HW291792   9.690   1.240   5.502
30612SOL     OW91793   9.519   0.266   5.236
30612SOL    HW191794   9.442   0.323   5.240
30612SOL    HW291795   9.538   0.246   5.328
30613SOL     OW91796   9.786   1.721   4.061
30613SOL    HW191797   9.820   1.791   4.117
30613SOL    HW291798   9.857   1.702   4.000
30614SOL     OW91799   9.562   1.791   4.946
30614SOL    HW191800   9.611   1.720   4.988
30614SOL    HW291801   9.559   1.768   4.854
30615SOL     OW91802   9.688   0.689   4.208
30615SOL    HW191803   9.715   0.600   4.231
30615SOL    HW291804   9.594   0.691   4.227
30616SOL     OW91805   9.839   0.106   3.835
30616SOL    HW191806   9.918   0.093   3.886
30616SOL    HW291807   9.865   0.088   3.744
30617SOL     OW91808   0.142   1.436   4.573
30617SOL    HW191809   0.182   1.364   4.525
30617SOL    HW291810   0.051   1.436   4.544
30618SOL     OW91811   9.881   0.138   4.250
30618SOL    HW191812   9.808   0.090   4.290
30618SOL    HW291813   9.841   0.188   4.179
30619SOL     OW91814   9.588   0.040   3.929
30619SOL    HW191815   9.672   0.060   3.888
30619SOL    HW291816   9.607   9.969   3.990
30620SOL     OW91817   0.306   0.204   4.193
30620SOL    HW191818   0.239   0.265   4.163
30620SOL    HW291819   0.382   0.224   4.139
30621SOL     OW91820   9.780   1.168   4.421
30621SOL    HW191821   9.717   1.138   4.487
30621SOL    HW291822   9.738   1.147   4.337
30622SOL     OW91823   9.404   0.539   5.119
30622SOL    HW191824   9.494   0.550   5.088
30622SOL    HW291825   9.392   0.611   5.181
30623SOL     OW91826   9.861   0.223   4.913
30623SOL    HW191827   9.904   0.204   4.996
30623SOL    HW291828   9.767   0.215   4.932
30624SOL     OW91829   9.781   0.287   4.043
30624SOL    HW191830   9.790   0.219   3.976
30624SOL    HW291831   9.774   0.368   3.993
30625SOL     OW91832   9.736   0.830   4.968
30625SOL    HW191833   9.802   0.843   5.037
30625SOL    HW291834   9.703   0.741   4.983
30626SOL     OW91835   9.390   1.566   5.084
30626SOL    HW191836   9.359   1.638   5.029
30626SOL    HW291837   9.485   1.569   5.076
30627SOL     OW91838   9.633   1.113   4.185
30627SOL    HW191839   9.624   1.187   4.125
30627SOL    HW291840   9.633   1.036   4.128
30628SOL     OW91841   9.875   0.505   4.612
30628SOL    HW191842   9.865   0.577   4.549
30628SOL    HW291843   9.933   0.541   4.679
30629SOL     OW91844   9.663   1.538   5.037
30629SOL    HW191845   9.667   1.490   4.954
30629SOL    HW291846   9.754   1.548   5.063
30630SOL     OW91847   9.718   0.780   5.330
30630SOL    HW191848   9.781   0.827   5.275
30630SOL    HW291849   9.743   0.688   5.321
30631SOL     OW91850   9.804   0.056   5.412
30631SOL    HW191851   9.767   9.968   5.410
30631SOL    HW291852   9.731   0.112   5.437
30632SOL     OW91853   9.874   0.931   4.745
30632SOL    HW191854   9.855   1.024   4.762
30632SOL    HW291855   9.831   0.885   4.817
30633SOL     OW91856   9.597   0.183   4.981
30633SOL    HW191857   9.565   0.214   5.066
30633SOL    HW291858   9.607   0.089   4.992
30634SOL     OW91859   9.356   1.310   4.989
30634SOL    HW191860   9.383   1.253   5.061
30634SOL    HW291861   9.362   1.399   5.025
30635SOL     OW91862   9.605   0.069   4.353
30635SOL    HW191863   9.583   0.162   4.352
30635SOL    HW291864   9.625   0.050   4.445
30636SOL     OW91865   9.668   0.952   5.549
30636SOL    HW191866   9.712   1.030   5.517
30636SOL    HW291867   9.689   0.884   5.484
30637SOL     OW91868   9.615   0.818   4.660
30637SOL    HW191869   9.707   0.837   4.644
30637SOL    HW291870   9.614   0.730   4.698
30638SOL     OW91871   9.646   0.551   4.748
30638SOL    HW191872   9.592   0.473   4.737
30638SOL    HW291873   9.725   0.533   4.696
30639SOL     OW91874   9.313   1.302   3.903
30639SOL    HW191875   9.225   1.327   3.876
30639SOL    HW291876   9.304   1.214   3.938
30640SOL     OW91877   9.404   1.772   4.675
30640SOL    HW191878   9.374   1.698   4.622
30640SOL    HW291879   9.492   1.791   4.641
30641SOL     OW91880   9.817   1.606   4.640
30641SOL    HW191881   9.903   1.641   4.666
30641SOL    HW291882   9.837   1.542   4.572
30642SOL     OW91883   9.320   0.520   4.852
30642SOL    HW191884   9.381   0.463   4.804
30642SOL    HW291885   9.365   0.539   4.934
30643SOL     OW91886   9.492   0.546   5.473
30643SOL    HW191887   9.568   0.517   5.422
30643SOL    HW291888   9.453   0.615   5.419
30644SOL     OW91889   0.114   0.678   4.017
30644SOL    HW191890   0.128   0.660   4.110
30644SOL    HW291891   0.020   0.696   4.010
30645SOL     OW91892   9.536   1.546   5.437
30645SOL    HW191893   9.516   1.614   5.501
30645SOL    HW291894   9.559   1.469   5.490
30646SOL     OW91895   9.760   0.507   3.885
30646SOL    HW191896   9.816   0.580   3.911
30646SOL    HW291897   9.672   0.543   3.882
30647SOL     OW91898   9.432   1.144   5.200
30647SOL    HW191899   9.435   1.104   5.287
30647SOL    HW291900   9.455   1.074   5.140
30648SOL     OW91901   9.416   1.260   4.731
30648SOL    HW191902   9.390   1.277   4.821
30648SOL    HW291903   9.346   1.205   4.695
30649SOL     OW91904   9.987   1.608   5.394
30649SOL    HW191905   9.968   1.677   5.457
30649SOL    HW291906   0.082   1.595   5.402
30650SOL     OW91907   9.449   1.792   5.565
30650SOL    HW191908   9.403   1.721   5.611
30650SOL    HW291909   9.499   1.836   5.634
30651SOL     OW91910   9.551   0.330   4.432
30651SOL    HW191911   9.463   0.363   4.415
30651SOL    HW291912   9.553   0.314   4.526
30652SOL     OW91913   9.664   1.300   5.216
30652SOL    HW191914   9.654   1.382   5.167
30652SOL    HW291915   9.582   1.253   5.201
30653SOL     OW91916   9.900   1.473   4.187
30653SOL    HW191917   9.913   1.415   4.112
30653SOL    HW291918   9.840   1.541   4.156
30654SOL     OW91919   9.566   1.321   4.011
30654SOL    HW191920   9.474   1.319   3.985
30654SOL    HW291921   9.568   1.374   4.090
30655SOL     OW91922   9.418   1.033   5.448
30655SOL    HW191923   9.342   1.013   5.503
30655SOL    HW291924   9.493   1.001   5.498
30656SOL     OW91925   9.928   0.182   5.192
30656SOL    HW191926   0.019   0.204   5.208
30656SOL    HW291927   9.900   0.134   5.270
30657SOL     OW91928   9.376   0.333   3.745
30657SOL    HW191929   9.291   0.325   3.702
30657SOL    HW291930   9.411   0.415   3.713
30658SOL     OW91931   9.376   0.203   3.995
30658SOL    HW191932   9.371   0.257   3.916
30658SOL    HW291933   9.449   0.143   3.979
30659SOL     OW91934   9.923   0.873   5.163
30659SOL    HW191935   9.953   0.955   5.125
30659SOL    HW291936   0.003   0.826   5.186
30660SOL     OW91937   9.658   1.756   5.291
30660SOL    HW191938   9.574   1.798   5.276
30660SOL    HW291939   9.636   1.669   5.326
30661SOL     OW91940   9.834   0.718   4.449
30661SOL    HW191941   9.910   0.776   4.445
30661SOL    HW291942   9.791   0.731   4.365
30662SOL     OW91943   9.565   1.318   5.598
30662SOL    HW191944   9.475   1.287   5.596
30662SOL    HW291945   9.587   1.326   5.691
30663SOL     OW91946   9.431   1.217   4.381
30663SOL    HW191947   9.468   1.177   4.460
30663SOL    HW291948   9.484   1.181   4.309
30664SOL     OW91949   9.981   1.346   5.492
30664SOL    HW191950   9.909   1.289   5.465
30664SOL    HW291951   9.968   1.427   5.443
30665SOL     OW91952   9.754   0.435   4.276
30665SOL    HW191953   9.754   0.378   4.200
30665SOL    HW291954   9.687   0.399   4.334
30666SOL     OW91955   9.653   0.575   5.021
30666SOL    HW191956   9.709   0.514   5.068
30666SOL    HW291957   9.667   0.554   4.929
30667SOL     OW91958   9.342   1.049   4.030
30667SOL    HW191959   9.434   1.038   4.005
30667SOL    HW291960   9.312   0.961   4.052
30668SOL     OW91961   9.518   0.641   5.733
30668SOL    HW191962   9.433   0.620   5.772
30668SOL    HW291963   9.508   0.621   5.640
30669SOL     OW91964   9.497   0.323   6.618
30669SOL    HW191965   9.542   0.274   6.686
30669SOL    HW291966   9.430   0.263   6.585
30670SOL     OW91967   9.293   0.409   6.228
30670SOL    HW191968   9.209   0.432   6.268
30670SOL    HW291969   9.272   0.334   6.172
30671SOL     OW91970   9.825   1.197   6.694
30671SOL    HW191971   9.758   1.262   6.676
30671SOL    HW291972   9.878   1.235   6.764
30672SOL     OW91973   0.116   0.820   7.481
30672SOL    HW191974   0.116   0.799   7.575
30672SOL    HW291975   0.205   0.848   7.462
30673SOL     OW91976   9.655   1.418   6.653
30673SOL    HW191977   9.577   1.383   6.610
30673SOL    HW291978   9.695   1.476   6.588
30674SOL     OW91979   9.758   0.401   7.066
30674SOL    HW191980   9.828   0.337   7.059
30674SOL    HW291981   9.678   0.348   7.076
30675SOL     OW91982   9.530   1.724   6.053
30675SOL    HW191983   9.548   1.797   6.112
30675SOL    HW291984   9.614   1.706   6.010
30676SOL     OW91985   9.536   1.449   6.104
30676SOL    HW191986   9.517   1.543   6.114
30676SOL    HW291987   9.495   1.408   6.180
30677SOL     OW91988   9.578   1.091   6.451
30677SOL    HW191989   9.582   1.004   6.489
30677SOL    HW291990   9.532   1.144   6.516
30678SOL     OW91991   9.421   0.657   6.156
30678SOL    HW191992   9.383   0.572   6.179
30678SOL    HW291993   9.411   0.709   6.235
30679SOL     OW91994   9.361   1.576   5.701
30679SOL    HW191995   9.341   1.484   5.719
30679SOL    HW291996   9.331   1.623   5.779
30680SOL     OW91997   9.422   0.747   7.160
30680SOL    HW191998   9.505   0.793   7.161
30680SOL    HW291999   9.356   0.815   7.147
30681SOL     OW92000   9.891   1.416   6.319
30681SOL    HW192001   9.854   1.327   6.316
30681SOL    HW292002   9.900   1.441   6.227
30682SOL     OW92003   9.494   0.955   6.880
30682SOL    HW192004   9.582   0.923   6.860
30682SOL    HW292005   9.441   0.927   6.805
30683SOL     OW92006   9.610   0.236   7.361
30683SOL    HW192007   9.676   0.277   7.418
30683SOL    HW292008   9.528   0.245   7.410
30684SOL     OW92009   9.853   0.745   5.862
30684SOL    HW192010   9.819   0.825   5.821
30684SOL    HW292011   9.795   0.730   5.936
30685SOL     OW92012   9.390   0.831   6.366
30685SOL    HW192013   9.472   0.820   6.413
30685SOL    HW292014   9.346   0.904   6.410
30686SOL     OW92015   9.412   1.885   7.176
30686SOL    HW192016   9.424   1.859   7.267
30686SOL    HW292017   9.325   1.852   7.153
30687SOL     OW92018   0.188   0.318   5.819
30687SOL    HW192019   0.214   0.403   5.783
30687SOL    HW292020   0.248   0.255   5.778
30688SOL     OW92021   9.901   0.235   6.509
30688SOL    HW192022   9.885   0.234   6.603
30688SOL    HW292023   9.886   0.326   6.483
30689SOL     OW92024   9.665   1.833   6.471
30689SOL    HW192025   9.722   1.757   6.480
30689SOL    HW292026   9.723   1.908   6.481
30690SOL     OW92027   9.600   0.926   5.817
30690SOL    HW192028   9.624   0.944   5.726
30690SOL    HW292029   9.570   0.834   5.816
30691SOL     OW92030   9.755   1.196   7.309
30691SOL    HW192031   9.735   1.224   7.220
30691SOL    HW292032   9.690   1.240   7.364
30692SOL     OW92033   9.519   0.266   7.098
30692SOL    HW192034   9.442   0.324   7.102
30692SOL    HW292035   9.538   0.246   7.190
30693SOL     OW92036   9.786   1.721   5.923
30693SOL    HW192037   9.820   1.791   5.979
30693SOL    HW292038   9.857   1.702   5.862
30694SOL     OW92039   9.562   1.791   6.808
30694SOL    HW192040   9.611   1.720   6.850
30694SOL    HW292041   9.559   1.768   6.716
30695SOL     OW92042   9.688   0.689   6.070
30695SOL    HW192043   9.715   0.600   6.093
30695SOL    HW292044   9.594   0.691   6.089
30696SOL     OW92045   9.839   0.106   5.697
30696SOL    HW192046   9.918   0.093   5.748
30696SOL    HW292047   9.865   0.088   5.606
30697SOL     OW92048   0.142   1.436   6.435
30697SOL    HW192049   0.182   1.364   6.387
30697SOL    HW292050   0.050   1.436   6.406
30698SOL     OW92051   9.881   0.138   6.112
30698SOL    HW192052   9.808   0.090   6.152
30698SOL    HW292053   9.841   0.188   6.041
30699SOL     OW92054   9.588   0.040   5.791
30699SOL    HW192055   9.672   0.060   5.750
30699SOL    HW292056   9.607   9.969   5.852
30700SOL     OW92057   0.306   0.204   6.055
30700SOL    HW192058   0.239   0.265   6.025
30700SOL    HW292059   0.382   0.224   6.001
30701SOL     OW92060   9.779   1.168   6.283
30701SOL    HW192061   9.717   1.138   6.349
30701SOL    HW292062   9.738   1.147   6.199
30702SOL     OW92063   9.405   0.539   6.981
30702SOL    HW192064   9.495   0.550   6.950
30702SOL    HW292065   9.392   0.611   7.043
30703SOL     OW92066   9.861   0.223   6.774
30703SOL    HW192067   9.904   0.204   6.858
30703SOL    HW292068   9.767   0.215   6.794
30704SOL     OW92069   9.781   0.287   5.905
30704SOL    HW192070   9.791   0.219   5.838
30704SOL    HW292071   9.774   0.368   5.855
30705SOL     OW92072   9.736   0.830   6.830
30705SOL    HW192073   9.802   0.843   6.899
30705SOL    HW292074   9.703   0.741   6.845
30706SOL     OW92075   9.390   1.566   6.946
30706SOL    HW192076   9.359   1.638   6.891
30706SOL    HW292077   9.485   1.569   6.938
30707SOL     OW92078   9.633   1.113   6.047
30707SOL    HW192079   9.624   1.187   5.986
30707SOL    HW292080   9.633   1.036   5.990
30708SOL     OW92081   9.875   0.506   6.474
30708SOL    HW192082   9.865   0.577   6.411
30708SOL    HW292083   9.933   0.541   6.541
30709SOL     OW92084   9.663   1.538   6.899
30709SOL    HW192085   9.667   1.490   6.816
30709SOL    HW292086   9.754   1.548   6.925
30710SOL     OW92087   9.718   0.780   7.192
30710SOL    HW192088   9.781   0.827   7.137
30710SOL    HW292089   9.743   0.688   7.183
30711SOL     OW92090   9.804   0.056   7.275
30711SOL    HW192091   9.767   9.968   7.272
30711SOL    HW292092   9.731   0.113   7.299
30712SOL     OW92093   9.874   0.931   6.607
30712SOL    HW192094   9.855   1.024   6.624
30712SOL    HW292095   9.831   0.885   6.679
30713SOL     OW92096   9.597   0.183   6.843
30713SOL    HW192097   9.565   0.214   6.928
30713SOL    HW292098   9.607   0.089   6.854
30714SOL     OW92099   9.356   1.310   6.851
30714SOL    HW192100   9.383   1.253   6.923
30714SOL    HW292101   9.362   1.399   6.887
30715SOL     OW92102   9.605   0.069   6.215
30715SOL    HW192103   9.583   0.162   6.214
30715SOL    HW292104   9.625   0.050   6.307
30716SOL     OW92105   9.668   0.951   7.411
30716SOL    HW192106   9.712   1.030   7.379
30716SOL    HW292107   9.689   0.884   7.346
30717SOL     OW92108   9.615   0.818   6.522
30717SOL    HW192109   9.707   0.837   6.505
30717SOL    HW292110   9.615   0.730   6.560
30718SOL     OW92111   9.646   0.551   6.610
30718SOL    HW192112   9.592   0.473   6.599
30718SOL    HW292113   9.725   0.533   6.558
30719SOL     OW92114   9.313   1.302   5.765
30719SOL    HW192115   9.225   1.327   5.738
30719SOL    HW292116   9.304   1.214   5.800
30720SOL     OW92117   9.404   1.772   6.537
30720SOL    HW192118   9.374   1.698   6.484
30720SOL    HW292119   9.492   1.791   6.503
30721SOL     OW92120   9.817   1.605   6.502
30721SOL    HW192121   9.902   1.641   6.527
30721SOL    HW292122   9.837   1.541   6.434
30722SOL     OW92123   9.320   0.520   6.714
30722SOL    HW192124   9.381   0.463   6.667
30722SOL    HW292125   9.365   0.539   6.796
30723SOL     OW92126   9.492   0.546   7.335
30723SOL    HW192127   9.568   0.517   7.284
30723SOL    HW292128   9.453   0.615   7.281
30724SOL     OW92129   0.114   0.678   5.879
30724SOL    HW192130   0.128   0.660   5.972
30724SOL    HW292131   0.020   0.696   5.872
30725SOL     OW92132   9.536   1.546   7.299
30725SOL    HW192133   9.516   1.614   7.364
30725SOL    HW292134   9.559   1.469   7.352
30726SOL     OW92135   9.760   0.507   5.747
30726SOL    HW192136   9.816   0.580   5.773
30726SOL    HW292137   9.672   0.543   5.744
30727SOL     OW92138   9.432   1.144   7.062
30727SOL    HW192139   9.435   1.104   7.149
30727SOL    HW292140   9.455   1.074   7.002
30728SOL     OW92141   9.416   1.260   6.593
30728SOL    HW192142   9.389   1.277   6.683
30728SOL    HW292143   9.346   1.205   6.557
30729SOL     OW92144   9.988   1.608   7.256
30729SOL    HW192145   9.968   1.677   7.319
30729SOL    HW292146   0.082   1.595   7.264
30730SOL     OW92147   9.449   1.792   7.427
30730SOL    HW192148   9.403   1.722   7.473
30730SOL    HW292149   9.499   1.837   7.496
30731SOL     OW92150   9.551   0.330   6.293
30731SOL    HW192151   9.463   0.363   6.277
30731SOL    HW292152   9.553   0.314   6.388
30732SOL     OW92153   9.664   1.300   7.078
30732SOL    HW192154   9.654   1.382   7.029
30732SOL    HW292155   9.582   1.253   7.063
30733SOL     OW92156   9.900   1.473   6.049
30733SOL    HW192157   9.913   1.415   5.974
30733SOL    HW292158   9.840   1.541   6.018
30734SOL     OW92159   9.566   1.321   5.873
30734SOL    HW192160   9.474   1.319   5.847
30734SOL    HW292161   9.568   1.374   5.952
30735SOL     OW92162   9.418   1.033   7.310
30735SOL    HW192163   9.342   1.014   7.365
30735SOL    HW292164   9.493   1.001   7.361
30736SOL     OW92165   9.928   0.181   7.053
30736SOL    HW192166   0.019   0.204   7.070
30736SOL    HW292167   9.900   0.134   7.132
30737SOL     OW92168   9.376   0.333   5.607
30737SOL    HW192169   9.291   0.325   5.564
30737SOL    HW292170   9.411   0.416   5.575
30738SOL     OW92171   9.376   0.203   5.858
30738SOL    HW192172   9.371   0.257   5.778
30738SOL    HW292173   9.449   0.143   5.841
30739SOL     OW92174   9.923   0.873   7.025
30739SOL    HW192175   9.953   0.955   6.987
30739SOL    HW292176   0.003   0.826   7.048
30740SOL     OW92177   9.658   1.756   7.154
30740SOL    HW192178   9.574   1.798   7.139
30740SOL    HW292179   9.636   1.669   7.188
30741SOL     OW92180   9.834   0.718   6.311
30741SOL    HW192181   9.910   0.776   6.307
30741SOL    HW292182   9.790   0.731   6.227
30742SOL     OW92183   9.565   1.318   7.460
30742SOL    HW192184   9.475   1.287   7.458
30742SOL    HW292185   9.586   1.326   7.553
30743SOL     OW92186   9.431   1.217   6.243
30743SOL    HW192187   9.468   1.177   6.322
30743SOL    HW292188   9.484   1.181   6.171
30744SOL     OW92189   9.981   1.346   7.355
30744SOL    HW192190   9.909   1.289   7.327
30744SOL    HW292191   9.968   1.427   7.306
30745SOL     OW92192   9.754   0.435   6.138
30745SOL    HW192193   9.754   0.378   6.062
30745SOL    HW292194   9.687   0.399   6.196
30746SOL     OW92195   9.654   0.575   6.883
30746SOL    HW192196   9.709   0.514   6.930
30746SOL    HW292197   9.667   0.553   6.791
30747SOL     OW92198   9.342   1.049   5.892
30747SOL    HW192199   9.434   1.038   5.867
30747SOL    HW292200   9.312   0.961   5.914
30748SOL     OW92201   9.518   0.641   7.595
30748SOL    HW192202   9.433   0.620   7.634
30748SOL    HW292203   9.508   0.621   7.502
30749SOL     OW92204   9.497   0.323   8.479
30749SOL    HW192205   9.543   0.273   8.547
30749SOL    HW292206   9.430   0.263   8.446
30750SOL     OW92207   9.293   0.408   8.090
30750SOL    HW192208   9.209   0.433   8.130
30750SOL    HW292209   9.272   0.334   8.034
30751SOL     OW92210   9.826   1.196   8.557
30751SOL    HW192211   9.759   1.262   8.539
30751SOL    HW292212   9.878   1.234   8.628
30752SOL     OW92213   0.123   0.789   9.326
30752SOL    HW192214   0.174   0.844   9.386
30752SOL    HW292215   0.086   0.850   9.263
30753SOL     OW92216   9.656   1.417   8.515
30753SOL    HW192217   9.578   1.382   8.472
30753SOL    HW292218   9.695   1.475   8.450
30754SOL     OW92219   9.758   0.401   8.930
30754SOL    HW192220   9.827   0.335   8.922
30754SOL    HW292221   9.677   0.350   8.939
30755SOL     OW92222   9.529   1.724   7.914
30755SOL    HW192223   9.548   1.797   7.974
30755SOL    HW292224   9.613   1.706   7.872
30756SOL     OW92225   9.537   1.449   7.966
30756SOL    HW192226   9.517   1.542   7.976
30756SOL    HW292227   9.495   1.408   8.042
30757SOL     OW92228   9.578   1.091   8.313
30757SOL    HW192229   9.583   1.003   8.351
30757SOL    HW292230   9.532   1.144   8.378
30758SOL     OW92231   9.421   0.657   8.018
30758SOL    HW192232   9.383   0.572   8.041
30758SOL    HW292233   9.411   0.709   8.097
30759SOL     OW92234   9.361   1.576   7.563
30759SOL    HW192235   9.341   1.484   7.581
30759SOL    HW292236   9.331   1.623   7.641
30760SOL     OW92237   9.421   0.747   9.021
30760SOL    HW192238   9.503   0.797   9.027
30760SOL    HW292239   9.353   0.814   9.009
30761SOL     OW92240   9.891   1.415   8.181
30761SOL    HW192241   9.854   1.327   8.178
30761SOL    HW292242   9.900   1.441   8.089
30762SOL     OW92243   9.494   0.955   8.741
30762SOL    HW192244   9.581   0.923   8.721
30762SOL    HW292245   9.440   0.928   8.666
30763SOL     OW92246   9.610   0.233   9.221
30763SOL    HW192247   9.675   0.272   9.280
30763SOL    HW292248   9.527   0.243   9.268
30764SOL     OW92249   9.853   0.744   7.724
30764SOL    HW192250   9.820   0.824   7.682
30764SOL    HW292251   9.795   0.730   7.798
30765SOL     OW92252   9.389   0.830   8.228
30765SOL    HW192253   9.472   0.819   8.275
30765SOL    HW292254   9.346   0.903   8.272
30766SOL     OW92255   9.413   1.885   9.039
30766SOL    HW192256   9.427   1.859   9.131
30766SOL    HW292257   9.326   1.852   9.018
30767SOL     OW92258   0.189   0.318   7.681
30767SOL    HW192259   0.214   0.403   7.645
30767SOL    HW292260   0.248   0.256   7.639
30768SOL     OW92261   9.897   0.235   8.367
30768SOL    HW192262   9.882   0.234   8.461
30768SOL    HW292263   9.882   0.326   8.341
30769SOL     OW92264   9.666   1.833   8.331
30769SOL    HW192265   9.723   1.757   8.341
30769SOL    HW292266   9.724   1.908   8.342
30770SOL     OW92267   9.600   0.926   7.679
30770SOL    HW192268   9.624   0.944   7.589
30770SOL    HW292269   9.570   0.834   7.678
30771SOL     OW92270   9.753   1.200   9.174
30771SOL    HW192271   9.729   1.227   9.085
30771SOL    HW292272   9.688   1.243   9.230
30772SOL     OW92273   9.517   0.269   8.957
30772SOL    HW192274   9.443   0.329   8.960
30772SOL    HW292275   9.534   0.248   9.049
30773SOL     OW92276   9.786   1.721   7.785
30773SOL    HW192277   9.820   1.791   7.841
30773SOL    HW292278   9.857   1.702   7.724
30774SOL     OW92279   9.562   1.792   8.670
30774SOL    HW192280   9.611   1.721   8.711
30774SOL    HW292281   9.557   1.768   8.577
30775SOL     OW92282   9.688   0.689   7.933
30775SOL    HW192283   9.715   0.600   7.955
30775SOL    HW292284   9.594   0.691   7.951
30776SOL     OW92285   9.839   0.106   7.559
30776SOL    HW192286   9.919   0.093   7.610
30776SOL    HW292287   9.865   0.087   7.469
30777SOL     OW92288   0.142   1.436   8.298
30777SOL    HW192289   0.183   1.365   8.249
30777SOL    HW292290   0.051   1.436   8.268
30778SOL     OW92291   9.880   0.138   7.975
30778SOL    HW192292   9.807   0.090   8.014
30778SOL    HW292293   9.841   0.187   7.903
30779SOL     OW92294   9.588   0.040   7.653
30779SOL    HW192295   9.672   0.061   7.612
30779SOL    HW292296   9.607   9.969   7.714
30780SOL     OW92297   0.305   0.203   7.916
30780SOL    HW192298   0.238   0.266   7.887
30780SOL    HW292299   0.382   0.224   7.863
30781SOL     OW92300   9.779   1.168   8.145
30781SOL    HW192301   9.716   1.138   8.211
30781SOL    HW292302   9.738   1.147   8.061
30782SOL     OW92303   9.406   0.539   8.843
30782SOL    HW192304   9.496   0.550   8.812
30782SOL    HW292305   9.393   0.612   8.904
30783SOL     OW92306   9.861   0.222   8.633
30783SOL    HW192307   9.905   0.200   8.716
30783SOL    HW292308   9.768   0.214   8.653
30784SOL     OW92309   9.782   0.286   7.767
30784SOL    HW192310   9.791   0.218   7.700
30784SOL    HW292311   9.774   0.368   7.717
30785SOL     OW92312   9.736   0.830   8.692
30785SOL    HW192313   9.801   0.842   8.761
30785SOL    HW292314   9.702   0.741   8.706
30786SOL     OW92315   9.390   1.567   8.808
30786SOL    HW192316   9.358   1.638   8.752
30786SOL    HW292317   9.485   1.570   8.799
30787SOL     OW92318   9.633   1.113   7.909
30787SOL    HW192319   9.624   1.187   7.848
30787SOL    HW292320   9.633   1.036   7.852
30788SOL     OW92321   9.874   0.506   8.334
30788SOL    HW192322   9.864   0.578   8.272
30788SOL    HW292323   9.932   0.540   8.402
30789SOL     OW92324   9.662   1.538   8.760
30789SOL    HW192325   9.667   1.490   8.677
30789SOL    HW292326   9.753   1.549   8.787
30790SOL     OW92327   9.720   0.782   9.057
30790SOL    HW192328   9.783   0.828   9.001
30790SOL    HW292329   9.740   0.689   9.043
30791SOL     OW92330   9.800   0.052   9.134
30791SOL    HW192331   9.761   9.964   9.132
30791SOL    HW292332   9.727   0.110   9.156
30792SOL     OW92333   9.876   0.931   8.470
30792SOL    HW192334   9.856   1.024   8.486
30792SOL    HW292335   9.831   0.884   8.540
30793SOL     OW92336   9.598   0.183   8.704
30793SOL    HW192337   9.566   0.215   8.788
30793SOL    HW292338   9.607   0.088   8.715
30794SOL     OW92339   9.358   1.310   8.713
30794SOL    HW192340   9.384   1.253   8.786
30794SOL    HW292341   9.363   1.398   8.750
30795SOL     OW92342   9.605   0.069   8.077
30795SOL    HW192343   9.583   0.162   8.075
30795SOL    HW292344   9.624   0.050   8.169
30796SOL     OW92345   9.672   0.952   9.279
30796SOL    HW192346   9.713   1.032   9.245
30796SOL    HW292347   9.691   0.885   9.213
30797SOL     OW92348   9.615   0.818   8.384
30797SOL    HW192349   9.707   0.835   8.363
30797SOL    HW292350   9.615   0.730   8.423
30798SOL     OW92351   9.647   0.551   8.472
30798SOL    HW192352   9.592   0.473   8.461
30798SOL    HW292353   9.725   0.533   8.420
30799SOL     OW92354   9.313   1.303   7.627
30799SOL    HW192355   9.225   1.327   7.600
30799SOL    HW292356   9.304   1.214   7.662
30800SOL     OW92357   9.406   1.772   8.399
30800SOL    HW192358   9.375   1.698   8.347
30800SOL    HW292359   9.493   1.791   8.365
30801SOL     OW92360   9.817   1.605   8.364
30801SOL    HW192361   9.902   1.641   8.389
30801SOL    HW292362   9.837   1.541   8.295
30802SOL     OW92363   9.320   0.519   8.576
30802SOL    HW192364   9.380   0.462   8.529
30802SOL    HW292365   9.366   0.539   8.658
30803SOL     OW92366   9.484   0.536   9.184
30803SOL    HW192367   9.563   0.512   9.136
30803SOL    HW292368   9.448   0.609   9.135
30804SOL     OW92369   0.114   0.677   7.741
30804SOL    HW192370   0.128   0.659   7.835
30804SOL    HW292371   0.021   0.695   7.734
30805SOL     OW92372   9.535   1.547   9.163
30805SOL    HW192373   9.516   1.618   9.225
30805SOL    HW292374   9.558   1.473   9.219
30806SOL     OW92375   9.760   0.506   7.609
30806SOL    HW192376   9.816   0.579   7.635
30806SOL    HW292377   9.672   0.543   7.606
30807SOL     OW92378   9.431   1.143   8.925
30807SOL    HW192379   9.435   1.102   9.012
30807SOL    HW292380   9.455   1.073   8.864
30808SOL     OW92381   9.417   1.260   8.455
30808SOL    HW192382   9.391   1.277   8.545
30808SOL    HW292383   9.347   1.205   8.419
30809SOL     OW92384   9.993   1.607   9.114
30809SOL    HW192385   9.968   1.672   9.181
30809SOL    HW292386   0.086   1.594   9.128
30810SOL     OW92387   9.455   1.791   9.290
30810SOL    HW192388   9.406   1.725   9.339
30810SOL    HW292389   9.503   1.841   9.356
30811SOL     OW92390   9.551   0.330   8.155
30811SOL    HW192391   9.463   0.363   8.138
30811SOL    HW292392   9.553   0.314   8.250
30812SOL     OW92393   9.662   1.301   8.941
30812SOL    HW192394   9.651   1.382   8.891
30812SOL    HW292395   9.581   1.252   8.926
30813SOL     OW92396   9.900   1.473   7.911
30813SOL    HW192397   9.913   1.415   7.836
30813SOL    HW292398   9.840   1.541   7.880
30814SOL     OW92399   9.566   1.321   7.735
30814SOL    HW192400   9.474   1.319   7.709
30814SOL    HW292401   9.568   1.374   7.814
30815SOL     OW92402   9.421   1.028   9.171
30815SOL    HW192403   9.344   1.012   9.225
30815SOL    HW292404   9.495   1.000   9.225
30816SOL     OW92405   9.923   0.178   8.913
30816SOL    HW192406   0.014   0.202   8.931
30816SOL    HW292407   9.895   0.130   8.992
30817SOL     OW92408   9.376   0.333   7.469
30817SOL    HW192409   9.291   0.325   7.425
30817SOL    HW292410   9.411   0.416   7.437
30818SOL     OW92411   9.376   0.203   7.720
30818SOL    HW192412   9.371   0.257   7.640
30818SOL    HW292413   9.449   0.144   7.703
30819SOL     OW92414   9.923   0.871   8.887
30819SOL    HW192415   9.953   0.953   8.846
30819SOL    HW292416   0.004   0.825   8.908
30820SOL     OW92417   9.658   1.753   9.014
30820SOL    HW192418   9.574   1.797   9.000
30820SOL    HW292419   9.635   1.668   9.050
30821SOL     OW92420   9.833   0.720   8.174
30821SOL    HW192421   9.910   0.777   8.169
30821SOL    HW292422   9.790   0.731   8.089
30822SOL     OW92423   9.564   1.322   9.328
30822SOL    HW192424   9.472   1.298   9.327
30822SOL    HW292425   9.588   1.326   9.420
30823SOL     OW92426   9.431   1.217   8.105
30823SOL    HW192427   9.467   1.177   8.184
30823SOL    HW292428   9.484   1.181   8.034
30824SOL     OW92429   9.995   1.328   9.153
30824SOL    HW192430   9.911   1.284   9.156
30824SOL    HW292431   9.976   1.416   9.120
30825SOL     OW92432   9.754   0.435   8.000
30825SOL    HW192433   9.754   0.378   7.923
30825SOL    HW292434   9.687   0.399   8.058
30826SOL     OW92435   9.655   0.575   8.745
30826SOL    HW192436   9.711   0.513   8.792
30826SOL    HW292437   9.668   0.553   8.653
30827SOL     OW92438   9.342   1.050   7.754
30827SOL    HW192439   9.434   1.038   7.729
30827SOL    HW292440   9.312   0.961   7.776
30828SOL     OW92441   9.525   0.586   9.450
30828SOL    HW192442   9.439   0.588   9.492
30828SOL    HW292443   9.506   0.588   9.357
30829SOL     OW92444   9.515   1.734   9.766
30829SOL    HW192445   9.530   1.803   9.830
30829SOL    HW292446   9.600   1.721   9.724
30830SOL     OW92447   9.572   1.461   9.833
30830SOL    HW192448   9.531   1.547   9.848
30830SOL    HW292449   9.511   1.398   9.871
30831SOL     OW92450   9.411   0.681   9.854
30831SOL    HW192451   9.385   0.593   9.880
30831SOL    HW292452   9.379   0.737   9.925
30832SOL     OW92453   9.354   1.590   9.435
30832SOL    HW192454   9.338   1.497   9.449
30832SOL    HW292455   9.317   1.633   9.511
30833SOL     OW92456   9.854   0.731   9.583
30833SOL    HW192457   9.841   0.818   9.546
30833SOL    HW292458   9.790   0.724   9.653
30834SOL     OW92459   9.349   0.852   0.068
30834SOL    HW192460   9.406   0.790   0.114
30834SOL    HW292461   9.338   0.924   0.130
30835SOL     OW92462   0.221   0.325   9.555
30835SOL    HW192463   0.240   0.401   9.500
30835SOL    HW292464   0.268   0.253   9.513
30836SOL     OW92465   9.618   1.858   0.194
30836SOL    HW192466   9.635   1.773   0.236
30836SOL    HW292467   9.705   1.892   0.174
30837SOL     OW92468   9.621   0.946   9.557
30837SOL    HW192469   9.638   0.949   9.463
30837SOL    HW292470   9.555   0.878   9.567
30838SOL     OW92471   9.766   1.746   9.645
30838SOL    HW192472   9.813   1.805   9.704
30838SOL    HW292473   9.834   1.701   9.596
30839SOL     OW92474   9.680   0.687   9.790
30839SOL    HW192475   9.696   0.595   9.810
30839SOL    HW292476   9.586   0.699   9.803
30840SOL     OW92477   9.844   0.108   9.409
30840SOL    HW192478   9.928   0.087   9.450
30840SOL    HW292479   9.857   0.088   9.316
30841SOL     OW92480   9.796   0.024   9.769
30841SOL    HW192481   9.721   0.039   9.827
30841SOL    HW292482   9.823   0.111   9.742
30842SOL     OW92483   9.611   0.039   9.541
30842SOL    HW192484   9.684   0.058   9.482
30842SOL    HW292485   9.653   0.000   9.618
30843SOL     OW92486   0.245   0.321   9.827
30843SOL    HW192487   0.242   0.328   9.731
30843SOL    HW292488   0.280   0.234   9.844
30844SOL     OW92489   9.712   1.112   0.070
30844SOL    HW192490   9.680   1.195   0.107
30844SOL    HW292491   9.701   1.122   9.976
30845SOL     OW92492   9.831   0.278   9.630
30845SOL    HW192493   9.826   0.213   9.560
30845SOL    HW292494   9.807   0.361   9.589
30846SOL     OW92495   9.655   1.113   9.789
30846SOL    HW192496   9.637   1.192   9.738
30846SOL    HW292497   9.659   1.043   9.725
30847SOL     OW92498   9.574   0.087   9.916
30847SOL    HW192499   9.550   0.178   9.901
30847SOL    HW292500   9.594   0.083   0.010
30848SOL     OW92501   9.314   1.319   9.482
30848SOL    HW192502   9.225   1.339   9.453
30848SOL    HW292503   9.308   1.231   9.519
30849SOL     OW92504   0.075   0.581   9.635
30849SOL    HW192505   0.041   0.492   9.630
30849SOL    HW292506   9.999   0.636   9.614
30850SOL     OW92507   9.778   0.493   9.468
30850SOL    HW192508   9.819   0.575   9.493
30850SOL    HW292509   9.684   0.512   9.463
30851SOL     OW92510   9.926   1.497   9.737
30851SOL    HW192511   9.942   1.411   9.776
30851SOL    HW292512   9.841   1.524   9.772
30852SOL     OW92513   9.569   1.320   9.604
30852SOL    HW192514   9.477   1.327   9.582
30852SOL    HW292515   9.581   1.380   9.678
30853SOL     OW92516   9.374   0.321   9.330
30853SOL    HW192517   9.291   0.311   9.284
30853SOL    HW292518   9.408   0.406   9.302
30854SOL     OW92519   9.387   0.192   9.585
30854SOL    HW192520   9.380   0.242   9.504
30854SOL    HW292521   9.463   0.135   9.572
30855SOL     OW92522   9.897   0.750   9.954
30855SOL    HW192523   9.904   0.842   9.978
30855SOL    HW292524   9.815   0.745   9.905
30856SOL     OW92525   9.410   1.254   9.911
30856SOL    HW192526   9.378   1.262   0.001
30856SOL    HW292527   9.449   1.167   9.907
30857SOL     OW92528   9.729   0.428   9.856
30857SOL    HW192529   9.774   0.368   9.797
30857SOL    HW292530   9.775   0.418   9.940
30858SOL     OW92531   9.360   1.079   9.608
30858SOL    HW192532   9.455   1.088   9.606
30858SOL    HW292533   9.344   0.985   9.603
30859SOL     OW92534   9.510   2.468   0.116
30859SOL    HW192535   9.429   2.450   0.165
30859SOL    HW292536   9.481   2.481   0.026
30860SOL     OW92537   9.520   2.159   0.991
30860SOL    HW192538   9.555   2.120   1.070
30860SOL    HW292539   9.434   2.117   0.980
30861SOL     OW92540   9.288   2.263   0.646
30861SOL    HW192541   9.206   2.282   0.691
30861SOL    HW292542   9.269   2.186   0.592
30862SOL     OW92543   9.824   3.059   1.109
30862SOL    HW192544   9.758   3.125   1.090
30862SOL    HW292545   9.876   3.097   1.180
30863SOL     OW92546   0.089   2.707   1.919
30863SOL    HW192547   0.178   2.730   1.947
30863SOL    HW292548   0.102   2.662   1.836
30864SOL     OW92549   9.655   3.281   1.066
30864SOL    HW192550   9.576   3.246   1.023
30864SOL    HW292551   9.694   3.338   1.001
30865SOL     OW92552   9.744   2.271   1.492
30865SOL    HW192553   9.820   2.213   1.489
30865SOL    HW292554   9.670   2.212   1.502
30866SOL     OW92555   9.537   3.571   0.471
30866SOL    HW192556   9.548   3.648   0.527
30866SOL    HW292557   9.625   3.553   0.437
30867SOL     OW92558   9.533   3.293   0.489
30867SOL    HW192559   9.522   3.388   0.501
30867SOL    HW292560   9.494   3.255   0.568
30868SOL     OW92561   9.571   2.947   0.874
30868SOL    HW192562   9.576   2.860   0.913
30868SOL    HW292563   9.526   3.000   0.940
30869SOL     OW92564   9.420   2.512   0.570
30869SOL    HW192565   9.381   2.428   0.596
30869SOL    HW292566   9.410   2.567   0.648
30870SOL     OW92567   9.370   3.440   0.084
30870SOL    HW192568   9.350   3.351   0.113
30870SOL    HW292569   9.346   3.495   0.158
30871SOL     OW92570   9.429   2.609   1.580
30871SOL    HW192571   9.514   2.652   1.585
30871SOL    HW292572   9.366   2.681   1.572
30872SOL     OW92573   9.900   3.264   0.746
30872SOL    HW192574   9.859   3.177   0.747
30872SOL    HW292575   9.907   3.287   0.654
30873SOL     OW92576   0.114   1.880   0.546
30873SOL    HW192577   0.139   1.963   0.505
30873SOL    HW292578   0.018   1.879   0.541
30874SOL     OW92579   9.491   2.818   1.292
30874SOL    HW192580   9.578   2.784   1.271
30874SOL    HW292581   9.434   2.782   1.224
30875SOL     OW92582   9.638   2.132   1.815
30875SOL    HW192583   9.678   2.194   1.876
30875SOL    HW292584   9.546   2.128   1.841
30876SOL     OW92585   9.873   2.580   0.283
30876SOL    HW192586   9.899   2.672   0.280
30876SOL    HW292587   9.811   2.575   0.356
30877SOL     OW92588   9.390   2.695   0.776
30877SOL    HW192589   9.473   2.681   0.822
30877SOL    HW292590   9.349   2.768   0.822
30878SOL     OW92591   9.412   3.747   1.590
30878SOL    HW192592   9.424   3.721   1.682
30878SOL    HW292593   9.325   3.712   1.567
30879SOL     OW92594   0.239   2.164   0.178
30879SOL    HW192595   0.310   2.227   0.164
30879SOL    HW292596   0.165   2.198   0.129
30880SOL     OW92597   9.823   2.063   0.904
30880SOL    HW192598   9.847   2.061   0.997
30880SOL    HW292599   9.832   2.154   0.878
30881SOL     OW92600   9.666   3.693   0.881
30881SOL    HW192601   9.724   3.617   0.890
30881SOL    HW292602   9.724   3.769   0.892
30882SOL     OW92603   9.610   2.811   0.263
30882SOL    HW192604   9.655   2.860   0.195
30882SOL    HW292605   9.642   2.721   0.252
30883SOL     OW92606   9.756   3.059   1.723
30883SOL    HW192607   9.734   3.087   1.634
30883SOL    HW292608   9.691   3.101   1.778
30884SOL     OW92609   9.509   2.124   1.493
30884SOL    HW192610   9.431   2.178   1.502
30884SOL    HW292611   9.483   2.039   1.530
30885SOL     OW92612   9.793   3.548   0.368
30885SOL    HW192613   9.826   3.630   0.406
30885SOL    HW292614   9.856   3.526   0.300
30886SOL     OW92615   9.562   3.653   1.223
30886SOL    HW192616   9.612   3.583   1.264
30886SOL    HW292617   9.559   3.629   1.130
30887SOL     OW92618   9.690   2.546   0.481
30887SOL    HW192619   9.714   2.456   0.503
30887SOL    HW292620   9.597   2.552   0.502
30888SOL     OW92621   9.857   1.957   0.116
30888SOL    HW192622   9.945   1.939   0.151
30888SOL    HW292623   9.869   1.961   0.021
30889SOL     OW92624   0.157   3.304   0.842
30889SOL    HW192625   0.202   3.290   0.759
30889SOL    HW292626   0.066   3.280   0.824
30890SOL     OW92627   9.843   1.928   0.487
30890SOL    HW192628   9.765   1.929   0.543
30890SOL    HW292629   9.833   2.005   0.431
30891SOL     OW92630   0.204   2.115   0.447
30891SOL    HW192631   0.209   2.146   0.356
30891SOL    HW292632   0.296   2.108   0.474
30892SOL     OW92633   9.774   3.028   0.715
30892SOL    HW192634   9.710   2.996   0.779
30892SOL    HW292635   9.735   3.008   0.630
30893SOL     OW92636   9.401   2.416   1.390
30893SOL    HW192637   9.493   2.418   1.362
30893SOL    HW292638   9.395   2.485   1.456
30894SOL     OW92639   9.870   2.069   1.174
30894SOL    HW192640   9.912   2.066   1.260
30894SOL    HW292641   9.776   2.068   1.194
30895SOL     OW92642   9.788   2.139   0.309
30895SOL    HW192643   9.811   2.073   0.243
30895SOL    HW292644   9.783   2.221   0.259
30896SOL     OW92645   9.730   2.689   1.240
30896SOL    HW192646   9.794   2.703   1.310
30896SOL    HW292647   9.699   2.599   1.254
30897SOL     OW92648   9.390   3.429   1.361
30897SOL    HW192649   9.360   3.500   1.305
30897SOL    HW292650   9.486   3.431   1.353
30898SOL     OW92651   9.625   2.984   0.481
30898SOL    HW192652   9.629   3.057   0.419
30898SOL    HW292653   9.628   2.906   0.427
30899SOL     OW92654   9.864   2.347   0.887
30899SOL    HW192655   9.859   2.420   0.826
30899SOL    HW292656   9.929   2.374   0.952
30900SOL     OW92657   9.663   3.399   1.312
30900SOL    HW192658   9.667   3.352   1.230
30900SOL    HW292659   9.754   3.410   1.339
30901SOL     OW92660   9.719   2.638   1.608
30901SOL    HW192661   9.785   2.677   1.551
30901SOL    HW292662   9.734   2.544   1.601
30902SOL     OW92663   9.803   1.948   1.695
30902SOL    HW192664   9.756   1.876   1.652
30902SOL    HW292665   9.734   2.004   1.730
30903SOL     OW92666   9.866   2.793   1.019
30903SOL    HW192667   9.849   2.886   1.036
30903SOL    HW292668   9.826   2.748   1.093
30904SOL     OW92669   9.603   2.059   1.238
30904SOL    HW192670   9.567   2.089   1.322
30904SOL    HW292671   9.586   1.965   1.236
30905SOL     OW92672   9.354   3.173   1.267
30905SOL    HW192673   9.383   3.116   1.338
30905SOL    HW292674   9.361   3.261   1.303
30906SOL     OW92675   9.607   1.924   0.630
30906SOL    HW192676   9.581   2.014   0.648
30906SOL    HW292677   9.624   1.887   0.716
30907SOL     OW92678   9.669   2.813   1.825
30907SOL    HW192679   9.713   2.892   1.792
30907SOL    HW292680   9.690   2.745   1.762
30908SOL     OW92681   9.613   2.674   0.935
30908SOL    HW192682   9.705   2.697   0.927
30908SOL    HW292683   9.613   2.583   0.966
30909SOL     OW92684   9.628   2.401   1.010
30909SOL    HW192685   9.584   2.317   0.999
30909SOL    HW292686   9.713   2.391   0.967
30910SOL     OW92687   9.330   3.151   0.170
30910SOL    HW192688   9.240   3.180   0.155
30910SOL    HW292689   9.321   3.074   0.227
30911SOL     OW92690   9.406   3.635   0.951
30911SOL    HW192691   9.375   3.561   0.899
30911SOL    HW292692   9.493   3.653   0.916
30912SOL     OW92693   9.819   3.465   0.915
30912SOL    HW192694   9.903   3.503   0.940
30912SOL    HW292695   9.842   3.397   0.852
30913SOL     OW92696   9.346   2.434   1.117
30913SOL    HW192697   9.428   2.430   1.067
30913SOL    HW292698   9.374   2.428   1.209
30914SOL     OW92699   9.486   2.399   1.751
30914SOL    HW192700   9.546   2.347   1.697
30914SOL    HW292701   9.456   2.469   1.694
30915SOL     OW92702   0.107   2.439   0.319
30915SOL    HW192703   0.127   2.454   0.411
30915SOL    HW292704   0.019   2.475   0.307
30916SOL     OW92705   9.536   3.407   1.714
30916SOL    HW192706   9.516   3.475   1.778
30916SOL    HW292707   9.559   3.330   1.766
30917SOL     OW92708   9.777   2.361   0.138
30917SOL    HW192709   9.822   2.438   0.173
30917SOL    HW292710   9.686   2.389   0.128
30918SOL     OW92711   9.432   3.006   1.477
30918SOL    HW192712   9.435   2.965   1.563
30918SOL    HW292713   9.454   2.936   1.416
30919SOL     OW92714   9.412   3.126   1.007
30919SOL    HW192715   9.386   3.141   1.098
30919SOL    HW292716   9.342   3.070   0.972
30920SOL     OW92717   9.988   3.470   1.670
30920SOL    HW192718   9.969   3.539   1.733
30920SOL    HW292719   0.083   3.457   1.677
30921SOL     OW92720   9.449   3.655   1.842
30921SOL    HW192721   9.403   3.584   1.887
30921SOL    HW292722   9.499   3.699   1.910
30922SOL     OW92723   9.547   2.180   0.708
30922SOL    HW192724   9.460   2.215   0.691
30922SOL    HW292725   9.554   2.176   0.804
30923SOL     OW92726   9.664   3.162   1.491
30923SOL    HW192727   9.653   3.244   1.443
30923SOL    HW292728   9.582   3.115   1.478
30924SOL     OW92729   9.930   3.318   0.479
30924SOL    HW192730   9.938   3.267   0.399
30924SOL    HW292731   9.877   3.394   0.453
30925SOL     OW92732   9.594   3.167   0.258
30925SOL    HW192733   9.508   3.172   0.217
30925SOL    HW292734   9.589   3.224   0.334
30926SOL     OW92735   9.418   2.892   1.724
30926SOL    HW192736   9.342   2.874   1.779
30926SOL    HW292737   9.492   2.861   1.775
30927SOL     OW92738   9.940   2.065   1.491
30927SOL    HW192739   0.009   1.999   1.487
30927SOL    HW292740   9.882   2.035   1.561
30928SOL     OW92741   9.392   2.141   0.013
30928SOL    HW192742   9.301   2.156   9.989
30928SOL    HW292743   9.438   2.220   9.984
30929SOL     OW92744   9.388   1.994   0.275
30929SOL    HW192745   9.380   2.057   0.203
30929SOL    HW292746   9.475   1.956   0.264
30930SOL     OW92747   9.917   2.730   1.434
30930SOL    HW192748   9.941   2.823   1.428
30930SOL    HW292749   9.996   2.683   1.407
30931SOL     OW92750   9.658   3.617   1.568
30931SOL    HW192751   9.573   3.659   1.553
30931SOL    HW292752   9.636   3.531   1.602
30932SOL     OW92753   9.837   2.563   0.727
30932SOL    HW192754   9.911   2.624   0.734
30932SOL    HW292755   9.796   2.585   0.643
30933SOL     OW92756   9.565   3.180   1.874
30933SOL    HW192757   9.475   3.147   1.872
30933SOL    HW292758   9.586   3.188   1.967
30934SOL     OW92759   9.434   3.081   0.662
30934SOL    HW192760   9.464   3.042   0.744
30934SOL    HW292761   9.492   3.044   0.595
30935SOL     OW92762   9.983   3.206   1.763
30935SOL    HW192763   9.909   3.151   1.739
30935SOL    HW292764   9.969   3.288   1.716
30936SOL     OW92765   9.746   2.287   0.542
30936SOL    HW192766   9.752   2.226   0.468
30936SOL    HW292767   9.680   2.247   0.600
30937SOL     OW92768   9.653   2.432   1.291
30937SOL    HW192769   9.701   2.374   1.350
30937SOL    HW292770   9.669   2.397   1.204
30938SOL     OW92771   9.346   2.905   0.305
30938SOL    HW192772   9.441   2.903   0.305
30938SOL    HW292773   9.320   2.817   0.334
30939SOL     OW92774   9.512   2.496   2.008
30939SOL    HW192775   9.426   2.478   2.047
30939SOL    HW292776   9.502   2.476   1.915
30940SOL     OW92777   9.520   2.159   2.853
30940SOL    HW192778   9.555   2.120   2.933
30940SOL    HW292779   9.434   2.118   2.842
30941SOL     OW92780   9.289   2.263   2.507
30941SOL    HW192781   9.208   2.284   2.553
30941SOL    HW292782   9.266   2.188   2.452
30942SOL     OW92783   9.826   3.058   2.970
30942SOL    HW192784   9.758   3.124   2.951
30942SOL    HW292785   9.878   3.097   3.040
30943SOL     OW92786   0.089   2.708   3.783
30943SOL    HW192787   0.176   2.731   3.818
30943SOL    HW292788   0.108   2.665   3.700
30944SOL     OW92789   9.656   3.280   2.929
30944SOL    HW192790   9.578   3.244   2.886
30944SOL    HW292791   9.695   3.338   2.863
30945SOL     OW92792   9.745   2.271   3.352
30945SOL    HW192793   9.821   2.213   3.350
30945SOL    HW292794   9.670   2.212   3.364
30946SOL     OW92795   9.529   3.586   2.329
30946SOL    HW192796   9.547   3.659   2.388
30946SOL    HW292797   9.613   3.568   2.286
30947SOL     OW92798   9.537   3.311   2.381
30947SOL    HW192799   9.517   3.404   2.391
30947SOL    HW292800   9.495   3.269   2.456
30948SOL     OW92801   9.579   2.951   2.727
30948SOL    HW192802   9.581   2.863   2.764
30948SOL    HW292803   9.532   3.004   2.793
30949SOL     OW92804   9.422   2.513   2.432
30949SOL    HW192805   9.383   2.430   2.455
30949SOL    HW292806   9.412   2.567   2.510
30950SOL     OW92807   9.361   3.438   1.977
30950SOL    HW192808   9.342   3.346   1.995
30950SOL    HW292809   9.331   3.485   2.055
30951SOL     OW92810   9.427   2.609   3.442
30951SOL    HW192811   9.513   2.652   3.448
30951SOL    HW292812   9.364   2.680   3.433
30952SOL     OW92813   9.891   3.277   2.596
30952SOL    HW192814   9.854   3.189   2.592
30952SOL    HW292815   9.900   3.303   2.504
30953SOL     OW92816   0.107   1.863   2.435
30953SOL    HW192817   0.136   1.947   2.400
30953SOL    HW292818   0.011   1.867   2.431
30954SOL     OW92819   9.492   2.817   3.155
30954SOL    HW192820   9.579   2.783   3.133
30954SOL    HW292821   9.436   2.785   3.085
30955SOL     OW92822   9.639   2.132   3.676
30955SOL    HW192823   9.678   2.194   3.738
30955SOL    HW292824   9.547   2.128   3.702
30956SOL     OW92825   9.871   2.572   2.128
30956SOL    HW192826   9.875   2.658   2.087
30956SOL    HW292827   9.808   2.582   2.200
30957SOL     OW92828   9.390   2.692   2.639
30957SOL    HW192829   9.472   2.681   2.687
30957SOL    HW292830   9.346   2.764   2.684
30958SOL     OW92831   9.412   3.747   3.452
30958SOL    HW192832   9.424   3.721   3.543
30958SOL    HW292833   9.325   3.715   3.429
30959SOL     OW92834   0.239   2.190   2.072
30959SOL    HW192835   0.245   2.285   2.086
30959SOL    HW292836   0.172   2.180   2.005
30960SOL     OW92837   9.825   2.063   2.766
30960SOL    HW192838   9.848   2.062   2.859
30960SOL    HW292839   9.832   2.155   2.740
30961SOL     OW92840   9.665   3.695   2.746
30961SOL    HW192841   9.723   3.619   2.756
30961SOL    HW292842   9.723   3.770   2.757
30962SOL     OW92843   9.595   2.794   2.095
30962SOL    HW192844   9.625   2.809   2.005
30962SOL    HW292845   9.572   2.701   2.097
30963SOL     OW92846   9.756   3.059   3.585
30963SOL    HW192847   9.734   3.087   3.496
30963SOL    HW292848   9.690   3.101   3.640
30964SOL     OW92849   9.509   2.124   3.355
30964SOL    HW192850   9.431   2.179   3.362
30964SOL    HW292851   9.483   2.040   3.392
30965SOL     OW92852   9.786   3.583   2.199
30965SOL    HW192853   9.820   3.652   2.254
30965SOL    HW292854   9.857   3.563   2.138
30966SOL     OW92855   9.562   3.654   3.085
30966SOL    HW192856   9.611   3.583   3.126
30966SOL    HW292857   9.559   3.630   2.992
30967SOL     OW92858   9.693   2.547   2.344
30967SOL    HW192859   9.718   2.457   2.365
30967SOL    HW292860   9.599   2.551   2.362
30968SOL     OW92861   9.848   1.973   1.970
30968SOL    HW192862   9.930   1.949   2.013
30968SOL    HW292863   9.861   1.950   1.878
30969SOL     OW92864   0.141   3.295   2.714
30969SOL    HW192865   0.181   3.224   2.664
30969SOL    HW292866   0.050   3.297   2.684
30970SOL     OW92867   9.844   1.935   2.362
30970SOL    HW192868   9.765   1.934   2.417
30970SOL    HW292869   9.832   2.011   2.305
30971SOL     OW92870   9.599   1.890   2.051
30971SOL    HW192871   9.675   1.935   2.012
30971SOL    HW292872   9.638   1.821   2.106
30972SOL     OW92873   0.191   2.092   2.316
30972SOL    HW192874   0.212   2.134   2.233
30972SOL    HW292875   0.271   2.101   2.368
30973SOL     OW92876   9.780   3.029   2.560
30973SOL    HW192877   9.718   2.999   2.625
30973SOL    HW292878   9.739   3.009   2.476
30974SOL     OW92879   9.401   2.416   3.252
30974SOL    HW192880   9.493   2.419   3.224
30974SOL    HW292881   9.394   2.485   3.318
30975SOL     OW92882   9.870   2.070   3.036
30975SOL    HW192883   9.913   2.067   3.122
30975SOL    HW292884   9.776   2.068   3.056
30976SOL     OW92885   9.794   2.140   2.181
30976SOL    HW192886   9.814   2.076   2.113
30976SOL    HW292887   9.775   2.221   2.133
30977SOL     OW92888   9.732   2.688   3.102
30977SOL    HW192889   9.796   2.703   3.172
30977SOL    HW292890   9.701   2.599   3.116
30978SOL     OW92891   9.390   3.429   3.222
30978SOL    HW192892   9.359   3.500   3.167
30978SOL    HW292893   9.485   3.432   3.214
30979SOL     OW92894   9.633   2.977   2.324
30979SOL    HW192895   9.625   3.051   2.264
30979SOL    HW292896   9.631   2.900   2.267
30980SOL     OW92897   9.865   2.349   2.750
30980SOL    HW192898   9.860   2.422   2.689
30980SOL    HW292899   9.929   2.376   2.815
30981SOL     OW92900   9.662   3.400   3.174
30981SOL    HW192901   9.667   3.352   3.092
30981SOL    HW292902   9.754   3.410   3.201
30982SOL     OW92903   9.718   2.638   3.471
30982SOL    HW192904   9.784   2.678   3.414
30982SOL    HW292905   9.733   2.544   3.464
30983SOL     OW92906   9.803   1.948   3.556
30983SOL    HW192907   9.756   1.876   3.514
30983SOL    HW292908   9.734   2.004   3.592
30984SOL     OW92909   9.866   2.793   2.880
30984SOL    HW192910   9.849   2.886   2.897
30984SOL    HW292911   9.827   2.747   2.955
30985SOL     OW92912   9.603   2.059   3.100
30985SOL    HW192913   9.568   2.089   3.184
30985SOL    HW292914   9.586   1.965   3.099
30986SOL     OW92915   9.357   3.172   3.127
30986SOL    HW192916   9.384   3.115   3.199
30986SOL    HW292917   9.362   3.261   3.163
30987SOL     OW92918   9.606   1.926   2.496
30987SOL    HW192919   9.579   2.016   2.514
30987SOL    HW292920   9.622   1.888   2.583
30988SOL     OW92921   9.669   2.814   3.688
30988SOL    HW192922   9.713   2.892   3.654
30988SOL    HW292923   9.690   2.745   3.624
30989SOL     OW92924   9.614   2.677   2.796
30989SOL    HW192925   9.706   2.700   2.792
30989SOL    HW292926   9.613   2.586   2.827
30990SOL     OW92927   9.627   2.402   2.872
30990SOL    HW192928   9.583   2.318   2.861
30990SOL    HW292929   9.712   2.391   2.829
30991SOL     OW92930   9.313   3.164   2.042
30991SOL    HW192931   9.225   3.189   2.015
30991SOL    HW292932   9.304   3.075   2.076
30992SOL     OW92933   9.405   3.634   2.813
30992SOL    HW192934   9.374   3.560   2.761
30992SOL    HW292935   9.492   3.653   2.779
30993SOL     OW92936   9.818   3.468   2.778
30993SOL    HW192937   9.904   3.503   2.804
30993SOL    HW292938   9.838   3.404   2.710
30994SOL     OW92939   9.346   2.433   2.980
30994SOL    HW192940   9.427   2.430   2.930
30994SOL    HW292941   9.373   2.427   3.071
30995SOL     OW92942   9.486   2.399   3.613
30995SOL    HW192943   9.545   2.347   3.558
30995SOL    HW292944   9.456   2.470   3.556
30996SOL     OW92945   0.119   2.461   2.158
30996SOL    HW192946   0.135   2.479   2.251
30996SOL    HW292947   0.032   2.496   2.141
30997SOL     OW92948   9.536   3.407   3.576
30997SOL    HW192949   9.516   3.475   3.640
30997SOL    HW292950   9.559   3.330   3.628
30998SOL     OW92951   9.746   2.351   2.014
30998SOL    HW192952   9.808   2.418   2.042
30998SOL    HW292953   9.661   2.396   2.016
30999SOL     OW92954   9.432   3.006   3.339
30999SOL    HW192955   9.435   2.965   3.425
30999SOL    HW292956   9.455   2.936   3.278
31000SOL     OW92957   9.417   3.121   2.869
31000SOL    HW192958   9.391   3.138   2.959
31000SOL    HW292959   9.347   3.067   2.833
31001SOL     OW92960   9.988   3.470   3.532
31001SOL    HW192961   9.967   3.538   3.595
31001SOL    HW292962   0.083   3.458   3.540
31002SOL     OW92963   9.449   3.654   3.703
31002SOL    HW192964   9.403   3.584   3.749
31002SOL    HW292965   9.499   3.699   3.772
31003SOL     OW92966   9.546   2.181   2.572
31003SOL    HW192967   9.459   2.215   2.553
31003SOL    HW292968   9.551   2.178   2.667
31004SOL     OW92969   9.664   3.162   3.353
31004SOL    HW192970   9.653   3.244   3.305
31004SOL    HW292971   9.582   3.114   3.339
31005SOL     OW92972   9.900   3.334   2.326
31005SOL    HW192973   9.913   3.278   2.250
31005SOL    HW292974   9.839   3.402   2.295
31006SOL     OW92975   9.567   3.185   2.149
31006SOL    HW192976   9.474   3.182   2.124
31006SOL    HW292977   9.569   3.238   2.228
31007SOL     OW92978   9.418   2.893   3.586
31007SOL    HW192979   9.341   2.875   3.641
31007SOL    HW292980   9.492   2.862   3.637
31008SOL     OW92981   9.941   2.064   3.353
31008SOL    HW192982   0.011   1.999   3.350
31008SOL    HW292983   9.883   2.035   3.423
31009SOL     OW92984   9.373   2.179   1.886
31009SOL    HW192985   9.299   2.162   1.827
31009SOL    HW292986   9.404   2.267   1.862
31010SOL     OW92987   9.360   2.009   2.129
31010SOL    HW192988   9.346   2.076   2.061
31010SOL    HW292989   9.449   1.977   2.113
31011SOL     OW92990   9.917   2.732   3.298
31011SOL    HW192991   9.938   2.825   3.292
31011SOL    HW292992   9.998   2.687   3.275
31012SOL     OW92993   9.658   3.617   3.430
31012SOL    HW192994   9.573   3.659   3.415
31012SOL    HW292995   9.636   3.531   3.464
31013SOL     OW92996   9.842   2.563   2.586
31013SOL    HW192997   9.912   2.627   2.589
31013SOL    HW292998   9.796   2.581   2.504
31014SOL     OW92999   9.565   3.180   3.736
31014SOL    HW193000   9.475   3.147   3.734
31014SOL    HW293001   9.586   3.187   3.829
31015SOL     OW93002   9.432   3.079   2.519
31015SOL    HW193003   9.467   3.039   2.599
31015SOL    HW293004   9.484   3.043   2.448
31016SOL     OW93005   9.984   3.206   3.624
31016SOL    HW193006   9.909   3.151   3.601
31016SOL    HW293007   9.969   3.288   3.577
31017SOL     OW93008   9.751   2.287   2.414
31017SOL    HW193009   9.756   2.228   2.338
31017SOL    HW293010   9.682   2.250   2.469
31018SOL     OW93011   9.653   2.433   3.153
31018SOL    HW193012   9.701   2.374   3.212
31018SOL    HW293013   9.668   2.397   3.066
31019SOL     OW93014   9.341   2.910   2.168
31019SOL    HW193015   9.432   2.899   2.141
31019SOL    HW293016   9.311   2.822   2.191
31020SOL     OW93017   9.513   2.496   3.870
31020SOL    HW193018   9.427   2.478   3.909
31020SOL    HW293019   9.502   2.476   3.777
31021SOL     OW93020   9.520   2.159   4.715
31021SOL    HW193021   9.555   2.121   4.795
31021SOL    HW293022   9.434   2.118   4.704
31022SOL     OW93023   9.289   2.263   4.369
31022SOL    HW193024   9.207   2.284   4.415
31022SOL    HW293025   9.266   2.188   4.314
31023SOL     OW93026   9.826   3.058   4.831
31023SOL    HW193027   9.758   3.123   4.813
31023SOL    HW293028   9.878   3.097   4.902
31024SOL     OW93029   0.089   2.707   5.645
31024SOL    HW193030   0.177   2.730   5.676
31024SOL    HW293031   0.104   2.665   5.560
31025SOL     OW93032   9.656   3.280   4.791
31025SOL    HW193033   9.578   3.244   4.749
31025SOL    HW293034   9.695   3.338   4.725
31026SOL     OW93035   9.745   2.271   5.214
31026SOL    HW193036   9.821   2.213   5.212
31026SOL    HW293037   9.670   2.212   5.226
31027SOL     OW93038   9.529   3.586   4.191
31027SOL    HW193039   9.547   3.659   4.250
31027SOL    HW293040   9.613   3.568   4.148
31028SOL     OW93041   9.538   3.311   4.243
31028SOL    HW193042   9.517   3.404   4.253
31028SOL    HW293043   9.495   3.269   4.317
31029SOL     OW93044   9.579   2.951   4.589
31029SOL    HW193045   9.581   2.863   4.626
31029SOL    HW293046   9.532   3.004   4.655
31030SOL     OW93047   9.422   2.513   4.294
31030SOL    HW193048   9.382   2.429   4.317
31030SOL    HW293049   9.412   2.567   4.372
31031SOL     OW93050   9.361   3.438   3.839
31031SOL    HW193051   9.341   3.346   3.856
31031SOL    HW293052   9.331   3.485   3.917
31032SOL     OW93053   9.427   2.609   5.304
31032SOL    HW193054   9.512   2.653   5.310
31032SOL    HW293055   9.364   2.680   5.295
31033SOL     OW93056   9.891   3.277   4.458
31033SOL    HW193057   9.854   3.189   4.455
31033SOL    HW293058   9.900   3.303   4.366
31034SOL     OW93059   0.106   1.862   4.297
31034SOL    HW193060   0.136   1.947   4.263
31034SOL    HW293061   0.010   1.867   4.293
31035SOL     OW93062   9.492   2.817   5.017
31035SOL    HW193063   9.579   2.783   4.995
31035SOL    HW293064   9.436   2.785   4.947
31036SOL     OW93065   9.639   2.132   5.539
31036SOL    HW193066   9.678   2.194   5.600
31036SOL    HW293067   9.547   2.128   5.564
31037SOL     OW93068   9.871   2.572   3.991
31037SOL    HW193069   9.874   2.657   3.949
31037SOL    HW293070   9.808   2.582   4.062
31038SOL     OW93071   9.390   2.691   4.501
31038SOL    HW193072   9.472   2.681   4.549
31038SOL    HW293073   9.345   2.764   4.545
31039SOL     OW93074   9.412   3.747   5.314
31039SOL    HW193075   9.424   3.721   5.405
31039SOL    HW293076   9.325   3.715   5.291
31040SOL     OW93077   0.240   2.190   3.934
31040SOL    HW193078   0.248   2.284   3.947
31040SOL    HW293079   0.172   2.180   3.867
31041SOL     OW93080   9.825   2.063   4.628
31041SOL    HW193081   9.848   2.062   4.721
31041SOL    HW293082   9.832   2.155   4.602
31042SOL     OW93083   9.666   3.695   4.608
31042SOL    HW193084   9.723   3.619   4.618
31042SOL    HW293085   9.724   3.770   4.619
31043SOL     OW93086   9.595   2.794   3.957
31043SOL    HW193087   9.625   2.809   3.868
31043SOL    HW293088   9.572   2.701   3.960
31044SOL     OW93089   9.756   3.059   5.446
31044SOL    HW193090   9.734   3.087   5.358
31044SOL    HW293091   9.690   3.101   5.502
31045SOL     OW93092   9.509   2.124   5.217
31045SOL    HW193093   9.431   2.179   5.224
31045SOL    HW293094   9.483   2.040   5.254
31046SOL     OW93095   9.785   3.583   4.061
31046SOL    HW193096   9.820   3.653   4.117
31046SOL    HW293097   9.857   3.564   4.000
31047SOL     OW93098   9.562   3.654   4.946
31047SOL    HW193099   9.611   3.582   4.987
31047SOL    HW293100   9.557   3.630   4.854
31048SOL     OW93101   9.693   2.547   4.206
31048SOL    HW193102   9.718   2.457   4.227
31048SOL    HW293103   9.599   2.550   4.224
31049SOL     OW93104   9.847   1.972   3.832
31049SOL    HW193105   9.930   1.949   3.875
31049SOL    HW293106   9.860   1.950   3.740
31050SOL     OW93107   0.141   3.295   4.576
31050SOL    HW193108   0.182   3.224   4.526
31050SOL    HW293109   0.050   3.297   4.546
31051SOL     OW93110   9.843   1.935   4.223
31051SOL    HW193111   9.765   1.934   4.278
31051SOL    HW293112   9.832   2.011   4.167
31052SOL     OW93113   9.599   1.890   3.913
31052SOL    HW193114   9.675   1.935   3.874
31052SOL    HW293115   9.637   1.821   3.968
31053SOL     OW93116   0.191   2.092   4.178
31053SOL    HW193117   0.212   2.134   4.095
31053SOL    HW293118   0.271   2.100   4.230
31054SOL     OW93119   9.781   3.029   4.422
31054SOL    HW193120   9.718   2.999   4.487
31054SOL    HW293121   9.739   3.009   4.338
31055SOL     OW93122   9.402   2.416   5.114
31055SOL    HW193123   9.493   2.419   5.086
31055SOL    HW293124   9.394   2.485   5.180
31056SOL     OW93125   9.870   2.069   4.898
31056SOL    HW193126   9.913   2.067   4.984
31056SOL    HW293127   9.777   2.068   4.918
31057SOL     OW93128   9.794   2.140   4.043
31057SOL    HW193129   9.814   2.076   3.975
31057SOL    HW293130   9.775   2.221   3.995
31058SOL     OW93131   9.732   2.688   4.964
31058SOL    HW193132   9.795   2.703   5.034
31058SOL    HW293133   9.701   2.599   4.978
31059SOL     OW93134   9.390   3.429   5.085
31059SOL    HW193135   9.358   3.500   5.029
31059SOL    HW293136   9.485   3.432   5.076
31060SOL     OW93137   9.634   2.977   4.186
31060SOL    HW193138   9.625   3.051   4.126
31060SOL    HW293139   9.631   2.900   4.129
31061SOL     OW93140   9.865   2.349   4.612
31061SOL    HW193141   9.860   2.422   4.551
31061SOL    HW293142   9.930   2.376   4.677
31062SOL     OW93143   9.662   3.401   5.036
31062SOL    HW193144   9.667   3.352   4.954
31062SOL    HW293145   9.754   3.411   5.063
31063SOL     OW93146   9.718   2.638   5.333
31063SOL    HW193147   9.784   2.678   5.276
31063SOL    HW293148   9.733   2.544   5.326
31064SOL     OW93149   9.803   1.948   5.419
31064SOL    HW193150   9.756   1.876   5.376
31064SOL    HW293151   9.734   2.004   5.454
31065SOL     OW93152   9.866   2.793   4.742
31065SOL    HW193153   9.849   2.886   4.759
31065SOL    HW293154   9.827   2.747   4.817
31066SOL     OW93155   9.603   2.059   4.962
31066SOL    HW193156   9.568   2.089   5.046
31066SOL    HW293157   9.586   1.965   4.960
31067SOL     OW93158   9.358   3.172   4.989
31067SOL    HW193159   9.384   3.115   5.061
31067SOL    HW293160   9.362   3.261   5.026
31068SOL     OW93161   9.606   1.926   4.358
31068SOL    HW193162   9.579   2.016   4.376
31068SOL    HW293163   9.622   1.888   4.445
31069SOL     OW93164   9.669   2.814   5.550
31069SOL    HW193165   9.713   2.892   5.516
31069SOL    HW293166   9.690   2.745   5.486
31070SOL     OW93167   9.614   2.677   4.658
31070SOL    HW193168   9.706   2.701   4.655
31070SOL    HW293169   9.613   2.586   4.689
31071SOL     OW93170   9.627   2.402   4.734
31071SOL    HW193171   9.583   2.318   4.723
31071SOL    HW293172   9.712   2.391   4.691
31072SOL     OW93173   9.313   3.164   3.904
31072SOL    HW193174   9.225   3.189   3.877
31072SOL    HW293175   9.304   3.075   3.938
31073SOL     OW93176   9.405   3.634   4.676
31073SOL    HW193177   9.374   3.560   4.623
31073SOL    HW293178   9.492   3.653   4.641
31074SOL     OW93179   9.819   3.468   4.641
31074SOL    HW193180   9.904   3.503   4.666
31074SOL    HW293181   9.838   3.404   4.572
31075SOL     OW93182   9.345   2.433   4.842
31075SOL    HW193183   9.427   2.430   4.792
31075SOL    HW293184   9.373   2.427   4.933
31076SOL     OW93185   9.486   2.399   5.475
31076SOL    HW193186   9.545   2.347   5.420
31076SOL    HW293187   9.456   2.470   5.418
31077SOL     OW93188   0.119   2.461   4.021
31077SOL    HW193189   0.134   2.480   4.113
31077SOL    HW293190   0.032   2.497   4.003
31078SOL     OW93191   9.537   3.407   5.438
31078SOL    HW193192   9.516   3.475   5.502
31078SOL    HW293193   9.559   3.330   5.490
31079SOL     OW93194   9.746   2.351   3.876
31079SOL    HW193195   9.809   2.418   3.904
31079SOL    HW293196   9.661   2.396   3.877
31080SOL     OW93197   9.433   3.006   5.201
31080SOL    HW193198   9.435   2.965   5.288
31080SOL    HW293199   9.455   2.936   5.140
31081SOL     OW93200   9.417   3.120   4.731
31081SOL    HW193201   9.391   3.137   4.821
31081SOL    HW293202   9.347   3.066   4.695
31082SOL     OW93203   9.988   3.470   5.394
31082SOL    HW193204   9.967   3.538   5.457
31082SOL    HW293205   0.082   3.458   5.402
31083SOL     OW93206   9.449   3.654   5.565
31083SOL    HW193207   9.403   3.584   5.611
31083SOL    HW293208   9.498   3.699   5.634
31084SOL     OW93209   9.546   2.181   4.434
31084SOL    HW193210   9.459   2.215   4.415
31084SOL    HW293211   9.550   2.178   4.529
31085SOL     OW93212   9.665   3.162   5.214
31085SOL    HW193213   9.653   3.244   5.167
31085SOL    HW293214   9.582   3.114   5.201
31086SOL     OW93215   9.900   3.335   4.188
31086SOL    HW193216   9.913   3.278   4.113
31086SOL    HW293217   9.839   3.402   4.158
31087SOL     OW93218   9.567   3.185   4.011
31087SOL    HW193219   9.474   3.182   3.986
31087SOL    HW293220   9.569   3.238   4.090
31088SOL     OW93221   9.418   2.893   5.448
31088SOL    HW193222   9.341   2.875   5.503
31088SOL    HW293223   9.492   2.862   5.500
31089SOL     OW93224   9.940   2.064   5.215
31089SOL    HW193225   0.010   1.999   5.212
31089SOL    HW293226   9.883   2.035   5.285
31090SOL     OW93227   9.373   2.179   3.748
31090SOL    HW193228   9.300   2.162   3.689
31090SOL    HW293229   9.404   2.267   3.724
31091SOL     OW93230   9.360   2.009   3.991
31091SOL    HW193231   9.346   2.076   3.924
31091SOL    HW293232   9.449   1.978   3.975
31092SOL     OW93233   9.917   2.732   5.160
31092SOL    HW193234   9.937   2.825   5.154
31092SOL    HW293235   9.998   2.688   5.136
31093SOL     OW93236   9.658   3.617   5.292
31093SOL    HW193237   9.574   3.660   5.277
31093SOL    HW293238   9.636   3.531   5.327
31094SOL     OW93239   9.842   2.562   4.448
31094SOL    HW193240   9.912   2.627   4.450
31094SOL    HW293241   9.796   2.580   4.366
31095SOL     OW93242   9.565   3.179   5.598
31095SOL    HW193243   9.475   3.147   5.596
31095SOL    HW293244   9.586   3.187   5.691
31096SOL     OW93245   9.432   3.080   4.381
31096SOL    HW193246   9.467   3.039   4.461
31096SOL    HW293247   9.484   3.043   4.310
31097SOL     OW93248   9.984   3.205   5.486
31097SOL    HW193249   9.909   3.151   5.462
31097SOL    HW293250   9.970   3.288   5.439
31098SOL     OW93251   9.751   2.287   4.276
31098SOL    HW193252   9.755   2.228   4.200
31098SOL    HW293253   9.682   2.250   4.331
31099SOL     OW93254   9.653   2.433   5.016
31099SOL    HW193255   9.701   2.374   5.074
31099SOL    HW293256   9.668   2.397   4.928
31100SOL     OW93257   9.341   2.911   4.030
31100SOL    HW193258   9.433   2.899   4.003
31100SOL    HW293259   9.312   2.822   4.053
31101SOL     OW93260   9.513   2.496   5.732
31101SOL    HW193261   9.427   2.478   5.771
31101SOL    HW293262   9.502   2.476   5.639
31102SOL     OW93263   9.520   2.159   6.577
31102SOL    HW193264   9.555   2.120   6.657
31102SOL    HW293265   9.434   2.118   6.566
31103SOL     OW93266   9.289   2.263   6.231
31103SOL    HW193267   9.208   2.284   6.277
31103SOL    HW293268   9.266   2.188   6.176
31104SOL     OW93269   9.826   3.058   6.694
31104SOL    HW193270   9.758   3.123   6.675
31104SOL    HW293271   9.878   3.097   6.764
31105SOL     OW93272   0.090   2.706   7.506
31105SOL    HW193273   0.179   2.729   7.532
31105SOL    HW293274   0.100   2.663   7.421
31106SOL     OW93275   9.656   3.280   6.653
31106SOL    HW193276   9.578   3.244   6.610
31106SOL    HW293277   9.695   3.338   6.588
31107SOL     OW93278   9.745   2.271   7.077
31107SOL    HW193279   9.821   2.213   7.074
31107SOL    HW293280   9.670   2.212   7.088
31108SOL     OW93281   9.529   3.586   6.053
31108SOL    HW193282   9.547   3.659   6.112
31108SOL    HW293283   9.613   3.568   6.010
31109SOL     OW93284   9.538   3.311   6.105
31109SOL    HW193285   9.517   3.404   6.115
31109SOL    HW293286   9.495   3.269   6.179
31110SOL     OW93287   9.579   2.952   6.451
31110SOL    HW193288   9.581   2.863   6.488
31110SOL    HW293289   9.532   3.004   6.517
31111SOL     OW93290   9.422   2.513   6.156
31111SOL    HW193291   9.382   2.429   6.179
31111SOL    HW293292   9.412   2.567   6.234
31112SOL     OW93293   9.361   3.438   5.701
31112SOL    HW193294   9.341   3.346   5.719
31112SOL    HW293295   9.331   3.485   5.779
31113SOL     OW93296   9.427   2.609   7.166
31113SOL    HW193297   9.512   2.653   7.171
31113SOL    HW293298   9.364   2.680   7.156
31114SOL     OW93299   9.891   3.277   6.319
31114SOL    HW193300   9.854   3.189   6.316
31114SOL    HW293301   9.900   3.303   6.228
31115SOL     OW93302   0.107   1.863   6.159
31115SOL    HW193303   0.136   1.948   6.124
31115SOL    HW293304   0.012   1.867   6.156
31116SOL     OW93305   9.492   2.817   6.879
31116SOL    HW193306   9.579   2.783   6.857
31116SOL    HW293307   9.435   2.785   6.809
31117SOL     OW93308   9.639   2.132   7.401
31117SOL    HW193309   9.678   2.194   7.462
31117SOL    HW293310   9.547   2.128   7.426
31118SOL     OW93311   9.871   2.571   5.853
31118SOL    HW193312   9.874   2.657   5.811
31118SOL    HW293313   9.808   2.582   5.924
31119SOL     OW93314   9.390   2.691   6.363
31119SOL    HW193315   9.472   2.681   6.411
31119SOL    HW293316   9.345   2.763   6.408
31120SOL     OW93317   9.412   3.747   7.176
31120SOL    HW193318   9.424   3.721   7.267
31120SOL    HW293319   9.325   3.714   7.153
31121SOL     OW93320   0.240   2.190   5.795
31121SOL    HW193321   0.248   2.284   5.808
31121SOL    HW293322   0.172   2.180   5.728
31122SOL     OW93323   9.825   2.063   6.490
31122SOL    HW193324   9.848   2.062   6.582
31122SOL    HW293325   9.832   2.155   6.464
31123SOL     OW93326   9.665   3.695   6.470
31123SOL    HW193327   9.722   3.619   6.480
31123SOL    HW293328   9.724   3.770   6.481
31124SOL     OW93329   9.595   2.794   5.819
31124SOL    HW193330   9.625   2.809   5.730
31124SOL    HW293331   9.572   2.701   5.822
31125SOL     OW93332   9.756   3.059   7.309
31125SOL    HW193333   9.734   3.087   7.220
31125SOL    HW293334   9.691   3.101   7.364
31126SOL     OW93335   9.509   2.124   7.079
31126SOL    HW193336   9.431   2.179   7.085
31126SOL    HW293337   9.483   2.040   7.116
31127SOL     OW93338   9.786   3.583   5.923
31127SOL    HW193339   9.820   3.653   5.979
31127SOL    HW293340   9.857   3.564   5.862
31128SOL     OW93341   9.562   3.654   6.808
31128SOL    HW193342   9.611   3.582   6.848
31128SOL    HW293343   9.557   3.630   6.715
31129SOL     OW93344   9.693   2.547   6.068
31129SOL    HW193345   9.718   2.457   6.089
31129SOL    HW293346   9.599   2.550   6.086
31130SOL     OW93347   9.847   1.972   5.694
31130SOL    HW193348   9.930   1.948   5.737
31130SOL    HW293349   9.861   1.950   5.602
31131SOL     OW93350   0.141   3.295   6.438
31131SOL    HW193351   0.181   3.224   6.388
31131SOL    HW293352   0.050   3.296   6.409
31132SOL     OW93353   9.844   1.935   6.086
31132SOL    HW193354   9.766   1.934   6.141
31132SOL    HW293355   9.833   2.011   6.029
31133SOL     OW93356   9.599   1.890   5.775
31133SOL    HW193357   9.674   1.935   5.736
31133SOL    HW293358   9.637   1.821   5.830
31134SOL     OW93359   0.191   2.093   6.040
31134SOL    HW193360   0.212   2.134   5.956
31134SOL    HW293361   0.270   2.105   6.093
31135SOL     OW93362   9.780   3.029   6.284
31135SOL    HW193363   9.717   2.999   6.349
31135SOL    HW293364   9.739   3.009   6.200
31136SOL     OW93365   9.402   2.416   6.976
31136SOL    HW193366   9.493   2.419   6.948
31136SOL    HW293367   9.394   2.485   7.042
31137SOL     OW93368   9.870   2.069   6.760
31137SOL    HW193369   9.913   2.067   6.846
31137SOL    HW293370   9.777   2.068   6.780
31138SOL     OW93371   9.794   2.140   5.905
31138SOL    HW193372   9.814   2.076   5.837
31138SOL    HW293373   9.776   2.221   5.857
31139SOL     OW93374   9.732   2.688   6.826
31139SOL    HW193375   9.795   2.703   6.896
31139SOL    HW293376   9.700   2.599   6.840
31140SOL     OW93377   9.390   3.429   6.947
31140SOL    HW193378   9.358   3.500   6.891
31140SOL    HW293379   9.485   3.432   6.938
31141SOL     OW93380   9.634   2.977   6.047
31141SOL    HW193381   9.625   3.051   5.988
31141SOL    HW293382   9.631   2.900   5.991
31142SOL     OW93383   9.865   2.349   6.475
31142SOL    HW193384   9.860   2.422   6.413
31142SOL    HW293385   9.930   2.377   6.539
31143SOL     OW93386   9.662   3.401   6.898
31143SOL    HW193387   9.667   3.352   6.816
31143SOL    HW293388   9.754   3.411   6.925
31144SOL     OW93389   9.719   2.638   7.195
31144SOL    HW193390   9.784   2.677   7.138
31144SOL    HW293391   9.733   2.544   7.188
31145SOL     OW93392   9.803   1.948   7.281
31145SOL    HW193393   9.756   1.876   7.238
31145SOL    HW293394   9.734   2.004   7.316
31146SOL     OW93395   9.866   2.793   6.604
31146SOL    HW193396   9.849   2.886   6.621
31146SOL    HW293397   9.827   2.748   6.679
31147SOL     OW93398   9.603   2.059   6.824
31147SOL    HW193399   9.568   2.089   6.908
31147SOL    HW293400   9.586   1.965   6.822
31148SOL     OW93401   9.357   3.172   6.851
31148SOL    HW193402   9.384   3.115   6.923
31148SOL    HW293403   9.362   3.261   6.888
31149SOL     OW93404   9.606   1.926   6.220
31149SOL    HW193405   9.580   2.016   6.238
31149SOL    HW293406   9.622   1.888   6.307
31150SOL     OW93407   9.669   2.814   7.411
31150SOL    HW193408   9.713   2.892   7.378
31150SOL    HW293409   9.690   2.745   7.348
31151SOL     OW93410   9.614   2.677   6.520
31151SOL    HW193411   9.706   2.700   6.517
31151SOL    HW293412   9.613   2.586   6.551
31152SOL     OW93413   9.627   2.402   6.596
31152SOL    HW193414   9.583   2.318   6.585
31152SOL    HW293415   9.712   2.391   6.553
31153SOL     OW93416   9.313   3.164   5.766
31153SOL    HW193417   9.225   3.189   5.739
31153SOL    HW293418   9.304   3.075   5.801
31154SOL     OW93419   9.405   3.634   6.538
31154SOL    HW193420   9.374   3.560   6.485
31154SOL    HW293421   9.492   3.653   6.503
31155SOL     OW93422   9.816   3.467   6.502
31155SOL    HW193423   9.901   3.503   6.526
31155SOL    HW293424   9.836   3.403   6.433
31156SOL     OW93425   9.345   2.433   6.704
31156SOL    HW193426   9.427   2.430   6.654
31156SOL    HW293427   9.374   2.427   6.795
31157SOL     OW93428   9.486   2.399   7.337
31157SOL    HW193429   9.545   2.347   7.282
31157SOL    HW293430   9.456   2.470   7.280
31158SOL     OW93431   0.119   2.461   5.883
31158SOL    HW193432   0.134   2.480   5.976
31158SOL    HW293433   0.032   2.497   5.865
31159SOL     OW93434   9.536   3.407   7.300
31159SOL    HW193435   9.516   3.475   7.364
31159SOL    HW293436   9.559   3.330   7.352
31160SOL     OW93437   9.746   2.351   5.738
31160SOL    HW193438   9.809   2.418   5.766
31160SOL    HW293439   9.661   2.396   5.739
31161SOL     OW93440   9.433   3.006   7.063
31161SOL    HW193441   9.435   2.965   7.150
31161SOL    HW293442   9.455   2.936   7.002
31162SOL     OW93443   9.417   3.120   6.593
31162SOL    HW193444   9.391   3.137   6.683
31162SOL    HW293445   9.346   3.066   6.557
31163SOL     OW93446   9.988   3.470   7.256
31163SOL    HW193447   9.967   3.539   7.318
31163SOL    HW293448   0.083   3.458   7.264
31164SOL     OW93449   9.449   3.654   7.427
31164SOL    HW193450   9.403   3.584   7.473
31164SOL    HW293451   9.498   3.699   7.496
31165SOL     OW93452   9.546   2.181   6.296
31165SOL    HW193453   9.459   2.215   6.277
31165SOL    HW293454   9.550   2.178   6.391
31166SOL     OW93455   9.665   3.162   7.077
31166SOL    HW193456   9.653   3.244   7.029
31166SOL    HW293457   9.582   3.114   7.063
31167SOL     OW93458   9.900   3.335   6.050
31167SOL    HW193459   9.913   3.278   5.974
31167SOL    HW293460   9.840   3.402   6.019
31168SOL     OW93461   9.567   3.185   5.873
31168SOL    HW193462   9.474   3.182   5.848
31168SOL    HW293463   9.568   3.238   5.952
31169SOL     OW93464   9.418   2.894   7.311
31169SOL    HW193465   9.342   2.875   7.365
31169SOL    HW293466   9.492   2.862   7.362
31170SOL     OW93467   9.940   2.064   7.077
31170SOL    HW193468   0.010   1.999   7.074
31170SOL    HW293469   9.883   2.035   7.148
31171SOL     OW93470   9.373   2.179   5.610
31171SOL    HW193471   9.300   2.162   5.551
31171SOL    HW293472   9.404   2.267   5.586
31172SOL     OW93473   9.360   2.009   5.853
31172SOL    HW193474   9.346   2.076   5.786
31172SOL    HW293475   9.449   1.978   5.837
31173SOL     OW93476   9.917   2.732   7.022
31173SOL    HW193477   9.938   2.825   7.016
31173SOL    HW293478   9.998   2.687   6.996
31174SOL     OW93479   9.658   3.617   7.154
31174SOL    HW193480   9.574   3.659   7.139
31174SOL    HW293481   9.636   3.531   7.189
31175SOL     OW93482   9.842   2.562   6.310
31175SOL    HW193483   9.912   2.627   6.312
31175SOL    HW293484   9.796   2.580   6.228
31176SOL     OW93485   9.565   3.179   7.460
31176SOL    HW193486   9.475   3.147   7.458
31176SOL    HW293487   9.586   3.187   7.553
31177SOL     OW93488   9.431   3.080   6.243
31177SOL    HW193489   9.467   3.039   6.323
31177SOL    HW293490   9.484   3.043   6.172
31178SOL     OW93491   9.984   3.206   7.348
31178SOL    HW193492   9.908   3.151   7.325
31178SOL    HW293493   9.970   3.288   7.301
31179SOL     OW93494   9.751   2.287   6.138
31179SOL    HW193495   9.756   2.228   6.062
31179SOL    HW293496   9.683   2.250   6.193
31180SOL     OW93497   9.653   2.433   6.878
31180SOL    HW193498   9.701   2.374   6.936
31180SOL    HW293499   9.668   2.398   6.790
31181SOL     OW93500   9.341   2.911   5.892
31181SOL    HW193501   9.432   2.899   5.865
31181SOL    HW293502   9.312   2.822   5.915
31182SOL     OW93503   9.512   2.496   7.594
31182SOL    HW193504   9.427   2.478   7.633
31182SOL    HW293505   9.502   2.476   7.501
31183SOL     OW93506   9.520   2.159   8.439
31183SOL    HW193507   9.555   2.120   8.519
31183SOL    HW293508   9.434   2.117   8.428
31184SOL     OW93509   9.289   2.263   8.093
31184SOL    HW193510   9.208   2.284   8.139
31184SOL    HW293511   9.266   2.188   8.038
31185SOL     OW93512   9.827   3.058   8.556
31185SOL    HW193513   9.759   3.123   8.538
31185SOL    HW293514   9.879   3.097   8.627
31186SOL     OW93515   0.129   2.670   9.360
31186SOL    HW193516   0.207   2.723   9.345
31186SOL    HW293517   0.062   2.708   9.304
31187SOL     OW93518   9.656   3.279   8.515
31187SOL    HW193519   9.578   3.243   8.472
31187SOL    HW293520   9.694   3.337   8.449
31188SOL     OW93521   9.743   2.270   8.937
31188SOL    HW193522   9.818   2.211   8.934
31188SOL    HW293523   9.668   2.212   8.949
31189SOL     OW93524   9.529   3.586   7.914
31189SOL    HW193525   9.548   3.659   7.973
31189SOL    HW293526   9.613   3.568   7.872
31190SOL     OW93527   9.538   3.311   7.967
31190SOL    HW193528   9.517   3.404   7.977
31190SOL    HW293529   9.496   3.269   8.041
31191SOL     OW93530   9.579   2.951   8.314
31191SOL    HW193531   9.581   2.863   8.351
31191SOL    HW293532   9.532   3.004   8.379
31192SOL     OW93533   9.423   2.513   8.018
31192SOL    HW193534   9.382   2.429   8.041
31192SOL    HW293535   9.412   2.567   8.096
31193SOL     OW93536   9.362   3.438   7.563
31193SOL    HW193537   9.342   3.346   7.581
31193SOL    HW293538   9.331   3.485   7.641
31194SOL     OW93539   9.427   2.611   9.025
31194SOL    HW193540   9.510   2.657   9.035
31194SOL    HW293541   9.362   2.681   9.018
31195SOL     OW93542   9.891   3.277   8.181
31195SOL    HW193543   9.854   3.189   8.178
31195SOL    HW293544   9.900   3.303   8.090
31196SOL     OW93545   0.108   1.864   8.021
31196SOL    HW193546   0.136   1.949   7.986
31196SOL    HW293547   0.013   1.867   8.019
31197SOL     OW93548   9.492   2.818   8.741
31197SOL    HW193549   9.578   2.783   8.718
31197SOL    HW293550   9.434   2.785   8.672
31198SOL     OW93551   9.636   2.129   9.260
31198SOL    HW193552   9.678   2.189   9.321
31198SOL    HW293553   9.544   2.127   9.287
31199SOL     OW93554   9.871   2.572   7.715
31199SOL    HW193555   9.874   2.658   7.673
31199SOL    HW293556   9.808   2.582   7.786
31200SOL     OW93557   9.390   2.691   8.225
31200SOL    HW193558   9.472   2.681   8.272
31200SOL    HW293559   9.345   2.764   8.269
31201SOL     OW93560   9.413   3.747   9.040
31201SOL    HW193561   9.427   3.721   9.131
31201SOL    HW293562   9.326   3.714   9.017
31202SOL     OW93563   0.239   2.190   7.657
31202SOL    HW193564   0.247   2.284   7.670
31202SOL    HW293565   0.172   2.180   7.590
31203SOL     OW93566   9.825   2.063   8.349
31203SOL    HW193567   9.848   2.062   8.442
31203SOL    HW293568   9.832   2.155   8.324
31204SOL     OW93569   9.666   3.695   8.331
31204SOL    HW193570   9.722   3.619   8.341
31204SOL    HW293571   9.724   3.770   8.341
31205SOL     OW93572   9.595   2.793   7.681
31205SOL    HW193573   9.625   2.809   7.592
31205SOL    HW293574   9.572   2.701   7.683
31206SOL     OW93575   9.754   3.063   9.174
31206SOL    HW193576   9.729   3.090   9.085
31206SOL    HW293577   9.689   3.105   9.230
31207SOL     OW93578   9.507   2.125   8.941
31207SOL    HW193579   9.428   2.178   8.947
31207SOL    HW293580   9.483   2.040   8.979
31208SOL     OW93581   9.786   3.583   7.785
31208SOL    HW193582   9.820   3.653   7.841
31208SOL    HW293583   9.856   3.564   7.724
31209SOL     OW93584   9.563   3.655   8.669
31209SOL    HW193585   9.611   3.582   8.709
31209SOL    HW293586   9.555   3.631   8.577
31210SOL     OW93587   9.693   2.546   7.931
31210SOL    HW193588   9.719   2.456   7.952
31210SOL    HW293589   9.600   2.550   7.949
31211SOL     OW93590   9.848   1.972   7.557
31211SOL    HW193591   9.930   1.948   7.599
31211SOL    HW293592   9.861   1.950   7.464
31212SOL     OW93593   0.141   3.295   8.300
31212SOL    HW193594   0.182   3.225   8.250
31212SOL    HW293595   0.050   3.296   8.270
31213SOL     OW93596   9.845   1.935   7.948
31213SOL    HW193597   9.766   1.934   8.003
31213SOL    HW293598   9.833   2.011   7.891
31214SOL     OW93599   9.599   1.890   7.637
31214SOL    HW193600   9.675   1.935   7.598
31214SOL    HW293601   9.637   1.821   7.692
31215SOL     OW93602   0.190   2.094   7.902
31215SOL    HW193603   0.211   2.135   7.818
31215SOL    HW293604   0.270   2.106   7.954
31216SOL     OW93605   9.780   3.029   8.146
31216SOL    HW193606   9.717   2.999   8.211
31216SOL    HW293607   9.739   3.009   8.062
31217SOL     OW93608   9.401   2.417   8.836
31217SOL    HW193609   9.492   2.419   8.809
31217SOL    HW293610   9.393   2.487   8.901
31218SOL     OW93611   9.870   2.067   8.620
31218SOL    HW193612   9.911   2.062   8.706
31218SOL    HW293613   9.776   2.068   8.639
31219SOL     OW93614   9.794   2.140   7.767
31219SOL    HW193615   9.814   2.076   7.699
31219SOL    HW293616   9.776   2.221   7.719
31220SOL     OW93617   9.731   2.688   8.687
31220SOL    HW193618   9.794   2.702   8.757
31220SOL    HW293619   9.699   2.599   8.701
31221SOL     OW93620   9.389   3.429   8.808
31221SOL    HW193621   9.357   3.499   8.752
31221SOL    HW293622   9.484   3.432   8.799
31222SOL     OW93623   9.634   2.977   7.909
31222SOL    HW193624   9.625   3.051   7.850
31222SOL    HW293625   9.631   2.900   7.853
31223SOL     OW93626   9.864   2.350   8.338
31223SOL    HW193627   9.861   2.422   8.276
31223SOL    HW293628   9.930   2.377   8.403
31224SOL     OW93629   9.661   3.401   8.759
31224SOL    HW193630   9.666   3.352   8.677
31224SOL    HW293631   9.753   3.411   8.786
31225SOL     OW93632   9.719   2.642   9.060
31225SOL    HW193633   9.785   2.679   9.000
31225SOL    HW293634   9.732   2.547   9.054
31226SOL     OW93635   9.801   1.946   9.142
31226SOL    HW193636   9.755   1.874   9.101
31226SOL    HW293637   9.732   2.002   9.178
31227SOL     OW93638   9.868   2.793   8.467
31227SOL    HW193639   9.850   2.886   8.484
31227SOL    HW293640   9.827   2.747   8.540
31228SOL     OW93641   9.603   2.060   8.686
31228SOL    HW193642   9.567   2.090   8.770
31228SOL    HW293643   9.586   1.966   8.684
31229SOL     OW93644   9.360   3.172   8.713
31229SOL    HW193645   9.385   3.114   8.786
31229SOL    HW293646   9.363   3.260   8.750
31230SOL     OW93647   9.606   1.926   8.082
31230SOL    HW193648   9.580   2.016   8.099
31230SOL    HW293649   9.622   1.889   8.168
31231SOL     OW93650   9.674   2.815   9.279
31231SOL    HW193651   9.714   2.894   9.243
31231SOL    HW293652   9.691   2.747   9.213
31232SOL     OW93653   9.614   2.676   8.381
31232SOL    HW193654   9.707   2.698   8.375
31232SOL    HW293655   9.613   2.586   8.413
31233SOL     OW93656   9.626   2.402   8.458
31233SOL    HW193657   9.583   2.317   8.447
31233SOL    HW293658   9.711   2.392   8.415
31234SOL     OW93659   9.313   3.164   7.629
31234SOL    HW193660   9.225   3.189   7.601
31234SOL    HW293661   9.304   3.075   7.663
31235SOL     OW93662   9.406   3.633   8.400
31235SOL    HW193663   9.375   3.560   8.347
31235SOL    HW293664   9.493   3.653   8.365
31236SOL     OW93665   9.816   3.467   8.363
31236SOL    HW193666   9.901   3.503   8.388
31236SOL    HW293667   9.836   3.403   8.295
31237SOL     OW93668   9.345   2.433   8.565
31237SOL    HW193669   9.427   2.430   8.515
31237SOL    HW293670   9.373   2.427   8.656
31238SOL     OW93671   9.480   2.393   9.185
31238SOL    HW193672   9.539   2.342   9.129
31238SOL    HW293673   9.452   2.466   9.131
31239SOL     OW93674   0.119   2.461   7.745
31239SOL    HW193675   0.134   2.480   7.837
31239SOL    HW293676   0.032   2.497   7.727
31240SOL     OW93677   9.535   3.408   9.164
31240SOL    HW193678   9.516   3.479   9.225
31240SOL    HW293679   9.558   3.334   9.220
31241SOL     OW93680   9.746   2.351   7.600
31241SOL    HW193681   9.808   2.418   7.628
31241SOL    HW293682   9.661   2.396   7.601
31242SOL     OW93683   9.433   3.005   8.926
31242SOL    HW193684   9.435   2.963   9.012
31242SOL    HW293685   9.454   2.935   8.865
31243SOL     OW93686   9.417   3.121   8.454
31243SOL    HW193687   9.391   3.138   8.545
31243SOL    HW293688   9.346   3.067   8.419
31244SOL     OW93689   9.993   3.469   9.114
31244SOL    HW193690   9.967   3.534   9.180
31244SOL    HW293691   0.087   3.457   9.128
31245SOL     OW93692   9.454   3.653   9.290
31245SOL    HW193693   9.406   3.587   9.340
31245SOL    HW293694   9.502   3.702   9.357
31246SOL     OW93695   9.547   2.182   8.158
31246SOL    HW193696   9.459   2.215   8.139
31246SOL    HW293697   9.551   2.178   8.253
31247SOL     OW93698   9.663   3.162   8.940
31247SOL    HW193699   9.651   3.244   8.891
31247SOL    HW293700   9.582   3.114   8.927
31248SOL     OW93701   9.900   3.335   7.912
31248SOL    HW193702   9.914   3.278   7.836
31248SOL    HW293703   9.839   3.402   7.881
31249SOL     OW93704   9.567   3.185   7.735
31249SOL    HW193705   9.474   3.182   7.710
31249SOL    HW293706   9.569   3.238   7.814
31250SOL     OW93707   9.421   2.890   9.173
31250SOL    HW193708   9.344   2.874   9.226
31250SOL    HW293709   9.494   2.861   9.227
31251SOL     OW93710   9.934   2.060   8.936
31251SOL    HW193711   0.003   1.994   8.933
31251SOL    HW293712   9.877   2.032   9.007
31252SOL     OW93713   9.373   2.179   7.471
31252SOL    HW193714   9.300   2.163   7.413
31252SOL    HW293715   9.404   2.267   7.448
31253SOL     OW93716   9.360   2.009   7.715
31253SOL    HW193717   9.346   2.076   7.647
31253SOL    HW293718   9.449   1.978   7.699
31254SOL     OW93719   9.916   2.731   8.882
31254SOL    HW193720   9.936   2.824   8.871
31254SOL    HW293721   9.998   2.686   8.860
31255SOL     OW93722   9.659   3.615   9.016
31255SOL    HW193723   9.575   3.658   9.000
31255SOL    HW293724   9.635   3.529   9.051
31256SOL     OW93725   9.842   2.563   8.173
31256SOL    HW193726   9.912   2.627   8.175
31256SOL    HW293727   9.795   2.581   8.091
31257SOL     OW93728   9.565   3.183   9.328
31257SOL    HW193729   9.473   3.157   9.326
31257SOL    HW293730   9.588   3.187   9.421
31258SOL     OW93731   9.432   3.080   8.106
31258SOL    HW193732   9.467   3.040   8.185
31258SOL    HW293733   9.484   3.043   8.034
31259SOL     OW93734   9.996   3.191   9.151
31259SOL    HW193735   9.911   3.148   9.154
31259SOL    HW293736   9.977   3.279   9.119
31260SOL     OW93737   9.753   2.286   8.001
31260SOL    HW193738   9.757   2.228   7.925
31260SOL    HW293739   9.684   2.250   8.056
31261SOL     OW93740   9.653   2.433   8.739
31261SOL    HW193741   9.700   2.374   8.797
31261SOL    HW293742   9.667   2.397   8.651
31262SOL     OW93743   9.341   2.910   7.754
31262SOL    HW193744   9.433   2.899   7.727
31262SOL    HW293745   9.312   2.822   7.777
31263SOL     OW93746   9.513   2.461   9.446
31263SOL    HW193747   9.426   2.455   9.484
31263SOL    HW293748   9.499   2.453   9.352
31264SOL     OW93749   9.517   3.596   9.765
31264SOL    HW193750   9.532   3.665   9.829
31264SOL    HW293751   9.603   3.580   9.726
31265SOL     OW93752   9.564   3.322   9.834
31265SOL    HW193753   9.527   3.409   9.850
31265SOL    HW293754   9.500   3.261   9.871
31266SOL     OW93755   9.369   2.542   9.880
31266SOL    HW193756   9.282   2.506   9.858
31266SOL    HW293757   9.350   2.617   9.937
31267SOL     OW93758   9.355   3.451   9.435
31267SOL    HW193759   9.338   3.358   9.449
31267SOL    HW293760   9.317   3.494   9.512
31268SOL     OW93761   0.101   1.890   9.867
31268SOL    HW193762   0.142   1.970   9.835
31268SOL    HW293763   0.007   1.904   9.854
31269SOL     OW93764   9.859   2.583   9.570
31269SOL    HW193765   9.876   2.673   9.542
31269SOL    HW293766   9.791   2.590   9.637
31270SOL     OW93767   9.357   2.743   0.072
31270SOL    HW193768   9.425   2.692   0.115
31270SOL    HW293769   9.336   2.813   0.134
31271SOL     OW93770   0.170   2.231   9.524
31271SOL    HW193771   0.219   2.303   9.483
31271SOL    HW293772   0.129   2.186   9.450
31272SOL     OW93773   9.618   3.720   0.194
31272SOL    HW193774   9.634   3.635   0.235
31272SOL    HW293775   9.705   3.754   0.174
31273SOL     OW93776   9.618   2.811   9.557
31273SOL    HW193777   9.641   2.813   9.464
31273SOL    HW293778   9.559   2.737   9.566
31274SOL     OW93779   9.771   3.604   9.646
31274SOL    HW193780   9.816   3.665   9.703
31274SOL    HW293781   9.839   3.567   9.590
31275SOL     OW93782   9.670   2.562   9.782
31275SOL    HW193783   9.681   2.469   9.802
31275SOL    HW293784   9.575   2.575   9.787
31276SOL     OW93785   9.853   1.983   9.416
31276SOL    HW193786   9.934   1.958   9.459
31276SOL    HW293787   9.861   1.951   9.326
31277SOL     OW93788   9.827   1.955   9.829
31277SOL    HW193789   9.738   1.950   9.863
31277SOL    HW293790   9.825   2.026   9.765
31278SOL     OW93791   9.598   1.908   9.494
31278SOL    HW193792   9.672   1.954   9.455
31278SOL    HW293793   9.638   1.842   9.550
31279SOL     OW93794   0.239   2.097   9.748
31279SOL    HW193795   0.211   2.158   9.680
31279SOL    HW293796   0.334   2.106   9.750
31280SOL     OW93797   9.716   2.978   0.075
31280SOL    HW193798   9.680   3.058   0.113
31280SOL    HW293799   9.702   2.987   9.981
31281SOL     OW93800   9.805   2.148   9.634
31281SOL    HW193801   9.827   2.083   9.567
31281SOL    HW293802   9.786   2.228   9.586
31282SOL     OW93803   9.644   2.977   9.795
31282SOL    HW193804   9.630   3.055   9.741
31282SOL    HW293805   9.653   2.906   9.732
31283SOL     OW93806   9.571   1.941   9.937
31283SOL    HW193807   9.508   2.012   9.950
31283SOL    HW293808   9.581   1.901   0.024
31284SOL     OW93809   9.314   3.179   9.483
31284SOL    HW193810   9.225   3.200   9.455
31284SOL    HW293811   9.308   3.091   9.519
31285SOL     OW93812   0.079   2.449   9.662
31285SOL    HW193813   0.092   2.369   9.611
31285SOL    HW293814   0.007   2.493   9.619
31286SOL     OW93815   9.756   2.351   9.459
31286SOL    HW193816   9.810   2.426   9.484
31286SOL    HW293817   9.666   2.385   9.458
31287SOL     OW93818   9.939   3.350   9.749
31287SOL    HW193819   9.930   3.256   9.767
31287SOL    HW293820   9.856   3.388   9.777
31288SOL     OW93821   9.569   3.184   9.604
31288SOL    HW193822   9.476   3.188   9.581
31288SOL    HW293823   9.578   3.243   9.679
31289SOL     OW93824   9.369   2.177   9.330
31289SOL    HW193825   9.297   2.160   9.270
31289SOL    HW293826   9.401   2.263   9.306
31290SOL     OW93827   9.354   2.015   9.571
31290SOL    HW193828   9.343   2.079   9.501
31290SOL    HW293829   9.444   1.983   9.559
31291SOL     OW93830   9.889   2.608   9.953
31291SOL    HW193831   9.902   2.699   9.981
31291SOL    HW293832   9.810   2.612   9.899
31292SOL     OW93833   9.399   3.113   9.906
31292SOL    HW193834   9.374   3.119   9.998
31292SOL    HW293835   9.452   3.034   9.900
31293SOL     OW93836   9.698   2.300   9.852
31293SOL    HW193837   9.738   2.240   9.788
31293SOL    HW293838   9.750   2.288   9.932
31294SOL     OW93839   9.360   2.937   9.606
31294SOL    HW193840   9.456   2.944   9.599
31294SOL    HW293841   9.343   2.843   9.605
31295SOL     OW93842   9.510   4.328   0.115
31295SOL    HW193843   9.429   4.312   0.164
31295SOL    HW293844   9.480   4.343   0.025
31296SOL     OW93845   9.520   4.021   0.990
31296SOL    HW193846   9.555   3.982   1.070
31296SOL    HW293847   9.434   3.979   0.980
31297SOL     OW93848   9.288   4.125   0.646
31297SOL    HW193849   9.206   4.144   0.691
31297SOL    HW293850   9.269   4.048   0.592
31298SOL     OW93851   9.824   4.921   1.109
31298SOL    HW193852   9.758   4.987   1.090
31298SOL    HW293853   9.876   4.959   1.180
31299SOL     OW93854   0.089   4.570   1.919
31299SOL    HW193855   0.176   4.593   1.951
31299SOL    HW293856   0.105   4.524   1.837
31300SOL     OW93857   9.655   5.142   1.066
31300SOL    HW193858   9.576   5.108   1.024
31300SOL    HW293859   9.694   5.200   1.001
31301SOL     OW93860   9.744   4.133   1.491
31301SOL    HW193861   9.820   4.075   1.488
31301SOL    HW293862   9.670   4.074   1.502
31302SOL     OW93863   9.537   5.433   0.471
31302SOL    HW193864   9.548   5.510   0.527
31302SOL    HW293865   9.625   5.415   0.437
31303SOL     OW93866   9.533   5.155   0.489
31303SOL    HW193867   9.522   5.250   0.501
31303SOL    HW293868   9.494   5.117   0.567
31304SOL     OW93869   9.571   4.810   0.874
31304SOL    HW193870   9.576   4.722   0.913
31304SOL    HW293871   9.526   4.862   0.940
31305SOL     OW93872   9.420   4.373   0.570
31305SOL    HW193873   9.381   4.290   0.596
31305SOL    HW293874   9.410   4.429   0.648
31306SOL     OW93875   9.370   5.302   0.084
31306SOL    HW193876   9.350   5.213   0.113
31306SOL    HW293877   9.346   5.357   0.158
31307SOL     OW93878   9.428   4.471   1.580
31307SOL    HW193879   9.514   4.514   1.586
31307SOL    HW293880   9.366   4.543   1.572
31308SOL     OW93881   9.900   5.126   0.746
31308SOL    HW193882   9.859   5.039   0.746
31308SOL    HW293883   9.907   5.149   0.654
31309SOL     OW93884   0.112   3.739   0.544
31309SOL    HW193885   0.139   3.823   0.505
31309SOL    HW293886   0.017   3.740   0.539
31310SOL     OW93887   9.491   4.679   1.292
31310SOL    HW193888   9.578   4.646   1.271
31310SOL    HW293889   9.434   4.644   1.224
31311SOL     OW93890   9.638   3.994   1.814
31311SOL    HW193891   9.678   4.055   1.876
31311SOL    HW293892   9.546   3.990   1.840
31312SOL     OW93893   9.873   4.441   0.283
31312SOL    HW193894   9.899   4.534   0.279
31312SOL    HW293895   9.812   4.437   0.356
31313SOL     OW93896   9.390   4.557   0.776
31313SOL    HW193897   9.473   4.543   0.822
31313SOL    HW293898   9.349   4.629   0.822
31314SOL     OW93899   9.412   5.609   1.590
31314SOL    HW193900   9.424   5.584   1.682
31314SOL    HW293901   9.326   5.574   1.567
31315SOL     OW93902   0.239   4.026   0.179
31315SOL    HW193903   0.309   4.089   0.164
31315SOL    HW293904   0.165   4.061   0.129
31316SOL     OW93905   9.823   3.924   0.904
31316SOL    HW193906   9.847   3.923   0.997
31316SOL    HW293907   9.832   4.016   0.879
31317SOL     OW93908   9.666   5.555   0.881
31317SOL    HW193909   9.724   5.479   0.890
31317SOL    HW293910   9.724   5.631   0.892
31318SOL     OW93911   9.610   4.673   0.263
31318SOL    HW193912   9.655   4.722   0.195
31318SOL    HW293913   9.642   4.583   0.253
31319SOL     OW93914   9.756   4.921   1.723
31319SOL    HW193915   9.734   4.949   1.634
31319SOL    HW293916   9.691   4.963   1.778
31320SOL     OW93917   9.509   3.986   1.493
31320SOL    HW193918   9.431   4.041   1.502
31320SOL    HW293919   9.483   3.901   1.530
31321SOL     OW93920   9.793   5.410   0.368
31321SOL    HW193921   9.826   5.491   0.406
31321SOL    HW293922   9.856   5.388   0.300
31322SOL     OW93923   9.562   5.515   1.222
31322SOL    HW193924   9.611   5.445   1.264
31322SOL    HW293925   9.559   5.491   1.130
31323SOL     OW93926   9.690   4.409   0.481
31323SOL    HW193927   9.714   4.318   0.503
31323SOL    HW293928   9.597   4.414   0.502
31324SOL     OW93929   9.857   3.819   0.116
31324SOL    HW193930   9.944   3.801   0.150
31324SOL    HW293931   9.869   3.824   0.021
31325SOL     OW93932   0.157   5.166   0.842
31325SOL    HW193933   0.202   5.152   0.759
31325SOL    HW293934   0.066   5.142   0.824
31326SOL     OW93935   9.842   3.791   0.487
31326SOL    HW193936   9.765   3.791   0.543
31326SOL    HW293937   9.832   3.868   0.431
31327SOL     OW93938   0.204   3.976   0.447
31327SOL    HW193939   0.210   4.007   0.357
31327SOL    HW293940   0.295   3.966   0.475
31328SOL     OW93941   9.775   4.889   0.715
31328SOL    HW193942   9.710   4.858   0.779
31328SOL    HW293943   9.736   4.870   0.630
31329SOL     OW93944   9.401   4.278   1.390
31329SOL    HW193945   9.493   4.280   1.362
31329SOL    HW293946   9.394   4.347   1.456
31330SOL     OW93947   9.870   3.931   1.175
31330SOL    HW193948   9.912   3.929   1.261
31330SOL    HW293949   9.776   3.930   1.194
31331SOL     OW93950   9.788   4.001   0.308
31331SOL    HW193951   9.810   3.935   0.243
31331SOL    HW293952   9.782   4.083   0.259
31332SOL     OW93953   9.730   4.551   1.241
31332SOL    HW193954   9.794   4.565   1.310
31332SOL    HW293955   9.700   4.461   1.254
31333SOL     OW93956   9.390   5.291   1.361
31333SOL    HW193957   9.360   5.363   1.305
31333SOL    HW293958   9.486   5.294   1.353
31334SOL     OW93959   9.625   4.846   0.481
31334SOL    HW193960   9.629   4.919   0.419
31334SOL    HW293961   9.628   4.767   0.427
31335SOL     OW93962   9.864   4.208   0.887
31335SOL    HW193963   9.859   4.282   0.826
31335SOL    HW293964   9.929   4.236   0.952
31336SOL     OW93965   9.663   5.262   1.312
31336SOL    HW193966   9.667   5.214   1.229
31336SOL    HW293967   9.754   5.272   1.339
31337SOL     OW93968   9.719   4.500   1.608
31337SOL    HW193969   9.785   4.539   1.551
31337SOL    HW293970   9.734   4.406   1.602
31338SOL     OW93971   9.803   3.810   1.694
31338SOL    HW193972   9.755   3.738   1.652
31338SOL    HW293973   9.734   3.866   1.729
31339SOL     OW93974   9.866   4.655   1.019
31339SOL    HW193975   9.849   4.748   1.035
31339SOL    HW293976   9.826   4.610   1.093
31340SOL     OW93977   9.603   3.922   1.238
31340SOL    HW193978   9.567   3.951   1.322
31340SOL    HW293979   9.585   3.827   1.236
31341SOL     OW93980   9.355   5.035   1.267
31341SOL    HW193981   9.383   4.978   1.338
31341SOL    HW293982   9.361   5.123   1.303
31342SOL     OW93983   9.606   3.786   0.630
31342SOL    HW193984   9.580   3.876   0.648
31342SOL    HW293985   9.623   3.748   0.716
31343SOL     OW93986   9.669   4.676   1.825
31343SOL    HW193987   9.713   4.754   1.792
31343SOL    HW293988   9.690   4.607   1.762
31344SOL     OW93989   9.613   4.536   0.935
31344SOL    HW193990   9.705   4.559   0.928
31344SOL    HW293991   9.613   4.445   0.966
31345SOL     OW93992   9.628   4.263   1.010
31345SOL    HW193993   9.584   4.179   0.999
31345SOL    HW293994   9.713   4.252   0.967
31346SOL     OW93995   9.330   5.013   0.170
31346SOL    HW193996   9.240   5.042   0.155
31346SOL    HW293997   9.321   4.936   0.227
31347SOL     OW93998   9.406   5.497   0.951
31347SOL    HW193999   9.375   5.423   0.899
31347SOL    HW294000   9.493   5.515   0.916
31348SOL     OW94001   9.819   5.327   0.915
31348SOL    HW194002   9.903   5.365   0.940
31348SOL    HW294003   9.842   5.259   0.852
31349SOL     OW94004   9.347   4.296   1.117
31349SOL    HW194005   9.428   4.292   1.067
31349SOL    HW294006   9.374   4.290   1.209
31350SOL     OW94007   9.486   4.261   1.751
31350SOL    HW194008   9.546   4.209   1.697
31350SOL    HW294009   9.456   4.331   1.694
31351SOL     OW94010   0.107   4.301   0.319
31351SOL    HW194011   0.127   4.316   0.411
31351SOL    HW294012   0.019   4.337   0.307
31352SOL     OW94013   9.536   5.269   1.714
31352SOL    HW194014   9.516   5.337   1.779
31352SOL    HW294015   9.559   5.192   1.766
31353SOL     OW94016   9.777   4.223   0.137
31353SOL    HW194017   9.821   4.300   0.172
31353SOL    HW294018   9.686   4.251   0.127
31354SOL     OW94019   9.432   4.868   1.477
31354SOL    HW194020   9.435   4.827   1.563
31354SOL    HW294021   9.454   4.798   1.416
31355SOL     OW94022   9.412   4.988   1.007
31355SOL    HW194023   9.386   5.003   1.098
31355SOL    HW294024   9.343   4.932   0.972
31356SOL     OW94025   9.988   5.332   1.670
31356SOL    HW194026   9.968   5.401   1.733
31356SOL    HW294027   0.083   5.319   1.677
31357SOL     OW94028   9.448   5.517   1.842
31357SOL    HW194029   9.402   5.446   1.887
31357SOL    HW294030   9.499   5.561   1.910
31358SOL     OW94031   9.547   4.042   0.708
31358SOL    HW194032   9.460   4.077   0.691
31358SOL    HW294033   9.553   4.038   0.804
31359SOL     OW94034   9.664   5.024   1.491
31359SOL    HW194035   9.653   5.106   1.443
31359SOL    HW294036   9.582   4.977   1.478
31360SOL     OW94037   9.930   5.180   0.479
31360SOL    HW194038   9.938   5.129   0.399
31360SOL    HW294039   9.877   5.256   0.453
31361SOL     OW94040   9.594   5.029   0.258
31361SOL    HW194041   9.508   5.034   0.217
31361SOL    HW294042   9.589   5.086   0.334
31362SOL     OW94043   9.418   4.754   1.724
31362SOL    HW194044   9.342   4.736   1.778
31362SOL    HW294045   9.492   4.723   1.775
31363SOL     OW94046   9.940   3.926   1.490
31363SOL    HW194047   0.010   3.861   1.487
31363SOL    HW294048   9.882   3.897   1.561
31364SOL     OW94049   9.393   4.003   0.013
31364SOL    HW194050   9.301   4.018   9.988
31364SOL    HW294051   9.438   4.082   9.985
31365SOL     OW94052   9.388   3.856   0.275
31365SOL    HW194053   9.380   3.919   0.203
31365SOL    HW294054   9.475   3.818   0.264
31366SOL     OW94055   9.917   4.593   1.435
31366SOL    HW194056   9.940   4.685   1.428
31366SOL    HW294057   9.996   4.546   1.408
31367SOL     OW94058   9.658   5.479   1.568
31367SOL    HW194059   9.573   5.521   1.553
31367SOL    HW294060   9.636   5.393   1.603
31368SOL     OW94061   9.838   4.424   0.726
31368SOL    HW194062   9.911   4.485   0.734
31368SOL    HW294063   9.796   4.447   0.643
31369SOL     OW94064   9.565   5.042   1.874
31369SOL    HW194065   9.475   5.009   1.872
31369SOL    HW294066   9.586   5.049   1.967
31370SOL     OW94067   9.434   4.943   0.662
31370SOL    HW194068   9.464   4.904   0.744
31370SOL    HW294069   9.492   4.906   0.595
31371SOL     OW94070   9.984   5.068   1.763
31371SOL    HW194071   9.909   5.013   1.739
31371SOL    HW294072   9.969   5.150   1.716
31372SOL     OW94073   9.746   4.149   0.542
31372SOL    HW194074   9.751   4.088   0.468
31372SOL    HW294075   9.680   4.110   0.600
31373SOL     OW94076   9.653   4.294   1.291
31373SOL    HW194077   9.701   4.236   1.350
31373SOL    HW294078   9.668   4.259   1.204
31374SOL     OW94079   9.345   4.767   0.305
31374SOL    HW194080   9.441   4.765   0.305
31374SOL    HW294081   9.320   4.679   0.334
31375SOL     OW94082   9.512   4.358   2.008
31375SOL    HW194083   9.427   4.340   2.047
31375SOL    HW294084   9.502   4.338   1.915
31376SOL     OW94085   9.520   4.021   2.853
31376SOL    HW194086   9.555   3.983   2.933
31376SOL    HW294087   9.434   3.980   2.842
31377SOL     OW94088   9.289   4.125   2.507
31377SOL    HW194089   9.207   4.147   2.553
31377SOL    HW294090   9.266   4.050   2.452
31378SOL     OW94091   9.826   4.920   2.969
31378SOL    HW194092   9.759   4.985   2.951
31378SOL    HW294093   9.879   4.959   3.040
31379SOL     OW94094   0.090   4.572   3.783
31379SOL    HW194095   0.174   4.595   3.823
31379SOL    HW294096   0.113   4.527   3.702
31380SOL     OW94097   9.656   5.142   2.929
31380SOL    HW194098   9.578   5.106   2.887
31380SOL    HW294099   9.695   5.199   2.863
31381SOL     OW94100   9.745   4.132   3.352
31381SOL    HW194101   9.821   4.074   3.350
31381SOL    HW294102   9.670   4.074   3.364
31382SOL     OW94103   9.529   5.448   2.328
31382SOL    HW194104   9.547   5.521   2.388
31382SOL    HW294105   9.613   5.430   2.286
31383SOL     OW94106   9.538   5.173   2.381
31383SOL    HW194107   9.517   5.266   2.392
31383SOL    HW294108   9.495   5.130   2.455
31384SOL     OW94109   9.579   4.814   2.727
31384SOL    HW194110   9.581   4.725   2.764
31384SOL    HW294111   9.533   4.866   2.793
31385SOL     OW94112   9.422   4.375   2.432
31385SOL    HW194113   9.382   4.292   2.455
31385SOL    HW294114   9.412   4.429   2.510
31386SOL     OW94115   9.361   5.300   1.977
31386SOL    HW194116   9.342   5.208   1.994
31386SOL    HW294117   9.331   5.347   2.055
31387SOL     OW94118   9.427   4.471   3.442
31387SOL    HW194119   9.512   4.515   3.448
31387SOL    HW294120   9.364   4.542   3.433
31388SOL     OW94121   9.891   5.140   2.596
31388SOL    HW194122   9.853   5.052   2.592
31388SOL    HW294123   9.899   5.165   2.504
31389SOL     OW94124   0.104   3.723   2.434
31389SOL    HW194125   0.135   3.808   2.402
31389SOL    HW294126   0.009   3.729   2.430
31390SOL     OW94127   9.493   4.679   3.155
31390SOL    HW194128   9.579   4.645   3.133
31390SOL    HW294129   9.436   4.646   3.086
31391SOL     OW94130   9.639   3.994   3.676
31391SOL    HW194131   9.678   4.056   3.737
31391SOL    HW294132   9.546   3.990   3.702
31392SOL     OW94133   9.871   4.434   2.129
31392SOL    HW194134   9.874   4.520   2.087
31392SOL    HW294135   9.808   4.444   2.200
31393SOL     OW94136   9.390   4.554   2.639
31393SOL    HW194137   9.472   4.543   2.687
31393SOL    HW294138   9.346   4.626   2.684
31394SOL     OW94139   9.412   5.609   3.452
31394SOL    HW194140   9.424   5.584   3.543
31394SOL    HW294141   9.325   5.576   3.429
31395SOL     OW94142   0.240   4.053   2.073
31395SOL    HW194143   0.245   4.147   2.087
31395SOL    HW294144   0.172   4.042   2.005
31396SOL     OW94145   9.825   3.925   2.766
31396SOL    HW194146   9.848   3.924   2.859
31396SOL    HW294147   9.832   4.016   2.740
31397SOL     OW94148   9.665   5.557   2.746
31397SOL    HW194149   9.723   5.481   2.756
31397SOL    HW294150   9.724   5.632   2.757
31398SOL     OW94151   9.595   4.656   2.095
31398SOL    HW194152   9.625   4.671   2.005
31398SOL    HW294153   9.572   4.563   2.097
31399SOL     OW94154   9.756   4.921   3.585
31399SOL    HW194155   9.734   4.950   3.496
31399SOL    HW294156   9.690   4.963   3.640
31400SOL     OW94157   9.509   3.986   3.355
31400SOL    HW194158   9.431   4.041   3.362
31400SOL    HW294159   9.483   3.902   3.392
31401SOL     OW94160   9.785   5.445   2.198
31401SOL    HW194161   9.820   5.514   2.254
31401SOL    HW294162   9.857   5.425   2.138
31402SOL     OW94163   9.562   5.516   3.084
31402SOL    HW194164   9.611   5.444   3.126
31402SOL    HW294165   9.558   5.492   2.992
31403SOL     OW94166   9.693   4.409   2.344
31403SOL    HW194167   9.718   4.319   2.365
31403SOL    HW294168   9.599   4.413   2.362
31404SOL     OW94169   9.848   3.836   1.970
31404SOL    HW194170   9.930   3.811   2.012
31404SOL    HW294171   9.860   3.812   1.878
31405SOL     OW94172   0.141   5.158   2.714
31405SOL    HW194173   0.181   5.086   2.664
31405SOL    HW294174   0.050   5.159   2.684
31406SOL     OW94175   9.843   3.797   2.361
31406SOL    HW194176   9.765   3.796   2.416
31406SOL    HW294177   9.832   3.873   2.305
31407SOL     OW94178   9.600   3.752   2.051
31407SOL    HW194179   9.675   3.797   2.012
31407SOL    HW294180   9.638   3.683   2.105
31408SOL     OW94181   0.191   3.953   2.317
31408SOL    HW194182   0.212   3.995   2.234
31408SOL    HW294183   0.272   3.958   2.368
31409SOL     OW94184   9.781   4.891   2.560
31409SOL    HW194185   9.718   4.861   2.625
31409SOL    HW294186   9.739   4.871   2.476
31410SOL     OW94187   9.401   4.278   3.252
31410SOL    HW194188   9.493   4.281   3.224
31410SOL    HW294189   9.394   4.347   3.318
31411SOL     OW94190   9.870   3.931   3.037
31411SOL    HW194191   9.913   3.929   3.122
31411SOL    HW294192   9.777   3.930   3.056
31412SOL     OW94193   9.794   4.002   2.181
31412SOL    HW194194   9.814   3.938   2.113
31412SOL    HW294195   9.775   4.083   2.133
31413SOL     OW94196   9.733   4.550   3.102
31413SOL    HW194197   9.796   4.565   3.172
31413SOL    HW294198   9.701   4.461   3.116
31414SOL     OW94199   9.390   5.291   3.223
31414SOL    HW194200   9.358   5.362   3.167
31414SOL    HW294201   9.485   5.294   3.214
31415SOL     OW94202   9.634   4.839   2.324
31415SOL    HW194203   9.625   4.913   2.264
31415SOL    HW294204   9.631   4.762   2.267
31416SOL     OW94205   9.865   4.211   2.750
31416SOL    HW194206   9.860   4.284   2.689
31416SOL    HW294207   9.930   4.238   2.815
31417SOL     OW94208   9.662   5.262   3.174
31417SOL    HW194209   9.667   5.214   3.092
31417SOL    HW294210   9.753   5.273   3.201
31418SOL     OW94211   9.718   4.501   3.471
31418SOL    HW194212   9.784   4.540   3.414
31418SOL    HW294213   9.733   4.406   3.465
31419SOL     OW94214   9.803   3.810   3.556
31419SOL    HW194215   9.755   3.738   3.514
31419SOL    HW294216   9.734   3.866   3.592
31420SOL     OW94217   9.867   4.655   2.880
31420SOL    HW194218   9.849   4.748   2.897
31420SOL    HW294219   9.828   4.609   2.955
31421SOL     OW94220   9.603   3.922   3.100
31421SOL    HW194221   9.568   3.951   3.184
31421SOL    HW294222   9.586   3.828   3.098
31422SOL     OW94223   9.358   5.034   3.127
31422SOL    HW194224   9.384   4.977   3.199
31422SOL    HW294225   9.363   5.123   3.164
31423SOL     OW94226   9.606   3.788   2.496
31423SOL    HW194227   9.579   3.878   2.514
31423SOL    HW294228   9.622   3.750   2.583
31424SOL     OW94229   9.669   4.676   3.688
31424SOL    HW194230   9.713   4.754   3.654
31424SOL    HW294231   9.690   4.608   3.624
31425SOL     OW94232   9.614   4.538   2.796
31425SOL    HW194233   9.706   4.562   2.792
31425SOL    HW294234   9.613   4.448   2.827
31426SOL     OW94235   9.627   4.264   2.872
31426SOL    HW194236   9.584   4.180   2.861
31426SOL    HW294237   9.712   4.253   2.828
31427SOL     OW94238   9.313   5.026   2.042
31427SOL    HW194239   9.225   5.051   2.015
31427SOL    HW294240   9.304   4.937   2.076
31428SOL     OW94241   9.405   5.496   2.813
31428SOL    HW194242   9.374   5.422   2.761
31428SOL    HW294243   9.492   5.515   2.779
31429SOL     OW94244   9.818   5.330   2.779
31429SOL    HW194245   9.904   5.366   2.804
31429SOL    HW294246   9.838   5.266   2.710
31430SOL     OW94247   9.346   4.295   2.980
31430SOL    HW194248   9.427   4.292   2.930
31430SOL    HW294249   9.373   4.289   3.071
31431SOL     OW94250   9.486   4.261   3.613
31431SOL    HW194251   9.544   4.209   3.558
31431SOL    HW294252   9.455   4.332   3.556
31432SOL     OW94253   0.119   4.323   2.158
31432SOL    HW194254   0.135   4.341   2.251
31432SOL    HW294255   0.032   4.358   2.141
31433SOL     OW94256   9.537   5.269   3.576
31433SOL    HW194257   9.515   5.337   3.640
31433SOL    HW294258   9.559   5.192   3.628
31434SOL     OW94259   9.746   4.214   2.014
31434SOL    HW194260   9.808   4.281   2.042
31434SOL    HW294261   9.661   4.258   2.015
31435SOL     OW94262   9.433   4.868   3.339
31435SOL    HW194263   9.435   4.827   3.425
31435SOL    HW294264   9.455   4.798   3.278
31436SOL     OW94265   9.417   4.982   2.868
31436SOL    HW194266   9.391   5.000   2.959
31436SOL    HW294267   9.347   4.929   2.833
31437SOL     OW94268   9.988   5.332   3.531
31437SOL    HW194269   9.967   5.400   3.595
31437SOL    HW294270   0.083   5.320   3.540
31438SOL     OW94271   9.449   5.516   3.704
31438SOL    HW194272   9.403   5.446   3.749
31438SOL    HW294273   9.498   5.561   3.772
31439SOL     OW94274   9.546   4.043   2.572
31439SOL    HW194275   9.459   4.077   2.553
31439SOL    HW294276   9.550   4.040   2.668
31440SOL     OW94277   9.664   5.024   3.353
31440SOL    HW194278   9.652   5.106   3.305
31440SOL    HW294279   9.582   4.976   3.339
31441SOL     OW94280   9.900   5.196   2.326
31441SOL    HW194281   9.913   5.140   2.250
31441SOL    HW294282   9.839   5.264   2.295
31442SOL     OW94283   9.567   5.047   2.149
31442SOL    HW194284   9.475   5.044   2.124
31442SOL    HW294285   9.569   5.100   2.228
31443SOL     OW94286   9.418   4.755   3.586
31443SOL    HW194287   9.341   4.737   3.641
31443SOL    HW294288   9.492   4.724   3.638
31444SOL     OW94289   9.941   3.926   3.353
31444SOL    HW194290   0.011   3.861   3.350
31444SOL    HW294291   9.883   3.896   3.423
31445SOL     OW94292   9.373   4.041   1.886
31445SOL    HW194293   9.299   4.024   1.827
31445SOL    HW294294   9.403   4.129   1.862
31446SOL     OW94295   9.361   3.871   2.129
31446SOL    HW194296   9.347   3.938   2.062
31446SOL    HW294297   9.450   3.839   2.113
31447SOL     OW94298   9.917   4.594   3.299
31447SOL    HW194299   9.938   4.687   3.292
31447SOL    HW294300   9.998   4.549   3.276
31448SOL     OW94301   9.658   5.479   3.430
31448SOL    HW194302   9.573   5.521   3.415
31448SOL    HW294303   9.636   5.393   3.465
31449SOL     OW94304   9.842   4.425   2.586
31449SOL    HW194305   9.912   4.489   2.589
31449SOL    HW294306   9.795   4.443   2.504
31450SOL     OW94307   9.565   5.041   3.736
31450SOL    HW194308   9.475   5.009   3.734
31450SOL    HW294309   9.586   5.049   3.829
31451SOL     OW94310   9.432   4.942   2.519
31451SOL    HW194311   9.467   4.902   2.599
31451SOL    HW294312   9.485   4.905   2.448
31452SOL     OW94313   9.984   5.068   3.623
31452SOL    HW194314   9.909   5.013   3.600
31452SOL    HW294315   9.970   5.150   3.576
31453SOL     OW94316   9.750   4.149   2.414
31453SOL    HW194317   9.755   4.090   2.338
31453SOL    HW294318   9.682   4.112   2.469
31454SOL     OW94319   9.653   4.295   3.153
31454SOL    HW194320   9.701   4.236   3.212
31454SOL    HW294321   9.668   4.259   3.066
31455SOL     OW94322   9.341   4.772   2.168
31455SOL    HW194323   9.432   4.761   2.141
31455SOL    HW294324   9.312   4.684   2.190
31456SOL     OW94325   9.513   4.358   3.870
31456SOL    HW194326   9.427   4.340   3.909
31456SOL    HW294327   9.502   4.338   3.777
31457SOL     OW94328   9.520   4.021   4.715
31457SOL    HW194329   9.555   3.983   4.795
31457SOL    HW294330   9.434   3.980   4.704
31458SOL     OW94331   9.288   4.125   4.369
31458SOL    HW194332   9.207   4.147   4.415
31458SOL    HW294333   9.265   4.050   4.314
31459SOL     OW94334   9.826   4.920   4.831
31459SOL    HW194335   9.759   4.985   4.813
31459SOL    HW294336   9.879   4.959   4.902
31460SOL     OW94337   0.090   4.570   5.645
31460SOL    HW194338   0.177   4.593   5.677
31460SOL    HW294339   0.105   4.526   5.561
31461SOL     OW94340   9.656   5.141   4.791
31461SOL    HW194341   9.578   5.105   4.749
31461SOL    HW294342   9.694   5.199   4.725
31462SOL     OW94343   9.745   4.133   5.214
31462SOL    HW194344   9.821   4.074   5.212
31462SOL    HW294345   9.670   4.074   5.226
31463SOL     OW94346   9.529   5.448   4.191
31463SOL    HW194347   9.547   5.521   4.250
31463SOL    HW294348   9.612   5.430   4.148
31464SOL     OW94349   9.539   5.173   4.243
31464SOL    HW194350   9.517   5.266   4.253
31464SOL    HW294351   9.496   5.130   4.317
31465SOL     OW94352   9.580   4.814   4.589
31465SOL    HW194353   9.581   4.725   4.626
31465SOL    HW294354   9.533   4.866   4.655
31466SOL     OW94355   9.422   4.375   4.294
31466SOL    HW194356   9.382   4.291   4.317
31466SOL    HW294357   9.412   4.429   4.372
31467SOL     OW94358   9.362   5.300   3.838
31467SOL    HW194359   9.342   5.208   3.856
31467SOL    HW294360   9.331   5.347   3.916
31468SOL     OW94361   9.427   4.471   5.304
31468SOL    HW194362   9.511   4.515   5.309
31468SOL    HW294363   9.363   4.542   5.294
31469SOL     OW94364   9.891   5.140   4.458
31469SOL    HW194365   9.853   5.052   4.455
31469SOL    HW294366   9.899   5.166   4.366
31470SOL     OW94367   0.104   3.723   4.296
31470SOL    HW194368   0.135   3.808   4.264
31470SOL    HW294369   0.009   3.729   4.291
31471SOL     OW94370   9.493   4.679   5.018
31471SOL    HW194371   9.579   4.645   4.995
31471SOL    HW294372   9.435   4.647   4.948
31472SOL     OW94373   9.639   3.994   5.539
31472SOL    HW194374   9.678   4.057   5.600
31472SOL    HW294375   9.547   3.990   5.564
31473SOL     OW94376   9.871   4.434   3.991
31473SOL    HW194377   9.872   4.520   3.949
31473SOL    HW294378   9.808   4.444   4.062
31474SOL     OW94379   9.390   4.553   4.501
31474SOL    HW194380   9.472   4.543   4.549
31474SOL    HW294381   9.345   4.625   4.545
31475SOL     OW94382   9.412   5.609   5.314
31475SOL    HW194383   9.424   5.584   5.405
31475SOL    HW294384   9.325   5.577   5.291
31476SOL     OW94385   0.240   4.052   3.934
31476SOL    HW194386   0.247   4.146   3.948
31476SOL    HW294387   0.172   4.042   3.867
31477SOL     OW94388   9.825   3.924   4.628
31477SOL    HW194389   9.848   3.924   4.721
31477SOL    HW294390   9.832   4.016   4.602
31478SOL     OW94391   9.666   5.557   4.608
31478SOL    HW194392   9.723   5.481   4.618
31478SOL    HW294393   9.724   5.632   4.618
31479SOL     OW94394   9.595   4.656   3.957
31479SOL    HW194395   9.625   4.671   3.868
31479SOL    HW294396   9.572   4.563   3.960
31480SOL     OW94397   9.756   4.921   5.446
31480SOL    HW194398   9.734   4.950   5.358
31480SOL    HW294399   9.691   4.963   5.502
31481SOL     OW94400   9.509   3.986   5.217
31481SOL    HW194401   9.430   4.041   5.223
31481SOL    HW294402   9.483   3.902   5.254
31482SOL     OW94403   9.785   5.445   4.061
31482SOL    HW194404   9.819   5.515   4.116
31482SOL    HW294405   9.856   5.426   4.000
31483SOL     OW94406   9.562   5.516   4.946
31483SOL    HW194407   9.611   5.444   4.986
31483SOL    HW294408   9.556   5.492   4.853
31484SOL     OW94409   9.693   4.408   4.206
31484SOL    HW194410   9.718   4.318   4.227
31484SOL    HW294411   9.599   4.412   4.224
31485SOL     OW94412   9.847   3.835   3.832
31485SOL    HW194413   9.930   3.811   3.874
31485SOL    HW294414   9.860   3.812   3.740
31486SOL     OW94415   0.141   5.158   4.576
31486SOL    HW194416   0.181   5.087   4.527
31486SOL    HW294417   0.050   5.159   4.546
31487SOL     OW94418   9.843   3.797   4.223
31487SOL    HW194419   9.765   3.796   4.278
31487SOL    HW294420   9.832   3.874   4.166
31488SOL     OW94421   9.599   3.752   3.913
31488SOL    HW194422   9.675   3.797   3.875
31488SOL    HW294423   9.637   3.683   3.968
31489SOL     OW94424   0.191   3.953   4.178
31489SOL    HW194425   0.212   3.995   4.095
31489SOL    HW294426   0.271   3.958   4.230
31490SOL     OW94427   9.781   4.891   4.422
31490SOL    HW194428   9.719   4.861   4.487
31490SOL    HW294429   9.740   4.871   4.338
31491SOL     OW94430   9.402   4.278   5.114
31491SOL    HW194431   9.493   4.281   5.086
31491SOL    HW294432   9.394   4.347   5.180
31492SOL     OW94433   9.871   3.931   4.898
31492SOL    HW194434   9.913   3.929   4.984
31492SOL    HW294435   9.777   3.930   4.918
31493SOL     OW94436   9.794   4.002   4.043
31493SOL    HW194437   9.814   3.938   3.974
31493SOL    HW294438   9.775   4.083   3.995
31494SOL     OW94439   9.732   4.550   4.964
31494SOL    HW194440   9.795   4.565   5.034
31494SOL    HW294441   9.701   4.461   4.978
31495SOL     OW94442   9.389   5.291   5.085
31495SOL    HW194443   9.357   5.362   5.029
31495SOL    HW294444   9.485   5.294   5.076
31496SOL     OW94445   9.635   4.839   4.185
31496SOL    HW194446   9.625   4.913   4.126
31496SOL    HW294447   9.632   4.762   4.129
31497SOL     OW94448   9.865   4.211   4.612
31497SOL    HW194449   9.860   4.284   4.551
31497SOL    HW294450   9.930   4.238   4.677
31498SOL     OW94451   9.662   5.263   5.035
31498SOL    HW194452   9.667   5.214   4.953
31498SOL    HW294453   9.753   5.273   5.063
31499SOL     OW94454   9.718   4.501   5.333
31499SOL    HW194455   9.784   4.540   5.276
31499SOL    HW294456   9.733   4.406   5.326
31500SOL     OW94457   9.803   3.810   5.419
31500SOL    HW194458   9.756   3.738   5.376
31500SOL    HW294459   9.734   3.866   5.454
31501SOL     OW94460   9.867   4.655   4.742
31501SOL    HW194461   9.849   4.748   4.759
31501SOL    HW294462   9.828   4.609   4.817
31502SOL     OW94463   9.603   3.922   4.962
31502SOL    HW194464   9.568   3.951   5.046
31502SOL    HW294465   9.586   3.828   4.960
31503SOL     OW94466   9.359   5.034   4.989
31503SOL    HW194467   9.385   4.977   5.061
31503SOL    HW294468   9.363   5.123   5.026
31504SOL     OW94469   9.606   3.788   4.358
31504SOL    HW194470   9.579   3.878   4.376
31504SOL    HW294471   9.622   3.750   4.445
31505SOL     OW94472   9.669   4.676   5.550
31505SOL    HW194473   9.713   4.754   5.516
31505SOL    HW294474   9.690   4.608   5.486
31506SOL     OW94475   9.614   4.538   4.658
31506SOL    HW194476   9.707   4.562   4.655
31506SOL    HW294477   9.613   4.448   4.690
31507SOL     OW94478   9.627   4.264   4.734
31507SOL    HW194479   9.584   4.180   4.723
31507SOL    HW294480   9.712   4.253   4.691
31508SOL     OW94481   9.313   5.026   3.904
31508SOL    HW194482   9.225   5.051   3.876
31508SOL    HW294483   9.304   4.937   3.938
31509SOL     OW94484   9.406   5.496   4.676
31509SOL    HW194485   9.374   5.422   4.624
31509SOL    HW294486   9.493   5.515   4.641
31510SOL     OW94487   9.820   5.331   4.641
31510SOL    HW194488   9.906   5.366   4.667
31510SOL    HW294489   9.840   5.267   4.573
31511SOL     OW94490   9.345   4.294   4.842
31511SOL    HW194491   9.427   4.292   4.792
31511SOL    HW294492   9.373   4.289   4.933
31512SOL     OW94493   9.486   4.261   5.475
31512SOL    HW194494   9.544   4.209   5.419
31512SOL    HW294495   9.455   4.332   5.418
31513SOL     OW94496   0.119   4.324   4.020
31513SOL    HW194497   0.134   4.341   4.113
31513SOL    HW294498   0.031   4.359   4.003
31514SOL     OW94499   9.537   5.269   5.438
31514SOL    HW194500   9.515   5.337   5.502
31514SOL    HW294501   9.559   5.192   5.490
31515SOL     OW94502   9.746   4.214   3.876
31515SOL    HW194503   9.809   4.281   3.904
31515SOL    HW294504   9.661   4.258   3.877
31516SOL     OW94505   9.433   4.868   5.201
31516SOL    HW194506   9.435   4.827   5.288
31516SOL    HW294507   9.455   4.798   5.141
31517SOL     OW94508   9.418   4.982   4.731
31517SOL    HW194509   9.391   4.999   4.821
31517SOL    HW294510   9.347   4.928   4.695
31518SOL     OW94511   9.988   5.332   5.393
31518SOL    HW194512   9.967   5.400   5.457
31518SOL    HW294513   0.083   5.320   5.403
31519SOL     OW94514   9.449   5.516   5.565
31519SOL    HW194515   9.403   5.446   5.611
31519SOL    HW294516   9.498   5.561   5.634
31520SOL     OW94517   9.546   4.043   4.434
31520SOL    HW194518   9.458   4.077   4.415
31520SOL    HW294519   9.550   4.040   4.529
31521SOL     OW94520   9.664   5.024   5.214
31521SOL    HW194521   9.652   5.106   5.167
31521SOL    HW294522   9.582   4.976   5.201
31522SOL     OW94523   9.900   5.197   4.188
31522SOL    HW194524   9.913   5.140   4.112
31522SOL    HW294525   9.839   5.264   4.158
31523SOL     OW94526   9.567   5.047   4.011
31523SOL    HW194527   9.474   5.044   3.986
31523SOL    HW294528   9.569   5.100   4.090
31524SOL     OW94529   9.418   4.756   5.449
31524SOL    HW194530   9.341   4.737   5.503
31524SOL    HW294531   9.492   4.724   5.500
31525SOL     OW94532   9.940   3.926   5.215
31525SOL    HW194533   0.010   3.861   5.212
31525SOL    HW294534   9.883   3.897   5.285
31526SOL     OW94535   9.373   4.041   3.748
31526SOL    HW194536   9.299   4.024   3.689
31526SOL    HW294537   9.403   4.129   3.724
31527SOL     OW94538   9.360   3.871   3.991
31527SOL    HW194539   9.346   3.938   3.924
31527SOL    HW294540   9.449   3.839   3.975
31528SOL     OW94541   9.917   4.594   5.160
31528SOL    HW194542   9.937   4.687   5.154
31528SOL    HW294543   9.998   4.549   5.136
31529SOL     OW94544   9.658   5.479   5.293
31529SOL    HW194545   9.574   5.521   5.277
31529SOL    HW294546   9.636   5.393   5.327
31530SOL     OW94547   9.842   4.424   4.448
31530SOL    HW194548   9.912   4.489   4.450
31530SOL    HW294549   9.795   4.442   4.366
31531SOL     OW94550   9.565   5.041   5.597
31531SOL    HW194551   9.475   5.008   5.595
31531SOL    HW294552   9.585   5.049   5.691
31532SOL     OW94553   9.432   4.943   4.382
31532SOL    HW194554   9.467   4.902   4.461
31532SOL    HW294555   9.484   4.905   4.311
31533SOL     OW94556   9.984   5.068   5.485
31533SOL    HW194557   9.909   5.013   5.462
31533SOL    HW294558   9.970   5.150   5.438
31534SOL     OW94559   9.751   4.149   4.276
31534SOL    HW194560   9.755   4.090   4.200
31534SOL    HW294561   9.682   4.111   4.331
31535SOL     OW94562   9.653   4.295   5.015
31535SOL    HW194563   9.701   4.236   5.074
31535SOL    HW294564   9.667   4.260   4.928
31536SOL     OW94565   9.342   4.773   4.030
31536SOL    HW194566   9.433   4.761   4.003
31536SOL    HW294567   9.312   4.685   4.053
31537SOL     OW94568   9.513   4.358   5.732
31537SOL    HW194569   9.427   4.340   5.771
31537SOL    HW294570   9.502   4.338   5.639
31538SOL     OW94571   9.520   4.021   6.577
31538SOL    HW194572   9.555   3.982   6.657
31538SOL    HW294573   9.434   3.980   6.566
31539SOL     OW94574   9.289   4.125   6.231
31539SOL    HW194575   9.207   4.147   6.277
31539SOL    HW294576   9.266   4.050   6.176
31540SOL     OW94577   9.826   4.920   6.694
31540SOL    HW194578   9.759   4.985   6.675
31540SOL    HW294579   9.879   4.959   6.764
31541SOL     OW94580   0.090   4.568   7.505
31541SOL    HW194581   0.180   4.590   7.527
31541SOL    HW294582   0.097   4.524   7.420
31542SOL     OW94583   9.656   5.141   6.653
31542SOL    HW194584   9.578   5.106   6.610
31542SOL    HW294585   9.694   5.199   6.588
31543SOL     OW94586   9.744   4.133   7.077
31543SOL    HW194587   9.820   4.075   7.074
31543SOL    HW294588   9.670   4.074   7.088
31544SOL     OW94589   9.529   5.448   6.053
31544SOL    HW194590   9.547   5.521   6.112
31544SOL    HW294591   9.613   5.430   6.010
31545SOL     OW94592   9.538   5.173   6.105
31545SOL    HW194593   9.517   5.266   6.115
31545SOL    HW294594   9.496   5.130   6.179
31546SOL     OW94595   9.579   4.814   6.451
31546SOL    HW194596   9.581   4.725   6.488
31546SOL    HW294597   9.532   4.866   6.516
31547SOL     OW94598   9.423   4.375   6.156
31547SOL    HW194599   9.382   4.291   6.179
31547SOL    HW294600   9.412   4.429   6.235
31548SOL     OW94601   9.362   5.300   5.701
31548SOL    HW194602   9.342   5.208   5.718
31548SOL    HW294603   9.331   5.347   5.778
31549SOL     OW94604   9.427   4.471   7.166
31549SOL    HW194605   9.511   4.516   7.171
31549SOL    HW294606   9.363   4.542   7.156
31550SOL     OW94607   9.891   5.139   6.319
31550SOL    HW194608   9.853   5.051   6.316
31550SOL    HW294609   9.900   5.165   6.228
31551SOL     OW94610   0.109   3.726   6.159
31551SOL    HW194611   0.136   3.810   6.123
31551SOL    HW294612   0.013   3.729   6.156
31552SOL     OW94613   9.492   4.679   6.880
31552SOL    HW194614   9.579   4.645   6.857
31552SOL    HW294615   9.435   4.647   6.810
31553SOL     OW94616   9.639   3.994   7.401
31553SOL    HW194617   9.678   4.056   7.462
31553SOL    HW294618   9.546   3.990   7.426
31554SOL     OW94619   9.871   4.434   5.853
31554SOL    HW194620   9.873   4.520   5.811
31554SOL    HW294621   9.808   4.444   5.924
31555SOL     OW94622   9.390   4.553   6.363
31555SOL    HW194623   9.472   4.543   6.411
31555SOL    HW294624   9.345   4.625   6.407
31556SOL     OW94625   9.412   5.609   7.176
31556SOL    HW194626   9.424   5.584   7.267
31556SOL    HW294627   9.326   5.576   7.152
31557SOL     OW94628   0.239   4.052   5.795
31557SOL    HW194629   0.247   4.147   5.808
31557SOL    HW294630   0.172   4.042   5.728
31558SOL     OW94631   9.825   3.925   6.489
31558SOL    HW194632   9.848   3.924   6.582
31558SOL    HW294633   9.832   4.017   6.464
31559SOL     OW94634   9.665   5.557   6.470
31559SOL    HW194635   9.722   5.481   6.480
31559SOL    HW294636   9.724   5.632   6.480
31560SOL     OW94637   9.595   4.656   5.819
31560SOL    HW194638   9.625   4.671   5.730
31560SOL    HW294639   9.572   4.563   5.822
31561SOL     OW94640   9.756   4.921   7.308
31561SOL    HW194641   9.734   4.950   7.220
31561SOL    HW294642   9.691   4.963   7.364
31562SOL     OW94643   9.509   3.986   7.079
31562SOL    HW194644   9.430   4.040   7.084
31562SOL    HW294645   9.483   3.902   7.116
31563SOL     OW94646   9.785   5.445   5.923
31563SOL    HW194647   9.820   5.515   5.979
31563SOL    HW294648   9.856   5.426   5.862
31564SOL     OW94649   9.563   5.516   6.808
31564SOL    HW194650   9.611   5.444   6.848
31564SOL    HW294651   9.556   5.492   6.715
31565SOL     OW94652   9.693   4.408   6.068
31565SOL    HW194653   9.718   4.318   6.089
31565SOL    HW294654   9.599   4.412   6.086
31566SOL     OW94655   9.848   3.834   5.694
31566SOL    HW194656   9.930   3.810   5.737
31566SOL    HW294657   9.860   3.812   5.602
31567SOL     OW94658   0.141   5.157   6.438
31567SOL    HW194659   0.181   5.086   6.388
31567SOL    HW294660   0.050   5.159   6.409
31568SOL     OW94661   9.845   3.797   6.086
31568SOL    HW194662   9.766   3.796   6.141
31568SOL    HW294663   9.833   3.873   6.029
31569SOL     OW94664   9.599   3.752   5.775
31569SOL    HW194665   9.674   3.797   5.736
31569SOL    HW294666   9.637   3.683   5.830
31570SOL     OW94667   0.191   3.955   6.040
31570SOL    HW194668   0.212   3.996   5.955
31570SOL    HW294669   0.270   3.970   6.093
31571SOL     OW94670   9.781   4.891   6.284
31571SOL    HW194671   9.718   4.861   6.349
31571SOL    HW294672   9.739   4.871   6.200
31572SOL     OW94673   9.402   4.277   6.976
31572SOL    HW194674   9.493   4.281   6.948
31572SOL    HW294675   9.394   4.347   7.042
31573SOL     OW94676   9.871   3.931   6.760
31573SOL    HW194677   9.913   3.929   6.846
31573SOL    HW294678   9.777   3.930   6.779
31574SOL     OW94679   9.794   4.002   5.905
31574SOL    HW194680   9.814   3.938   5.837
31574SOL    HW294681   9.776   4.083   5.857
31575SOL     OW94682   9.732   4.550   6.826
31575SOL    HW194683   9.795   4.565   6.896
31575SOL    HW294684   9.700   4.461   6.840
31576SOL     OW94685   9.389   5.291   6.947
31576SOL    HW194686   9.358   5.362   6.891
31576SOL    HW294687   9.485   5.294   6.938
31577SOL     OW94688   9.634   4.839   6.047
31577SOL    HW194689   9.625   4.913   5.987
31577SOL    HW294690   9.631   4.762   5.991
31578SOL     OW94691   9.865   4.211   6.475
31578SOL    HW194692   9.860   4.284   6.413
31578SOL    HW294693   9.930   4.239   6.540
31579SOL     OW94694   9.662   5.263   6.898
31579SOL    HW194695   9.667   5.214   6.815
31579SOL    HW294696   9.753   5.273   6.924
31580SOL     OW94697   9.719   4.501   7.195
31580SOL    HW194698   9.785   4.539   7.137
31580SOL    HW294699   9.733   4.406   7.188
31581SOL     OW94700   9.803   3.809   7.281
31581SOL    HW194701   9.756   3.738   7.239
31581SOL    HW294702   9.734   3.866   7.317
31582SOL     OW94703   9.866   4.655   6.604
31582SOL    HW194704   9.849   4.748   6.621
31582SOL    HW294705   9.827   4.609   6.679
31583SOL     OW94706   9.604   3.922   6.824
31583SOL    HW194707   9.568   3.951   6.908
31583SOL    HW294708   9.586   3.828   6.822
31584SOL     OW94709   9.358   5.034   6.851
31584SOL    HW194710   9.384   4.977   6.923
31584SOL    HW294711   9.363   5.123   6.888
31585SOL     OW94712   9.607   3.788   6.220
31585SOL    HW194713   9.580   3.878   6.237
31585SOL    HW294714   9.622   3.750   6.307
31586SOL     OW94715   9.669   4.676   7.412
31586SOL    HW194716   9.713   4.754   7.378
31586SOL    HW294717   9.690   4.607   7.348
31587SOL     OW94718   9.614   4.539   6.520
31587SOL    HW194719   9.707   4.562   6.516
31587SOL    HW294720   9.613   4.448   6.552
31588SOL     OW94721   9.627   4.264   6.596
31588SOL    HW194722   9.583   4.180   6.585
31588SOL    HW294723   9.712   4.253   6.553
31589SOL     OW94724   9.313   5.026   5.766
31589SOL    HW194725   9.225   5.051   5.739
31589SOL    HW294726   9.304   4.937   5.801
31590SOL     OW94727   9.406   5.496   6.538
31590SOL    HW194728   9.374   5.422   6.486
31590SOL    HW294729   9.493   5.515   6.503
31591SOL     OW94730   9.816   5.329   6.502
31591SOL    HW194731   9.902   5.365   6.527
31591SOL    HW294732   9.836   5.265   6.433
31592SOL     OW94733   9.345   4.294   6.704
31592SOL    HW194734   9.427   4.292   6.654
31592SOL    HW294735   9.373   4.289   6.795
31593SOL     OW94736   9.486   4.261   7.337
31593SOL    HW194737   9.544   4.209   7.281
31593SOL    HW294738   9.455   4.332   7.280
31594SOL     OW94739   0.119   4.324   5.883
31594SOL    HW194740   0.134   4.342   5.975
31594SOL    HW294741   0.032   4.359   5.865
31595SOL     OW94742   9.537   5.269   7.300
31595SOL    HW194743   9.515   5.337   7.365
31595SOL    HW294744   9.559   5.192   7.352
31596SOL     OW94745   9.746   4.214   5.738
31596SOL    HW194746   9.809   4.281   5.766
31596SOL    HW294747   9.661   4.258   5.739
31597SOL     OW94748   9.433   4.868   7.063
31597SOL    HW194749   9.435   4.827   7.150
31597SOL    HW294750   9.455   4.798   7.003
31598SOL     OW94751   9.417   4.982   6.593
31598SOL    HW194752   9.391   4.999   6.683
31598SOL    HW294753   9.346   4.928   6.557
31599SOL     OW94754   9.988   5.332   7.256
31599SOL    HW194755   9.967   5.401   7.318
31599SOL    HW294756   0.083   5.320   7.265
31600SOL     OW94757   9.448   5.516   7.427
31600SOL    HW194758   9.402   5.446   7.473
31600SOL    HW294759   9.498   5.561   7.496
31601SOL     OW94760   9.546   4.043   6.296
31601SOL    HW194761   9.459   4.077   6.277
31601SOL    HW294762   9.550   4.040   6.391
31602SOL     OW94763   9.664   5.024   7.077
31602SOL    HW194764   9.652   5.106   7.029
31602SOL    HW294765   9.582   4.976   7.063
31603SOL     OW94766   9.900   5.197   6.050
31603SOL    HW194767   9.913   5.140   5.974
31603SOL    HW294768   9.839   5.264   6.020
31604SOL     OW94769   9.567   5.047   5.872
31604SOL    HW194770   9.474   5.044   5.848
31604SOL    HW294771   9.569   5.100   5.952
31605SOL     OW94772   9.418   4.756   7.311
31605SOL    HW194773   9.342   4.737   7.365
31605SOL    HW294774   9.492   4.724   7.362
31606SOL     OW94775   9.940   3.926   7.077
31606SOL    HW194776   0.010   3.861   7.074
31606SOL    HW294777   9.882   3.897   7.148
31607SOL     OW94778   9.373   4.041   5.610
31607SOL    HW194779   9.299   4.024   5.551
31607SOL    HW294780   9.403   4.129   5.586
31608SOL     OW94781   9.360   3.871   5.853
31608SOL    HW194782   9.346   3.938   5.786
31608SOL    HW294783   9.449   3.840   5.837
31609SOL     OW94784   9.917   4.593   7.022
31609SOL    HW194785   9.938   4.686   7.016
31609SOL    HW294786   9.997   4.549   6.995
31610SOL     OW94787   9.659   5.479   7.155
31610SOL    HW194788   9.574   5.521   7.139
31610SOL    HW294789   9.636   5.393   7.189
31611SOL     OW94790   9.842   4.424   6.310
31611SOL    HW194791   9.912   4.489   6.312
31611SOL    HW294792   9.796   4.442   6.228
31612SOL     OW94793   9.565   5.041   7.460
31612SOL    HW194794   9.476   5.008   7.457
31612SOL    HW294795   9.585   5.049   7.553
31613SOL     OW94796   9.432   4.942   6.243
31613SOL    HW194797   9.467   4.902   6.323
31613SOL    HW294798   9.484   4.905   6.172
31614SOL     OW94799   9.984   5.068   7.348
31614SOL    HW194800   9.909   5.013   7.325
31614SOL    HW294801   9.970   5.150   7.301
31615SOL     OW94802   9.752   4.149   6.138
31615SOL    HW194803   9.756   4.090   6.062
31615SOL    HW294804   9.683   4.112   6.193
31616SOL     OW94805   9.653   4.295   6.878
31616SOL    HW194806   9.701   4.236   6.936
31616SOL    HW294807   9.667   4.260   6.790
31617SOL     OW94808   9.342   4.773   5.892
31617SOL    HW194809   9.433   4.761   5.865
31617SOL    HW294810   9.312   4.685   5.915
31618SOL     OW94811   9.512   4.358   7.594
31618SOL    HW194812   9.427   4.340   7.633
31618SOL    HW294813   9.502   4.338   7.501
31619SOL     OW94814   9.520   4.021   8.438
31619SOL    HW194815   9.555   3.982   8.519
31619SOL    HW294816   9.434   3.979   8.428
31620SOL     OW94817   9.289   4.125   8.093
31620SOL    HW194818   9.208   4.146   8.139
31620SOL    HW294819   9.266   4.050   8.038
31621SOL     OW94820   9.827   4.920   8.556
31621SOL    HW194821   9.759   4.985   8.538
31621SOL    HW294822   9.879   4.959   8.627
31622SOL     OW94823   0.129   4.531   9.360
31622SOL    HW194824   0.207   4.585   9.344
31622SOL    HW294825   0.062   4.570   9.304
31623SOL     OW94826   9.656   5.141   8.515
31623SOL    HW194827   9.578   5.105   8.472
31623SOL    HW294828   9.694   5.199   8.449
31624SOL     OW94829   9.743   4.132   8.937
31624SOL    HW194830   9.818   4.073   8.934
31624SOL    HW294831   9.667   4.074   8.949
31625SOL     OW94832   9.529   5.448   7.914
31625SOL    HW194833   9.547   5.521   7.973
31625SOL    HW294834   9.613   5.430   7.872
31626SOL     OW94835   9.539   5.173   7.967
31626SOL    HW194836   9.517   5.266   7.977
31626SOL    HW294837   9.496   5.131   8.041
31627SOL     OW94838   9.579   4.813   8.314
31627SOL    HW194839   9.581   4.725   8.351
31627SOL    HW294840   9.532   4.866   8.379
31628SOL     OW94841   9.423   4.374   8.018
31628SOL    HW194842   9.382   4.291   8.041
31628SOL    HW294843   9.412   4.429   8.096
31629SOL     OW94844   9.362   5.300   7.563
31629SOL    HW194845   9.342   5.208   7.580
31629SOL    HW294846   9.331   5.347   7.641
31630SOL     OW94847   9.426   4.473   9.025
31630SOL    HW194848   9.510   4.519   9.035
31630SOL    HW294849   9.361   4.542   9.017
31631SOL     OW94850   9.891   5.139   8.181
31631SOL    HW194851   9.854   5.051   8.178
31631SOL    HW294852   9.900   5.165   8.089
31632SOL     OW94853   0.110   3.728   8.022
31632SOL    HW194854   0.136   3.812   7.985
31632SOL    HW294855   0.015   3.730   8.020
31633SOL     OW94856   9.492   4.679   8.741
31633SOL    HW194857   9.578   4.645   8.718
31633SOL    HW294858   9.434   4.647   8.672
31634SOL     OW94859   9.637   3.991   9.261
31634SOL    HW194860   9.678   4.052   9.322
31634SOL    HW294861   9.545   3.989   9.287
31635SOL     OW94862   9.871   4.434   7.715
31635SOL    HW194863   9.874   4.520   7.673
31635SOL    HW294864   9.808   4.444   7.786
31636SOL     OW94865   9.390   4.553   8.225
31636SOL    HW194866   9.472   4.543   8.273
31636SOL    HW294867   9.345   4.625   8.269
31637SOL     OW94868   9.414   5.609   9.039
31637SOL    HW194869   9.427   5.583   9.131
31637SOL    HW294870   9.326   5.576   9.017
31638SOL     OW94871   0.238   4.052   7.657
31638SOL    HW194872   0.246   4.147   7.669
31638SOL    HW294873   0.171   4.042   7.589
31639SOL     OW94874   9.826   3.925   8.349
31639SOL    HW194875   9.848   3.924   8.442
31639SOL    HW294876   9.833   4.017   8.324
31640SOL     OW94877   9.666   5.557   8.331
31640SOL    HW194878   9.722   5.481   8.341
31640SOL    HW294879   9.724   5.632   8.341
31641SOL     OW94880   9.595   4.655   7.681
31641SOL    HW194881   9.625   4.671   7.592
31641SOL    HW294882   9.572   4.562   7.683
31642SOL     OW94883   9.754   4.925   9.173
31642SOL    HW194884   9.729   4.952   9.085
31642SOL    HW294885   9.689   4.967   9.230
31643SOL     OW94886   9.507   3.987   8.941
31643SOL    HW194887   9.428   4.039   8.947
31643SOL    HW294888   9.483   3.902   8.979
31644SOL     OW94889   9.785   5.445   7.785
31644SOL    HW194890   9.821   5.515   7.841
31644SOL    HW294891   9.856   5.426   7.724
31645SOL     OW94892   9.563   5.517   8.669
31645SOL    HW194893   9.611   5.444   8.708
31645SOL    HW294894   9.554   5.493   8.577
31646SOL     OW94895   9.694   4.408   7.931
31646SOL    HW194896   9.719   4.318   7.952
31646SOL    HW294897   9.600   4.411   7.949
31647SOL     OW94898   9.848   3.834   7.557
31647SOL    HW194899   9.930   3.810   7.599
31647SOL    HW294900   9.861   3.812   7.465
31648SOL     OW94901   0.141   5.157   8.300
31648SOL    HW194902   0.182   5.087   8.250
31648SOL    HW294903   0.050   5.158   8.271
31649SOL     OW94904   9.846   3.797   7.948
31649SOL    HW194905   9.767   3.796   8.003
31649SOL    HW294906   9.834   3.873   7.891
31650SOL     OW94907   9.599   3.753   7.637
31650SOL    HW194908   9.674   3.797   7.598
31650SOL    HW294909   9.637   3.684   7.692
31651SOL     OW94910   0.191   3.958   7.902
31651SOL    HW194911   0.210   3.997   7.816
31651SOL    HW294912   0.269   3.975   7.954
31652SOL     OW94913   9.780   4.891   8.146
31652SOL    HW194914   9.717   4.861   8.211
31652SOL    HW294915   9.739   4.871   8.062
31653SOL     OW94916   9.401   4.279   8.837
31653SOL    HW194917   9.493   4.281   8.809
31653SOL    HW294918   9.393   4.348   8.902
31654SOL     OW94919   9.870   3.929   8.619
31654SOL    HW194920   9.912   3.924   8.705
31654SOL    HW294921   9.776   3.930   8.638
31655SOL     OW94922   9.795   4.002   7.767
31655SOL    HW194923   9.815   3.938   7.699
31655SOL    HW294924   9.776   4.083   7.719
31656SOL     OW94925   9.731   4.550   8.687
31656SOL    HW194926   9.794   4.564   8.757
31656SOL    HW294927   9.699   4.461   8.700
31657SOL     OW94928   9.389   5.291   8.809
31657SOL    HW194929   9.357   5.361   8.753
31657SOL    HW294930   9.484   5.295   8.799
31658SOL     OW94931   9.634   4.838   7.909
31658SOL    HW194932   9.625   4.913   7.849
31658SOL    HW294933   9.631   4.761   7.853
31659SOL     OW94934   9.864   4.212   8.339
31659SOL    HW194935   9.861   4.284   8.276
31659SOL    HW294936   9.930   4.240   8.403
31660SOL     OW94937   9.661   5.263   8.759
31660SOL    HW194938   9.666   5.214   8.677
31660SOL    HW294939   9.753   5.273   8.785
31661SOL     OW94940   9.720   4.504   9.060
31661SOL    HW194941   9.785   4.540   9.000
31661SOL    HW294942   9.731   4.409   9.053
31662SOL     OW94943   9.802   3.808   9.144
31662SOL    HW194944   9.755   3.736   9.102
31662SOL    HW294945   9.733   3.864   9.179
31663SOL     OW94946   9.868   4.655   8.467
31663SOL    HW194947   9.850   4.748   8.484
31663SOL    HW294948   9.827   4.609   8.540
31664SOL     OW94949   9.603   3.922   8.686
31664SOL    HW194950   9.567   3.952   8.770
31664SOL    HW294951   9.586   3.828   8.684
31665SOL     OW94952   9.360   5.034   8.713
31665SOL    HW194953   9.385   4.977   8.786
31665SOL    HW294954   9.363   5.122   8.750
31666SOL     OW94955   9.607   3.788   8.081
31666SOL    HW194956   9.580   3.878   8.098
31666SOL    HW294957   9.622   3.751   8.168
31667SOL     OW94958   9.674   4.677   9.279
31667SOL    HW194959   9.714   4.756   9.243
31667SOL    HW294960   9.691   4.609   9.213
31668SOL     OW94961   9.614   4.538   8.381
31668SOL    HW194962   9.707   4.560   8.375
31668SOL    HW294963   9.613   4.448   8.413
31669SOL     OW94964   9.626   4.264   8.458
31669SOL    HW194965   9.583   4.179   8.447
31669SOL    HW294966   9.711   4.253   8.415
31670SOL     OW94967   9.313   5.026   7.629
31670SOL    HW194968   9.225   5.051   7.601
31670SOL    HW294969   9.304   4.937   7.663
31671SOL     OW94970   9.407   5.495   8.400
31671SOL    HW194971   9.375   5.422   8.348
31671SOL    HW294972   9.493   5.515   8.365
31672SOL     OW94973   9.815   5.329   8.363
31672SOL    HW194974   9.901   5.365   8.388
31672SOL    HW294975   9.835   5.265   8.295
31673SOL     OW94976   9.345   4.294   8.565
31673SOL    HW194977   9.426   4.292   8.515
31673SOL    HW294978   9.373   4.289   8.656
31674SOL     OW94979   9.480   4.255   9.185
31674SOL    HW194980   9.538   4.204   9.128
31674SOL    HW294981   9.452   4.329   9.131
31675SOL     OW94982   0.119   4.324   7.745
31675SOL    HW194983   0.134   4.342   7.837
31675SOL    HW294984   0.032   4.359   7.727
31676SOL     OW94985   9.535   5.270   9.164
31676SOL    HW194986   9.516   5.341   9.225
31676SOL    HW294987   9.558   5.196   9.220
31677SOL     OW94988   9.746   4.214   7.601
31677SOL    HW194989   9.808   4.281   7.629
31677SOL    HW294990   9.661   4.258   7.602
31678SOL     OW94991   9.433   4.867   8.927
31678SOL    HW194992   9.435   4.826   9.013
31678SOL    HW294993   9.454   4.797   8.865
31679SOL     OW94994   9.417   4.983   8.454
31679SOL    HW194995   9.392   4.999   8.545
31679SOL    HW294996   9.346   4.929   8.419
31680SOL     OW94997   9.993   5.331   9.114
31680SOL    HW194998   9.967   5.396   9.180
31680SOL    HW294999   0.087   5.319   9.128
31681SOL     OW95000   9.454   5.515   9.290
31681SOL    HW195001   9.406   5.449   9.339
31681SOL    HW295002   9.502   5.564   9.357
31682SOL     OW95003   9.547   4.044   8.158
31682SOL    HW195004   9.459   4.077   8.138
31682SOL    HW295005   9.551   4.040   8.253
31683SOL     OW95006   9.663   5.025   8.940
31683SOL    HW195007   9.651   5.106   8.891
31683SOL    HW295008   9.582   4.976   8.927
31684SOL     OW95009   9.900   5.197   7.912
31684SOL    HW195010   9.914   5.140   7.836
31684SOL    HW295011   9.839   5.264   7.881
31685SOL     OW95012   9.567   5.046   7.735
31685SOL    HW195013   9.474   5.044   7.710
31685SOL    HW295014   9.569   5.100   7.814
31686SOL     OW95015   9.421   4.752   9.173
31686SOL    HW195016   9.344   4.736   9.226
31686SOL    HW295017   9.494   4.723   9.228
31687SOL     OW95018   9.934   3.923   8.937
31687SOL    HW195019   0.003   3.857   8.934
31687SOL    HW295020   9.876   3.894   9.008
31688SOL     OW95021   9.373   4.041   7.471
31688SOL    HW195022   9.300   4.024   7.413
31688SOL    HW295023   9.403   4.129   7.448
31689SOL     OW95024   9.360   3.871   7.715
31689SOL    HW195025   9.346   3.938   7.647
31689SOL    HW295026   9.449   3.840   7.699
31690SOL     OW95027   9.917   4.592   8.882
31690SOL    HW195028   9.936   4.686   8.871
31690SOL    HW295029   9.998   4.548   8.859
31691SOL     OW95030   9.659   5.477   9.016
31691SOL    HW195031   9.575   5.520   9.000
31691SOL    HW295032   9.636   5.391   9.051
31692SOL     OW95033   9.842   4.425   8.173
31692SOL    HW195034   9.912   4.489   8.175
31692SOL    HW295035   9.795   4.442   8.091
31693SOL     OW95036   9.565   5.045   9.328
31693SOL    HW195037   9.473   5.019   9.326
31693SOL    HW295038   9.587   5.049   9.421
31694SOL     OW95039   9.432   4.943   8.106
31694SOL    HW195040   9.467   4.902   8.185
31694SOL    HW295041   9.484   4.905   8.034
31695SOL     OW95042   9.996   5.053   9.151
31695SOL    HW195043   9.911   5.010   9.153
31695SOL    HW295044   9.978   5.141   9.119
31696SOL     OW95045   9.754   4.148   8.002
31696SOL    HW195046   9.757   4.090   7.925
31696SOL    HW295047   9.685   4.112   8.056
31697SOL     OW95048   9.653   4.295   8.739
31697SOL    HW195049   9.700   4.236   8.797
31697SOL    HW295050   9.667   4.259   8.651
31698SOL     OW95051   9.341   4.773   7.754
31698SOL    HW195052   9.433   4.761   7.727
31698SOL    HW295053   9.312   4.684   7.777
31699SOL     OW95054   9.514   4.322   9.446
31699SOL    HW195055   9.426   4.316   9.484
31699SOL    HW295056   9.499   4.315   9.352
31700SOL     OW95057   9.517   5.458   9.765
31700SOL    HW195058   9.532   5.527   9.829
31700SOL    HW295059   9.603   5.442   9.726
31701SOL     OW95060   9.564   5.184   9.835
31701SOL    HW195061   9.527   5.270   9.851
31701SOL    HW295062   9.500   5.123   9.871
31702SOL     OW95063   9.368   4.404   9.880
31702SOL    HW195064   9.282   4.368   9.858
31702SOL    HW295065   9.350   4.479   9.937
31703SOL     OW95066   9.355   5.313   9.435
31703SOL    HW195067   9.338   5.220   9.449
31703SOL    HW295068   9.317   5.356   9.512
31704SOL     OW95069   0.102   3.751   9.865
31704SOL    HW195070   0.144   3.831   9.834
31704SOL    HW295071   0.009   3.766   9.854
31705SOL     OW95072   9.859   4.445   9.570
31705SOL    HW195073   9.876   4.535   9.542
31705SOL    HW295074   9.791   4.452   9.637
31706SOL     OW95075   9.357   4.606   0.072
31706SOL    HW195076   9.426   4.556   0.115
31706SOL    HW295077   9.335   4.675   0.134
31707SOL     OW95078   0.169   4.093   9.524
31707SOL    HW195079   0.218   4.165   9.484
31707SOL    HW295080   0.128   4.048   9.450
31708SOL     OW95081   9.618   5.582   0.194
31708SOL    HW195082   9.634   5.497   0.235
31708SOL    HW295083   9.705   5.616   0.174
31709SOL     OW95084   9.618   4.673   9.557
31709SOL    HW195085   9.641   4.675   9.464
31709SOL    HW295086   9.558   4.599   9.566
31710SOL     OW95087   9.771   5.466   9.646
31710SOL    HW195088   9.817   5.527   9.703
31710SOL    HW295089   9.840   5.430   9.590
31711SOL     OW95090   9.670   4.424   9.782
31711SOL    HW195091   9.682   4.331   9.801
31711SOL    HW295092   9.575   4.438   9.787
31712SOL     OW95093   9.851   3.842   9.418
31712SOL    HW195094   9.934   3.818   9.459
31712SOL    HW295095   9.860   3.813   9.327
31713SOL     OW95096   9.828   3.816   9.828
31713SOL    HW195097   9.739   3.811   9.862
31713SOL    HW295098   9.825   3.888   9.764
31714SOL     OW95099   9.598   3.767   9.496
31714SOL    HW195100   9.672   3.812   9.457
31714SOL    HW295101   9.636   3.700   9.552
31715SOL     OW95102   0.242   3.958   9.747
31715SOL    HW195103   0.212   4.020   9.681
31715SOL    HW295104   0.338   3.963   9.743
31716SOL     OW95105   9.716   4.840   0.075
31716SOL    HW195106   9.680   4.920   0.113
31716SOL    HW295107   9.702   4.848   9.981
31717SOL     OW95108   9.806   4.009   9.634
31717SOL    HW195109   9.825   3.944   9.566
31717SOL    HW295110   9.786   4.089   9.585
31718SOL     OW95111   9.644   4.839   9.795
31718SOL    HW195112   9.630   4.917   9.741
31718SOL    HW295113   9.653   4.767   9.733
31719SOL     OW95114   9.572   3.803   9.937
31719SOL    HW195115   9.509   3.874   9.949
31719SOL    HW295116   9.581   3.763   0.023
31720SOL     OW95117   9.314   5.041   9.483
31720SOL    HW195118   9.225   5.062   9.455
31720SOL    HW295119   9.308   4.953   9.519
31721SOL     OW95120   0.079   4.310   9.662
31721SOL    HW195121   0.091   4.230   9.611
31721SOL    HW295122   0.006   4.355   9.619
31722SOL     OW95123   9.757   4.213   9.459
31722SOL    HW195124   9.810   4.288   9.484
31722SOL    HW295125   9.667   4.246   9.458
31723SOL     OW95126   9.940   5.211   9.751
31723SOL    HW195127   9.929   5.117   9.766
31723SOL    HW295128   9.857   5.250   9.777
31724SOL     OW95129   9.569   5.046   9.604
31724SOL    HW195130   9.476   5.050   9.581
31724SOL    HW295131   9.577   5.105   9.679
31725SOL     OW95132   9.370   4.038   9.330
31725SOL    HW195133   9.297   4.022   9.270
31725SOL    HW295134   9.402   4.125   9.306
31726SOL     OW95135   9.355   3.877   9.571
31726SOL    HW195136   9.343   3.941   9.501
31726SOL    HW295137   9.444   3.844   9.560
31727SOL     OW95138   9.888   4.471   9.953
31727SOL    HW195139   9.903   4.561   9.981
31727SOL    HW295140   9.810   4.474   9.899
31728SOL     OW95141   9.399   4.975   9.906
31728SOL    HW195142   9.374   4.980   9.998
31728SOL    HW295143   9.452   4.896   9.900
31729SOL     OW95144   9.699   4.162   9.851
31729SOL    HW195145   9.738   4.102   9.788
31729SOL    HW295146   9.750   4.150   9.931
31730SOL     OW95147   9.360   4.799   9.606
31730SOL    HW195148   9.456   4.806   9.599
31730SOL    HW295149   9.343   4.705   9.605
31731SOL     OW95150   9.510   6.191   0.116
31731SOL    HW195151   9.429   6.174   0.165
31731SOL    HW295152   9.480   6.206   0.026
31732SOL     OW95153   9.520   5.883   0.991
31732SOL    HW195154   9.555   5.844   1.070
31732SOL    HW295155   9.434   5.841   0.980
31733SOL     OW95156   9.288   5.987   0.646
31733SOL    HW195157   9.206   6.006   0.691
31733SOL    HW295158   9.269   5.910   0.593
31734SOL     OW95159   9.824   6.783   1.109
31734SOL    HW195160   9.758   6.849   1.090
31734SOL    HW295161   9.876   6.821   1.180
31735SOL     OW95162   0.089   6.432   1.919
31735SOL    HW195163   0.177   6.455   1.948
31735SOL    HW295164   0.102   6.385   1.837
31736SOL     OW95165   9.655   7.004   1.066
31736SOL    HW195166   9.576   6.970   1.024
31736SOL    HW295167   9.694   7.062   1.001
31737SOL     OW95168   9.744   5.995   1.491
31737SOL    HW195169   9.820   5.937   1.488
31737SOL    HW295170   9.670   5.936   1.502
31738SOL     OW95171   9.537   7.295   0.471
31738SOL    HW195172   9.548   7.372   0.527
31738SOL    HW295173   9.625   7.277   0.437
31739SOL     OW95174   9.533   7.017   0.489
31739SOL    HW195175   9.522   7.112   0.501
31739SOL    HW295176   9.494   6.978   0.567
31740SOL     OW95177   9.571   6.672   0.874
31740SOL    HW195178   9.576   6.584   0.913
31740SOL    HW295179   9.526   6.725   0.940
31741SOL     OW95180   9.420   6.235   0.570
31741SOL    HW195181   9.381   6.152   0.596
31741SOL    HW295182   9.410   6.291   0.648
31742SOL     OW95183   9.370   7.164   0.084
31742SOL    HW195184   9.350   7.075   0.112
31742SOL    HW295185   9.346   7.219   0.158
31743SOL     OW95186   9.428   6.333   1.580
31743SOL    HW195187   9.514   6.376   1.586
31743SOL    HW295188   9.366   6.404   1.572
31744SOL     OW95189   9.900   6.987   0.746
31744SOL    HW195190   9.859   6.901   0.747
31744SOL    HW295191   9.907   7.011   0.654
31745SOL     OW95192   0.113   5.602   0.545
31745SOL    HW195193   0.139   5.685   0.505
31745SOL    HW295194   0.018   5.602   0.539
31746SOL     OW95195   9.491   6.541   1.292
31746SOL    HW195196   9.578   6.508   1.271
31746SOL    HW295197   9.434   6.506   1.224
31747SOL     OW95198   9.638   5.856   1.814
31747SOL    HW195199   9.678   5.918   1.876
31747SOL    HW295200   9.546   5.852   1.840
31748SOL     OW95201   9.873   6.304   0.284
31748SOL    HW195202   9.899   6.396   0.281
31748SOL    HW295203   9.811   6.298   0.356
31749SOL     OW95204   9.390   6.419   0.776
31749SOL    HW195205   9.473   6.405   0.822
31749SOL    HW295206   9.349   6.491   0.822
31750SOL     OW95207   9.412   7.471   1.590
31750SOL    HW195208   9.424   7.445   1.682
31750SOL    HW295209   9.326   7.436   1.567
31751SOL     OW95210   0.239   5.888   0.178
31751SOL    HW195211   0.309   5.951   0.164
31751SOL    HW295212   0.165   5.923   0.129
31752SOL     OW95213   9.823   5.786   0.904
31752SOL    HW195214   9.847   5.785   0.997
31752SOL    HW295215   9.832   5.878   0.879
31753SOL     OW95216   9.666   7.417   0.881
31753SOL    HW195217   9.724   7.341   0.890
31753SOL    HW295218   9.724   7.493   0.892
31754SOL     OW95219   9.610   6.535   0.263
31754SOL    HW195220   9.655   6.584   0.195
31754SOL    HW295221   9.642   6.445   0.252
31755SOL     OW95222   9.756   6.783   1.723
31755SOL    HW195223   9.734   6.811   1.634
31755SOL    HW295224   9.691   6.825   1.778
31756SOL     OW95225   9.509   5.848   1.493
31756SOL    HW195226   9.431   5.902   1.502
31756SOL    HW295227   9.483   5.763   1.530
31757SOL     OW95228   9.793   7.272   0.368
31757SOL    HW195229   9.826   7.353   0.406
31757SOL    HW295230   9.856   7.250   0.300
31758SOL     OW95231   9.562   7.378   1.222
31758SOL    HW195232   9.611   7.307   1.264
31758SOL    HW295233   9.559   7.353   1.130
31759SOL     OW95234   9.690   6.270   0.481
31759SOL    HW195235   9.714   6.180   0.503
31759SOL    HW295236   9.597   6.276   0.502
31760SOL     OW95237   9.857   5.681   0.116
31760SOL    HW195238   9.944   5.663   0.150
31760SOL    HW295239   9.869   5.685   0.021
31761SOL     OW95240   0.157   7.028   0.842
31761SOL    HW195241   0.202   7.014   0.759
31761SOL    HW295242   0.066   7.004   0.824
31762SOL     OW95243   9.842   5.652   0.487
31762SOL    HW195244   9.765   5.653   0.543
31762SOL    HW295245   9.832   5.729   0.431
31763SOL     OW95246   0.204   5.838   0.447
31763SOL    HW195247   0.209   5.869   0.356
31763SOL    HW295248   0.296   5.829   0.474
31764SOL     OW95249   9.775   6.751   0.715
31764SOL    HW195250   9.710   6.720   0.779
31764SOL    HW295251   9.736   6.732   0.630
31765SOL     OW95252   9.401   6.140   1.390
31765SOL    HW195253   9.493   6.142   1.362
31765SOL    HW295254   9.394   6.209   1.456
31766SOL     OW95255   9.870   5.793   1.174
31766SOL    HW195256   9.912   5.790   1.260
31766SOL    HW295257   9.776   5.792   1.194
31767SOL     OW95258   9.788   5.863   0.308
31767SOL    HW195259   9.810   5.797   0.243
31767SOL    HW295260   9.783   5.945   0.259
31768SOL     OW95261   9.730   6.413   1.240
31768SOL    HW195262   9.794   6.427   1.310
31768SOL    HW295263   9.699   6.323   1.254
31769SOL     OW95264   9.390   7.153   1.361
31769SOL    HW195265   9.360   7.224   1.305
31769SOL    HW295266   9.486   7.155   1.353
31770SOL     OW95267   9.625   6.708   0.481
31770SOL    HW195268   9.630   6.781   0.419
31770SOL    HW295269   9.628   6.630   0.427
31771SOL     OW95270   9.865   6.070   0.887
31771SOL    HW195271   9.859   6.144   0.826
31771SOL    HW295272   9.929   6.098   0.952
31772SOL     OW95273   9.663   7.124   1.312
31772SOL    HW195274   9.667   7.076   1.229
31772SOL    HW295275   9.754   7.134   1.339
31773SOL     OW95276   9.719   6.362   1.608
31773SOL    HW195277   9.785   6.401   1.551
31773SOL    HW295278   9.734   6.268   1.602
31774SOL     OW95279   9.803   5.672   1.694
31774SOL    HW195280   9.755   5.600   1.652
31774SOL    HW295281   9.734   5.728   1.730
31775SOL     OW95282   9.866   6.517   1.019
31775SOL    HW195283   9.849   6.610   1.035
31775SOL    HW295284   9.826   6.472   1.093
31776SOL     OW95285   9.603   5.784   1.238
31776SOL    HW195286   9.567   5.813   1.322
31776SOL    HW295287   9.586   5.689   1.236
31777SOL     OW95288   9.355   6.897   1.267
31777SOL    HW195289   9.383   6.839   1.338
31777SOL    HW295290   9.361   6.985   1.303
31778SOL     OW95291   9.606   5.648   0.630
31778SOL    HW195292   9.580   5.738   0.647
31778SOL    HW295293   9.624   5.610   0.716
31779SOL     OW95294   9.669   6.538   1.825
31779SOL    HW195295   9.713   6.616   1.792
31779SOL    HW295296   9.690   6.469   1.762
31780SOL     OW95297   9.613   6.398   0.935
31780SOL    HW195298   9.705   6.422   0.928
31780SOL    HW295299   9.613   6.307   0.966
31781SOL     OW95300   9.628   6.125   1.010
31781SOL    HW195301   9.584   6.041   0.999
31781SOL    HW295302   9.713   6.114   0.966
31782SOL     OW95303   9.330   6.875   0.170
31782SOL    HW195304   9.240   6.904   0.155
31782SOL    HW295305   9.321   6.798   0.227
31783SOL     OW95306   9.406   7.359   0.951
31783SOL    HW195307   9.375   7.285   0.899
31783SOL    HW295308   9.493   7.377   0.916
31784SOL     OW95309   9.819   7.189   0.915
31784SOL    HW195310   9.903   7.227   0.940
31784SOL    HW295311   9.842   7.120   0.852
31785SOL     OW95312   9.346   6.158   1.117
31785SOL    HW195313   9.428   6.154   1.067
31785SOL    HW295314   9.374   6.152   1.209
31786SOL     OW95315   9.486   6.123   1.751
31786SOL    HW195316   9.545   6.071   1.697
31786SOL    HW295317   9.456   6.193   1.694
31787SOL     OW95318   0.107   6.163   0.319
31787SOL    HW195319   0.127   6.178   0.411
31787SOL    HW295320   0.019   6.199   0.307
31788SOL     OW95321   9.536   7.131   1.714
31788SOL    HW195322   9.516   7.199   1.779
31788SOL    HW295323   9.559   7.054   1.766
31789SOL     OW95324   9.777   6.086   0.138
31789SOL    HW195325   9.822   6.163   0.173
31789SOL    HW295326   9.686   6.113   0.128
31790SOL     OW95327   9.432   6.730   1.477
31790SOL    HW195328   9.435   6.689   1.563
31790SOL    HW295329   9.454   6.660   1.416
31791SOL     OW95330   9.412   6.850   1.007
31791SOL    HW195331   9.386   6.865   1.098
31791SOL    HW295332   9.342   6.794   0.972
31792SOL     OW95333   9.988   7.194   1.670
31792SOL    HW195334   9.968   7.263   1.733
31792SOL    HW295335   0.083   7.181   1.677
31793SOL     OW95336   9.448   7.379   1.842
31793SOL    HW195337   9.402   7.308   1.888
31793SOL    HW295338   9.499   7.423   1.910
31794SOL     OW95339   9.547   5.904   0.708
31794SOL    HW195340   9.459   5.938   0.691
31794SOL    HW295341   9.553   5.900   0.804
31795SOL     OW95342   9.664   6.886   1.491
31795SOL    HW195343   9.653   6.968   1.443
31795SOL    HW295344   9.582   6.839   1.478
31796SOL     OW95345   9.930   7.042   0.479
31796SOL    HW195346   9.938   6.991   0.399
31796SOL    HW295347   9.876   7.118   0.453
31797SOL     OW95348   9.594   6.891   0.258
31797SOL    HW195349   9.508   6.896   0.217
31797SOL    HW295350   9.589   6.948   0.334
31798SOL     OW95351   9.418   6.617   1.724
31798SOL    HW195352   9.342   6.598   1.779
31798SOL    HW295353   9.492   6.585   1.775
31799SOL     OW95354   9.940   5.788   1.491
31799SOL    HW195355   0.010   5.723   1.488
31799SOL    HW295356   9.882   5.759   1.561
31800SOL     OW95357   9.392   5.865   0.012
31800SOL    HW195358   9.301   5.879   9.988
31800SOL    HW295359   9.437   5.944   9.984
31801SOL     OW95360   9.387   5.718   0.275
31801SOL    HW195361   9.380   5.781   0.203
31801SOL    HW295362   9.475   5.680   0.264
31802SOL     OW95363   9.917   6.454   1.434
31802SOL    HW195364   9.941   6.546   1.428
31802SOL    HW295365   9.996   6.407   1.408
31803SOL     OW95366   9.658   7.341   1.568
31803SOL    HW195367   9.573   7.383   1.553
31803SOL    HW295368   9.636   7.255   1.603
31804SOL     OW95369   9.838   6.286   0.726
31804SOL    HW195370   9.911   6.348   0.734
31804SOL    HW295371   9.796   6.309   0.643
31805SOL     OW95372   9.565   6.904   1.874
31805SOL    HW195373   9.475   6.871   1.872
31805SOL    HW295374   9.586   6.911   1.967
31806SOL     OW95375   9.434   6.805   0.662
31806SOL    HW195376   9.464   6.766   0.744
31806SOL    HW295377   9.492   6.768   0.595
31807SOL     OW95378   9.983   6.930   1.763
31807SOL    HW195379   9.909   6.875   1.739
31807SOL    HW295380   9.969   7.012   1.716
31808SOL     OW95381   9.745   6.010   0.542
31808SOL    HW195382   9.751   5.950   0.468
31808SOL    HW295383   9.680   5.971   0.600
31809SOL     OW95384   9.653   6.156   1.291
31809SOL    HW195385   9.701   6.098   1.350
31809SOL    HW295386   9.668   6.121   1.204
31810SOL     OW95387   9.346   6.629   0.305
31810SOL    HW195388   9.441   6.627   0.305
31810SOL    HW295389   9.320   6.541   0.334
31811SOL     OW95390   9.512   6.221   2.008
31811SOL    HW195391   9.427   6.202   2.047
31811SOL    HW295392   9.502   6.201   1.915
31812SOL     OW95393   9.520   5.883   2.853
31812SOL    HW195394   9.555   5.845   2.933
31812SOL    HW295395   9.434   5.842   2.842
31813SOL     OW95396   9.289   5.987   2.507
31813SOL    HW195397   9.207   6.009   2.553
31813SOL    HW295398   9.266   5.912   2.452
31814SOL     OW95399   9.826   6.782   2.969
31814SOL    HW195400   9.759   6.848   2.951
31814SOL    HW295401   9.879   6.821   3.039
31815SOL     OW95402   0.089   6.434   3.783
31815SOL    HW195403   0.174   6.457   3.821
31815SOL    HW295404   0.111   6.386   3.703
31816SOL     OW95405   9.656   7.004   2.929
31816SOL    HW195406   9.578   6.968   2.886
31816SOL    HW295407   9.695   7.062   2.864
31817SOL     OW95408   9.745   5.994   3.351
31817SOL    HW195409   9.821   5.936   3.350
31817SOL    HW295410   9.670   5.936   3.363
31818SOL     OW95411   9.529   7.310   2.328
31818SOL    HW195412   9.547   7.383   2.388
31818SOL    HW295413   9.613   7.292   2.286
31819SOL     OW95414   9.538   7.035   2.381
31819SOL    HW195415   9.517   7.128   2.392
31819SOL    HW295416   9.496   6.992   2.455
31820SOL     OW95417   9.579   6.676   2.728
31820SOL    HW195418   9.581   6.588   2.765
31820SOL    HW295419   9.533   6.728   2.793
31821SOL     OW95420   9.422   6.238   2.432
31821SOL    HW195421   9.382   6.154   2.455
31821SOL    HW295422   9.412   6.292   2.510
31822SOL     OW95423   9.361   7.163   1.977
31822SOL    HW195424   9.342   7.070   1.994
31822SOL    HW295425   9.331   7.209   2.055
31823SOL     OW95426   9.427   6.333   3.442
31823SOL    HW195427   9.512   6.377   3.448
31823SOL    HW295428   9.364   6.404   3.432
31824SOL     OW95429   9.891   7.001   2.595
31824SOL    HW195430   9.853   6.913   2.592
31824SOL    HW295431   9.899   7.027   2.504
31825SOL     OW95432   0.104   5.585   2.434
31825SOL    HW195433   0.135   5.669   2.402
31825SOL    HW295434   0.009   5.591   2.430
31826SOL     OW95435   9.493   6.541   3.155
31826SOL    HW195436   9.579   6.507   3.133
31826SOL    HW295437   9.435   6.507   3.086
31827SOL     OW95438   9.638   5.856   3.676
31827SOL    HW195439   9.678   5.918   3.737
31827SOL    HW295440   9.546   5.852   3.702
31828SOL     OW95441   9.871   6.295   2.129
31828SOL    HW195442   9.874   6.381   2.087
31828SOL    HW295443   9.808   6.306   2.200
31829SOL     OW95444   9.390   6.416   2.639
31829SOL    HW195445   9.472   6.405   2.687
31829SOL    HW295446   9.346   6.488   2.684
31830SOL     OW95447   9.412   7.471   3.452
31830SOL    HW195448   9.424   7.446   3.543
31830SOL    HW295449   9.325   7.437   3.429
31831SOL     OW95450   0.239   5.915   2.073
31831SOL    HW195451   0.243   6.009   2.088
31831SOL    HW295452   0.172   5.904   2.005
31832SOL     OW95453   9.825   5.787   2.766
31832SOL    HW195454   9.848   5.786   2.859
31832SOL    HW295455   9.832   5.879   2.740
31833SOL     OW95456   9.665   7.419   2.746
31833SOL    HW195457   9.722   7.343   2.756
31833SOL    HW295458   9.723   7.494   2.757
31834SOL     OW95459   9.595   6.518   2.095
31834SOL    HW195460   9.625   6.533   2.005
31834SOL    HW295461   9.572   6.425   2.097
31835SOL     OW95462   9.756   6.783   3.585
31835SOL    HW195463   9.734   6.812   3.496
31835SOL    HW295464   9.691   6.825   3.640
31836SOL     OW95465   9.509   5.848   3.355
31836SOL    HW195466   9.430   5.902   3.362
31836SOL    HW295467   9.483   5.764   3.392
31837SOL     OW95468   9.785   7.307   2.199
31837SOL    HW195469   9.820   7.376   2.255
31837SOL    HW295470   9.857   7.287   2.138
31838SOL     OW95471   9.563   7.378   3.084
31838SOL    HW195472   9.611   7.307   3.126
31838SOL    HW295473   9.559   7.354   2.992
31839SOL     OW95474   9.693   6.271   2.344
31839SOL    HW195475   9.718   6.181   2.365
31839SOL    HW295476   9.599   6.275   2.362
31840SOL     OW95477   9.848   5.698   1.970
31840SOL    HW195478   9.930   5.673   2.012
31840SOL    HW295479   9.860   5.674   1.878
31841SOL     OW95480   0.141   7.019   2.714
31841SOL    HW195481   0.181   6.948   2.665
31841SOL    HW295482   0.050   7.021   2.684
31842SOL     OW95483   9.843   5.659   2.361
31842SOL    HW195484   9.765   5.658   2.416
31842SOL    HW295485   9.832   5.735   2.305
31843SOL     OW95486   9.600   5.614   2.051
31843SOL    HW195487   9.675   5.659   2.012
31843SOL    HW295488   9.638   5.545   2.105
31844SOL     OW95489   0.191   5.814   2.317
31844SOL    HW195490   0.213   5.857   2.234
31844SOL    HW295491   0.272   5.819   2.368
31845SOL     OW95492   9.781   6.753   2.560
31845SOL    HW195493   9.718   6.723   2.625
31845SOL    HW295494   9.739   6.733   2.476
31846SOL     OW95495   9.401   6.140   3.252
31846SOL    HW195496   9.493   6.143   3.224
31846SOL    HW295497   9.394   6.209   3.318
31847SOL     OW95498   9.870   5.793   3.036
31847SOL    HW195499   9.913   5.791   3.122
31847SOL    HW295500   9.777   5.792   3.056
31848SOL     OW95501   9.794   5.864   2.181
31848SOL    HW195502   9.814   5.800   2.113
31848SOL    HW295503   9.775   5.945   2.133
31849SOL     OW95504   9.732   6.412   3.102
31849SOL    HW195505   9.795   6.427   3.172
31849SOL    HW295506   9.701   6.323   3.116
31850SOL     OW95507   9.390   7.153   3.223
31850SOL    HW195508   9.358   7.224   3.167
31850SOL    HW295509   9.485   7.156   3.214
31851SOL     OW95510   9.634   6.701   2.324
31851SOL    HW195511   9.625   6.775   2.264
31851SOL    HW295512   9.631   6.624   2.267
31852SOL     OW95513   9.865   6.073   2.749
31852SOL    HW195514   9.860   6.147   2.688
31852SOL    HW295515   9.930   6.100   2.814
31853SOL     OW95516   9.662   7.125   3.174
31853SOL    HW195517   9.667   7.076   3.092
31853SOL    HW295518   9.753   7.135   3.201
31854SOL     OW95519   9.718   6.363   3.471
31854SOL    HW195520   9.784   6.402   3.414
31854SOL    HW295521   9.733   6.269   3.465
31855SOL     OW95522   9.803   5.672   3.556
31855SOL    HW195523   9.755   5.600   3.514
31855SOL    HW295524   9.734   5.728   3.592
31856SOL     OW95525   9.867   6.517   2.880
31856SOL    HW195526   9.849   6.610   2.897
31856SOL    HW295527   9.828   6.471   2.955
31857SOL     OW95528   9.603   5.784   3.100
31857SOL    HW195529   9.568   5.813   3.184
31857SOL    HW295530   9.586   5.690   3.098
31858SOL     OW95531   9.358   6.896   3.127
31858SOL    HW195532   9.384   6.839   3.199
31858SOL    HW295533   9.363   6.985   3.163
31859SOL     OW95534   9.606   5.650   2.496
31859SOL    HW195535   9.579   5.740   2.514
31859SOL    HW295536   9.622   5.612   2.583
31860SOL     OW95537   9.669   6.538   3.688
31860SOL    HW195538   9.713   6.616   3.654
31860SOL    HW295539   9.689   6.470   3.624
31861SOL     OW95540   9.614   6.401   2.796
31861SOL    HW195541   9.707   6.424   2.792
31861SOL    HW295542   9.613   6.310   2.827
31862SOL     OW95543   9.628   6.126   2.872
31862SOL    HW195544   9.584   6.042   2.861
31862SOL    HW295545   9.712   6.115   2.828
31863SOL     OW95546   9.313   6.888   2.042
31863SOL    HW195547   9.225   6.913   2.015
31863SOL    HW295548   9.304   6.799   2.077
31864SOL     OW95549   9.405   7.358   2.813
31864SOL    HW195550   9.374   7.284   2.761
31864SOL    HW295551   9.492   7.377   2.779
31865SOL     OW95552   9.817   7.192   2.778
31865SOL    HW195553   9.902   7.227   2.803
31865SOL    HW295554   9.837   7.128   2.710
31866SOL     OW95555   9.346   6.157   2.980
31866SOL    HW195556   9.427   6.154   2.930
31866SOL    HW295557   9.373   6.151   3.071
31867SOL     OW95558   9.486   6.123   3.613
31867SOL    HW195559   9.543   6.071   3.558
31867SOL    HW295560   9.455   6.193   3.556
31868SOL     OW95561   0.119   6.184   2.158
31868SOL    HW195562   0.135   6.203   2.251
31868SOL    HW295563   0.032   6.219   2.141
31869SOL     OW95564   9.536   7.131   3.576
31869SOL    HW195565   9.515   7.198   3.641
31869SOL    HW295566   9.559   7.054   3.628
31870SOL     OW95567   9.746   6.076   2.014
31870SOL    HW195568   9.808   6.143   2.042
31870SOL    HW295569   9.661   6.120   2.015
31871SOL     OW95570   9.432   6.730   3.339
31871SOL    HW195571   9.435   6.689   3.425
31871SOL    HW295572   9.455   6.660   3.278
31872SOL     OW95573   9.417   6.845   2.868
31872SOL    HW195574   9.391   6.862   2.959
31872SOL    HW295575   9.347   6.791   2.833
31873SOL     OW95576   9.988   7.194   3.531
31873SOL    HW195577   9.967   7.263   3.594
31873SOL    HW295578   0.083   7.182   3.540
31874SOL     OW95579   9.448   7.379   3.704
31874SOL    HW195580   9.402   7.308   3.749
31874SOL    HW295581   9.498   7.423   3.772
31875SOL     OW95582   9.546   5.905   2.572
31875SOL    HW195583   9.458   5.939   2.553
31875SOL    HW295584   9.550   5.902   2.668
31876SOL     OW95585   9.664   6.886   3.353
31876SOL    HW195586   9.652   6.968   3.305
31876SOL    HW295587   9.582   6.838   3.339
31877SOL     OW95588   9.900   7.058   2.326
31877SOL    HW195589   9.913   7.002   2.250
31877SOL    HW295590   9.839   7.126   2.295
31878SOL     OW95591   9.567   6.909   2.149
31878SOL    HW195592   9.475   6.906   2.124
31878SOL    HW295593   9.569   6.962   2.228
31879SOL     OW95594   9.418   6.618   3.586
31879SOL    HW195595   9.341   6.599   3.641
31879SOL    HW295596   9.492   6.586   3.638
31880SOL     OW95597   9.941   5.788   3.353
31880SOL    HW195598   0.011   5.722   3.351
31880SOL    HW295599   9.883   5.759   3.424
31881SOL     OW95600   9.373   5.903   1.886
31881SOL    HW195601   9.299   5.886   1.828
31881SOL    HW295602   9.403   5.991   1.862
31882SOL     OW95603   9.361   5.733   2.129
31882SOL    HW195604   9.347   5.800   2.062
31882SOL    HW295605   9.450   5.701   2.113
31883SOL     OW95606   9.917   6.455   3.298
31883SOL    HW195607   9.939   6.548   3.292
31883SOL    HW295608   9.997   6.409   3.275
31884SOL     OW95609   9.658   7.341   3.430
31884SOL    HW195610   9.573   7.383   3.415
31884SOL    HW295611   9.636   7.255   3.465
31885SOL     OW95612   9.841   6.287   2.586
31885SOL    HW195613   9.912   6.352   2.589
31885SOL    HW295614   9.795   6.305   2.504
31886SOL     OW95615   9.565   6.903   3.735
31886SOL    HW195616   9.475   6.870   3.733
31886SOL    HW295617   9.586   6.911   3.829
31887SOL     OW95618   9.432   6.804   2.519
31887SOL    HW195619   9.467   6.764   2.599
31887SOL    HW295620   9.485   6.767   2.449
31888SOL     OW95621   9.984   6.930   3.623
31888SOL    HW195622   9.909   6.875   3.600
31888SOL    HW295623   9.969   7.012   3.576
31889SOL     OW95624   9.750   6.011   2.413
31889SOL    HW195625   9.755   5.952   2.338
31889SOL    HW295626   9.682   5.974   2.469
31890SOL     OW95627   9.653   6.157   3.153
31890SOL    HW195628   9.701   6.098   3.211
31890SOL    HW295629   9.668   6.121   3.066
31891SOL     OW95630   9.341   6.634   2.168
31891SOL    HW195631   9.432   6.623   2.141
31891SOL    HW295632   9.312   6.546   2.190
31892SOL     OW95633   9.513   6.220   3.870
31892SOL    HW195634   9.427   6.202   3.909
31892SOL    HW295635   9.502   6.201   3.777
31893SOL     OW95636   9.520   5.883   4.715
31893SOL    HW195637   9.555   5.845   4.795
31893SOL    HW295638   9.434   5.842   4.704
31894SOL     OW95639   9.288   5.987   4.369
31894SOL    HW195640   9.207   6.009   4.415
31894SOL    HW295641   9.265   5.912   4.314
31895SOL     OW95642   9.827   6.782   4.831
31895SOL    HW195643   9.759   6.847   4.813
31895SOL    HW295644   9.879   6.821   4.901
31896SOL     OW95645   0.089   6.433   5.644
31896SOL    HW195646   0.176   6.456   5.676
31896SOL    HW295647   0.105   6.385   5.563
31897SOL     OW95648   9.656   7.003   4.791
31897SOL    HW195649   9.578   6.968   4.749
31897SOL    HW295650   9.694   7.061   4.725
31898SOL     OW95651   9.745   5.994   5.214
31898SOL    HW195652   9.821   5.936   5.212
31898SOL    HW295653   9.670   5.936   5.225
31899SOL     OW95654   9.528   7.310   4.191
31899SOL    HW195655   9.547   7.383   4.250
31899SOL    HW295656   9.612   7.292   4.148
31900SOL     OW95657   9.539   7.035   4.243
31900SOL    HW195658   9.517   7.128   4.254
31900SOL    HW295659   9.496   6.992   4.316
31901SOL     OW95660   9.580   6.676   4.590
31901SOL    HW195661   9.582   6.588   4.626
31901SOL    HW295662   9.533   6.728   4.655
31902SOL     OW95663   9.422   6.237   4.294
31902SOL    HW195664   9.382   6.153   4.317
31902SOL    HW295665   9.412   6.291   4.372
31903SOL     OW95666   9.362   7.162   3.838
31903SOL    HW195667   9.342   7.070   3.856
31903SOL    HW295668   9.331   7.209   3.916
31904SOL     OW95669   9.427   6.333   5.304
31904SOL    HW195670   9.511   6.377   5.309
31904SOL    HW295671   9.363   6.404   5.294
31905SOL     OW95672   9.891   7.002   4.458
31905SOL    HW195673   9.853   6.914   4.455
31905SOL    HW295674   9.899   7.028   4.366
31906SOL     OW95675   0.102   5.583   4.296
31906SOL    HW195676   0.135   5.668   4.265
31906SOL    HW295677   0.007   5.591   4.290
31907SOL     OW95678   9.492   6.541   5.018
31907SOL    HW195679   9.579   6.507   4.995
31907SOL    HW295680   9.435   6.508   4.949
31908SOL     OW95681   9.638   5.856   5.539
31908SOL    HW195682   9.677   5.919   5.600
31908SOL    HW295683   9.546   5.852   5.564
31909SOL     OW95684   9.871   6.296   3.991
31909SOL    HW195685   9.873   6.381   3.949
31909SOL    HW295686   9.808   6.305   4.063
31910SOL     OW95687   9.390   6.415   4.501
31910SOL    HW195688   9.473   6.405   4.549
31910SOL    HW295689   9.346   6.488   4.545
31911SOL     OW95690   9.412   7.471   5.314
31911SOL    HW195691   9.424   7.446   5.405
31911SOL    HW295692   9.326   7.438   5.291
31912SOL     OW95693   0.240   5.915   3.935
31912SOL    HW195694   0.243   6.009   3.951
31912SOL    HW295695   0.172   5.905   3.868
31913SOL     OW95696   9.825   5.787   4.627
31913SOL    HW195697   9.848   5.786   4.720
31913SOL    HW295698   9.832   5.879   4.602
31914SOL     OW95699   9.666   7.419   4.608
31914SOL    HW195700   9.723   7.343   4.618
31914SOL    HW295701   9.724   7.494   4.619
31915SOL     OW95702   9.595   6.517   3.957
31915SOL    HW195703   9.625   6.533   3.868
31915SOL    HW295704   9.572   6.425   3.959
31916SOL     OW95705   9.757   6.783   5.446
31916SOL    HW195706   9.735   6.812   5.357
31916SOL    HW295707   9.691   6.825   5.502
31917SOL     OW95708   9.509   5.848   5.217
31917SOL    HW195709   9.430   5.902   5.222
31917SOL    HW295710   9.483   5.764   5.254
31918SOL     OW95711   9.785   7.307   4.061
31918SOL    HW195712   9.819   7.376   4.117
31918SOL    HW295713   9.856   7.287   4.000
31919SOL     OW95714   9.563   7.378   4.946
31919SOL    HW195715   9.611   7.306   4.986
31919SOL    HW295716   9.557   7.354   4.853
31920SOL     OW95717   9.693   6.270   4.206
31920SOL    HW195718   9.718   6.180   4.227
31920SOL    HW295719   9.599   6.274   4.224
31921SOL     OW95720   9.847   5.697   3.832
31921SOL    HW195721   9.930   5.673   3.874
31921SOL    HW295722   9.860   5.674   3.740
31922SOL     OW95723   0.140   7.020   4.576
31922SOL    HW195724   0.181   6.948   4.527
31922SOL    HW295725   0.050   7.021   4.546
31923SOL     OW95726   9.842   5.659   4.222
31923SOL    HW195727   9.764   5.658   4.278
31923SOL    HW295728   9.831   5.736   4.166
31924SOL     OW95729   9.599   5.615   3.913
31924SOL    HW195730   9.675   5.659   3.875
31924SOL    HW295731   9.637   5.545   3.967
31925SOL     OW95732   0.191   5.814   4.179
31925SOL    HW195733   0.213   5.857   4.097
31925SOL    HW295734   0.272   5.814   4.229
31926SOL     OW95735   9.782   6.753   4.422
31926SOL    HW195736   9.719   6.723   4.487
31926SOL    HW295737   9.740   6.733   4.338
31927SOL     OW95738   9.402   6.140   5.114
31927SOL    HW195739   9.493   6.143   5.086
31927SOL    HW295740   9.394   6.208   5.180
31928SOL     OW95741   9.871   5.793   4.898
31928SOL    HW195742   9.913   5.790   4.984
31928SOL    HW295743   9.777   5.792   4.917
31929SOL     OW95744   9.793   5.864   4.042
31929SOL    HW195745   9.814   5.800   3.974
31929SOL    HW295746   9.775   5.945   3.995
31930SOL     OW95747   9.732   6.412   4.963
31930SOL    HW195748   9.795   6.427   5.034
31930SOL    HW295749   9.701   6.323   4.978
31931SOL     OW95750   9.389   7.153   5.085
31931SOL    HW195751   9.357   7.224   5.029
31931SOL    HW295752   9.485   7.156   5.076
31932SOL     OW95753   9.635   6.701   4.185
31932SOL    HW195754   9.625   6.775   4.126
31932SOL    HW295755   9.632   6.624   4.129
31933SOL     OW95756   9.865   6.073   4.611
31933SOL    HW195757   9.860   6.147   4.550
31933SOL    HW295758   9.930   6.100   4.677
31934SOL     OW95759   9.662   7.125   5.035
31934SOL    HW195760   9.666   7.076   4.953
31934SOL    HW295761   9.753   7.135   5.063
31935SOL     OW95762   9.718   6.363   5.333
31935SOL    HW195763   9.784   6.401   5.276
31935SOL    HW295764   9.732   6.269   5.326
31936SOL     OW95765   9.803   5.672   5.419
31936SOL    HW195766   9.755   5.600   5.376
31936SOL    HW295767   9.734   5.728   5.454
31937SOL     OW95768   9.867   6.517   4.742
31937SOL    HW195769   9.850   6.610   4.759
31937SOL    HW295770   9.828   6.471   4.817
31938SOL     OW95771   9.604   5.784   4.962
31938SOL    HW195772   9.568   5.813   5.046
31938SOL    HW295773   9.586   5.690   4.960
31939SOL     OW95774   9.359   6.896   4.989
31939SOL    HW195775   9.385   6.839   5.061
31939SOL    HW295776   9.363   6.985   5.026
31940SOL     OW95777   9.606   5.650   4.358
31940SOL    HW195778   9.579   5.740   4.376
31940SOL    HW295779   9.622   5.612   4.445
31941SOL     OW95780   9.669   6.538   5.550
31941SOL    HW195781   9.713   6.616   5.516
31941SOL    HW295782   9.689   6.470   5.486
31942SOL     OW95783   9.614   6.400   4.658
31942SOL    HW195784   9.707   6.424   4.654
31942SOL    HW295785   9.613   6.310   4.690
31943SOL     OW95786   9.628   6.126   4.734
31943SOL    HW195787   9.584   6.042   4.723
31943SOL    HW295788   9.712   6.115   4.690
31944SOL     OW95789   9.313   6.888   3.904
31944SOL    HW195790   9.225   6.913   3.877
31944SOL    HW295791   9.304   6.800   3.939
31945SOL     OW95792   9.405   7.358   4.676
31945SOL    HW195793   9.374   7.284   4.624
31945SOL    HW295794   9.493   7.377   4.641
31946SOL     OW95795   9.819   7.193   4.641
31946SOL    HW195796   9.904   7.228   4.666
31946SOL    HW295797   9.839   7.129   4.572
31947SOL     OW95798   9.345   6.157   4.842
31947SOL    HW195799   9.427   6.154   4.792
31947SOL    HW295800   9.373   6.151   4.933
31948SOL     OW95801   9.486   6.123   5.475
31948SOL    HW195802   9.543   6.070   5.419
31948SOL    HW295803   9.455   6.194   5.418
31949SOL     OW95804   0.119   6.184   4.020
31949SOL    HW195805   0.135   6.202   4.112
31949SOL    HW295806   0.032   6.219   4.003
31950SOL     OW95807   9.536   7.131   5.438
31950SOL    HW195808   9.515   7.198   5.503
31950SOL    HW295809   9.559   7.054   5.490
31951SOL     OW95810   9.746   6.076   3.876
31951SOL    HW195811   9.808   6.143   3.904
31951SOL    HW295812   9.661   6.121   3.877
31952SOL     OW95813   9.433   6.730   5.201
31952SOL    HW195814   9.435   6.689   5.288
31952SOL    HW295815   9.455   6.660   5.141
31953SOL     OW95816   9.417   6.845   4.730
31953SOL    HW195817   9.391   6.862   4.821
31953SOL    HW295818   9.347   6.790   4.695
31954SOL     OW95819   9.989   7.194   5.393
31954SOL    HW195820   9.967   7.263   5.457
31954SOL    HW295821   0.083   7.182   5.402
31955SOL     OW95822   9.448   7.379   5.566
31955SOL    HW195823   9.402   7.308   5.611
31955SOL    HW295824   9.498   7.423   5.634
31956SOL     OW95825   9.546   5.905   4.434
31956SOL    HW195826   9.458   5.939   4.415
31956SOL    HW295827   9.550   5.902   4.530
31957SOL     OW95828   9.664   6.886   5.215
31957SOL    HW195829   9.652   6.968   5.167
31957SOL    HW295830   9.582   6.838   5.201
31958SOL     OW95831   9.900   7.058   4.188
31958SOL    HW195832   9.913   7.002   4.112
31958SOL    HW295833   9.838   7.125   4.158
31959SOL     OW95834   9.567   6.908   4.010
31959SOL    HW195835   9.474   6.906   3.986
31959SOL    HW295836   9.569   6.962   4.090
31960SOL     OW95837   9.418   6.619   5.449
31960SOL    HW195838   9.341   6.599   5.503
31960SOL    HW295839   9.492   6.586   5.500
31961SOL     OW95840   9.941   5.788   5.216
31961SOL    HW195841   0.010   5.722   5.213
31961SOL    HW295842   9.883   5.759   5.286
31962SOL     OW95843   9.373   5.903   3.748
31962SOL    HW195844   9.299   5.886   3.690
31962SOL    HW295845   9.403   5.991   3.724
31963SOL     OW95846   9.360   5.733   3.991
31963SOL    HW195847   9.346   5.800   3.924
31963SOL    HW295848   9.449   5.701   3.975
31964SOL     OW95849   9.917   6.455   5.160
31964SOL    HW195850   9.940   6.547   5.154
31964SOL    HW295851   9.997   6.408   5.135
31965SOL     OW95852   9.658   7.341   5.293
31965SOL    HW195853   9.574   7.383   5.277
31965SOL    HW295854   9.636   7.255   5.328
31966SOL     OW95855   9.841   6.287   4.448
31966SOL    HW195856   9.912   6.352   4.450
31966SOL    HW295857   9.795   6.305   4.366
31967SOL     OW95858   9.565   6.903   5.597
31967SOL    HW195859   9.476   6.869   5.595
31967SOL    HW295860   9.585   6.911   5.691
31968SOL     OW95861   9.433   6.805   4.382
31968SOL    HW195862   9.467   6.765   4.461
31968SOL    HW295863   9.485   6.767   4.311
31969SOL     OW95864   9.984   6.930   5.485
31969SOL    HW195865   9.909   6.875   5.462
31969SOL    HW295866   9.970   7.012   5.438
31970SOL     OW95867   9.750   6.011   4.276
31970SOL    HW195868   9.755   5.952   4.200
31970SOL    HW295869   9.682   5.974   4.331
31971SOL     OW95870   9.653   6.157   5.015
31971SOL    HW195871   9.701   6.098   5.073
31971SOL    HW295872   9.668   6.122   4.928
31972SOL     OW95873   9.342   6.635   4.030
31972SOL    HW195874   9.433   6.623   4.003
31972SOL    HW295875   9.312   6.547   4.053
31973SOL     OW95876   9.513   6.220   5.732
31973SOL    HW195877   9.427   6.202   5.771
31973SOL    HW295878   9.502   6.201   5.639
31974SOL     OW95879   9.520   5.883   6.577
31974SOL    HW195880   9.555   5.845   6.657
31974SOL    HW295881   9.434   5.842   6.566
31975SOL     OW95882   9.289   5.987   6.231
31975SOL    HW195883   9.207   6.009   6.277
31975SOL    HW295884   9.266   5.912   6.176
31976SOL     OW95885   9.826   6.783   6.693
31976SOL    HW195886   9.759   6.848   6.675
31976SOL    HW295887   9.879   6.821   6.764
31977SOL     OW95888   0.090   6.430   7.504
31977SOL    HW195889   0.180   6.453   7.526
31977SOL    HW295890   0.096   6.384   7.420
31978SOL     OW95891   9.656   7.003   6.653
31978SOL    HW195892   9.578   6.968   6.610
31978SOL    HW295893   9.694   7.062   6.588
31979SOL     OW95894   9.745   5.995   7.076
31979SOL    HW195895   9.820   5.937   7.074
31979SOL    HW295896   9.670   5.936   7.088
31980SOL     OW95897   9.529   7.310   6.052
31980SOL    HW195898   9.547   7.383   6.112
31980SOL    HW295899   9.613   7.292   6.010
31981SOL     OW95900   9.539   7.035   6.105
31981SOL    HW195901   9.517   7.128   6.115
31981SOL    HW295902   9.496   6.992   6.178
31982SOL     OW95903   9.579   6.676   6.452
31982SOL    HW195904   9.581   6.588   6.488
31982SOL    HW295905   9.532   6.728   6.517
31983SOL     OW95906   9.423   6.237   6.156
31983SOL    HW195907   9.382   6.153   6.179
31983SOL    HW295908   9.412   6.291   6.235
31984SOL     OW95909   9.362   7.162   5.700
31984SOL    HW195910   9.342   7.070   5.718
31984SOL    HW295911   9.332   7.209   5.778
31985SOL     OW95912   9.427   6.333   7.166
31985SOL    HW195913   9.511   6.378   7.171
31985SOL    HW295914   9.363   6.404   7.155
31986SOL     OW95915   9.891   7.001   6.319
31986SOL    HW195916   9.853   6.913   6.316
31986SOL    HW295917   9.899   7.027   6.228
31987SOL     OW95918   0.108   5.588   6.159
31987SOL    HW195919   0.136   5.672   6.124
31987SOL    HW295920   0.012   5.591   6.156
31988SOL     OW95921   9.492   6.541   6.880
31988SOL    HW195922   9.579   6.507   6.857
31988SOL    HW295923   9.435   6.509   6.810
31989SOL     OW95924   9.639   5.856   7.401
31989SOL    HW195925   9.677   5.919   7.462
31989SOL    HW295926   9.546   5.852   7.426
31990SOL     OW95927   9.871   6.296   5.853
31990SOL    HW195928   9.873   6.381   5.810
31990SOL    HW295929   9.808   6.306   5.924
31991SOL     OW95930   9.390   6.415   6.363
31991SOL    HW195931   9.472   6.405   6.411
31991SOL    HW295932   9.346   6.487   6.407
31992SOL     OW95933   9.412   7.471   7.176
31992SOL    HW195934   9.424   7.446   7.267
31992SOL    HW295935   9.326   7.437   7.152
31993SOL     OW95936   0.239   5.915   5.796
31993SOL    HW195937   0.243   6.010   5.811
31993SOL    HW295938   0.172   5.905   5.728
31994SOL     OW95939   9.825   5.787   6.489
31994SOL    HW195940   9.848   5.786   6.582
31994SOL    HW295941   9.832   5.879   6.463
31995SOL     OW95942   9.665   7.419   6.470
31995SOL    HW195943   9.722   7.343   6.480
31995SOL    HW295944   9.724   7.494   6.480
31996SOL     OW95945   9.595   6.517   5.819
31996SOL    HW195946   9.625   6.533   5.729
31996SOL    HW295947   9.572   6.425   5.821
31997SOL     OW95948   9.757   6.783   7.308
31997SOL    HW195949   9.735   6.811   7.220
31997SOL    HW295950   9.691   6.825   7.364
31998SOL     OW95951   9.509   5.848   7.079
31998SOL    HW195952   9.430   5.902   7.084
31998SOL    HW295953   9.483   5.764   7.116
31999SOL     OW95954   9.785   7.307   5.923
31999SOL    HW195955   9.820   7.377   5.979
31999SOL    HW295956   9.856   7.288   5.862
32000SOL     OW95957   9.563   7.378   6.808
32000SOL    HW195958   9.611   7.306   6.848
32000SOL    HW295959   9.556   7.354   6.715
32001SOL     OW95960   9.693   6.270   6.068
32001SOL    HW195961   9.718   6.180   6.089
32001SOL    HW295962   9.599   6.274   6.086
32002SOL     OW95963   9.848   5.697   5.694
32002SOL    HW195964   9.930   5.672   5.737
32002SOL    HW295965   9.860   5.674   5.602
32003SOL     OW95966   0.140   7.019   6.438
32003SOL    HW195967   0.180   6.948   6.389
32003SOL    HW295968   0.049   7.021   6.409
32004SOL     OW95969   9.845   5.659   6.085
32004SOL    HW195970   9.766   5.658   6.140
32004SOL    HW295971   9.833   5.735   6.029
32005SOL     OW95972   9.599   5.615   5.775
32005SOL    HW195973   9.675   5.659   5.736
32005SOL    HW295974   9.637   5.546   5.830
32006SOL     OW95975   0.191   5.817   6.040
32006SOL    HW195976   0.212   5.858   5.956
32006SOL    HW295977   0.270   5.828   6.092
32007SOL     OW95978   9.781   6.753   6.284
32007SOL    HW195979   9.718   6.723   6.349
32007SOL    HW295980   9.739   6.733   6.200
32008SOL     OW95981   9.402   6.139   6.976
32008SOL    HW195982   9.493   6.143   6.948
32008SOL    HW295983   9.394   6.208   7.042
32009SOL     OW95984   9.871   5.793   6.759
32009SOL    HW195985   9.913   5.790   6.845
32009SOL    HW295986   9.777   5.792   6.779
32010SOL     OW95987   9.794   5.864   5.905
32010SOL    HW195988   9.814   5.800   5.837
32010SOL    HW295989   9.776   5.945   5.857
32011SOL     OW95990   9.731   6.412   6.825
32011SOL    HW195991   9.795   6.427   6.896
32011SOL    HW295992   9.700   6.323   6.839
32012SOL     OW95993   9.389   7.153   6.947
32012SOL    HW195994   9.357   7.223   6.891
32012SOL    HW295995   9.485   7.156   6.938
32013SOL     OW95996   9.634   6.701   6.047
32013SOL    HW195997   9.625   6.775   5.987
32013SOL    HW295998   9.631   6.623   5.991
32014SOL     OW95999   9.865   6.073   6.475
32014SOL    HW196000   9.860   6.146   6.413
32014SOL    HW296001   9.930   6.101   6.539
32015SOL     OW96002   9.662   7.125   6.897
32015SOL    HW196003   9.667   7.076   6.815
32015SOL    HW296004   9.753   7.135   6.924
32016SOL     OW96005   9.719   6.363   7.195
32016SOL    HW196006   9.784   6.401   7.137
32016SOL    HW296007   9.732   6.268   7.188
32017SOL     OW96008   9.803   5.672   7.282
32017SOL    HW196009   9.756   5.600   7.239
32017SOL    HW296010   9.734   5.728   7.317
32018SOL     OW96011   9.867   6.517   6.604
32018SOL    HW196012   9.850   6.610   6.621
32018SOL    HW296013   9.827   6.472   6.679
32019SOL     OW96014   9.604   5.784   6.824
32019SOL    HW196015   9.568   5.813   6.908
32019SOL    HW296016   9.587   5.690   6.822
32020SOL     OW96017   9.358   6.896   6.851
32020SOL    HW196018   9.385   6.839   6.923
32020SOL    HW296019   9.363   6.984   6.887
32021SOL     OW96020   9.607   5.650   6.220
32021SOL    HW196021   9.580   5.740   6.237
32021SOL    HW296022   9.622   5.612   6.306
32022SOL     OW96023   9.669   6.538   7.411
32022SOL    HW196024   9.713   6.616   7.378
32022SOL    HW296025   9.690   6.469   7.348
32023SOL     OW96026   9.614   6.401   6.520
32023SOL    HW196027   9.707   6.424   6.516
32023SOL    HW296028   9.613   6.310   6.552
32024SOL     OW96029   9.627   6.126   6.596
32024SOL    HW196030   9.584   6.042   6.585
32024SOL    HW296031   9.712   6.115   6.553
32025SOL     OW96032   9.313   6.889   5.767
32025SOL    HW196033   9.225   6.913   5.739
32025SOL    HW296034   9.304   6.800   5.801
32026SOL     OW96035   9.405   7.358   6.538
32026SOL    HW196036   9.374   7.284   6.486
32026SOL    HW296037   9.493   7.377   6.503
32027SOL     OW96038   9.816   7.191   6.502
32027SOL    HW196039   9.902   7.227   6.527
32027SOL    HW296040   9.836   7.127   6.433
32028SOL     OW96041   9.345   6.157   6.704
32028SOL    HW196042   9.426   6.154   6.654
32028SOL    HW296043   9.373   6.151   6.795
32029SOL     OW96044   9.486   6.123   7.337
32029SOL    HW196045   9.543   6.070   7.281
32029SOL    HW296046   9.455   6.194   7.280
32030SOL     OW96047   0.119   6.184   5.882
32030SOL    HW196048   0.135   6.203   5.975
32030SOL    HW296049   0.032   6.220   5.865
32031SOL     OW96050   9.536   7.131   7.300
32031SOL    HW196051   9.515   7.198   7.365
32031SOL    HW296052   9.559   7.054   7.352
32032SOL     OW96053   9.746   6.076   5.739
32032SOL    HW196054   9.808   6.143   5.766
32032SOL    HW296055   9.661   6.120   5.740
32033SOL     OW96056   9.432   6.730   7.063
32033SOL    HW196057   9.435   6.690   7.150
32033SOL    HW296058   9.455   6.660   7.003
32034SOL     OW96059   9.416   6.845   6.592
32034SOL    HW196060   9.390   6.862   6.682
32034SOL    HW296061   9.346   6.790   6.556
32035SOL     OW96062   9.989   7.194   7.255
32035SOL    HW196063   9.967   7.263   7.318
32035SOL    HW296064   0.083   7.182   7.264
32036SOL     OW96065   9.448   7.379   7.428
32036SOL    HW196066   9.402   7.308   7.473
32036SOL    HW296067   9.498   7.423   7.496
32037SOL     OW96068   9.546   5.905   6.296
32037SOL    HW196069   9.459   5.939   6.277
32037SOL    HW296070   9.550   5.902   6.391
32038SOL     OW96071   9.664   6.886   7.077
32038SOL    HW196072   9.652   6.968   7.029
32038SOL    HW296073   9.582   6.838   7.063
32039SOL     OW96074   9.900   7.059   6.050
32039SOL    HW196075   9.913   7.002   5.974
32039SOL    HW296076   9.838   7.125   6.020
32040SOL     OW96077   9.567   6.908   5.872
32040SOL    HW196078   9.474   6.906   5.847
32040SOL    HW296079   9.569   6.962   5.952
32041SOL     OW96080   9.418   6.619   7.311
32041SOL    HW196081   9.342   6.599   7.365
32041SOL    HW296082   9.492   6.586   7.362
32042SOL     OW96083   9.940   5.788   7.078
32042SOL    HW196084   0.009   5.722   7.075
32042SOL    HW296085   9.882   5.759   7.148
32043SOL     OW96086   9.373   5.903   5.610
32043SOL    HW196087   9.299   5.886   5.552
32043SOL    HW296088   9.403   5.991   5.586
32044SOL     OW96089   9.360   5.733   5.853
32044SOL    HW196090   9.346   5.800   5.786
32044SOL    HW296091   9.449   5.702   5.837
32045SOL     OW96092   9.917   6.454   7.021
32045SOL    HW196093   9.940   6.547   7.015
32045SOL    HW296094   9.996   6.407   6.994
32046SOL     OW96095   9.658   7.341   7.155
32046SOL    HW196096   9.574   7.383   7.139
32046SOL    HW296097   9.636   7.255   7.190
32047SOL     OW96098   9.842   6.287   6.310
32047SOL    HW196099   9.912   6.352   6.312
32047SOL    HW296100   9.795   6.304   6.228
32048SOL     OW96101   9.565   6.903   7.459
32048SOL    HW196102   9.476   6.869   7.457
32048SOL    HW296103   9.585   6.911   7.553
32049SOL     OW96104   9.432   6.805   6.243
32049SOL    HW196105   9.467   6.765   6.323
32049SOL    HW296106   9.484   6.767   6.172
32050SOL     OW96107   9.984   6.930   7.348
32050SOL    HW196108   9.909   6.876   7.325
32050SOL    HW296109   9.970   7.012   7.301
32051SOL     OW96110   9.752   6.011   6.138
32051SOL    HW196111   9.756   5.952   6.063
32051SOL    HW296112   9.683   5.974   6.193
32052SOL     OW96113   9.653   6.157   6.877
32052SOL    HW196114   9.701   6.098   6.935
32052SOL    HW296115   9.667   6.122   6.790
32053SOL     OW96116   9.342   6.635   5.892
32053SOL    HW196117   9.433   6.623   5.865
32053SOL    HW296118   9.312   6.547   5.915
32054SOL     OW96119   9.512   6.221   7.594
32054SOL    HW196120   9.427   6.202   7.633
32054SOL    HW296121   9.502   6.201   7.501
32055SOL     OW96122   9.520   5.883   8.439
32055SOL    HW196123   9.555   5.844   8.519
32055SOL    HW296124   9.434   5.841   8.428
32056SOL     OW96125   9.289   5.987   8.093
32056SOL    HW196126   9.208   6.008   8.139
32056SOL    HW296127   9.266   5.912   8.038
32057SOL     OW96128   9.827   6.782   8.556
32057SOL    HW196129   9.759   6.847   8.538
32057SOL    HW296130   9.879   6.821   8.627
32058SOL     OW96131   0.129   6.393   9.360
32058SOL    HW196132   0.207   6.447   9.344
32058SOL    HW296133   0.062   6.432   9.304
32059SOL     OW96134   9.656   7.003   8.515
32059SOL    HW196135   9.578   6.967   8.472
32059SOL    HW296136   9.694   7.061   8.449
32060SOL     OW96137   9.743   5.994   8.937
32060SOL    HW196138   9.818   5.935   8.934
32060SOL    HW296139   9.667   5.936   8.949
32061SOL     OW96140   9.529   7.310   7.914
32061SOL    HW196141   9.547   7.383   7.973
32061SOL    HW296142   9.613   7.292   7.872
32062SOL     OW96143   9.539   7.035   7.967
32062SOL    HW196144   9.517   7.128   7.977
32062SOL    HW296145   9.496   6.992   8.041
32063SOL     OW96146   9.579   6.675   8.314
32063SOL    HW196147   9.581   6.587   8.351
32063SOL    HW296148   9.532   6.728   8.379
32064SOL     OW96149   9.423   6.236   8.018
32064SOL    HW196150   9.382   6.153   8.041
32064SOL    HW296151   9.412   6.291   8.096
32065SOL     OW96152   9.362   7.162   7.563
32065SOL    HW196153   9.342   7.070   7.580
32065SOL    HW296154   9.332   7.209   7.641
32066SOL     OW96155   9.426   6.335   9.025
32066SOL    HW196156   9.509   6.381   9.035
32066SOL    HW296157   9.361   6.404   9.017
32067SOL     OW96158   9.891   7.001   8.181
32067SOL    HW196159   9.853   6.913   8.178
32067SOL    HW296160   9.900   7.027   8.089
32068SOL     OW96161   0.111   5.590   8.022
32068SOL    HW196162   0.137   5.675   7.985
32068SOL    HW296163   0.015   5.592   8.020
32069SOL     OW96164   9.491   6.541   8.741
32069SOL    HW196165   9.578   6.507   8.718
32069SOL    HW296166   9.434   6.509   8.672
32070SOL     OW96167   9.637   5.853   9.261
32070SOL    HW196168   9.678   5.915   9.322
32070SOL    HW296169   9.545   5.851   9.287
32071SOL     OW96170   9.871   6.296   7.715
32071SOL    HW196171   9.874   6.382   7.673
32071SOL    HW296172   9.808   6.306   7.786
32072SOL     OW96173   9.390   6.415   8.225
32072SOL    HW196174   9.472   6.405   8.273
32072SOL    HW296175   9.345   6.487   8.269
32073SOL     OW96176   9.413   7.471   9.039
32073SOL    HW196177   9.426   7.445   9.131
32073SOL    HW296178   9.327   7.437   9.017
32074SOL     OW96179   0.237   5.915   7.657
32074SOL    HW196180   0.243   6.010   7.671
32074SOL    HW296181   0.171   5.905   7.589
32075SOL     OW96182   9.826   5.787   8.348
32075SOL    HW196183   9.848   5.786   8.441
32075SOL    HW296184   9.833   5.879   8.323
32076SOL     OW96185   9.666   7.419   8.331
32076SOL    HW196186   9.722   7.343   8.341
32076SOL    HW296187   9.724   7.494   8.341
32077SOL     OW96188   9.595   6.517   7.681
32077SOL    HW196189   9.625   6.533   7.591
32077SOL    HW296190   9.571   6.424   7.683
32078SOL     OW96191   9.754   6.787   9.173
32078SOL    HW196192   9.729   6.814   9.085
32078SOL    HW296193   9.689   6.829   9.230
32079SOL     OW96194   9.507   5.849   8.941
32079SOL    HW196195   9.427   5.901   8.946
32079SOL    HW296196   9.483   5.764   8.979
32080SOL     OW96197   9.785   7.307   7.785
32080SOL    HW196198   9.820   7.377   7.841
32080SOL    HW296199   9.856   7.288   7.724
32081SOL     OW96200   9.563   7.379   8.669
32081SOL    HW196201   9.611   7.306   8.708
32081SOL    HW296202   9.554   7.355   8.577
32082SOL     OW96203   9.694   6.270   7.931
32082SOL    HW196204   9.719   6.180   7.952
32082SOL    HW296205   9.600   6.273   7.949
32083SOL     OW96206   9.848   5.696   7.557
32083SOL    HW196207   9.931   5.672   7.599
32083SOL    HW296208   9.860   5.674   7.465
32084SOL     OW96209   0.141   7.019   8.300
32084SOL    HW196210   0.181   6.948   8.250
32084SOL    HW296211   0.050   7.020   8.271
32085SOL     OW96212   9.846   5.659   7.948
32085SOL    HW196213   9.767   5.658   8.003
32085SOL    HW296214   9.834   5.735   7.891
32086SOL     OW96215   9.599   5.615   7.637
32086SOL    HW196216   9.674   5.659   7.598
32086SOL    HW296217   9.637   5.546   7.692
32087SOL     OW96218   0.191   5.820   7.902
32087SOL    HW196219   0.210   5.859   7.816
32087SOL    HW296220   0.269   5.837   7.954
32088SOL     OW96221   9.781   6.752   8.146
32088SOL    HW196222   9.718   6.723   8.211
32088SOL    HW296223   9.739   6.733   8.062
32089SOL     OW96224   9.401   6.140   8.837
32089SOL    HW196225   9.493   6.143   8.809
32089SOL    HW296226   9.393   6.210   8.902
32090SOL     OW96227   9.870   5.791   8.619
32090SOL    HW196228   9.912   5.785   8.705
32090SOL    HW296229   9.776   5.792   8.638
32091SOL     OW96230   9.795   5.864   7.767
32091SOL    HW196231   9.815   5.800   7.699
32091SOL    HW296232   9.776   5.945   7.719
32092SOL     OW96233   9.731   6.412   8.687
32092SOL    HW196234   9.794   6.426   8.757
32092SOL    HW296235   9.699   6.323   8.700
32093SOL     OW96236   9.389   7.153   8.809
32093SOL    HW196237   9.356   7.223   8.752
32093SOL    HW296238   9.484   7.157   8.799
32094SOL     OW96239   9.634   6.700   7.909
32094SOL    HW196240   9.625   6.775   7.849
32094SOL    HW296241   9.631   6.623   7.853
32095SOL     OW96242   9.864   6.074   8.339
32095SOL    HW196243   9.861   6.146   8.276
32095SOL    HW296244   9.930   6.102   8.403
32096SOL     OW96245   9.661   7.125   8.758
32096SOL    HW196246   9.666   7.076   8.677
32096SOL    HW296247   9.752   7.135   8.785
32097SOL     OW96248   9.720   6.366   9.060
32097SOL    HW196249   9.785   6.402   9.000
32097SOL    HW296250   9.731   6.271   9.053
32098SOL     OW96251   9.802   5.670   9.144
32098SOL    HW196252   9.755   5.598   9.102
32098SOL    HW296253   9.733   5.726   9.179
32099SOL     OW96254   9.869   6.517   8.467
32099SOL    HW196255   9.850   6.610   8.484
32099SOL    HW296256   9.827   6.471   8.540
32100SOL     OW96257   9.604   5.785   8.686
32100SOL    HW196258   9.567   5.814   8.770
32100SOL    HW296259   9.587   5.690   8.684
32101SOL     OW96260   9.360   6.896   8.713
32101SOL    HW196261   9.385   6.838   8.786
32101SOL    HW296262   9.363   6.984   8.750
32102SOL     OW96263   9.607   5.650   8.081
32102SOL    HW196264   9.580   5.741   8.098
32102SOL    HW296265   9.622   5.613   8.168
32103SOL     OW96266   9.674   6.539   9.279
32103SOL    HW196267   9.714   6.618   9.243
32103SOL    HW296268   9.691   6.471   9.213
32104SOL     OW96269   9.614   6.400   8.381
32104SOL    HW196270   9.707   6.422   8.374
32104SOL    HW296271   9.613   6.310   8.413
32105SOL     OW96272   9.626   6.126   8.458
32105SOL    HW196273   9.583   6.041   8.447
32105SOL    HW296274   9.711   6.116   8.415
32106SOL     OW96275   9.313   6.889   7.629
32106SOL    HW196276   9.225   6.913   7.601
32106SOL    HW296277   9.304   6.800   7.663
32107SOL     OW96278   9.407   7.357   8.400
32107SOL    HW196279   9.375   7.284   8.348
32107SOL    HW296280   9.493   7.377   8.365
32108SOL     OW96281   9.815   7.191   8.363
32108SOL    HW196282   9.901   7.227   8.388
32108SOL    HW296283   9.835   7.127   8.295
32109SOL     OW96284   9.345   6.156   8.565
32109SOL    HW196285   9.426   6.154   8.515
32109SOL    HW296286   9.373   6.151   8.656
32110SOL     OW96287   9.480   6.117   9.185
32110SOL    HW196288   9.538   6.066   9.128
32110SOL    HW296289   9.452   6.190   9.131
32111SOL     OW96290   0.119   6.185   7.744
32111SOL    HW196291   0.135   6.204   7.837
32111SOL    HW296292   0.032   6.221   7.727
32112SOL     OW96293   9.535   7.132   9.164
32112SOL    HW196294   9.516   7.203   9.226
32112SOL    HW296295   9.558   7.058   9.220
32113SOL     OW96296   9.745   6.076   7.601
32113SOL    HW196297   9.808   6.143   7.629
32113SOL    HW296298   9.661   6.120   7.602
32114SOL     OW96299   9.433   6.729   8.927
32114SOL    HW196300   9.435   6.688   9.013
32114SOL    HW296301   9.454   6.659   8.865
32115SOL     OW96302   9.417   6.845   8.454
32115SOL    HW196303   9.391   6.862   8.545
32115SOL    HW296304   9.346   6.791   8.419
32116SOL     OW96305   9.993   7.193   9.114
32116SOL    HW196306   9.967   7.258   9.180
32116SOL    HW296307   0.087   7.181   9.128
32117SOL     OW96308   9.454   7.377   9.290
32117SOL    HW196309   9.406   7.311   9.340
32117SOL    HW296310   9.502   7.426   9.357
32118SOL     OW96311   9.547   5.906   8.158
32118SOL    HW196312   9.459   5.939   8.138
32118SOL    HW296313   9.551   5.902   8.253
32119SOL     OW96314   9.663   6.887   8.940
32119SOL    HW196315   9.651   6.968   8.891
32119SOL    HW296316   9.581   6.838   8.927
32120SOL     OW96317   9.900   7.059   7.912
32120SOL    HW196318   9.914   7.002   7.836
32120SOL    HW296319   9.839   7.125   7.881
32121SOL     OW96320   9.567   6.908   7.734
32121SOL    HW196321   9.474   6.906   7.710
32121SOL    HW296322   9.569   6.962   7.814
32122SOL     OW96323   9.421   6.614   9.173
32122SOL    HW196324   9.344   6.598   9.226
32122SOL    HW296325   9.495   6.585   9.228
32123SOL     OW96326   9.934   5.785   8.937
32123SOL    HW196327   0.003   5.719   8.934
32123SOL    HW296328   9.876   5.756   9.008
32124SOL     OW96329   9.373   5.903   7.472
32124SOL    HW196330   9.299   5.886   7.413
32124SOL    HW296331   9.403   5.991   7.448
32125SOL     OW96332   9.360   5.733   7.715
32125SOL    HW196333   9.346   5.800   7.647
32125SOL    HW296334   9.449   5.702   7.699
32126SOL     OW96335   9.917   6.454   8.882
32126SOL    HW196336   9.937   6.546   8.871
32126SOL    HW296337   9.998   6.408   8.859
32127SOL     OW96338   9.659   7.339   9.016
32127SOL    HW196339   9.575   7.382   9.000
32127SOL    HW296340   9.635   7.253   9.051
32128SOL     OW96341   9.841   6.287   8.173
32128SOL    HW196342   9.912   6.352   8.175
32128SOL    HW296343   9.795   6.305   8.091
32129SOL     OW96344   9.565   6.907   9.328
32129SOL    HW196345   9.473   6.880   9.326
32129SOL    HW296346   9.587   6.911   9.421
32130SOL     OW96347   9.432   6.805   8.106
32130SOL    HW196348   9.467   6.765   8.185
32130SOL    HW296349   9.484   6.768   8.035
32131SOL     OW96350   9.996   6.915   9.151
32131SOL    HW196351   9.911   6.872   9.154
32131SOL    HW296352   9.977   7.003   9.119
32132SOL     OW96353   9.754   6.010   8.002
32132SOL    HW196354   9.757   5.952   7.925
32132SOL    HW296355   9.685   5.974   8.056
32133SOL     OW96356   9.653   6.157   8.739
32133SOL    HW196357   9.700   6.098   8.797
32133SOL    HW296358   9.667   6.121   8.651
32134SOL     OW96359   9.341   6.635   7.754
32134SOL    HW196360   9.433   6.623   7.727
32134SOL    HW296361   9.312   6.547   7.777
32135SOL     OW96362   9.514   6.184   9.446
32135SOL    HW196363   9.426   6.178   9.484
32135SOL    HW296364   9.499   6.177   9.352
32136SOL     OW96365   9.517   7.320   9.765
32136SOL    HW196366   9.532   7.390   9.829
32136SOL    HW296367   9.602   7.304   9.726
32137SOL     OW96368   9.565   7.046   9.834
32137SOL    HW196369   9.527   7.133   9.850
32137SOL    HW296370   9.501   6.985   9.870
32138SOL     OW96371   9.368   6.266   9.880
32138SOL    HW196372   9.282   6.230   9.858
32138SOL    HW296373   9.349   6.341   9.937
32139SOL     OW96374   9.355   7.175   9.435
32139SOL    HW196375   9.339   7.082   9.449
32139SOL    HW296376   9.317   7.218   9.512
32140SOL     OW96377   0.103   5.613   9.865
32140SOL    HW196378   0.144   5.693   9.834
32140SOL    HW296379   0.009   5.628   9.853
32141SOL     OW96380   9.859   6.307   9.569
32141SOL    HW196381   9.875   6.397   9.541
32141SOL    HW296382   9.791   6.314   9.637
32142SOL     OW96383   9.357   6.468   0.072
32142SOL    HW196384   9.425   6.417   0.115
32142SOL    HW296385   9.336   6.537   0.134
32143SOL     OW96386   0.169   5.955   9.524
32143SOL    HW196387   0.218   6.027   9.484
32143SOL    HW296388   0.128   5.910   9.450
32144SOL     OW96389   9.618   7.444   0.194
32144SOL    HW196390   9.634   7.359   0.235
32144SOL    HW296391   9.705   7.478   0.174
32145SOL     OW96392   9.618   6.535   9.557
32145SOL    HW196393   9.641   6.536   9.464
32145SOL    HW296394   9.558   6.461   9.566
32146SOL     OW96395   9.770   7.328   9.646
32146SOL    HW196396   9.816   7.389   9.703
32146SOL    HW296397   9.838   7.290   9.591
32147SOL     OW96398   9.671   6.286   9.782
32147SOL    HW196399   9.682   6.192   9.802
32147SOL    HW296400   9.576   6.300   9.786
32148SOL     OW96401   9.851   5.703   9.418
32148SOL    HW196402   9.934   5.680   9.459
32148SOL    HW296403   9.860   5.675   9.327
32149SOL     OW96404   9.828   5.678   9.828
32149SOL    HW196405   9.739   5.673   9.862
32149SOL    HW296406   9.826   5.750   9.764
32150SOL     OW96407   9.597   5.629   9.496
32150SOL    HW196408   9.672   5.674   9.457
32150SOL    HW296409   9.636   5.562   9.552
32151SOL     OW96410   0.244   5.820   9.747
32151SOL    HW196411   0.213   5.883   9.682
32151SOL    HW296412   0.339   5.822   9.739
32152SOL     OW96413   9.715   6.701   0.075
32152SOL    HW196414   9.680   6.782   0.112
32152SOL    HW296415   9.702   6.710   9.981
32153SOL     OW96416   9.806   5.871   9.634
32153SOL    HW196417   9.825   5.806   9.566
32153SOL    HW296418   9.787   5.951   9.585
32154SOL     OW96419   9.645   6.701   9.795
32154SOL    HW196420   9.631   6.779   9.741
32154SOL    HW296421   9.653   6.629   9.731
32155SOL     OW96422   9.572   5.665   9.937
32155SOL    HW196423   9.509   5.736   9.949
32155SOL    HW296424   9.581   5.625   0.023
32156SOL     OW96425   9.314   6.903   9.484
32156SOL    HW196426   9.225   6.924   9.455
32156SOL    HW296427   9.308   6.815   9.519
32157SOL     OW96428   0.078   6.172   9.663
32157SOL    HW196429   0.091   6.092   9.611
32157SOL    HW296430   0.006   6.217   9.620
32158SOL     OW96431   9.757   6.075   9.460
32158SOL    HW196432   9.810   6.150   9.484
32158SOL    HW296433   9.667   6.108   9.458
32159SOL     OW96434   9.937   7.075   9.747
32159SOL    HW196435   9.932   6.982   9.768
32159SOL    HW296436   9.853   7.112   9.777
32160SOL     OW96437   9.568   6.907   9.604
32160SOL    HW196438   9.476   6.912   9.581
32160SOL    HW296439   9.578   6.967   9.679
32161SOL     OW96440   9.370   5.900   9.330
32161SOL    HW196441   9.297   5.884   9.270
32161SOL    HW296442   9.401   5.987   9.306
32162SOL     OW96443   9.355   5.739   9.571
32162SOL    HW196444   9.343   5.803   9.501
32162SOL    HW296445   9.444   5.706   9.560
32163SOL     OW96446   9.889   6.334   9.953
32163SOL    HW196447   9.901   6.424   9.981
32163SOL    HW296448   9.810   6.336   9.899
32164SOL     OW96449   9.400   6.838   9.906
32164SOL    HW196450   9.375   6.843   9.999
32164SOL    HW296451   9.452   6.757   9.901
32165SOL     OW96452   9.699   6.024   9.851
32165SOL    HW196453   9.738   5.964   9.788
32165SOL    HW296454   9.750   6.011   9.931
32166SOL     OW96455   9.360   6.661   9.607
32166SOL    HW196456   9.456   6.668   9.600
32166SOL    HW296457   9.343   6.567   9.606
32167SOL     OW96458   9.510   8.055   0.116
32167SOL    HW196459   9.430   8.036   0.165
32167SOL    HW296460   9.481   8.068   0.026
32168SOL     OW96461   9.520   7.745   0.991
32168SOL    HW196462   9.555   7.706   1.071
32168SOL    HW296463   9.434   7.703   0.980
32169SOL     OW96464   9.288   7.849   0.646
32169SOL    HW196465   9.206   7.868   0.691
32169SOL    HW296466   9.269   7.772   0.593
32170SOL     OW96467   9.825   8.645   1.110
32170SOL    HW196468   9.757   8.710   1.091
32170SOL    HW296469   9.877   8.684   1.181
32171SOL     OW96470   0.090   8.291   1.920
32171SOL    HW196471   0.179   8.314   1.947
32171SOL    HW296472   0.099   8.252   1.833
32172SOL     OW96473   9.654   8.865   1.067
32172SOL    HW196474   9.575   8.830   1.025
32172SOL    HW296475   9.694   8.921   1.000
32173SOL     OW96476   9.744   7.857   1.491
32173SOL    HW196477   9.820   7.799   1.488
32173SOL    HW296478   9.670   7.798   1.502
32174SOL     OW96479   9.539   9.159   0.470
32174SOL    HW196480   9.552   9.236   0.526
32174SOL    HW296481   9.626   9.141   0.434
32175SOL     OW96482   9.533   8.881   0.489
32175SOL    HW196483   9.522   8.975   0.501
32175SOL    HW296484   9.494   8.842   0.567
32176SOL     OW96485   9.571   8.534   0.875
32176SOL    HW196486   9.576   8.446   0.913
32176SOL    HW296487   9.525   8.586   0.940
32177SOL     OW96488   9.419   8.097   0.570
32177SOL    HW196489   9.380   8.014   0.596
32177SOL    HW296490   9.410   8.153   0.648
32178SOL     OW96491   9.371   9.024   0.087
32178SOL    HW196492   9.353   8.935   0.115
32178SOL    HW296493   9.347   9.079   0.161
32179SOL     OW96494   9.429   8.194   1.580
32179SOL    HW196495   9.514   8.237   1.586
32179SOL    HW296496   9.367   8.267   1.572
32180SOL     OW96497   9.900   8.850   0.748
32180SOL    HW196498   9.859   8.764   0.748
32180SOL    HW296499   9.907   8.874   0.655
32181SOL     OW96500   0.113   7.464   0.545
32181SOL    HW196501   0.139   7.547   0.505
32181SOL    HW296502   0.018   7.464   0.540
32182SOL     OW96503   9.491   8.404   1.292
32182SOL    HW196504   9.578   8.370   1.271
32182SOL    HW296505   9.434   8.366   1.224
32183SOL     OW96506   9.638   7.718   1.814
32183SOL    HW196507   9.678   7.780   1.876
32183SOL    HW296508   9.546   7.714   1.841
32184SOL     OW96509   9.872   8.169   0.285
32184SOL    HW196510   9.898   8.261   0.285
32184SOL    HW296511   9.810   8.161   0.357
32185SOL     OW96512   9.390   8.281   0.776
32185SOL    HW196513   9.473   8.267   0.822
32185SOL    HW296514   9.349   8.354   0.822
32186SOL     OW96515   9.414   9.322   1.587
32186SOL    HW196516   9.427   9.302   1.680
32186SOL    HW296517   9.331   9.279   1.565
32187SOL     OW96518   0.239   7.750   0.179
32187SOL    HW196519   0.310   7.813   0.164
32187SOL    HW296520   0.165   7.785   0.129
32188SOL     OW96521   9.823   7.648   0.904
32188SOL    HW196522   9.847   7.647   0.997
32188SOL    HW296523   9.832   7.740   0.879
32189SOL     OW96524   9.662   9.265   0.881
32189SOL    HW196525   9.721   9.190   0.891
32189SOL    HW296526   9.719   9.341   0.894
32190SOL     OW96527   9.610   8.395   0.264
32190SOL    HW196528   9.654   8.445   0.195
32190SOL    HW296529   9.642   8.306   0.252
32191SOL     OW96530   9.754   8.642   1.722
32191SOL    HW196531   9.734   8.671   1.633
32191SOL    HW296532   9.689   8.685   1.777
32192SOL     OW96533   9.509   7.710   1.493
32192SOL    HW196534   9.431   7.764   1.502
32192SOL    HW296535   9.483   7.625   1.530
32193SOL     OW96536   9.796   9.144   0.365
32193SOL    HW196537   9.825   9.228   0.401
32193SOL    HW296538   9.862   9.121   0.300
32194SOL     OW96539   9.565   9.236   1.219
32194SOL    HW196540   9.613   9.166   1.264
32194SOL    HW296541   9.565   9.209   1.127
32195SOL     OW96542   9.689   8.132   0.482
32195SOL    HW196543   9.713   8.041   0.503
32195SOL    HW296544   9.596   8.137   0.503
32196SOL     OW96545   9.857   7.543   0.116
32196SOL    HW196546   9.944   7.525   0.150
32196SOL    HW296547   9.869   7.547   0.021
32197SOL     OW96548   0.155   8.895   0.843
32197SOL    HW196549   0.202   8.878   0.761
32197SOL    HW296550   0.065   8.868   0.825
32198SOL     OW96551   9.842   7.514   0.487
32198SOL    HW196552   9.765   7.515   0.543
32198SOL    HW296553   9.832   7.591   0.431
32199SOL     OW96554   0.204   7.700   0.447
32199SOL    HW196555   0.210   7.731   0.357
32199SOL    HW296556   0.296   7.692   0.475
32200SOL     OW96557   9.774   8.614   0.716
32200SOL    HW196558   9.710   8.582   0.779
32200SOL    HW296559   9.736   8.595   0.630
32201SOL     OW96560   9.401   8.002   1.389
32201SOL    HW196561   9.493   8.004   1.362
32201SOL    HW296562   9.395   8.071   1.456
32202SOL     OW96563   9.870   7.655   1.175
32202SOL    HW196564   9.913   7.653   1.260
32202SOL    HW296565   9.776   7.654   1.194
32203SOL     OW96566   9.788   7.725   0.308
32203SOL    HW196567   9.810   7.659   0.242
32203SOL    HW296568   9.783   7.807   0.259
32204SOL     OW96569   9.730   8.275   1.241
32204SOL    HW196570   9.794   8.289   1.310
32204SOL    HW296571   9.700   8.185   1.254
32205SOL     OW96572   9.390   9.015   1.361
32205SOL    HW196573   9.360   9.085   1.304
32205SOL    HW296574   9.486   9.017   1.353
32206SOL     OW96575   9.625   8.570   0.481
32206SOL    HW196576   9.630   8.642   0.418
32206SOL    HW296577   9.628   8.491   0.427
32207SOL     OW96578   9.865   7.933   0.887
32207SOL    HW196579   9.859   8.006   0.826
32207SOL    HW296580   9.929   7.960   0.952
32208SOL     OW96581   9.663   8.984   1.313
32208SOL    HW196582   9.667   8.936   1.231
32208SOL    HW296583   9.754   8.992   1.341
32209SOL     OW96584   9.719   8.223   1.608
32209SOL    HW196585   9.785   8.263   1.551
32209SOL    HW296586   9.735   8.129   1.602
32210SOL     OW96587   9.803   7.534   1.694
32210SOL    HW196588   9.755   7.462   1.652
32210SOL    HW296589   9.734   7.590   1.730
32211SOL     OW96590   9.866   8.379   1.019
32211SOL    HW196591   9.850   8.472   1.036
32211SOL    HW296592   9.826   8.334   1.093
32212SOL     OW96593   9.603   7.646   1.238
32212SOL    HW196594   9.567   7.675   1.322
32212SOL    HW296595   9.586   7.551   1.236
32213SOL     OW96596   9.354   8.759   1.266
32213SOL    HW196597   9.382   8.701   1.338
32213SOL    HW296598   9.361   8.847   1.303
32214SOL     OW96599   9.606   7.510   0.630
32214SOL    HW196600   9.580   7.600   0.648
32214SOL    HW296601   9.624   7.472   0.716
32215SOL     OW96602   9.668   8.398   1.825
32215SOL    HW196603   9.711   8.476   1.792
32215SOL    HW296604   9.689   8.330   1.762
32216SOL     OW96605   9.613   8.260   0.935
32216SOL    HW196606   9.705   8.283   0.927
32216SOL    HW296607   9.613   8.169   0.966
32217SOL     OW96608   9.628   7.987   1.010
32217SOL    HW196609   9.584   7.903   0.999
32217SOL    HW296610   9.713   7.977   0.966
32218SOL     OW96611   9.330   8.737   0.170
32218SOL    HW196612   9.241   8.766   0.155
32218SOL    HW296613   9.322   8.660   0.226
32219SOL     OW96614   9.400   9.220   0.948
32219SOL    HW196615   9.368   9.145   0.898
32219SOL    HW296616   9.489   9.234   0.915
32220SOL     OW96617   9.831   9.051   0.920
32220SOL    HW196618   9.915   9.087   0.949
32220SOL    HW296619   9.854   8.983   0.857
32221SOL     OW96620   9.347   8.020   1.117
32221SOL    HW196621   9.428   8.016   1.067
32221SOL    HW296622   9.374   8.014   1.209
32222SOL     OW96623   9.486   7.985   1.752
32222SOL    HW196624   9.546   7.933   1.698
32222SOL    HW296625   9.456   8.055   1.694
32223SOL     OW96626   0.106   8.027   0.319
32223SOL    HW196627   0.126   8.042   0.411
32223SOL    HW296628   0.018   8.064   0.307
32224SOL     OW96629   9.536   8.992   1.714
32224SOL    HW196630   9.516   9.059   1.780
32224SOL    HW296631   9.560   8.915   1.765
32225SOL     OW96632   9.778   7.949   0.139
32225SOL    HW196633   9.822   8.026   0.174
32225SOL    HW296634   9.687   7.976   0.128
32226SOL     OW96635   9.431   8.592   1.477
32226SOL    HW196636   9.434   8.551   1.563
32226SOL    HW296637   9.454   8.522   1.415
32227SOL     OW96638   9.411   8.713   1.007
32227SOL    HW196639   9.385   8.728   1.098
32227SOL    HW296640   9.342   8.656   0.971
32228SOL     OW96641   9.968   9.040   1.683
32228SOL    HW196642   9.968   9.117   1.740
32228SOL    HW296643   0.057   9.038   1.647
32229SOL     OW96644   9.450   9.242   1.843
32229SOL    HW196645   9.404   9.171   1.888
32229SOL    HW296646   9.503   9.284   1.911
32230SOL     OW96647   9.547   7.765   0.709
32230SOL    HW196648   9.459   7.800   0.692
32230SOL    HW296649   9.553   7.762   0.804
32231SOL     OW96650   9.664   8.746   1.490
32231SOL    HW196651   9.652   8.829   1.444
32231SOL    HW296652   9.581   8.699   1.477
32232SOL     OW96653   9.930   8.907   0.481
32232SOL    HW196654   9.938   8.855   0.401
32232SOL    HW296655   9.880   8.984   0.454
32233SOL     OW96656   9.594   8.752   0.259
32233SOL    HW196657   9.508   8.758   0.218
32233SOL    HW296658   9.589   8.810   0.335
32234SOL     OW96659   9.417   8.478   1.723
32234SOL    HW196660   9.341   8.460   1.778
32234SOL    HW296661   9.492   8.447   1.775
32235SOL     OW96662   9.940   7.650   1.490
32235SOL    HW196663   0.010   7.585   1.487
32235SOL    HW296664   9.882   7.621   1.561
32236SOL     OW96665   9.392   7.727   0.012
32236SOL    HW196666   9.300   7.740   9.988
32236SOL    HW296667   9.436   7.806   9.983
32237SOL     OW96668   9.388   7.580   0.275
32237SOL    HW196669   9.380   7.643   0.203
32237SOL    HW296670   9.475   7.542   0.264
32238SOL     OW96671   9.917   8.317   1.435
32238SOL    HW196672   9.939   8.410   1.429
32238SOL    HW296673   9.997   8.272   1.409
32239SOL     OW96674   9.664   9.199   1.566
32239SOL    HW196675   9.579   9.241   1.554
32239SOL    HW296676   9.643   9.113   1.603
32240SOL     OW96677   9.837   8.149   0.727
32240SOL    HW196678   9.911   8.210   0.734
32240SOL    HW296679   9.796   8.170   0.643
32241SOL     OW96680   9.565   8.764   1.874
32241SOL    HW196681   9.475   8.732   1.874
32241SOL    HW296682   9.588   8.773   1.966
32242SOL     OW96683   9.434   8.667   0.662
32242SOL    HW196684   9.464   8.628   0.743
32242SOL    HW296685   9.492   8.631   0.595
32243SOL     OW96686   9.979   8.784   1.781
32243SOL    HW196687   9.906   8.730   1.749
32243SOL    HW296688   9.965   8.869   1.738
32244SOL     OW96689   9.745   7.872   0.542
32244SOL    HW196690   9.751   7.812   0.468
32244SOL    HW296691   9.680   7.833   0.600
32245SOL     OW96692   9.653   8.018   1.291
32245SOL    HW196693   9.701   7.960   1.350
32245SOL    HW296694   9.669   7.983   1.204
32246SOL     OW96695   9.346   8.491   0.305
32246SOL    HW196696   9.441   8.489   0.306
32246SOL    HW296697   9.320   8.403   0.334
32247SOL     OW96698   9.512   8.082   2.009
32247SOL    HW196699   9.426   8.064   2.047
32247SOL    HW296700   9.502   8.062   1.916
32248SOL     OW96701   9.520   7.745   2.853
32248SOL    HW196702   9.555   7.707   2.933
32248SOL    HW296703   9.434   7.704   2.842
32249SOL     OW96704   9.289   7.849   2.507
32249SOL    HW196705   9.208   7.870   2.553
32249SOL    HW296706   9.266   7.774   2.452
32250SOL     OW96707   9.827   8.645   2.970
32250SOL    HW196708   9.759   8.709   2.953
32250SOL    HW296709   9.879   8.683   3.041
32251SOL     OW96710   0.089   8.293   3.784
32251SOL    HW196711   0.177   8.316   3.816
32251SOL    HW296712   0.105   8.252   3.699
32252SOL     OW96713   9.655   8.864   2.930
32252SOL    HW196714   9.577   8.828   2.888
32252SOL    HW296715   9.694   8.920   2.863
32253SOL     OW96716   9.745   7.856   3.352
32253SOL    HW196717   9.821   7.798   3.350
32253SOL    HW296718   9.670   7.798   3.364
32254SOL     OW96719   9.527   9.173   2.329
32254SOL    HW196720   9.547   9.245   2.388
32254SOL    HW296721   9.610   9.155   2.284
32255SOL     OW96722   9.538   8.898   2.381
32255SOL    HW196723   9.516   8.991   2.392
32255SOL    HW296724   9.495   8.855   2.455
32256SOL     OW96725   9.579   8.538   2.728
32256SOL    HW196726   9.581   8.449   2.765
32256SOL    HW296727   9.532   8.590   2.793
32257SOL     OW96728   9.422   8.100   2.432
32257SOL    HW196729   9.382   8.016   2.455
32257SOL    HW296730   9.412   8.153   2.510
32258SOL     OW96731   9.361   9.024   1.975
32258SOL    HW196732   9.343   8.932   1.992
32258SOL    HW296733   9.331   9.070   2.053
32259SOL     OW96734   9.428   8.195   3.442
32259SOL    HW196735   9.513   8.238   3.448
32259SOL    HW296736   9.365   8.266   3.433
32260SOL     OW96737   9.892   8.864   2.596
32260SOL    HW196738   9.854   8.776   2.593
32260SOL    HW296739   9.901   8.890   2.504
32261SOL     OW96740   0.107   7.449   2.435
32261SOL    HW196741   0.136   7.533   2.400
32261SOL    HW296742   0.011   7.453   2.431
32262SOL     OW96743   9.492   8.403   3.154
32262SOL    HW196744   9.579   8.369   3.133
32262SOL    HW296745   9.435   8.369   3.086
32263SOL     OW96746   9.638   7.719   3.676
32263SOL    HW196747   9.678   7.780   3.738
32263SOL    HW296748   9.546   7.714   3.702
32264SOL     OW96749   9.871   8.157   2.128
32264SOL    HW196750   9.876   8.243   2.087
32264SOL    HW296751   9.808   8.169   2.199
32265SOL     OW96752   9.390   8.278   2.639
32265SOL    HW196753   9.472   8.267   2.686
32265SOL    HW296754   9.346   8.350   2.684
32266SOL     OW96755   9.414   9.323   3.449
32266SOL    HW196756   9.427   9.302   3.542
32266SOL    HW296757   9.331   9.280   3.426
32267SOL     OW96758   0.240   7.775   2.072
32267SOL    HW196759   0.248   7.870   2.084
32267SOL    HW296760   0.173   7.766   2.004
32268SOL     OW96761   9.825   7.649   2.766
32268SOL    HW196762   9.848   7.648   2.859
32268SOL    HW296763   9.832   7.741   2.740
32269SOL     OW96764   9.661   9.268   2.747
32269SOL    HW196765   9.720   9.193   2.756
32269SOL    HW296766   9.718   9.344   2.759
32270SOL     OW96767   9.594   8.379   2.095
32270SOL    HW196768   9.624   8.394   2.006
32270SOL    HW296769   9.572   8.286   2.098
32271SOL     OW96770   9.754   8.642   3.583
32271SOL    HW196771   9.734   8.671   3.495
32271SOL    HW296772   9.689   8.685   3.639
32272SOL     OW96773   9.509   7.710   3.355
32272SOL    HW196774   9.431   7.764   3.362
32272SOL    HW296775   9.483   7.626   3.392
32273SOL     OW96776   9.779   9.168   2.195
32273SOL    HW196777   9.811   9.242   2.246
32273SOL    HW296778   9.853   9.142   2.141
32274SOL     OW96779   9.565   9.236   3.081
32274SOL    HW196780   9.612   9.166   3.125
32274SOL    HW296781   9.564   9.210   2.989
32275SOL     OW96782   9.693   8.133   2.344
32275SOL    HW196783   9.718   8.043   2.365
32275SOL    HW296784   9.599   8.137   2.362
32276SOL     OW96785   9.848   7.559   1.970
32276SOL    HW196786   9.930   7.535   2.012
32276SOL    HW296787   9.861   7.537   1.878
32277SOL     OW96788   0.141   8.886   2.714
32277SOL    HW196789   0.183   8.815   2.665
32277SOL    HW296790   0.050   8.885   2.682
32278SOL     OW96791   9.844   7.521   2.361
32278SOL    HW196792   9.766   7.520   2.416
32278SOL    HW296793   9.832   7.597   2.305
32279SOL     OW96794   9.600   7.476   2.051
32279SOL    HW196795   9.675   7.521   2.012
32279SOL    HW296796   9.638   7.407   2.106
32280SOL     OW96797   0.191   7.678   2.316
32280SOL    HW196798   0.212   7.720   2.232
32280SOL    HW296799   0.271   7.688   2.368
32281SOL     OW96800   9.780   8.616   2.560
32281SOL    HW196801   9.717   8.586   2.626
32281SOL    HW296802   9.739   8.596   2.476
32282SOL     OW96803   9.401   8.002   3.252
32282SOL    HW196804   9.493   8.005   3.224
32282SOL    HW296805   9.394   8.071   3.318
32283SOL     OW96806   9.870   7.655   3.036
32283SOL    HW196807   9.913   7.652   3.122
32283SOL    HW296808   9.777   7.654   3.056
32284SOL     OW96809   9.794   7.726   2.181
32284SOL    HW196810   9.814   7.662   2.113
32284SOL    HW296811   9.776   7.807   2.133
32285SOL     OW96812   9.732   8.274   3.102
32285SOL    HW196813   9.795   8.289   3.172
32285SOL    HW296814   9.701   8.185   3.116
32286SOL     OW96815   9.390   9.015   3.223
32286SOL    HW196816   9.359   9.085   3.166
32286SOL    HW296817   9.485   9.017   3.215
32287SOL     OW96818   9.633   8.563   2.324
32287SOL    HW196819   9.625   8.637   2.264
32287SOL    HW296820   9.631   8.486   2.267
32288SOL     OW96821   9.865   7.935   2.750
32288SOL    HW196822   9.859   8.009   2.689
32288SOL    HW296823   9.929   7.963   2.815
32289SOL     OW96824   9.662   8.985   3.175
32289SOL    HW196825   9.667   8.936   3.093
32289SOL    HW296826   9.753   8.993   3.203
32290SOL     OW96827   9.718   8.224   3.471
32290SOL    HW196828   9.784   8.263   3.414
32290SOL    HW296829   9.734   8.130   3.464
32291SOL     OW96830   9.803   7.534   3.556
32291SOL    HW196831   9.755   7.462   3.514
32291SOL    HW296832   9.734   7.590   3.592
32292SOL     OW96833   9.867   8.379   2.881
32292SOL    HW196834   9.850   8.472   2.898
32292SOL    HW296835   9.828   8.333   2.955
32293SOL     OW96836   9.603   7.646   3.100
32293SOL    HW196837   9.568   7.675   3.184
32293SOL    HW296838   9.586   7.552   3.098
32294SOL     OW96839   9.357   8.759   3.127
32294SOL    HW196840   9.384   8.701   3.199
32294SOL    HW296841   9.362   8.847   3.164
32295SOL     OW96842   9.606   7.512   2.496
32295SOL    HW196843   9.579   7.602   2.514
32295SOL    HW296844   9.622   7.474   2.583
32296SOL     OW96845   9.668   8.398   3.688
32296SOL    HW196846   9.711   8.477   3.654
32296SOL    HW296847   9.689   8.330   3.624
32297SOL     OW96848   9.614   8.263   2.796
32297SOL    HW196849   9.707   8.286   2.791
32297SOL    HW296850   9.613   8.172   2.827
32298SOL     OW96851   9.627   7.988   2.872
32298SOL    HW196852   9.584   7.904   2.861
32298SOL    HW296853   9.712   7.978   2.828
32299SOL     OW96854   9.313   8.750   2.041
32299SOL    HW196855   9.225   8.775   2.014
32299SOL    HW296856   9.304   8.661   2.076
32300SOL     OW96857   9.399   9.220   2.810
32300SOL    HW196858   9.368   9.145   2.759
32300SOL    HW296859   9.488   9.235   2.778
32301SOL     OW96860   9.827   9.052   2.783
32301SOL    HW196861   9.913   9.085   2.811
32301SOL    HW296862   9.847   8.990   2.713
32302SOL     OW96863   9.346   8.020   2.980
32302SOL    HW196864   9.427   8.016   2.929
32302SOL    HW296865   9.373   8.014   3.071
32303SOL     OW96866   9.486   7.985   3.614
32303SOL    HW196867   9.544   7.933   3.559
32303SOL    HW296868   9.455   8.055   3.556
32304SOL     OW96869   0.119   8.047   2.159
32304SOL    HW196870   0.134   8.066   2.252
32304SOL    HW296871   0.032   8.082   2.141
32305SOL     OW96872   9.536   8.992   3.576
32305SOL    HW196873   9.516   9.058   3.642
32305SOL    HW296874   9.560   8.914   3.627
32306SOL     OW96875   9.745   7.937   2.014
32306SOL    HW196876   9.808   8.004   2.042
32306SOL    HW296877   9.661   7.982   2.016
32307SOL     OW96878   9.432   8.592   3.339
32307SOL    HW196879   9.434   8.551   3.425
32307SOL    HW296880   9.454   8.522   3.278
32308SOL     OW96881   9.416   8.708   2.868
32308SOL    HW196882   9.390   8.724   2.959
32308SOL    HW296883   9.346   8.653   2.832
32309SOL     OW96884   9.969   9.041   3.545
32309SOL    HW196885   9.965   9.118   3.601
32309SOL    HW296886   0.059   9.039   3.512
32310SOL     OW96887   9.450   9.242   3.705
32310SOL    HW196888   9.404   9.171   3.750
32310SOL    HW296889   9.502   9.284   3.773
32311SOL     OW96890   9.546   7.767   2.572
32311SOL    HW196891   9.459   7.801   2.553
32311SOL    HW296892   9.550   7.764   2.668
32312SOL     OW96893   9.664   8.746   3.352
32312SOL    HW196894   9.652   8.829   3.306
32312SOL    HW296895   9.582   8.699   3.339
32313SOL     OW96896   9.898   8.918   2.326
32313SOL    HW196897   9.910   8.861   2.250
32313SOL    HW296898   9.834   8.983   2.297
32314SOL     OW96899   9.567   8.771   2.149
32314SOL    HW196900   9.474   8.768   2.124
32314SOL    HW296901   9.568   8.824   2.228
32315SOL     OW96902   9.418   8.479   3.586
32315SOL    HW196903   9.341   8.461   3.641
32315SOL    HW296904   9.492   8.447   3.637
32316SOL     OW96905   9.941   7.650   3.353
32316SOL    HW196906   0.011   7.585   3.351
32316SOL    HW296907   9.883   7.621   3.423
32317SOL     OW96908   9.373   7.765   1.886
32317SOL    HW196909   9.299   7.748   1.827
32317SOL    HW296910   9.403   7.853   1.862
32318SOL     OW96911   9.361   7.595   2.129
32318SOL    HW196912   9.347   7.662   2.061
32318SOL    HW296913   9.450   7.563   2.113
32319SOL     OW96914   9.916   8.318   3.299
32319SOL    HW196915   9.938   8.411   3.293
32319SOL    HW296916   9.998   8.273   3.275
32320SOL     OW96917   9.664   9.199   3.429
32320SOL    HW196918   9.579   9.242   3.417
32320SOL    HW296919   9.642   9.113   3.466
32321SOL     OW96920   9.841   8.150   2.587
32321SOL    HW196921   9.912   8.214   2.588
32321SOL    HW296922   9.795   8.167   2.504
32322SOL     OW96923   9.566   8.764   3.735
32322SOL    HW196924   9.476   8.731   3.735
32322SOL    HW296925   9.587   8.772   3.828
32323SOL     OW96926   9.432   8.666   2.519
32323SOL    HW196927   9.468   8.625   2.598
32323SOL    HW296928   9.485   8.629   2.448
32324SOL     OW96929   9.979   8.784   3.641
32324SOL    HW196930   9.906   8.730   3.610
32324SOL    HW296931   9.966   8.869   3.598
32325SOL     OW96932   9.750   7.874   2.413
32325SOL    HW196933   9.755   7.815   2.338
32325SOL    HW296934   9.682   7.836   2.469
32326SOL     OW96935   9.653   8.019   3.153
32326SOL    HW196936   9.701   7.960   3.212
32326SOL    HW296937   9.668   7.983   3.066
32327SOL     OW96938   9.341   8.496   2.167
32327SOL    HW196939   9.432   8.485   2.141
32327SOL    HW296940   9.311   8.408   2.190
32328SOL     OW96941   9.512   8.082   3.871
32328SOL    HW196942   9.427   8.064   3.909
32328SOL    HW296943   9.502   8.062   3.778
32329SOL     OW96944   9.520   7.745   4.715
32329SOL    HW196945   9.555   7.707   4.795
32329SOL    HW296946   9.434   7.704   4.704
32330SOL     OW96947   9.289   7.849   4.369
32330SOL    HW196948   9.207   7.871   4.415
32330SOL    HW296949   9.266   7.774   4.314
32331SOL     OW96950   9.827   8.644   4.832
32331SOL    HW196951   9.759   8.709   4.815
32331SOL    HW296952   9.879   8.683   4.902
32332SOL     OW96953   0.089   8.293   5.645
32332SOL    HW196954   0.178   8.316   5.674
32332SOL    HW296955   0.102   8.250   5.560
32333SOL     OW96956   9.655   8.864   4.792
32333SOL    HW196957   9.577   8.828   4.750
32333SOL    HW296958   9.694   8.920   4.725
32334SOL     OW96959   9.745   7.857   5.214
32334SOL    HW196960   9.821   7.799   5.212
32334SOL    HW296961   9.670   7.798   5.226
32335SOL     OW96962   9.527   9.173   4.191
32335SOL    HW196963   9.547   9.246   4.250
32335SOL    HW296964   9.609   9.155   4.146
32336SOL     OW96965   9.538   8.898   4.243
32336SOL    HW196966   9.516   8.990   4.254
32336SOL    HW296967   9.496   8.854   4.317
32337SOL     OW96968   9.579   8.538   4.590
32337SOL    HW196969   9.581   8.449   4.627
32337SOL    HW296970   9.532   8.590   4.655
32338SOL     OW96971   9.422   8.099   4.294
32338SOL    HW196972   9.382   8.015   4.317
32338SOL    HW296973   9.412   8.153   4.372
32339SOL     OW96974   9.362   9.024   3.837
32339SOL    HW196975   9.343   8.932   3.854
32339SOL    HW296976   9.331   9.070   3.915
32340SOL     OW96977   9.427   8.195   5.304
32340SOL    HW196978   9.512   8.238   5.310
32340SOL    HW296979   9.364   8.266   5.295
32341SOL     OW96980   9.892   8.864   4.458
32341SOL    HW196981   9.854   8.777   4.455
32341SOL    HW296982   9.901   8.890   4.366
32342SOL     OW96983   0.104   7.447   4.296
32342SOL    HW196984   0.135   7.532   4.264
32342SOL    HW296985   0.009   7.453   4.291
32343SOL     OW96986   9.492   8.403   5.017
32343SOL    HW196987   9.579   8.369   4.995
32343SOL    HW296988   9.435   8.369   4.948
32344SOL     OW96989   9.638   7.719   5.539
32344SOL    HW196990   9.678   7.781   5.600
32344SOL    HW296991   9.546   7.714   5.565
32345SOL     OW96992   9.871   8.157   3.991
32345SOL    HW196993   9.875   8.243   3.949
32345SOL    HW296994   9.808   8.168   4.062
32346SOL     OW96995   9.390   8.278   4.501
32346SOL    HW196996   9.473   8.267   4.549
32346SOL    HW296997   9.346   8.350   4.546
32347SOL     OW96998   9.414   9.323   5.311
32347SOL    HW196999   9.426   9.303   5.404
32347SOL    HW297000   9.331   9.280   5.288
32348SOL     OW97001   0.240   7.776   3.934
32348SOL    HW197002   0.247   7.870   3.948
32348SOL    HW297003   0.173   7.766   3.867
32349SOL     OW97004   9.825   7.649   4.627
32349SOL    HW197005   9.848   7.648   4.720
32349SOL    HW297006   9.832   7.741   4.602
32350SOL     OW97007   9.661   9.268   4.609
32350SOL    HW197008   9.720   9.193   4.618
32350SOL    HW297009   9.718   9.344   4.621
32351SOL     OW97010   9.594   8.379   3.957
32351SOL    HW197011   9.624   8.394   3.868
32351SOL    HW297012   9.572   8.286   3.960
32352SOL     OW97013   9.755   8.642   5.445
32352SOL    HW197014   9.734   8.671   5.357
32352SOL    HW297015   9.690   8.685   5.501
32353SOL     OW97016   9.509   7.710   5.217
32353SOL    HW197017   9.430   7.764   5.223
32353SOL    HW297018   9.483   7.626   5.254
32354SOL     OW97019   9.778   9.168   4.057
32354SOL    HW197020   9.810   9.242   4.108
32354SOL    HW297021   9.852   9.142   4.003
32355SOL     OW97022   9.565   9.236   4.943
32355SOL    HW197023   9.612   9.166   4.987
32355SOL    HW297024   9.564   9.210   4.851
32356SOL     OW97025   9.693   8.133   4.206
32356SOL    HW197026   9.718   8.043   4.227
32356SOL    HW297027   9.599   8.137   4.224
32357SOL     OW97028   9.847   7.559   3.832
32357SOL    HW197029   9.930   7.535   3.874
32357SOL    HW297030   9.860   7.536   3.740
32358SOL     OW97031   0.140   8.886   4.576
32358SOL    HW197032   0.183   8.815   4.528
32358SOL    HW297033   0.050   8.885   4.544
32359SOL     OW97034   9.843   7.521   4.223
32359SOL    HW197035   9.765   7.520   4.278
32359SOL    HW297036   9.832   7.598   4.166
32360SOL     OW97037   9.599   7.476   3.913
32360SOL    HW197038   9.675   7.521   3.875
32360SOL    HW297039   9.637   7.407   3.968
32361SOL     OW97040   0.190   7.677   4.179
32361SOL    HW197041   0.212   7.720   4.096
32361SOL    HW297042   0.271   7.682   4.230
32362SOL     OW97043   9.780   8.616   4.422
32362SOL    HW197044   9.717   8.586   4.488
32362SOL    HW297045   9.739   8.596   4.338
32363SOL     OW97046   9.402   8.002   5.114
32363SOL    HW197047   9.493   8.005   5.086
32363SOL    HW297048   9.394   8.070   5.180
32364SOL     OW97049   9.871   7.655   4.898
32364SOL    HW197050   9.913   7.652   4.983
32364SOL    HW297051   9.777   7.654   4.917
32365SOL     OW97052   9.794   7.726   4.043
32365SOL    HW197053   9.814   7.662   3.975
32365SOL    HW297054   9.775   7.807   3.995
32366SOL     OW97055   9.732   8.274   4.964
32366SOL    HW197056   9.795   8.289   5.034
32366SOL    HW297057   9.701   8.185   4.978
32367SOL     OW97058   9.390   9.015   5.085
32367SOL    HW197059   9.358   9.085   5.028
32367SOL    HW297060   9.485   9.018   5.077
32368SOL     OW97061   9.633   8.563   4.186
32368SOL    HW197062   9.625   8.637   4.125
32368SOL    HW297063   9.631   8.486   4.129
32369SOL     OW97064   9.865   7.935   4.612
32369SOL    HW197065   9.860   8.009   4.551
32369SOL    HW297066   9.930   7.963   4.677
32370SOL     OW97067   9.662   8.985   5.037
32370SOL    HW197068   9.667   8.936   4.955
32370SOL    HW297069   9.753   8.993   5.065
32371SOL     OW97070   9.718   8.224   5.333
32371SOL    HW197071   9.784   8.263   5.276
32371SOL    HW297072   9.733   8.130   5.326
32372SOL     OW97073   9.803   7.534   5.419
32372SOL    HW197074   9.755   7.462   5.377
32372SOL    HW297075   9.734   7.590   5.454
32373SOL     OW97076   9.868   8.379   4.743
32373SOL    HW197077   9.850   8.472   4.760
32373SOL    HW297078   9.828   8.333   4.817
32374SOL     OW97079   9.604   7.646   4.962
32374SOL    HW197080   9.568   7.675   5.046
32374SOL    HW297081   9.587   7.552   4.960
32375SOL     OW97082   9.358   8.758   4.989
32375SOL    HW197083   9.384   8.701   5.060
32375SOL    HW297084   9.362   8.847   5.026
32376SOL     OW97085   9.606   7.512   4.358
32376SOL    HW197086   9.579   7.602   4.376
32376SOL    HW297087   9.622   7.474   4.445
32377SOL     OW97088   9.668   8.398   5.549
32377SOL    HW197089   9.712   8.477   5.516
32377SOL    HW297090   9.689   8.330   5.486
32378SOL     OW97091   9.614   8.263   4.658
32378SOL    HW197092   9.707   8.285   4.653
32378SOL    HW297093   9.613   8.172   4.689
32379SOL     OW97094   9.627   7.988   4.734
32379SOL    HW197095   9.584   7.904   4.723
32379SOL    HW297096   9.712   7.978   4.690
32380SOL     OW97097   9.313   8.750   3.904
32380SOL    HW197098   9.225   8.775   3.877
32380SOL    HW297099   9.304   8.661   3.938
32381SOL     OW97100   9.399   9.220   4.673
32381SOL    HW197101   9.368   9.145   4.622
32381SOL    HW297102   9.488   9.235   4.640
32382SOL     OW97103   9.827   9.052   4.645
32382SOL    HW197104   9.912   9.085   4.673
32382SOL    HW297105   9.847   8.990   4.575
32383SOL     OW97106   9.346   8.020   4.842
32383SOL    HW197107   9.427   8.016   4.791
32383SOL    HW297108   9.373   8.013   4.933
32384SOL     OW97109   9.486   7.985   5.476
32384SOL    HW197110   9.544   7.932   5.420
32384SOL    HW297111   9.455   8.055   5.418
32385SOL     OW97112   0.119   8.047   4.021
32385SOL    HW197113   0.135   8.065   4.113
32385SOL    HW297114   0.032   8.082   4.003
32386SOL     OW97115   9.536   8.992   5.438
32386SOL    HW197116   9.516   9.058   5.504
32386SOL    HW297117   9.560   8.914   5.489
32387SOL     OW97118   9.746   7.938   3.876
32387SOL    HW197119   9.808   8.004   3.904
32387SOL    HW297120   9.661   7.982   3.877
32388SOL     OW97121   9.432   8.592   5.201
32388SOL    HW197122   9.434   8.551   5.287
32388SOL    HW297123   9.454   8.522   5.140
32389SOL     OW97124   9.416   8.708   4.730
32389SOL    HW197125   9.390   8.724   4.821
32389SOL    HW297126   9.346   8.652   4.694
32390SOL     OW97127   9.970   9.043   5.406
32390SOL    HW197128   9.966   9.119   5.464
32390SOL    HW297129   0.062   9.039   5.379
32391SOL     OW97130   9.450   9.242   5.567
32391SOL    HW197131   9.404   9.171   5.612
32391SOL    HW297132   9.502   9.284   5.635
32392SOL     OW97133   9.546   7.767   4.434
32392SOL    HW197134   9.459   7.801   4.415
32392SOL    HW297135   9.550   7.764   4.530
32393SOL     OW97136   9.664   8.747   5.214
32393SOL    HW197137   9.652   8.829   5.168
32393SOL    HW297138   9.582   8.699   5.201
32394SOL     OW97139   9.898   8.918   4.188
32394SOL    HW197140   9.910   8.861   4.112
32394SOL    HW297141   9.834   8.983   4.159
32395SOL     OW97142   9.567   8.771   4.011
32395SOL    HW197143   9.474   8.768   3.986
32395SOL    HW297144   9.568   8.824   4.090
32396SOL     OW97145   9.418   8.480   5.448
32396SOL    HW197146   9.341   8.461   5.503
32396SOL    HW297147   9.492   8.447   5.499
32397SOL     OW97148   9.941   7.650   5.216
32397SOL    HW197149   0.010   7.584   5.213
32397SOL    HW297150   9.883   7.621   5.286
32398SOL     OW97151   9.373   7.765   3.748
32398SOL    HW197152   9.299   7.748   3.690
32398SOL    HW297153   9.403   7.853   3.724
32399SOL     OW97154   9.361   7.595   3.991
32399SOL    HW197155   9.346   7.662   3.924
32399SOL    HW297156   9.449   7.563   3.975
32400SOL     OW97157   9.917   8.317   5.160
32400SOL    HW197158   9.939   8.410   5.155
32400SOL    HW297159   9.997   8.272   5.135
32401SOL     OW97160   9.664   9.199   5.291
32401SOL    HW197161   9.579   9.242   5.279
32401SOL    HW297162   9.642   9.113   5.328
32402SOL     OW97163   9.841   8.150   4.449
32402SOL    HW197164   9.912   8.214   4.450
32402SOL    HW297165   9.795   8.167   4.366
32403SOL     OW97166   9.566   8.764   5.597
32403SOL    HW197167   9.476   8.731   5.596
32403SOL    HW297168   9.587   8.772   5.690
32404SOL     OW97169   9.433   8.667   4.381
32404SOL    HW197170   9.468   8.626   4.460
32404SOL    HW297171   9.485   8.629   4.310
32405SOL     OW97172   9.979   8.785   5.501
32405SOL    HW197173   9.907   8.731   5.471
32405SOL    HW297174   9.966   8.869   5.459
32406SOL     OW97175   9.751   7.873   4.276
32406SOL    HW197176   9.755   7.815   4.200
32406SOL    HW297177   9.682   7.836   4.331
32407SOL     OW97178   9.653   8.019   5.015
32407SOL    HW197179   9.701   7.960   5.074
32407SOL    HW297180   9.668   7.983   4.928
32408SOL     OW97181   9.341   8.496   4.030
32408SOL    HW197182   9.432   8.485   4.003
32408SOL    HW297183   9.312   8.408   4.052
32409SOL     OW97184   9.512   8.082   5.733
32409SOL    HW197185   9.426   8.064   5.771
32409SOL    HW297186   9.502   8.063   5.640
32410SOL     OW97187   9.520   7.745   6.577
32410SOL    HW197188   9.555   7.707   6.657
32410SOL    HW297189   9.434   7.704   6.566
32411SOL     OW97190   9.289   7.849   6.231
32411SOL    HW197191   9.208   7.871   6.277
32411SOL    HW297192   9.266   7.774   6.176
32412SOL     OW97193   9.827   8.644   6.694
32412SOL    HW197194   9.759   8.709   6.677
32412SOL    HW297195   9.879   8.683   6.764
32413SOL     OW97196   0.090   8.290   7.505
32413SOL    HW197197   0.181   8.313   7.526
32413SOL    HW297198   0.095   8.250   7.419
32414SOL     OW97199   9.655   8.864   6.654
32414SOL    HW197200   9.577   8.828   6.612
32414SOL    HW297201   9.694   8.920   6.587
32415SOL     OW97202   9.744   7.857   7.077
32415SOL    HW197203   9.820   7.799   7.074
32415SOL    HW297204   9.670   7.798   7.088
32416SOL     OW97205   9.527   9.173   6.053
32416SOL    HW197206   9.547   9.245   6.112
32416SOL    HW297207   9.609   9.155   6.008
32417SOL     OW97208   9.538   8.898   6.105
32417SOL    HW197209   9.516   8.991   6.116
32417SOL    HW297210   9.496   8.854   6.179
32418SOL     OW97211   9.579   8.538   6.452
32418SOL    HW197212   9.581   8.449   6.489
32418SOL    HW297213   9.532   8.590   6.517
32419SOL     OW97214   9.422   8.099   6.156
32419SOL    HW197215   9.382   8.015   6.179
32419SOL    HW297216   9.412   8.153   6.235
32420SOL     OW97217   9.362   9.024   5.699
32420SOL    HW197218   9.343   8.932   5.716
32420SOL    HW297219   9.331   9.070   5.777
32421SOL     OW97220   9.427   8.195   7.166
32421SOL    HW197221   9.512   8.239   7.171
32421SOL    HW297222   9.364   8.266   7.156
32422SOL     OW97223   9.892   8.864   6.319
32422SOL    HW197224   9.854   8.777   6.316
32422SOL    HW297225   9.901   8.890   6.228
32423SOL     OW97226   0.108   7.450   6.159
32423SOL    HW197227   0.136   7.534   6.124
32423SOL    HW297228   0.012   7.453   6.156
32424SOL     OW97229   9.492   8.403   6.879
32424SOL    HW197230   9.579   8.369   6.857
32424SOL    HW297231   9.435   8.369   6.810
32425SOL     OW97232   9.639   7.718   7.401
32425SOL    HW197233   9.678   7.780   7.463
32425SOL    HW297234   9.546   7.714   7.427
32426SOL     OW97235   9.871   8.157   5.852
32426SOL    HW197236   9.875   8.243   5.810
32426SOL    HW297237   9.808   8.168   5.924
32427SOL     OW97238   9.390   8.277   6.363
32427SOL    HW197239   9.472   8.267   6.411
32427SOL    HW297240   9.346   8.350   6.408
32428SOL     OW97241   9.414   9.323   7.173
32428SOL    HW197242   9.426   9.302   7.266
32428SOL    HW297243   9.331   9.280   7.150
32429SOL     OW97244   0.239   7.776   5.796
32429SOL    HW197245   0.246   7.871   5.809
32429SOL    HW297246   0.172   7.766   5.728
32430SOL     OW97247   9.825   7.649   6.489
32430SOL    HW197248   9.848   7.648   6.582
32430SOL    HW297249   9.832   7.741   6.463
32431SOL     OW97250   9.661   9.268   6.471
32431SOL    HW197251   9.720   9.193   6.480
32431SOL    HW297252   9.718   9.344   6.483
32432SOL     OW97253   9.594   8.379   5.819
32432SOL    HW197254   9.624   8.394   5.730
32432SOL    HW297255   9.572   8.286   5.821
32433SOL     OW97256   9.755   8.642   7.307
32433SOL    HW197257   9.734   8.671   7.219
32433SOL    HW297258   9.690   8.685   7.363
32434SOL     OW97259   9.509   7.710   7.079
32434SOL    HW197260   9.430   7.764   7.085
32434SOL    HW297261   9.483   7.626   7.116
32435SOL     OW97262   9.778   9.168   5.919
32435SOL    HW197263   9.811   9.242   5.970
32435SOL    HW297264   9.853   9.142   5.864
32436SOL     OW97265   9.565   9.236   6.804
32436SOL    HW197266   9.612   9.165   6.848
32436SOL    HW297267   9.563   9.210   6.712
32437SOL     OW97268   9.693   8.133   6.068
32437SOL    HW197269   9.718   8.043   6.089
32437SOL    HW297270   9.599   8.136   6.086
32438SOL     OW97271   9.848   7.559   5.694
32438SOL    HW197272   9.930   7.535   5.737
32438SOL    HW297273   9.860   7.536   5.602
32439SOL     OW97274   0.140   8.885   6.438
32439SOL    HW197275   0.182   8.814   6.390
32439SOL    HW297276   0.050   8.885   6.407
32440SOL     OW97277   9.844   7.521   6.085
32440SOL    HW197278   9.766   7.520   6.140
32440SOL    HW297279   9.833   7.597   6.029
32441SOL     OW97280   9.599   7.477   5.775
32441SOL    HW197281   9.675   7.521   5.737
32441SOL    HW297282   9.638   7.408   5.829
32442SOL     OW97283   0.191   7.679   6.040
32442SOL    HW197284   0.211   7.720   5.956
32442SOL    HW297285   0.270   7.690   6.092
32443SOL     OW97286   9.780   8.616   6.284
32443SOL    HW197287   9.717   8.586   6.350
32443SOL    HW297288   9.739   8.596   6.200
32444SOL     OW97289   9.402   8.002   6.976
32444SOL    HW197290   9.493   8.005   6.948
32444SOL    HW297291   9.394   8.070   7.042
32445SOL     OW97292   9.871   7.655   6.759
32445SOL    HW197293   9.913   7.651   6.845
32445SOL    HW297294   9.777   7.654   6.779
32446SOL     OW97295   9.794   7.726   5.905
32446SOL    HW197296   9.814   7.662   5.837
32446SOL    HW297297   9.776   7.807   5.857
32447SOL     OW97298   9.732   8.275   6.826
32447SOL    HW197299   9.795   8.289   6.896
32447SOL    HW297300   9.700   8.185   6.840
32448SOL     OW97301   9.390   9.015   6.947
32448SOL    HW197302   9.358   9.084   6.890
32448SOL    HW297303   9.485   9.018   6.939
32449SOL     OW97304   9.633   8.563   6.048
32449SOL    HW197305   9.625   8.637   5.987
32449SOL    HW297306   9.631   8.486   5.991
32450SOL     OW97307   9.865   7.936   6.475
32450SOL    HW197308   9.860   8.009   6.413
32450SOL    HW297309   9.930   7.963   6.539
32451SOL     OW97310   9.662   8.985   6.899
32451SOL    HW197311   9.667   8.936   6.817
32451SOL    HW297312   9.753   8.993   6.927
32452SOL     OW97313   9.718   8.224   7.195
32452SOL    HW197314   9.784   8.263   7.137
32452SOL    HW297315   9.733   8.129   7.187
32453SOL     OW97316   9.803   7.534   7.281
32453SOL    HW197317   9.756   7.462   7.239
32453SOL    HW297318   9.734   7.590   7.317
32454SOL     OW97319   9.868   8.379   6.605
32454SOL    HW197320   9.850   8.472   6.622
32454SOL    HW297321   9.828   8.333   6.679
32455SOL     OW97322   9.604   7.646   6.824
32455SOL    HW197323   9.568   7.675   6.908
32455SOL    HW297324   9.587   7.552   6.822
32456SOL     OW97325   9.357   8.758   6.851
32456SOL    HW197326   9.384   8.701   6.923
32456SOL    HW297327   9.362   8.847   6.888
32457SOL     OW97328   9.606   7.512   6.220
32457SOL    HW197329   9.580   7.602   6.237
32457SOL    HW297330   9.622   7.474   6.306
32458SOL     OW97331   9.668   8.398   7.411
32458SOL    HW197332   9.712   8.476   7.378
32458SOL    HW297333   9.689   8.330   7.348
32459SOL     OW97334   9.614   8.263   6.520
32459SOL    HW197335   9.707   8.285   6.514
32459SOL    HW297336   9.613   8.172   6.552
32460SOL     OW97337   9.627   7.988   6.596
32460SOL    HW197338   9.583   7.904   6.585
32460SOL    HW297339   9.712   7.978   6.553
32461SOL     OW97340   9.313   8.750   5.766
32461SOL    HW197341   9.225   8.775   5.739
32461SOL    HW297342   9.304   8.661   5.800
32462SOL     OW97343   9.399   9.220   6.535
32462SOL    HW197344   9.368   9.145   6.484
32462SOL    HW297345   9.488   9.235   6.502
32463SOL     OW97346   9.827   9.052   6.507
32463SOL    HW197347   9.912   9.085   6.535
32463SOL    HW297348   9.847   8.990   6.437
32464SOL     OW97349   9.345   8.020   6.704
32464SOL    HW197350   9.427   8.016   6.653
32464SOL    HW297351   9.373   8.013   6.795
32465SOL     OW97352   9.486   7.985   7.337
32465SOL    HW197353   9.544   7.932   7.282
32465SOL    HW297354   9.455   8.055   7.280
32466SOL     OW97355   0.119   8.047   5.883
32466SOL    HW197356   0.135   8.065   5.975
32466SOL    HW297357   0.032   8.082   5.865
32467SOL     OW97358   9.536   8.992   7.300
32467SOL    HW197359   9.516   9.058   7.366
32467SOL    HW297360   9.560   8.914   7.351
32468SOL     OW97361   9.745   7.938   5.739
32468SOL    HW197362   9.808   8.004   5.766
32468SOL    HW297363   9.661   7.982   5.740
32469SOL     OW97364   9.432   8.592   7.063
32469SOL    HW197365   9.434   8.551   7.149
32469SOL    HW297366   9.454   8.522   7.002
32470SOL     OW97367   9.416   8.708   6.592
32470SOL    HW197368   9.389   8.724   6.682
32470SOL    HW297369   9.346   8.652   6.556
32471SOL     OW97370   9.970   9.042   7.268
32471SOL    HW197371   9.965   9.119   7.325
32471SOL    HW297372   0.062   9.038   7.242
32472SOL     OW97373   9.449   9.242   7.429
32472SOL    HW197374   9.404   9.171   7.474
32472SOL    HW297375   9.502   9.284   7.497
32473SOL     OW97376   9.546   7.767   6.296
32473SOL    HW197377   9.459   7.801   6.277
32473SOL    HW297378   9.550   7.764   6.392
32474SOL     OW97379   9.664   8.747   7.076
32474SOL    HW197380   9.652   8.829   7.030
32474SOL    HW297381   9.582   8.699   7.063
32475SOL     OW97382   9.898   8.918   6.050
32475SOL    HW197383   9.910   8.861   5.974
32475SOL    HW297384   9.834   8.983   6.021
32476SOL     OW97385   9.566   8.771   5.873
32476SOL    HW197386   9.474   8.768   5.847
32476SOL    HW297387   9.568   8.824   5.952
32477SOL     OW97388   9.418   8.480   7.311
32477SOL    HW197389   9.341   8.461   7.365
32477SOL    HW297390   9.492   8.447   7.361
32478SOL     OW97391   9.940   7.650   7.078
32478SOL    HW197392   0.009   7.584   7.075
32478SOL    HW297393   9.882   7.621   7.148
32479SOL     OW97394   9.373   7.765   5.610
32479SOL    HW197395   9.299   7.748   5.552
32479SOL    HW297396   9.403   7.853   5.586
32480SOL     OW97397   9.361   7.595   5.853
32480SOL    HW197398   9.346   7.662   5.785
32480SOL    HW297399   9.449   7.563   5.837
32481SOL     OW97400   9.917   8.317   7.022
32481SOL    HW197401   9.939   8.410   7.016
32481SOL    HW297402   9.997   8.271   6.995
32482SOL     OW97403   9.664   9.199   7.154
32482SOL    HW197404   9.579   9.242   7.141
32482SOL    HW297405   9.642   9.113   7.190
32483SOL     OW97406   9.841   8.150   6.311
32483SOL    HW197407   9.912   8.214   6.312
32483SOL    HW297408   9.795   8.167   6.228
32484SOL     OW97409   9.566   8.764   7.459
32484SOL    HW197410   9.476   8.731   7.458
32484SOL    HW297411   9.587   8.772   7.552
32485SOL     OW97412   9.433   8.666   6.243
32485SOL    HW197413   9.468   8.626   6.322
32485SOL    HW297414   9.485   8.629   6.172
32486SOL     OW97415   9.979   8.785   7.364
32486SOL    HW197416   9.906   8.731   7.334
32486SOL    HW297417   9.966   8.869   7.321
32487SOL     OW97418   9.752   7.873   6.138
32487SOL    HW197419   9.756   7.815   6.063
32487SOL    HW297420   9.683   7.836   6.193
32488SOL     OW97421   9.653   8.019   6.877
32488SOL    HW197422   9.701   7.960   6.936
32488SOL    HW297423   9.668   7.983   6.790
32489SOL     OW97424   9.341   8.496   5.892
32489SOL    HW197425   9.432   8.485   5.865
32489SOL    HW297426   9.312   8.408   5.915
32490SOL     OW97427   9.512   8.083   7.595
32490SOL    HW197428   9.426   8.064   7.633
32490SOL    HW297429   9.502   8.063   7.502
32491SOL     OW97430   9.520   7.745   8.439
32491SOL    HW197431   9.555   7.707   8.519
32491SOL    HW297432   9.434   7.703   8.428
32492SOL     OW97433   9.289   7.849   8.093
32492SOL    HW197434   9.208   7.870   8.139
32492SOL    HW297435   9.266   7.774   8.038
32493SOL     OW97436   9.827   8.644   8.556
32493SOL    HW197437   9.759   8.709   8.539
32493SOL    HW297438   9.879   8.682   8.627
32494SOL     OW97439   0.129   8.256   9.359
32494SOL    HW197440   0.208   8.308   9.342
32494SOL    HW297441   0.062   8.296   9.304
32495SOL     OW97442   9.655   8.864   8.515
32495SOL    HW197443   9.577   8.828   8.474
32495SOL    HW297444   9.695   8.920   8.448
32496SOL     OW97445   9.743   7.856   8.938
32496SOL    HW197446   9.818   7.797   8.934
32496SOL    HW297447   9.667   7.798   8.949
32497SOL     OW97448   9.527   9.173   7.915
32497SOL    HW197449   9.547   9.246   7.974
32497SOL    HW297450   9.609   9.155   7.870
32498SOL     OW97451   9.539   8.898   7.967
32498SOL    HW197452   9.516   8.991   7.978
32498SOL    HW297453   9.496   8.854   8.041
32499SOL     OW97454   9.579   8.537   8.314
32499SOL    HW197455   9.581   8.449   8.351
32499SOL    HW297456   9.532   8.589   8.379
32500SOL     OW97457   9.423   8.099   8.018
32500SOL    HW197458   9.382   8.015   8.041
32500SOL    HW297459   9.412   8.153   8.096
32501SOL     OW97460   9.362   9.024   7.561
32501SOL    HW197461   9.343   8.932   7.578
32501SOL    HW297462   9.331   9.070   7.639
32502SOL     OW97463   9.427   8.196   9.025
32502SOL    HW197464   9.510   8.242   9.035
32502SOL    HW297465   9.362   8.266   9.017
32503SOL     OW97466   9.892   8.864   8.181
32503SOL    HW197467   9.854   8.776   8.178
32503SOL    HW297468   9.901   8.890   8.090
32504SOL     OW97469   0.111   7.452   8.022
32504SOL    HW197470   0.136   7.537   7.985
32504SOL    HW297471   0.015   7.454   8.020
32505SOL     OW97472   9.491   8.404   8.740
32505SOL    HW197473   9.578   8.370   8.718
32505SOL    HW297474   9.434   8.370   8.672
32506SOL     OW97475   9.637   7.715   9.261
32506SOL    HW197476   9.678   7.776   9.322
32506SOL    HW297477   9.545   7.713   9.287
32507SOL     OW97478   9.871   8.158   7.714
32507SOL    HW197479   9.875   8.244   7.673
32507SOL    HW297480   9.808   8.169   7.786
32508SOL     OW97481   9.390   8.277   8.225
32508SOL    HW197482   9.472   8.267   8.272
32508SOL    HW297483   9.346   8.350   8.269
32509SOL     OW97484   9.414   9.322   9.035
32509SOL    HW197485   9.428   9.302   9.128
32509SOL    HW297486   9.331   9.279   9.013
32510SOL     OW97487   0.238   7.776   7.657
32510SOL    HW197488   0.246   7.871   7.669
32510SOL    HW297489   0.171   7.766   7.589
32511SOL     OW97490   9.825   7.649   8.348
32511SOL    HW197491   9.848   7.648   8.441
32511SOL    HW297492   9.832   7.742   8.323
32512SOL     OW97493   9.662   9.268   8.332
32512SOL    HW197494   9.720   9.193   8.341
32512SOL    HW297495   9.719   9.344   8.344
32513SOL     OW97496   9.595   8.379   7.681
32513SOL    HW197497   9.625   8.394   7.592
32513SOL    HW297498   9.572   8.286   7.683
32514SOL     OW97499   9.752   8.646   9.173
32514SOL    HW197500   9.728   8.674   9.085
32514SOL    HW297501   9.688   8.689   9.230
32515SOL     OW97502   9.507   7.711   8.941
32515SOL    HW197503   9.427   7.763   8.946
32515SOL    HW297504   9.483   7.626   8.979
32516SOL     OW97505   9.778   9.168   7.781
32516SOL    HW197506   9.811   9.242   7.832
32516SOL    HW297507   9.853   9.142   7.726
32517SOL     OW97508   9.565   9.236   8.666
32517SOL    HW197509   9.612   9.165   8.709
32517SOL    HW297510   9.561   9.210   8.574
32518SOL     OW97511   9.694   8.132   7.931
32518SOL    HW197512   9.719   8.042   7.952
32518SOL    HW297513   9.600   8.135   7.949
32519SOL     OW97514   9.848   7.559   7.557
32519SOL    HW197515   9.930   7.534   7.599
32519SOL    HW297516   9.861   7.536   7.465
32520SOL     OW97517   0.140   8.886   8.300
32520SOL    HW197518   0.183   8.815   8.251
32520SOL    HW297519   0.050   8.885   8.269
32521SOL     OW97520   9.846   7.521   7.948
32521SOL    HW197521   9.767   7.519   8.003
32521SOL    HW297522   9.834   7.597   7.891
32522SOL     OW97523   9.599   7.477   7.637
32522SOL    HW197524   9.675   7.521   7.598
32522SOL    HW297525   9.638   7.408   7.691
32523SOL     OW97526   0.191   7.682   7.902
32523SOL    HW197527   0.210   7.721   7.816
32523SOL    HW297528   0.269   7.700   7.954
32524SOL     OW97529   9.780   8.616   8.146
32524SOL    HW197530   9.717   8.586   8.212
32524SOL    HW297531   9.739   8.596   8.062
32525SOL     OW97532   9.401   8.003   8.836
32525SOL    HW197533   9.493   8.005   8.809
32525SOL    HW297534   9.394   8.072   8.902
32526SOL     OW97535   9.870   7.653   8.619
32526SOL    HW197536   9.912   7.646   8.704
32526SOL    HW297537   9.776   7.654   8.638
32527SOL     OW97538   9.795   7.726   7.768
32527SOL    HW197539   9.815   7.662   7.699
32527SOL    HW297540   9.776   7.807   7.720
32528SOL     OW97541   9.731   8.274   8.687
32528SOL    HW197542   9.794   8.288   8.757
32528SOL    HW297543   9.699   8.185   8.700
32529SOL     OW97544   9.390   9.015   8.809
32529SOL    HW197545   9.358   9.084   8.752
32529SOL    HW297546   9.485   9.018   8.800
32530SOL     OW97547   9.633   8.563   7.910
32530SOL    HW197548   9.625   8.637   7.849
32530SOL    HW297549   9.631   8.485   7.853
32531SOL     OW97550   9.864   7.936   8.339
32531SOL    HW197551   9.861   8.008   8.276
32531SOL    HW297552   9.930   7.964   8.403
32532SOL     OW97553   9.662   8.985   8.760
32532SOL    HW197554   9.667   8.936   8.678
32532SOL    HW297555   9.753   8.994   8.789
32533SOL     OW97556   9.719   8.227   9.060
32533SOL    HW197557   9.785   8.264   9.000
32533SOL    HW297558   9.731   8.132   9.053
32534SOL     OW97559   9.802   7.532   9.144
32534SOL    HW197560   9.755   7.460   9.102
32534SOL    HW297561   9.733   7.588   9.179
32535SOL     OW97562   9.869   8.379   8.467
32535SOL    HW197563   9.851   8.472   8.484
32535SOL    HW297564   9.828   8.333   8.540
32536SOL     OW97565   9.604   7.647   8.686
32536SOL    HW197566   9.567   7.676   8.770
32536SOL    HW297567   9.587   7.552   8.684
32537SOL     OW97568   9.359   8.758   8.713
32537SOL    HW197569   9.384   8.700   8.785
32537SOL    HW297570   9.363   8.846   8.750
32538SOL     OW97571   9.607   7.512   8.081
32538SOL    HW197572   9.580   7.603   8.098
32538SOL    HW297573   9.622   7.475   8.168
32539SOL     OW97574   9.673   8.399   9.279
32539SOL    HW197575   9.713   8.479   9.243
32539SOL    HW297576   9.691   8.332   9.213
32540SOL     OW97577   9.614   8.262   8.381
32540SOL    HW197578   9.707   8.283   8.373
32540SOL    HW297579   9.613   8.172   8.413
32541SOL     OW97580   9.626   7.988   8.458
32541SOL    HW197581   9.583   7.904   8.447
32541SOL    HW297582   9.711   7.978   8.415
32542SOL     OW97583   9.313   8.750   7.628
32542SOL    HW197584   9.225   8.775   7.601
32542SOL    HW297585   9.304   8.661   7.662
32543SOL     OW97586   9.400   9.220   8.397
32543SOL    HW197587   9.368   9.145   8.346
32543SOL    HW297588   9.489   9.235   8.364
32544SOL     OW97589   9.827   9.052   8.369
32544SOL    HW197590   9.912   9.085   8.396
32544SOL    HW297591   9.847   8.989   8.299
32545SOL     OW97592   9.345   8.019   8.565
32545SOL    HW197593   9.426   8.016   8.515
32545SOL    HW297594   9.373   8.013   8.656
32546SOL     OW97595   9.480   7.978   9.185
32546SOL    HW197596   9.539   7.927   9.129
32546SOL    HW297597   9.453   8.052   9.131
32547SOL     OW97598   0.119   8.047   7.745
32547SOL    HW197599   0.134   8.066   7.837
32547SOL    HW297600   0.032   8.083   7.727
32548SOL     OW97601   9.534   8.993   9.164
32548SOL    HW197602   9.516   9.063   9.227
32548SOL    HW297603   9.558   8.918   9.219
32549SOL     OW97604   9.745   7.938   7.601
32549SOL    HW197605   9.808   8.005   7.629
32549SOL    HW297606   9.661   7.982   7.602
32550SOL     OW97607   9.431   8.591   8.926
32550SOL    HW197608   9.435   8.549   9.012
32550SOL    HW297609   9.454   8.521   8.865
32551SOL     OW97610   9.416   8.708   8.454
32551SOL    HW197611   9.390   8.724   8.545
32551SOL    HW297612   9.346   8.653   8.418
32552SOL     OW97613   9.978   9.046   9.130
32552SOL    HW197614   9.961   9.116   9.192
32552SOL    HW297615   0.074   9.042   9.124
32553SOL     OW97616   9.453   9.241   9.290
32553SOL    HW197617   9.406   9.174   9.340
32553SOL    HW297618   9.504   9.288   9.356
32554SOL     OW97619   9.547   7.768   8.158
32554SOL    HW197620   9.459   7.801   8.139
32554SOL    HW297621   9.551   7.764   8.253
32555SOL     OW97622   9.662   8.747   8.940
32555SOL    HW197623   9.651   8.829   8.892
32555SOL    HW297624   9.581   8.699   8.926
32556SOL     OW97625   9.899   8.918   7.912
32556SOL    HW197626   9.910   8.861   7.836
32556SOL    HW297627   9.834   8.983   7.883
32557SOL     OW97628   9.566   8.771   7.735
32557SOL    HW197629   9.474   8.768   7.710
32557SOL    HW297630   9.568   8.824   7.814
32558SOL     OW97631   9.421   8.476   9.173
32558SOL    HW197632   9.344   8.460   9.226
32558SOL    HW297633   9.494   8.447   9.227
32559SOL     OW97634   9.934   7.647   8.937
32559SOL    HW197635   0.003   7.581   8.934
32559SOL    HW297636   9.876   7.619   9.008
32560SOL     OW97637   9.373   7.765   7.472
32560SOL    HW197638   9.299   7.748   7.413
32560SOL    HW297639   9.403   7.853   7.448
32561SOL     OW97640   9.360   7.595   7.715
32561SOL    HW197641   9.346   7.662   7.647
32561SOL    HW297642   9.449   7.564   7.699
32562SOL     OW97643   9.916   8.317   8.882
32562SOL    HW197644   9.935   8.410   8.874
32562SOL    HW297645   9.998   8.273   8.858
32563SOL     OW97646   9.664   9.198   9.016
32563SOL    HW197647   9.580   9.241   9.003
32563SOL    HW297648   9.641   9.112   9.053
32564SOL     OW97649   9.841   8.150   8.174
32564SOL    HW197650   9.912   8.214   8.175
32564SOL    HW297651   9.795   8.167   8.091
32565SOL     OW97652   9.565   8.767   9.328
32565SOL    HW197653   9.473   8.742   9.327
32565SOL    HW297654   9.588   8.772   9.421
32566SOL     OW97655   9.432   8.667   8.105
32566SOL    HW197656   9.467   8.626   8.185
32566SOL    HW297657   9.485   8.630   8.034
32567SOL     OW97658   9.996   8.768   9.156
32567SOL    HW197659   9.910   8.725   9.158
32567SOL    HW297660   9.977   8.858   9.130
32568SOL     OW97661   9.754   7.872   8.002
32568SOL    HW197662   9.758   7.814   7.926
32568SOL    HW297663   9.685   7.836   8.056
32569SOL     OW97664   9.653   8.019   8.739
32569SOL    HW197665   9.700   7.960   8.797
32569SOL    HW297666   9.667   7.983   8.651
32570SOL     OW97667   9.341   8.496   7.754
32570SOL    HW197668   9.432   8.485   7.727
32570SOL    HW297669   9.312   8.408   7.777
32571SOL     OW97670   9.514   8.047   9.446
32571SOL    HW197671   9.426   8.040   9.484
32571SOL    HW297672   9.500   8.039   9.352
32572SOL     OW97673   9.513   9.184   9.770
32572SOL    HW197674   9.529   9.256   9.831
32572SOL    HW297675   9.597   9.170   9.727
32573SOL     OW97676   9.567   8.909   9.833
32573SOL    HW197677   9.529   8.996   9.850
32573SOL    HW297678   9.503   8.848   9.870
32574SOL     OW97679   9.368   8.128   9.880
32574SOL    HW197680   9.282   8.092   9.858
32574SOL    HW297681   9.350   8.203   9.937
32575SOL     OW97682   9.356   9.036   9.433
32575SOL    HW197683   9.340   8.943   9.446
32575SOL    HW297684   9.318   9.078   9.510
32576SOL     OW97685   0.103   7.475   9.866
32576SOL    HW197686   0.144   7.556   9.834
32576SOL    HW297687   0.009   7.490   9.854
32577SOL     OW97688   9.859   8.169   9.569
32577SOL    HW197689   9.872   8.258   9.537
32577SOL    HW297690   9.791   8.177   9.636
32578SOL     OW97691   9.357   8.329   0.072
32578SOL    HW197692   9.425   8.278   0.115
32578SOL    HW297693   9.336   8.399   0.134
32579SOL     OW97694   0.169   7.818   9.524
32579SOL    HW197695   0.218   7.890   9.484
32579SOL    HW297696   0.128   7.772   9.451
32580SOL     OW97697   9.619   9.319   0.194
32580SOL    HW197698   9.638   9.234   0.233
32580SOL    HW297699   9.705   9.356   0.173
32581SOL     OW97700   9.618   8.396   9.557
32581SOL    HW197701   9.641   8.397   9.464
32581SOL    HW297702   9.558   8.322   9.566
32582SOL     OW97703   9.759   9.186   9.637
32582SOL    HW197704   9.800   9.249   9.695
32582SOL    HW297705   9.833   9.144   9.592
32583SOL     OW97706   9.671   8.148   9.783
32583SOL    HW197707   9.683   8.055   9.802
32583SOL    HW297708   9.576   8.161   9.787
32584SOL     OW97709   9.851   7.566   9.418
32584SOL    HW197710   9.934   7.542   9.459
32584SOL    HW297711   9.860   7.537   9.327
32585SOL     OW97712   9.828   7.541   9.828
32585SOL    HW197713   9.739   7.535   9.862
32585SOL    HW297714   9.826   7.612   9.764
32586SOL     OW97715   9.597   7.491   9.496
32586SOL    HW197716   9.672   7.537   9.457
32586SOL    HW297717   9.636   7.425   9.552
32587SOL     OW97718   0.243   7.682   9.747
32587SOL    HW197719   0.213   7.745   9.681
32587SOL    HW297720   0.338   7.685   9.741
32588SOL     OW97721   9.713   8.560   0.073
32588SOL    HW197722   9.681   8.643   0.111
32588SOL    HW297723   9.700   8.571   9.979
32589SOL     OW97724   9.805   7.733   9.634
32589SOL    HW197725   9.825   7.668   9.566
32589SOL    HW297726   9.786   7.813   9.585
32590SOL     OW97727   9.647   8.562   9.793
32590SOL    HW197728   9.632   8.640   9.739
32590SOL    HW297729   9.653   8.491   9.729
32591SOL     OW97730   9.572   7.527   9.937
32591SOL    HW197731   9.509   7.598   9.950
32591SOL    HW297732   9.581   7.487   0.023
32592SOL     OW97733   9.314   8.765   9.483
32592SOL    HW197734   9.225   8.786   9.454
32592SOL    HW297735   9.308   8.677   9.519
32593SOL     OW97736   0.078   8.035   9.663
32593SOL    HW197737   0.091   7.955   9.612
32593SOL    HW297738   0.006   8.079   9.619
32594SOL     OW97739   9.756   7.936   9.459
32594SOL    HW197740   9.810   8.012   9.484
32594SOL    HW297741   9.667   7.970   9.458
32595SOL     OW97742   9.925   8.942   9.747
32595SOL    HW197743   9.938   8.855   9.785
32595SOL    HW297744   9.838   8.968   9.776
32596SOL     OW97745   9.568   8.768   9.604
32596SOL    HW197746   9.475   8.773   9.582
32596SOL    HW297747   9.578   8.828   9.678
32597SOL     OW97748   9.369   7.762   9.330
32597SOL    HW197749   9.297   7.746   9.270
32597SOL    HW297750   9.401   7.849   9.306
32598SOL     OW97751   9.355   7.601   9.571
32598SOL    HW197752   9.343   7.665   9.501
32598SOL    HW297753   9.444   7.568   9.560
32599SOL     OW97754   9.889   8.198   9.952
32599SOL    HW197755   9.900   8.289   9.981
32599SOL    HW297756   9.809   8.200   9.899
32600SOL     OW97757   9.402   8.700   9.906
32600SOL    HW197758   9.375   8.706   9.998
32600SOL    HW297759   9.452   8.619   9.901
32601SOL     OW97760   9.700   7.886   9.851
32601SOL    HW197761   9.738   7.826   9.787
32601SOL    HW297762   9.751   7.872   9.931
32602SOL     OW97763   9.360   8.523   9.607
32602SOL    HW197764   9.455   8.531   9.600
32602SOL    HW297765   9.344   8.429   9.606
32603SOL     OW97766   9.508   9.623   1.001
32603SOL    HW197767   9.548   9.580   1.076
32603SOL    HW297768   9.430   9.570   0.982
32604SOL     OW97769   9.283   9.687   0.647
32604SOL    HW197770   9.201   9.704   0.693
32604SOL    HW297771   9.264   9.615   0.588
32605SOL     OW97772   0.152   0.065   1.774
32605SOL    HW197773   0.102   0.146   1.777
32605SOL    HW297774   0.227   0.080   1.832
32606SOL     OW97775   9.715   9.724   1.486
32606SOL    HW197776   9.797   9.674   1.475
32606SOL    HW297777   9.646   9.657   1.482
32607SOL     OW97778   9.329   9.961   0.598
32607SOL    HW197779   9.325   9.867   0.611
32607SOL    HW297780   9.422   9.982   0.605
32608SOL     OW97781   0.102   9.296   0.503
32608SOL    HW197782   0.156   9.356   0.554
32608SOL    HW297783   0.013   9.330   0.512
32609SOL     OW97784   9.630   9.551   1.779
32609SOL    HW197785   9.616   9.643   1.755
32609SOL    HW297786   9.555   9.529   1.834
32610SOL     OW97787   0.212   9.691   0.181
32610SOL    HW197788   0.143   9.746   0.218
32610SOL    HW297789   0.169   9.646   0.108
32611SOL     OW97790   9.820   9.487   0.905
32611SOL    HW197791   9.846   9.504   0.995
32611SOL    HW297792   9.851   9.563   0.856
32612SOL     OW97793   9.493   9.563   1.481
32612SOL    HW197794   9.412   9.611   1.499
32612SOL    HW297795   9.480   9.477   1.520
32613SOL     OW97796   9.859   9.414   0.112
32613SOL    HW197797   9.945   9.401   0.152
32613SOL    HW297798   9.876   9.418   0.018
32614SOL     OW97799   9.843   9.394   0.476
32614SOL    HW197800   9.768   9.393   0.535
32614SOL    HW297801   9.836   9.477   0.429
32615SOL     OW97802   0.217   9.574   0.436
32615SOL    HW197803   0.248   9.620   0.358
32615SOL    HW297804   0.294   9.527   0.468
32616SOL     OW97805   9.375   9.911   1.405
32616SOL    HW197806   9.466   9.912   1.377
32616SOL    HW297807   9.341   9.997   1.381
32617SOL     OW97808   9.869   9.528   1.173
32617SOL    HW197809   9.907   9.531   1.261
32617SOL    HW297810   9.774   9.523   1.189
32618SOL     OW97811   9.831   9.623   0.294
32618SOL    HW197812   9.844   9.561   0.223
32618SOL    HW297813   9.907   9.682   0.289
32619SOL     OW97814   9.896   9.859   0.896
32619SOL    HW197815   9.942   9.914   0.832
32619SOL    HW297816   9.952   9.860   0.973
32620SOL     OW97817   9.822   9.386   1.681
32620SOL    HW197818   9.774   9.313   1.642
32620SOL    HW297819   9.755   9.444   1.715
32621SOL     OW97820   9.599   9.504   1.231
32621SOL    HW197821   9.560   9.531   1.314
32621SOL    HW297822   9.587   9.409   1.229
32622SOL     OW97823   9.612   9.373   0.631
32622SOL    HW197824   9.585   9.462   0.653
32622SOL    HW297825   9.627   9.331   0.715
32623SOL     OW97826   9.655   0.081   0.907
32623SOL    HW197827   9.743   0.119   0.911
32623SOL    HW297828   9.660   0.003   0.963
32624SOL     OW97829   9.673   9.839   1.042
32624SOL    HW197830   9.625   9.760   1.016
32624SOL    HW297831   9.753   9.836   0.991
32625SOL     OW97832   9.341   9.828   1.113
32625SOL    HW197833   9.389   9.769   1.055
32625SOL    HW297834   9.407   9.860   1.174
32626SOL     OW97835   9.556   9.810   1.703
32626SOL    HW197836   9.603   9.794   1.621
32626SOL    HW297837   9.490   9.876   1.681
32627SOL     OW97838   0.020   9.837   0.306
32627SOL    HW197839   0.055   9.862   0.392
32627SOL    HW297840   9.982   9.918   0.272
32628SOL     OW97841   9.540   9.624   0.721
32628SOL    HW197842   9.452   9.651   0.696
32628SOL    HW297843   9.541   9.628   0.816
32629SOL     OW97844   9.921   9.528   1.462
32629SOL    HW197845   0.016   9.515   1.462
32629SOL    HW297846   9.889   9.476   1.535
32630SOL     OW97847   9.384   9.609   0.030
32630SOL    HW197848   9.298   9.591   9.992
32630SOL    HW297849   9.406   9.697  10.000
32631SOL     OW97850   9.384   9.443   0.268
32631SOL    HW197851   9.376   9.509   0.199
32631SOL    HW297852   9.471   9.405   0.255
32632SOL     OW97853   9.772   9.682   0.584
32632SOL    HW197854   9.743   9.718   0.501
32632SOL    HW297855   9.691   9.671   0.635
32633SOL     OW97856   9.624   9.911   1.299
32633SOL    HW197857   9.674   9.854   1.357
32633SOL    HW297858   9.653   9.886   1.211
32634SOL     OW97859   9.509   9.623   2.861
32634SOL    HW197860   9.549   9.580   2.936
32634SOL    HW297861   9.431   9.570   2.842
32635SOL     OW97862   9.293   9.690   2.507
32635SOL    HW197863   9.215   9.706   2.559
32635SOL    HW297864   9.270   9.618   2.449
32636SOL     OW97865   0.152   0.065   3.636
32636SOL    HW197866   0.102   0.147   3.639
32636SOL    HW297867   0.227   0.081   3.693
32637SOL     OW97868   9.715   9.723   3.346
32637SOL    HW197869   9.797   9.674   3.335
32637SOL    HW297870   9.646   9.657   3.342
32638SOL     OW97871   9.337   9.975   2.471
32638SOL    HW197872   9.330   9.880   2.477
32638SOL    HW297873   9.431   9.992   2.469
32639SOL     OW97874   0.086   9.301   2.402
32639SOL    HW197875   0.129   9.384   2.382
32639SOL    HW297876   9.993   9.319   2.392
32640SOL     OW97877   9.630   9.553   3.641
32640SOL    HW197878   9.616   9.644   3.617
32640SOL    HW297879   9.555   9.530   3.696
32641SOL     OW97880   0.273   9.677   2.063
32641SOL    HW197881   0.213   9.737   2.107
32641SOL    HW297882   0.221   9.639   1.992
32642SOL     OW97883   9.820   9.489   2.768
32642SOL    HW197884   9.846   9.505   2.859
32642SOL    HW297885   9.852   9.566   2.720
32643SOL     OW97886   9.493   9.564   3.342
32643SOL    HW197887   9.411   9.610   3.358
32643SOL    HW297888   9.479   9.478   3.382
32644SOL     OW97889   9.852   9.437   1.967
32644SOL    HW197890   9.935   9.424   2.011
32644SOL    HW297891   9.866   9.406   1.878
32645SOL     OW97892   9.834   9.392   2.341
32645SOL    HW197893   9.759   9.393   2.401
32645SOL    HW297894   9.829   9.475   2.294
32646SOL     OW97895   9.607   9.343   2.047
32646SOL    HW197896   9.683   9.390   2.013
32646SOL    HW297897   9.644   9.272   2.100
32647SOL     OW97898   0.204   9.538   2.322
32647SOL    HW197899   0.245   9.615   2.282
32647SOL    HW297900   0.273   9.500   2.376
32648SOL     OW97901   9.375   9.911   3.274
32648SOL    HW197902   9.465   9.911   3.242
32648SOL    HW297903   9.340   9.996   3.247
32649SOL     OW97904   9.868   9.528   3.037
32649SOL    HW197905   9.906   9.530   3.125
32649SOL    HW297906   9.774   9.523   3.052
32650SOL     OW97907   9.828   9.623   2.179
32650SOL    HW197908   9.826   9.570   2.099
32650SOL    HW297909   9.903   9.682   2.167
32651SOL     OW97910   9.896   9.855   2.761
32651SOL    HW197911   9.941   9.912   2.698
32651SOL    HW297912   9.953   9.855   2.838
32652SOL     OW97913   9.822   9.386   3.544
32652SOL    HW197914   9.773   9.313   3.505
32652SOL    HW297915   9.754   9.445   3.578
32653SOL     OW97916   9.598   9.505   3.093
32653SOL    HW197917   9.558   9.532   3.175
32653SOL    HW297918   9.587   9.410   3.090
32654SOL     OW97919   9.609   9.373   2.497
32654SOL    HW197920   9.583   9.462   2.520
32654SOL    HW297921   9.625   9.331   2.581
32655SOL     OW97922   9.654   0.081   2.759
32655SOL    HW197923   9.741   0.121   2.768
32655SOL    HW297924   9.658   0.004   2.816
32656SOL     OW97925   9.669   9.841   2.902
32656SOL    HW197926   9.622   9.762   2.876
32656SOL    HW297927   9.751   9.837   2.852
32657SOL     OW97928   9.343   9.827   2.978
32657SOL    HW197929   9.386   9.769   2.916
32657SOL    HW297930   9.413   9.861   3.033
32658SOL     OW97931   9.556   9.811   3.563
32658SOL    HW197932   9.601   9.794   3.481
32658SOL    HW297933   9.486   9.873   3.540
32659SOL     OW97934   0.066   9.820   2.175
32659SOL    HW197935   0.088   9.839   2.266
32659SOL    HW297936   0.050   9.906   2.136
32660SOL     OW97937   9.545   9.625   2.580
32660SOL    HW197938   9.457   9.653   2.555
32660SOL    HW297939   9.546   9.630   2.676
32661SOL     OW97940   9.921   9.527   3.324
32661SOL    HW197941   0.016   9.513   3.325
32661SOL    HW297942   9.888   9.475   3.398
32662SOL     OW97943   9.377   9.629   1.897
32662SOL    HW197944   9.309   9.631   1.830
32662SOL    HW297945   9.426   9.711   1.883
32663SOL     OW97946   9.365   9.453   2.128
32663SOL    HW197947   9.349   9.520   2.061
32663SOL    HW297948   9.454   9.423   2.111
32664SOL     OW97949   9.772   9.700   2.445
32664SOL    HW197950   9.755   9.687   2.351
32664SOL    HW297951   9.688   9.684   2.487
32665SOL     OW97952   9.621   9.909   3.159
32665SOL    HW197953   9.672   9.853   3.217
32665SOL    HW297954   9.651   9.886   3.071
32666SOL     OW97955   9.509   9.623   4.723
32666SOL    HW197956   9.549   9.580   4.798
32666SOL    HW297957   9.431   9.570   4.704
32667SOL     OW97958   9.293   9.690   4.369
32667SOL    HW197959   9.215   9.706   4.421
32667SOL    HW297960   9.270   9.618   4.311
32668SOL     OW97961   0.152   0.065   5.498
32668SOL    HW197962   0.102   0.147   5.501
32668SOL    HW297963   0.227   0.081   5.554
32669SOL     OW97964   9.716   9.723   5.208
32669SOL    HW197965   9.797   9.674   5.198
32669SOL    HW297966   9.647   9.657   5.204
32670SOL     OW97967   9.337   9.975   4.333
32670SOL    HW197968   9.330   9.880   4.339
32670SOL    HW297969   9.431   9.992   4.332
32671SOL     OW97970   0.086   9.301   4.263
32671SOL    HW197971   0.129   9.384   4.243
32671SOL    HW297972   9.993   9.318   4.254
32672SOL     OW97973   9.629   9.553   5.503
32672SOL    HW197974   9.615   9.644   5.479
32672SOL    HW297975   9.554   9.531   5.559
32673SOL     OW97976   0.274   9.676   3.922
32673SOL    HW197977   0.215   9.736   3.968
32673SOL    HW297978   0.220   9.639   3.853
32674SOL     OW97979   9.820   9.489   4.630
32674SOL    HW197980   9.846   9.506   4.721
32674SOL    HW297981   9.852   9.566   4.582
32675SOL     OW97982   9.493   9.564   5.204
32675SOL    HW197983   9.410   9.610   5.219
32675SOL    HW297984   9.479   9.478   5.245
32676SOL     OW97985   9.851   9.437   3.830
32676SOL    HW197986   9.935   9.424   3.874
32676SOL    HW297987   9.866   9.406   3.740
32677SOL     OW97988   9.834   9.392   4.203
32677SOL    HW197989   9.759   9.393   4.263
32677SOL    HW297990   9.829   9.475   4.156
32678SOL     OW97991   9.606   9.343   3.909
32678SOL    HW197992   9.682   9.390   3.875
32678SOL    HW297993   9.643   9.272   3.962
32679SOL     OW97994   0.204   9.538   4.184
32679SOL    HW197995   0.245   9.616   4.147
32679SOL    HW297996   0.273   9.499   4.238
32680SOL     OW97997   9.375   9.911   5.136
32680SOL    HW197998   9.465   9.911   5.104
32680SOL    HW297999   9.340   9.996   5.110
32681SOL     OW98000   9.868   9.528   4.899
32681SOL    HW198001   9.906   9.530   4.987
32681SOL    HW298002   9.774   9.523   4.914
32682SOL     OW98003   9.827   9.623   4.041
32682SOL    HW198004   9.825   9.569   3.962
32682SOL    HW298005   9.902   9.681   4.029
32683SOL     OW98006   9.896   9.855   4.623
32683SOL    HW198007   9.941   9.912   4.560
32683SOL    HW298008   9.953   9.855   4.700
32684SOL     OW98009   9.821   9.386   5.408
32684SOL    HW198010   9.773   9.314   5.368
32684SOL    HW298011   9.753   9.445   5.441
32685SOL     OW98012   9.598   9.505   4.955
32685SOL    HW198013   9.559   9.532   5.037
32685SOL    HW298014   9.587   9.410   4.952
32686SOL     OW98015   9.609   9.373   4.359
32686SOL    HW198016   9.583   9.463   4.382
32686SOL    HW298017   9.625   9.331   4.443
32687SOL     OW98018   9.655   0.081   4.621
32687SOL    HW198019   9.741   0.121   4.630
32687SOL    HW298020   9.658   0.004   4.678
32688SOL     OW98021   9.669   9.841   4.764
32688SOL    HW198022   9.622   9.762   4.738
32688SOL    HW298023   9.751   9.837   4.714
32689SOL     OW98024   9.343   9.827   4.840
32689SOL    HW198025   9.386   9.769   4.778
32689SOL    HW298026   9.413   9.861   4.895
32690SOL     OW98027   9.555   9.811   5.425
32690SOL    HW198028   9.600   9.794   5.343
32690SOL    HW298029   9.486   9.873   5.403
32691SOL     OW98030   0.068   9.820   4.037
32691SOL    HW198031   0.090   9.839   4.128
32691SOL    HW298032   0.051   9.906   3.998
32692SOL     OW98033   9.545   9.625   4.442
32692SOL    HW198034   9.457   9.653   4.417
32692SOL    HW298035   9.546   9.630   4.538
32693SOL     OW98036   9.921   9.525   5.187
32693SOL    HW198037   0.015   9.508   5.187
32693SOL    HW298038   9.888   9.474   5.261
32694SOL     OW98039   9.377   9.629   3.759
32694SOL    HW198040   9.309   9.630   3.692
32694SOL    HW298041   9.425   9.712   3.747
32695SOL     OW98042   9.364   9.453   3.990
32695SOL    HW198043   9.349   9.520   3.923
32695SOL    HW298044   9.454   9.423   3.973
32696SOL     OW98045   9.772   9.700   4.306
32696SOL    HW198046   9.755   9.687   4.213
32696SOL    HW298047   9.688   9.684   4.349
32697SOL     OW98048   9.622   9.909   5.021
32697SOL    HW198049   9.672   9.852   5.079
32697SOL    HW298050   9.651   9.886   4.933
32698SOL     OW98051   9.509   9.623   6.585
32698SOL    HW198052   9.549   9.580   6.660
32698SOL    HW298053   9.431   9.570   6.566
32699SOL     OW98054   9.293   9.690   6.231
32699SOL    HW198055   9.215   9.706   6.283
32699SOL    HW298056   9.270   9.618   6.173
32700SOL     OW98057   0.152   0.065   7.360
32700SOL    HW198058   0.102   0.146   7.363
32700SOL    HW298059   0.227   0.081   7.418
32701SOL     OW98060   9.715   9.723   7.070
32701SOL    HW198061   9.797   9.673   7.060
32701SOL    HW298062   9.646   9.657   7.066
32702SOL     OW98063   9.337   9.975   6.195
32702SOL    HW198064   9.330   9.880   6.201
32702SOL    HW298065   9.431   9.992   6.194
32703SOL     OW98066   0.086   9.301   6.126
32703SOL    HW198067   0.129   9.384   6.106
32703SOL    HW298068   9.993   9.319   6.116
32704SOL     OW98069   9.629   9.553   7.365
32704SOL    HW198070   9.615   9.645   7.341
32704SOL    HW298071   9.554   9.532   7.421
32705SOL     OW98072   0.273   9.676   5.786
32705SOL    HW198073   0.214   9.736   5.831
32705SOL    HW298074   0.221   9.639   5.715
32706SOL     OW98075   9.820   9.489   6.492
32706SOL    HW198076   9.847   9.506   6.583
32706SOL    HW298077   9.852   9.566   6.444
32707SOL     OW98078   9.493   9.564   7.066
32707SOL    HW198079   9.410   9.610   7.080
32707SOL    HW298080   9.479   9.478   7.106
32708SOL     OW98081   9.851   9.437   5.692
32708SOL    HW198082   9.935   9.423   5.736
32708SOL    HW298083   9.865   9.406   5.602
32709SOL     OW98084   9.834   9.391   6.065
32709SOL    HW198085   9.759   9.393   6.125
32709SOL    HW298086   9.829   9.475   6.018
32710SOL     OW98087   9.606   9.343   5.772
32710SOL    HW198088   9.682   9.390   5.737
32710SOL    HW298089   9.643   9.272   5.824
32711SOL     OW98090   0.204   9.538   6.046
32711SOL    HW198091   0.245   9.615   6.006
32711SOL    HW298092   0.273   9.500   6.100
32712SOL     OW98093   9.375   9.912   7.000
32712SOL    HW198094   9.465   9.911   6.967
32712SOL    HW298095   9.340   9.996   6.972
32713SOL     OW98096   9.868   9.528   6.761
32713SOL    HW198097   9.906   9.530   6.849
32713SOL    HW298098   9.774   9.523   6.776
32714SOL     OW98099   9.828   9.623   5.903
32714SOL    HW198100   9.825   9.569   5.824
32714SOL    HW298101   9.902   9.681   5.890
32715SOL     OW98102   9.897   9.855   6.485
32715SOL    HW198103   9.941   9.912   6.422
32715SOL    HW298104   9.953   9.855   6.562
32716SOL     OW98105   9.821   9.386   7.270
32716SOL    HW198106   9.773   9.314   7.230
32716SOL    HW298107   9.752   9.445   7.303
32717SOL     OW98108   9.599   9.505   6.816
32717SOL    HW198109   9.559   9.532   6.899
32717SOL    HW298110   9.587   9.410   6.814
32718SOL     OW98111   9.609   9.373   6.221
32718SOL    HW198112   9.583   9.462   6.243
32718SOL    HW298113   9.625   9.331   6.305
32719SOL     OW98114   9.655   0.081   6.483
32719SOL    HW198115   9.741   0.121   6.492
32719SOL    HW298116   9.658   0.004   6.540
32720SOL     OW98117   9.669   9.841   6.625
32720SOL    HW198118   9.622   9.762   6.600
32720SOL    HW298119   9.751   9.837   6.576
32721SOL     OW98120   9.343   9.827   6.703
32721SOL    HW198121   9.386   9.769   6.640
32721SOL    HW298122   9.414   9.861   6.757
32722SOL     OW98123   9.555   9.812   7.287
32722SOL    HW198124   9.601   9.794   7.204
32722SOL    HW298125   9.485   9.872   7.263
32723SOL     OW98126   0.067   9.820   5.899
32723SOL    HW198127   0.089   9.839   5.990
32723SOL    HW298128   0.051   9.906   5.860
32724SOL     OW98129   9.545   9.625   6.304
32724SOL    HW198130   9.457   9.653   6.279
32724SOL    HW298131   9.546   9.630   6.400
32725SOL     OW98132   9.921   9.525   7.050
32725SOL    HW198133   0.015   9.508   7.049
32725SOL    HW298134   9.887   9.474   7.123
32726SOL     OW98135   9.377   9.629   5.622
32726SOL    HW198136   9.309   9.630   5.555
32726SOL    HW298137   9.424   9.712   5.609
32727SOL     OW98138   9.364   9.453   5.852
32727SOL    HW198139   9.349   9.520   5.785
32727SOL    HW298140   9.454   9.423   5.835
32728SOL     OW98141   9.772   9.700   6.168
32728SOL    HW198142   9.755   9.687   6.075
32728SOL    HW298143   9.688   9.684   6.211
32729SOL     OW98144   9.621   9.909   6.883
32729SOL    HW198145   9.672   9.852   6.941
32729SOL    HW298146   9.650   9.885   6.795
32730SOL     OW98147   9.509   9.622   8.446
32730SOL    HW198148   9.550   9.580   8.522
32730SOL    HW298149   9.432   9.569   8.428
32731SOL     OW98150   9.293   9.690   8.093
32731SOL    HW198151   9.215   9.706   8.145
32731SOL    HW298152   9.270   9.618   8.035
32732SOL     OW98153   0.162   0.085   9.216
32732SOL    HW198154   0.098   0.154   9.231
32732SOL    HW298155   0.247   0.128   9.229
32733SOL     OW98156   9.715   9.722   8.931
32733SOL    HW198157   9.797   9.672   8.924
32733SOL    HW298158   9.646   9.656   8.928
32734SOL     OW98159   9.337   9.975   8.058
32734SOL    HW198160   9.330   9.880   8.063
32734SOL    HW298161   9.431   9.992   8.056
32735SOL     OW98162   0.087   9.302   7.990
32735SOL    HW198163   0.129   9.385   7.970
32735SOL    HW298164   9.993   9.319   7.979
32736SOL     OW98165   9.622   9.552   9.228
32736SOL    HW198166   9.610   9.644   9.204
32736SOL    HW298167   9.547   9.532   9.285
32737SOL     OW98168   0.271   9.676   7.654
32737SOL    HW198169   0.210   9.737   7.695
32737SOL    HW298170   0.222   9.638   7.580
32738SOL     OW98171   9.821   9.489   8.353
32738SOL    HW198172   9.847   9.506   8.443
32738SOL    HW298173   9.852   9.565   8.304
32739SOL     OW98174   9.493   9.563   8.926
32739SOL    HW198175   9.408   9.607   8.935
32739SOL    HW298176   9.480   9.478   8.969
32740SOL     OW98177   9.851   9.438   7.554
32740SOL    HW198178   9.935   9.423   7.597
32740SOL    HW298179   9.864   9.406   7.464
32741SOL     OW98180   9.835   9.392   7.927
32741SOL    HW198181   9.760   9.393   7.986
32741SOL    HW298182   9.830   9.475   7.880
32742SOL     OW98183   9.606   9.343   7.634
32742SOL    HW198184   9.682   9.390   7.599
32742SOL    HW298185   9.643   9.272   7.686
32743SOL     OW98186   0.203   9.539   7.907
32743SOL    HW198187   0.244   9.610   7.857
32743SOL    HW298188   0.274   9.504   7.961
32744SOL     OW98189   9.375   9.913   8.866
32744SOL    HW198190   9.464   9.911   8.831
32744SOL    HW298191   9.339   9.996   8.837
32745SOL     OW98192   9.869   9.528   8.622
32745SOL    HW198193   9.907   9.532   8.710
32745SOL    HW298194   9.775   9.522   8.637
32746SOL     OW98195   9.828   9.623   7.765
32746SOL    HW198196   9.826   9.570   7.685
32746SOL    HW298197   9.902   9.682   7.752
32747SOL     OW98198   9.897   9.857   8.348
32747SOL    HW198199   9.942   9.913   8.285
32747SOL    HW298200   9.953   9.858   8.425
32748SOL     OW98201   9.816   9.386   9.138
32748SOL    HW198202   9.770   9.313   9.097
32748SOL    HW298203   9.746   9.444   9.171
32749SOL     OW98204   9.600   9.504   8.678
32749SOL    HW198205   9.560   9.531   8.760
32749SOL    HW298206   9.588   9.409   8.675
32750SOL     OW98207   9.609   9.373   8.082
32750SOL    HW198208   9.583   9.463   8.105
32750SOL    HW298209   9.625   9.331   8.167
32751SOL     OW98210   9.652   0.080   8.345
32751SOL    HW198211   9.738   0.120   8.352
32751SOL    HW298212   9.656   0.003   8.402
32752SOL     OW98213   9.669   9.841   8.488
32752SOL    HW198214   9.622   9.762   8.461
32752SOL    HW298215   9.751   9.837   8.438
32753SOL     OW98216   9.344   9.827   8.568
32753SOL    HW198217   9.384   9.768   8.504
32753SOL    HW298218   9.418   9.862   8.617
32754SOL     OW98219   9.554   9.812   9.144
32754SOL    HW198220   9.602   9.791   9.064
32754SOL    HW298221   9.480   9.865   9.114
32755SOL     OW98222   0.063   9.820   7.761
32755SOL    HW198223   0.085   9.839   7.852
32755SOL    HW298224   0.048   9.906   7.722
32756SOL     OW98225   9.545   9.625   8.166
32756SOL    HW198226   9.457   9.653   8.141
32756SOL    HW298227   9.546   9.629   8.262
32757SOL     OW98228   9.919   9.520   8.917
32757SOL    HW198229   0.009   9.488   8.913
32757SOL    HW298230   9.881   9.474   8.992
32758SOL     OW98231   9.377   9.630   7.484
32758SOL    HW198232   9.309   9.630   7.416
32758SOL    HW298233   9.424   9.712   7.471
32759SOL     OW98234   9.364   9.453   7.714
32759SOL    HW198235   9.349   9.520   7.647
32759SOL    HW298236   9.454   9.423   7.697
32760SOL     OW98237   9.772   9.700   8.031
32760SOL    HW198238   9.756   9.687   7.937
32760SOL    HW298239   9.688   9.684   8.072
32761SOL     OW98240   9.619   9.908   8.745
32761SOL    HW198241   9.670   9.852   8.803
32761SOL    HW298242   9.649   9.884   8.657
32762SOL     OW98243   9.408   9.860   9.912
32762SOL    HW198244   9.340   9.890   9.851
32762SOL    HW298245   9.467   9.934   9.921
32763SOL     OW98246   0.088   9.352   9.856
32763SOL    HW198247   0.104   9.447   9.849
32763SOL    HW298248   9.994   9.343   9.840
32764SOL     OW98249   0.275   9.699   9.505
32764SOL    HW198250   0.202   9.744   9.547
32764SOL    HW298251   0.236   9.655   9.429
32765SOL     OW98252   9.854   9.450   9.419
32765SOL    HW198253   9.938   9.437   9.462
32765SOL    HW298254   9.867   9.414   9.331
32766SOL     OW98255   9.817   9.394   9.810
32766SOL    HW198256   9.732   9.402   9.854
32766SOL    HW298257   9.825   9.475   9.759
32767SOL     OW98258   9.603   9.358   9.489
32767SOL    HW198259   9.678   9.407   9.456
32767SOL    HW298260   9.641   9.288   9.543
32768SOL     OW98261   0.236   9.570   9.755
32768SOL    HW198262   0.284   9.607   9.681
32768SOL    HW298263   0.303   9.546   9.818
32769SOL     OW98264   9.835   9.623   9.641
32769SOL    HW198265   9.827   9.571   9.561
32769SOL    HW298266   9.905   9.685   9.623
32770SOL     OW98267   9.564   9.399   9.936
32770SOL    HW198268   9.515   9.479   9.951
32770SOL    HW298269   9.577   9.361   0.023
32771SOL     OW98270   9.638   9.817   0.286
32771SOL    HW198271   9.555   9.770   0.274
32771SOL    HW298272   9.704   9.748   0.281
32772SOL     OW98273   0.048   9.811   9.610
32772SOL    HW198274   0.051   9.816   9.705
32772SOL    HW298275   0.041   9.902   9.581
32773SOL     OW98276   9.371   9.632   9.349
32773SOL    HW198277   9.307   9.636   9.278
32773SOL    HW298278   9.419   9.715   9.342
32774SOL     OW98279   9.357   9.457   9.572
32774SOL    HW198280   9.345   9.523   9.504
32774SOL    HW298281   9.447   9.427   9.560
32775SOL     OW98282   9.755   9.677   9.901
32775SOL    HW198283   9.771   9.672   9.807
32775SOL    HW298284   9.685   9.742   9.910
32776NA      NA98285   3.507   6.413   3.556
32777NA      NA98286   4.449   1.598   5.110
32778NA      NA98287   5.833   3.393   9.316
  10.00000  10.00000  10.00000
