;----------------------------TITLE -----------------------------------------------------------------------------------------
;   Caffeine
[ moleculetype ]
; Name   nrexcl
DYMJ     3
[ atoms ]
;  nr  type  resnr  resid  atom  cgnr  charge    mass
    1  OOpt    1    DYMJ     O2    1   -0.596  15.9994
    2  CAro    1    DYMJ     C6    2    0.695  12.0110
    3     N    1    DYMJ     N1    3   -0.358  14.0067
    4  COpt    1    DYMJ     C7    4   -0.237  12.0110
    5  HOpt    1    DYMJ     H6    5    0.130   1.0080
    6  HOpt    1    DYMJ     H7    6    0.130   1.0080
    7  HOpt    1    DYMJ     H8    7    0.130   1.0080
    8  CAro    1    DYMJ     C4    8    0.740  12.0110
    9  OOpt    1    DYMJ     O1    9   -0.583  15.9994
   10  CAro    1    DYMJ     C3   10   -0.487  12.0110
   11  CAro    1    DYMJ     C1   11    0.536  12.0110
   12     N    1    DYMJ     N3   12   -0.256  14.0067
   13  COpt    1    DYMJ     C2   13   -0.262  12.0110
   14  HOpt    1    DYMJ     H3   14    0.139   1.0080
   15  HOpt    1    DYMJ     H4   15    0.139   1.0080
   16  HOpt    1    DYMJ     H5   16    0.139   1.0080
   17  NOpt    1    DYMJ     N2   17   -0.616  14.0067
   18  CAro    1    DYMJ     C5   18    0.163  12.0110
   19  HCAr    1    DYMJ    H10   19    0.153   1.0080
   20  NOpt    1    DYMJ     N4   20    0.201  14.0067
   21  COpt    1    DYMJ     C8   21   -0.452  12.0110
   22  HOpt    1    DYMJ     H1   22    0.184   1.0080
   23  HOpt    1    DYMJ     H2   23    0.184   1.0080
   24  HOpt    1    DYMJ     H9   24    0.184   1.0080
; total charge of the molecule:   0.000
[ bonds ]
;  ai   aj  funct   c0         c1
    1    2    2   0.1230   1.6600e+07
    2    3    2   0.1400   8.5400e+06
    2   12    2   0.1380   4.4633e+06
    3    4    2   0.1470   8.7100e+06
    3    8    2   0.1400   8.5400e+06
    4    5    2   0.1090   1.2300e+07
    4    6    2   0.1090   1.2300e+07
    4    7    2   0.1090   1.2300e+07
    8    9    2   0.1230   1.6600e+07
    8   10    2   0.1430   8.1800e+06
   10   11    2   0.1380   1.1000e+07
   10   20    2   0.1380   1.1000e+07
   11   12    2   0.1380   1.1000e+07
   11   17    2   0.1350   1.0300e+07
   12   13    2   0.1460   4.6913e+06
   13   14    2   0.1090   1.2300e+07
   13   15    2   0.1090   1.2300e+07
   13   16    2   0.1090   1.2300e+07
   17   18    2   0.1330   1.0600e+07
   18   19    2   0.1090   1.2300e+07
   18   20    2   0.1340   1.0500e+07
   20   21    2   0.1460   4.6913e+06
   21   22    2   0.1090   1.2300e+07
   21   23    2   0.1090   1.2300e+07
   21   24    2   0.1090   1.2300e+07
[ pairs ]
;  ai   aj  funct  ;  all 1-4 pairs but the ones excluded in GROMOS itp
    1    4    1
    1    8    1
    1   11    1
    1   13    1
    2    5    1
    2    6    1
    2    7    1
    2    9    1
    2   14    1
    2   15    1
    2   16    1
    2   17    1
    3   13    1
    3   20    1
    4    9    1
    4   10    1
    4   12    1
    5    8    1
    6    8    1
    7    8    1
    8   17    1
    8   18    1
    8   21    1
    9   11    1
    9   20    1
   10   13    1
   10   19    1
   10   22    1
   10   23    1
   10   24    1
   11   14    1
   11   15    1
   11   16    1
   11   19    1
   11   21    1
   12   18    1
   12   20    1
   13   17    1
   17   21    1
   18   22    1
   18   23    1
   18   24    1
   19   21    1
[ angles ]
;  ai   aj   ak  funct   angle     fc
    1    2    3    2    120.00   780.00
    1    2   12    2    124.00   730.00
    3    2   12    2    120.00   560.00
    2    3    4    2    116.00   620.00
    2    3    8    2    124.00   730.00
    4    3    8    2    117.00   635.00
    3    4    5    2    109.60   450.00
    3    4    6    2    109.60   450.00
    3    4    7    2    109.60   450.00
    5    4    6    2    109.50   448.00
    5    4    7    2    109.50   448.00
    6    4    7    2    109.50   448.00
    3    8    9    2    124.00   730.00
    3    8   10    2    111.00   530.00
    9    8   10    2    126.00   640.00
    8   10   11    2    126.00   640.00
    8   10   20    2    130.00  1867.10
   11   10   20    2    108.00   465.00
   10   11   12    2    120.00   560.00
   10   11   17    2    111.00   530.00
   12   11   17    2    126.00  1827.65
    2   12   11    2    120.00   560.00
    2   12   13    2    120.00   560.00
   11   12   13    2    121.00   685.00
   12   13   14    2    111.00   530.00
   12   13   15    2    111.00   530.00
   12   13   16    2    111.00   530.00
   14   13   15    2    109.60   450.00
   14   13   16    2    109.60   450.00
   15   13   16    2    109.60   450.00
   11   17   18    2    104.00   490.00
   17   18   19    2    124.00   730.00
   17   18   20    2    113.00   545.00
   19   18   20    2    120.00   505.00
   10   20   18    2    106.00  1733.55
   10   20   21    2    126.00  1827.65
   18   20   21    2    126.00  1827.65
   20   21   22    2    109.50   448.00
   20   21   23    2    109.50   448.00
   20   21   24    2    109.50   448.00
   22   21   23    2    109.50   448.00
   22   21   24    2    109.50   448.00
   23   21   24    2    109.50   448.00
[ dihedrals ]
; GROMOS improper dihedrals
;  ai   aj   ak   al  funct   angle     fc
   11   10   12   17    2      0.00   167.36
   10    8   11   20    2      0.00   167.36
    8    3    9   10    2      0.00   167.36
    3    2    4    8    2      0.00   167.36
   18   17   19   20    2      0.00   167.36
    2    1    3   12    2      0.00   167.36
   12    2   11   13    2      0.00   167.36
   20   10   18   21    2      0.00   167.36
[ dihedrals ]
;  ai   aj   ak   al  funct    ph0      cp     mult
    2    3    8   10    1    180.00    50.00    1
    3    2   12   11    1    180.00    50.00    1
    3    8   10   11    1    180.00    50.00    1
    8    3    4    5    1      0.00     3.77    6
    8   10   11   12    1    180.00    50.00    1
   10   11   12    2    1    180.00    50.00    1
   10   11   17   18    1    180.00    50.00    1
   10   20   21   22    1      0.00     3.77    6
   11   10   20   18    1    180.00    50.00    1
   11   12   13   14    1      0.00     3.77    6
   11   17   18   20    1    180.00    50.00    1
   12    2    3    8    1    180.00    50.00    1
   17   18   20   10    1    180.00    50.00    1
[ exclusions ]
;  ai   aj  funct  ;  GROMOS 1-4 exclusions
    2   10
    3   11
    8   12
