HO7A in water
 2640
    1HO7A    H8    1   1.760   1.580   1.564
    1HO7A    C7    2   1.713   1.498   1.511
    1HO7A    H6    3   1.741   1.506   1.406
    1HO7A    H7    4   1.756   1.406   1.552
    1HO7A    C4    5   1.566   1.501   1.525
    1HO7A    C3    6   1.495   1.383   1.517
    1HO7A    H3    7   1.547   1.287   1.527
    1HO7A    C2    8   1.358   1.384   1.500
    1HO7A    H2    9   1.303   1.289   1.503
    1HO7A    C1   10   1.290   1.505   1.493
    1HO7A    H1   11   1.182   1.507   1.498
    1HO7A    C6   12   1.361   1.624   1.499
    1HO7A    H5   13   1.308   1.719   1.494
    1HO7A    C5   14   1.499   1.622   1.513
    1HO7A    H4   15   1.555   1.714   1.500
    2SOL     OW   16   0.231   0.656   0.102
    2SOL    HW1   17   0.164   0.608   0.160
    2SOL    HW2   18   0.252   0.600   0.023
    3SOL     OW   19   0.208   0.271   1.000
    3SOL    HW1   20   0.249   0.249   1.088
    3SOL    HW2   21   0.110   0.250   1.002
    4SOL     OW   22   0.009   0.387   0.657
    4SOL    HW1   23   2.923   0.428   0.689
    4SOL    HW2   24   2.988   0.311   0.595
    5SOL     OW   25   0.567   1.280   1.171
    5SOL    HW1   26   0.475   1.273   1.135
    5SOL    HW2   27   0.582   1.371   1.210
    6SOL     OW   28   1.554   1.510   0.705
    6SOL    HW1   29   1.510   1.494   0.793
    6SOL    HW2   30   1.484   1.520   0.634
    7SOL     OW   31   1.130   0.702   0.704
    7SOL    HW1   32   1.185   0.785   0.687
    7SOL    HW2   33   1.079   0.713   0.789
    8SOL     OW   34   1.761   0.597   0.231
    8SOL    HW1   35   1.748   0.583   0.133
    8SOL    HW2   36   1.724   0.518   0.281
    9SOL     OW   37   0.760   1.147   1.033
    9SOL    HW1   38   0.686   1.175   1.093
    9SOL    HW2   39   0.797   1.227   0.985
   10SOL     OW   40   0.856   0.786   1.818
   10SOL    HW1   41   0.849   0.857   1.888
   10SOL    HW2   42   0.884   0.828   1.731
   11SOL     OW   43   0.685   1.009   0.655
   11SOL    HW1   44   0.754   0.991   0.725
   11SOL    HW2   45   0.608   1.059   0.694
   12SOL     OW   46   0.704   1.155   1.808
   12SOL    HW1   47   0.757   1.237   1.833
   12SOL    HW2   48   0.615   1.183   1.772
   13SOL     OW   49   0.328   1.435   1.068
   13SOL    HW1   50   0.260   1.382   1.018
   13SOL    HW2   51   0.388   1.483   1.004
   14SOL     OW   52   0.448   0.400   1.495
   14SOL    HW1   53   0.528   0.340   1.496
   14SOL    HW2   54   0.365   0.345   1.505
   15SOL     OW   55   1.612   0.456   0.735
   15SOL    HW1   56   1.532   0.483   0.682
   15SOL    HW2   57   1.637   0.531   0.797
   16SOL     OW   58   0.222   1.715   0.481
   16SOL    HW1   59   0.244   1.799   0.530
   16SOL    HW2   60   0.288   1.702   0.407
   17SOL     OW   61   1.119   1.333   1.696
   17SOL    HW1   62   1.176   1.339   1.778
   17SOL    HW2   63   1.065   1.249   1.698
   18SOL     OW   64   0.245   1.450   0.533
   18SOL    HW1   65   0.212   1.544   0.527
   18SOL    HW2   66   0.182   1.395   0.587
   19SOL     OW   67   0.255   1.084   0.894
   19SOL    HW1   68   0.255   0.991   0.932
   19SOL    HW2   69   0.193   1.142   0.947
   20SOL     OW   70   0.616   1.791   1.435
   20SOL    HW1   71   0.529   1.769   1.477
   20SOL    HW2   72   0.642   1.885   1.457
   21SOL     OW   73   0.593   0.974   0.148
   21SOL    HW1   74   0.604   1.047   0.081
   21SOL    HW2   75   0.637   1.001   0.234
   22SOL     OW   76   1.548   0.142   1.468
   22SOL    HW1   77   1.584   0.210   1.405
   22SOL    HW2   78   1.618   0.120   1.537
   23SOL     OW   79   0.122   0.631   0.572
   23SOL    HW1   80   0.079   0.547   0.605
   23SOL    HW2   81   0.117   0.701   0.643
   24SOL     OW   82   1.844   1.763   0.337
   24SOL    HW1   83   1.896   1.724   0.413
   24SOL    HW2   84   1.870   1.858   0.324
   25SOL     OW   85   0.016   1.596   0.114
   25SOL    HW1   86   0.020   1.498   0.133
   25SOL    HW2   87   2.993   1.646   0.197
   26SOL     OW   88   1.690   0.921   0.636
   26SOL    HW1   89   1.780   0.878   0.624
   26SOL    HW2   90   1.668   0.975   0.554
   27SOL     OW   91   1.648   1.109   0.433
   27SOL    HW1   92   1.735   1.114   0.384
   27SOL    HW2   93   1.650   1.172   0.511
   28SOL     OW   94   0.123   0.746   1.593
   28SOL    HW1   95   0.223   0.748   1.605
   28SOL    HW2   96   0.088   0.839   1.587
   29SOL     OW   97   0.609   1.380   0.734
   29SOL    HW1   98   0.562   1.292   0.745
   29SOL    HW2   99   0.595   1.413   0.641
   30SOL     OW  100   0.818   0.012   0.503
   30SOL    HW1  101   0.851   0.107   0.493
   30SOL    HW2  102   0.718   0.012   0.500
   31SOL     OW  103   0.191   0.962   1.270
   31SOL    HW1  104   0.279   0.919   1.250
   31SOL    HW2  105   0.119   0.913   1.222
   32SOL     OW  106   1.509   1.007   0.209
   32SOL    HW1  107   1.441   0.939   0.240
   32SOL    HW2  108   1.565   1.036   0.286
   33SOL     OW  109   0.327   0.253   1.796
   33SOL    HW1  110   0.388   0.330   1.817
   33SOL    HW2  111   0.240   0.265   1.844
   34SOL     OW  112   1.463   1.419   0.953
   34SOL    HW1  113   1.396   1.435   1.026
   34SOL    HW2  114   1.456   1.324   0.922
   35SOL     OW  115   1.661   1.727   0.577
   35SOL    HW1  116   1.634   1.704   0.483
   35SOL    HW2  117   1.635   1.654   0.638
   36SOL     OW  118   0.592   0.722   0.266
   36SOL    HW1  119   0.607   0.805   0.212
   36SOL    HW2  120   0.526   0.740   0.338
   37SOL     OW  121   1.285   0.340   0.930
   37SOL    HW1  122   1.189   0.313   0.935
   37SOL    HW2  123   1.337   0.291   1.001
   38SOL     OW  124   1.585   1.666   0.308
   38SOL    HW1  125   1.677   1.705   0.306
   38SOL    HW2  126   1.556   1.644   0.215
   39SOL     OW  127   0.794   0.614   1.457
   39SOL    HW1  128   0.765   0.595   1.550
   39SOL    HW2  129   0.749   0.550   1.394
   40SOL     OW  130   1.397   0.475   1.678
   40SOL    HW1  131   1.390   0.521   1.766
   40SOL    HW2  132   1.459   0.397   1.685
   41SOL     OW  133   0.961   0.888   1.577
   41SOL    HW1  134   1.017   0.812   1.545
   41SOL    HW2  135   0.909   0.925   1.500
   42SOL     OW  136   0.995   0.418   1.229
   42SOL    HW1  137   0.919   0.439   1.291
   42SOL    HW2  138   0.961   0.363   1.152
   43SOL     OW  139   1.045   0.704   0.426
   43SOL    HW1  140   1.066   0.697   0.523
   43SOL    HW2  141   0.963   0.651   0.405
   44SOL     OW  142   0.103   0.820   0.763
   44SOL    HW1  143   0.185   0.809   0.819
   44SOL    HW2  144   0.038   0.879   0.810
   45SOL     OW  145   0.139   1.836   1.575
   45SOL    HW1  146   0.127   1.811   1.671
   45SOL    HW2  147   0.052   1.864   1.536
   46SOL     OW  148   0.924   0.338   0.221
   46SOL    HW1  149   0.936   0.404   0.146
   46SOL    HW2  150   0.882   0.255   0.184
   47SOL     OW  151   1.713   0.581   1.827
   47SOL    HW1  152   1.675   0.663   1.784
   47SOL    HW2  153   1.733   0.513   1.757
   48SOL     OW  154   1.372   1.142   0.540
   48SOL    HW1  155   1.456   1.122   0.488
   48SOL    HW2  156   1.318   1.209   0.490
   49SOL     OW  157   0.516   0.195   0.914
   49SOL    HW1  158   0.536   0.209   1.011
   49SOL    HW2  159   0.548   0.274   0.861
   50SOL     OW  160   1.007   1.448   0.473
   50SOL    HW1  161   0.963   1.521   0.421
   50SOL    HW2  162   0.998   1.466   0.571
   51SOL     OW  163   0.355   1.803   0.853
   51SOL    HW1  164   0.402   1.716   0.866
   51SOL    HW2  165   0.419   1.879   0.868
   52SOL     OW  166   1.796   1.062   0.867
   52SOL    HW1  167   1.740   1.046   0.786
   52SOL    HW2  168   1.738   1.066   0.948
   53SOL     OW  169   0.323   0.951   0.230
   53SOL    HW1  170   0.419   0.961   0.207
   53SOL    HW2  171   0.292   0.860   0.202
   54SOL     OW  172   1.473   0.738   0.727
   54SOL    HW1  173   1.459   0.687   0.812
   54SOL    HW2  174   1.552   0.799   0.738
   55SOL     OW  175   0.462   1.257   1.732
   55SOL    HW1  176   0.433   1.267   1.637
   55SOL    HW2  177   0.383   1.264   1.792
   56SOL     OW  178   1.110   1.775   0.225
   56SOL    HW1  179   1.048   1.727   0.287
   56SOL    HW2  180   1.144   1.711   0.156
   57SOL     OW  181   0.200   0.297   1.498
   57SOL    HW1  182   0.114   0.345   1.484
   57SOL    HW2  183   0.187   0.222   1.563
   58SOL     OW  184   1.625   1.364   0.083
   58SOL    HW1  185   1.599   1.461   0.076
   58SOL    HW2  186   1.544   1.307   0.076
   59SOL     OW  187   0.468   1.727   0.331
   59SOL    HW1  188   0.497   1.797   0.396
   59SOL    HW2  189   0.537   1.718   0.259
   60SOL     OW  190   1.408   0.106   0.432
   60SOL    HW1  191   1.387   0.078   0.338
   60SOL    HW2  192   1.506   0.128   0.438
   61SOL     OW  193   0.262   1.797   1.232
   61SOL    HW1  194   0.304   1.725   1.287
   61SOL    HW2  195   0.228   1.758   1.147
   62SOL     OW  196   0.937   1.698   0.901
   62SOL    HW1  197   1.020   1.647   0.924
   62SOL    HW2  198   0.888   1.650   0.828
   63SOL     OW  199   0.389   0.692   0.475
   63SOL    HW1  200   0.426   0.600   0.487
   63SOL    HW2  201   0.293   0.693   0.503
   64SOL     OW  202   1.539   0.245   1.736
   64SOL    HW1  203   1.542   0.257   1.835
   64SOL    HW2  204   1.480   0.168   1.713
   65SOL     OW  205   0.611   0.108   0.109
   65SOL    HW1  206   0.710   0.110   0.121
   65SOL    HW2  207   0.589   0.130   0.014
   66SOL     OW  208   0.768   0.270   1.750
   66SOL    HW1  209   0.844   0.207   1.766
   66SOL    HW2  210   0.714   0.279   1.833
   67SOL     OW  211   0.879   1.517   1.193
   67SOL    HW1  212   0.859   1.485   1.100
   67SOL    HW2  213   0.949   1.458   1.233
   68SOL     OW  214   1.345   0.589   1.433
   68SOL    HW1  215   1.373   0.552   1.522
   68SOL    HW2  216   1.378   0.683   1.424
   69SOL     OW  217   0.812   1.399   0.931
   69SOL    HW1  218   0.902   1.392   0.887
   69SOL    HW2  219   0.740   1.394   0.862
   70SOL     OW  220   0.925   0.509   0.902
   70SOL    HW1  221   0.901   0.501   0.805
   70SOL    HW2  222   0.963   0.422   0.933
   71SOL     OW  223   0.538   0.050   0.496
   71SOL    HW1  224   0.449   0.041   0.542
   71SOL    HW2  225   0.538   0.133   0.440
   72SOL     OW  226   1.413   1.207   0.051
   72SOL    HW1  227   1.441   1.128   0.107
   72SOL    HW2  228   1.319   1.233   0.074
   73SOL     OW  229   0.302   0.077   0.194
   73SOL    HW1  230   0.377   0.142   0.183
   73SOL    HW2  231   0.339   2.986   0.212
   74SOL     OW  232   0.944   0.250   0.474
   74SOL    HW1  233   0.911   0.290   0.389
   74SOL    HW2  234   1.044   0.257   0.477
   75SOL     OW  235   1.080   0.677   1.460
   75SOL    HW1  236   1.001   0.616   1.466
   75SOL    HW2  237   1.164   0.623   1.451
   76SOL     OW  238   1.225   1.569   0.795
   76SOL    HW1  239   1.242   1.639   0.725
   76SOL    HW2  240   1.296   1.574   0.865
   77SOL     OW  241   0.464   1.145   0.739
   77SOL    HW1  242   0.390   1.128   0.805
   77SOL    HW2  243   0.430   1.132   0.646
   78SOL     OW  244   1.271   1.795   0.601
   78SOL    HW1  245   1.318   1.858   0.539
   78SOL    HW2  246   1.205   1.846   0.656
   79SOL     OW  247   1.039   0.505   0.028
   79SOL    HW1  248   0.995   0.592   0.008
   79SOL    HW2  249   1.111   0.518   0.097
   80SOL     OW  250   0.083   0.562   1.391
   80SOL    HW1  251   0.174   0.558   1.351
   80SOL    HW2  252   0.082   0.631   1.464
   81SOL     OW  253   0.575   0.217   1.175
   81SOL    HW1  254   0.615   0.155   1.242
   81SOL    HW2  255   0.479   0.231   1.196
   82SOL     OW  256   0.876   0.467   0.638
   82SOL    HW1  257   0.821   0.523   0.576
   82SOL    HW2  258   0.888   0.376   0.599
   83SOL     OW  259   0.998   0.051   0.765
   83SOL    HW1  260   0.959   0.062   0.673
   83SOL    HW2  261   0.979   2.959   0.799
   84SOL     OW  262   1.437   1.164   0.858
   84SOL    HW1  263   1.367   1.093   0.861
   84SOL    HW2  264   1.462   1.184   0.763
   85SOL     OW  265   1.471   0.598   0.984
   85SOL    HW1  266   1.418   0.513   0.988
   85SOL    HW2  267   1.535   0.600   1.060
   86SOL     OW  268   1.847   0.821   0.382
   86SOL    HW1  269   1.903   0.762   0.440
   86SOL    HW2  270   1.817   0.769   0.302
   87SOL     OW  271   0.488   1.403   0.157
   87SOL    HW1  272   0.418   1.374   0.222
   87SOL    HW2  273   0.448   1.410   0.066
   88SOL     OW  274   1.668   1.268   0.652
   88SOL    HW1  275   1.767   1.271   0.661
   88SOL    HW2  276   1.630   1.358   0.673
   89SOL     OW  277   1.409   0.579   0.100
   89SOL    HW1  278   1.334   0.567   0.165
   89SOL    HW2  279   1.468   0.498   0.102
   90SOL     OW  280   0.530   0.264   0.326
   90SOL    HW1  281   0.568   0.205   0.255
   90SOL    HW2  282   0.507   0.353   0.286
   91SOL     OW  283   1.058   1.339   1.333
   91SOL    HW1  284   0.972   1.316   1.380
   91SOL    HW2  285   1.134   1.330   1.397
   92SOL     OW  286   1.126   1.206   1.105
   92SOL    HW1  287   1.069   1.240   1.180
   92SOL    HW2  288   1.085   1.232   1.018
   93SOL     OW  289   1.632   1.096   1.077
   93SOL    HW1  290   1.631   1.165   1.149
   93SOL    HW2  291   1.549   1.106   1.021
   94SOL     OW  292   0.905   0.108   1.392
   94SOL    HW1  293   0.939   0.085   1.301
   94SOL    HW2  294   0.973   0.163   1.440
   95SOL     OW  295   0.978   1.109   1.722
   95SOL    HW1  296   0.882   1.127   1.742
   95SOL    HW2  297   0.985   1.028   1.663
   96SOL     OW  298   0.705   1.059   0.378
   96SOL    HW1  299   0.687   1.051   0.476
   96SOL    HW2  300   0.789   1.010   0.355
   97SOL     OW  301   0.418   0.811   1.250
   97SOL    HW1  302   0.491   0.826   1.317
   97SOL    HW2  303   0.377   0.722   1.265
   98SOL     OW  304   1.271   0.388   1.261
   98SOL    HW1  305   1.304   0.462   1.320
   98SOL    HW2  306   1.174   0.401   1.243
   99SOL     OW  307   0.069   1.569   1.309
   99SOL    HW1  308   0.021   1.656   1.325
   99SOL    HW2  309   0.161   1.574   1.349
  100SOL     OW  310   0.364   1.108   0.491
  100SOL    HW1  311   0.352   1.188   0.432
  100SOL    HW2  312   0.359   1.025   0.436
  101SOL     OW  313   0.556   0.545   0.864
  101SOL    HW1  314   0.575   0.601   0.783
  101SOL    HW2  315   0.620   0.570   0.937
  102SOL     OW  316   1.247   1.348   0.396
  102SOL    HW1  317   1.307   1.424   0.424
  102SOL    HW2  318   1.153   1.367   0.424
  103SOL     OW  319   1.279   1.452   1.151
  103SOL    HW1  320   1.308   1.460   1.246
  103SOL    HW2  321   1.218   1.372   1.141
  104SOL     OW  322   1.583   0.629   0.476
  104SOL    HW1  323   1.539   0.686   0.544
  104SOL    HW2  324   1.633   0.687   0.411
  105SOL     OW  325   0.354   1.523   1.323
  105SOL    HW1  326   0.328   1.481   1.235
  105SOL    HW2  327   0.452   1.538   1.325
  106SOL     OW  328   0.410   0.742   1.601
  106SOL    HW1  329   0.468   0.797   1.540
  106SOL    HW2  330   0.455   0.656   1.621
  107SOL     OW  331   1.596   0.780   1.678
  107SOL    HW1  332   1.503   0.814   1.674
  107SOL    HW2  333   1.651   0.824   1.606
  108SOL     OW  334   1.003   0.108   1.762
  108SOL    HW1  335   1.043   0.196   1.735
  108SOL    HW2  336   1.030   0.038   1.696
  109SOL     OW  337   0.500   0.053   1.749
  109SOL    HW1  338   0.474   2.989   1.677
  109SOL    HW2  339   0.428   0.121   1.762
  110SOL     OW  340   0.582   0.870   1.033
  110SOL    HW1  341   0.614   0.964   1.022
  110SOL    HW2  342   0.520   0.864   1.111
  111SOL     OW  343   1.363   0.861   1.036
  111SOL    HW1  344   1.277   0.860   0.984
  111SOL    HW2  345   1.400   0.768   1.039
  112SOL     OW  346   1.205   0.531   0.274
  112SOL    HW1  347   1.215   0.444   0.324
  112SOL    HW2  348   1.163   0.599   0.334
  113SOL     OW  349   0.322   0.208   1.245
  113SOL    HW1  350   0.288   0.254   1.327
  113SOL    HW2  351   0.275   0.120   1.234
  114SOL     OW  352   0.040   1.305   1.281
  114SOL    HW1  353   0.074   1.254   1.360
  114SOL    HW2  354   0.048   1.403   1.299
  115SOL     OW  355   0.728   0.633   1.061
  115SOL    HW1  356   0.801   0.609   0.997
  115SOL    HW2  357   0.694   0.725   1.040
  116SOL     OW  358   1.730   0.958   1.849
  116SOL    HW1  359   1.683   0.903   1.780
  116SOL    HW2  360   1.670   0.972   1.928
  117SOL     OW  361   0.309   0.066   0.642
  117SOL    HW1  362   0.306   0.160   0.675
  117SOL    HW2  363   0.285   0.003   0.716
  118SOL     OW  364   1.615   0.374   0.369
  118SOL    HW1  365   1.647   0.304   0.432
  118SOL    HW2  366   1.586   0.454   0.421
  119SOL     OW  367   1.024   0.759   0.964
  119SOL    HW1  368   1.029   0.781   1.061
  119SOL    HW2  369   0.995   0.663   0.953
  120SOL     OW  370   0.995   1.572   1.707
  120SOL    HW1  371   0.967   1.612   1.619
  120SOL    HW2  372   1.032   1.480   1.691
  121SOL     OW  373   0.354   0.913   1.806
  121SOL    HW1  374   0.436   0.937   1.858
  121SOL    HW2  375   0.378   0.850   1.733
  122SOL     OW  376   1.509   0.294   0.127
  122SOL    HW1  377   1.462   0.207   0.142
  122SOL    HW2  378   1.565   0.316   0.206
  123SOL     OW  379   1.295   0.825   0.036
  123SOL    HW1  380   1.336   0.736   0.052
  123SOL    HW2  381   1.322   0.859   2.946
  124SOL     OW  382   1.066   1.335   0.850
  124SOL    HW1  383   1.067   1.256   0.789
  124SOL    HW2  384   1.130   1.403   0.817
  125SOL     OW  385   0.314   0.810   0.947
  125SOL    HW1  386   0.411   0.834   0.943
  125SOL    HW2  387   0.304   0.719   0.988
  126SOL     OW  388   0.337   0.512   1.014
  126SOL    HW1  389   0.292   0.426   0.992
  126SOL    HW2  390   0.414   0.526   0.952
  127SOL     OW  391   1.141   0.385   1.696
  127SOL    HW1  392   1.093   0.440   1.764
  127SOL    HW2  393   1.234   0.419   1.685
  128SOL     OW  394   1.102   0.254   1.474
  128SOL    HW1  395   1.124   0.307   1.556
  128SOL    HW2  396   1.185   0.241   1.419
  129SOL     OW  397   0.007   1.314   0.173
  129SOL    HW1  398   2.912   1.335   0.150
  129SOL    HW2  399   0.011   1.233   0.232
  130SOL     OW  400   0.100   1.803   0.961
  130SOL    HW1  401   0.051   1.735   0.906
  130SOL    HW2  402   0.190   1.820   0.920
  131SOL     OW  403   0.500   1.573   0.904
  131SOL    HW1  404   0.569   1.639   0.931
  131SOL    HW2  405   0.542   1.501   0.849
  132SOL     OW  406   0.991   0.798   1.231
  132SOL    HW1  407   1.044   0.768   1.310
  132SOL    HW2  408   0.899   0.759   1.236
  133SOL     OW  409   0.046   0.559   1.107
  133SOL    HW1  410   0.136   0.527   1.076
  133SOL    HW2  411   0.038   0.544   1.205
  134SOL     OW  412   0.196   0.517   1.720
  134SOL    HW1  413   0.268   0.488   1.657
  134SOL    HW2  414   0.150   0.597   1.682
  135SOL     OW  415   1.375   0.944   1.663
  135SOL    HW1  416   1.399   1.039   1.681
  135SOL    HW2  417   1.378   0.927   1.564
  136SOL     OW  418   0.818   0.577   0.346
  136SOL    HW1  419   0.826   0.493   0.292
  136SOL    HW2  420   0.733   0.624   0.323
  137SOL     OW  421   1.646   0.603   1.191
  137SOL    HW1  422   1.624   0.541   1.267
  137SOL    HW2  423   1.735   0.580   1.154
  138SOL     OW  424   0.281   1.560   1.749
  138SOL    HW1  425   0.221   1.625   1.797
  138SOL    HW2  426   0.250   1.466   1.768
  139SOL     OW  427   0.689   0.460   1.265
  139SOL    HW1  428   0.643   0.376   1.234
  139SOL    HW2  429   0.695   0.524   1.188
  140SOL     OW  430   0.934   1.683   1.465
  140SOL    HW1  431   0.906   1.642   1.379
  140SOL    HW2  432   0.934   1.783   1.457
  141SOL     OW  433   0.443   0.496   0.204
  141SOL    HW1  434   0.518   0.561   0.215
  141SOL    HW2  435   0.357   0.545   0.193
  142SOL     OW  436   0.161   1.139   1.465
  142SOL    HW1  437   0.149   1.090   1.552
  142SOL    HW2  438   0.171   1.074   1.391
  143SOL     OW  439   1.330   1.051   1.230
  143SOL    HW1  440   1.359   0.987   1.158
  143SOL    HW2  441   1.253   1.106   1.197
  144SOL     OW  442   1.305   0.849   0.309
  144SOL    HW1  443   1.224   0.826   0.362
  144SOL    HW2  444   1.286   0.840   0.211
  145SOL     OW  445   1.760   1.755   1.143
  145SOL    HW1  446   1.829   1.778   1.075
  145SOL    HW2  447   1.736   1.658   1.135
  146SOL     OW  448   1.244   1.732   1.117
  146SOL    HW1  449   1.329   1.754   1.069
  146SOL    HW2  450   1.241   1.634   1.137
  147SOL     OW  451   0.092   1.246   1.028
  147SOL    HW1  452   0.078   1.261   1.126
  147SOL    HW2  453   0.005   1.257   0.979
  148SOL     OW  454   0.683   1.665   1.721
  148SOL    HW1  455   0.623   1.745   1.726
  148SOL    HW2  456   0.740   1.672   1.640
  149SOL     OW  457   0.887   0.085   0.140
  149SOL    HW1  458   0.940   0.065   0.057
  149SOL    HW2  459   0.922   0.030   0.216
  150SOL     OW  460   1.716   0.139   0.505
  150SOL    HW1  461   1.791   0.135   0.439
  150SOL    HW2  462   1.719   0.058   0.564
  151SOL     OW  463   1.391   1.570   0.481
  151SOL    HW1  464   1.457   1.598   0.411
  151SOL    HW2  465   1.341   1.650   0.513
  152SOL     OW  466   0.128   1.795   1.845
  152SOL    HW1  467   0.080   1.722   1.894
  152SOL    HW2  468   0.189   1.843   1.908
  153SOL     OW  469   1.279   0.923   0.667
  153SOL    HW1  470   1.354   0.857   0.677
  153SOL    HW2  471   1.313   1.003   0.616
  154SOL     OW  472   0.819   1.274   1.432
  154SOL    HW1  473   0.795   1.313   1.521
  154SOL    HW2  474   0.744   1.291   1.368
  155SOL     OW  475   0.673   1.606   0.158
  155SOL    HW1  476   0.675   1.630   0.060
  155SOL    HW2  477   0.615   1.526   0.172
  156SOL     OW  478   1.847   0.159   0.965
  156SOL    HW1  479   1.858   0.073   0.916
  156SOL    HW2  480   1.760   0.202   0.939
  157SOL     OW  481   0.269   0.336   0.743
  157SOL    HW1  482   0.177   0.370   0.721
  157SOL    HW2  483   0.271   0.303   0.837
  158SOL     OW  484   1.204   1.605   0.034
  158SOL    HW1  485   1.199   1.512   0.070
  158SOL    HW2  486   1.147   1.612   2.952
  159SOL     OW  487   0.824   1.008   1.374
  159SOL    HW1  488   0.868   0.997   1.285
  159SOL    HW2  489   0.826   1.105   1.400
  160SOL     OW  490   0.920   0.926   0.304
  160SOL    HW1  491   0.985   0.961   0.236
  160SOL    HW2  492   0.962   0.851   0.355
  161SOL     OW  493   1.490   1.602   0.049
  161SOL    HW1  494   1.392   1.619   0.057
  161SOL    HW2  495   1.522   1.630   2.959
  162SOL     OW  496   0.372   1.301   1.489
  162SOL    HW1  497   0.359   1.386   1.438
  162SOL    HW2  498   0.292   1.242   1.476
  163SOL     OW  499   1.615   1.282   1.266
  163SOL    HW1  500   1.696   1.285   1.325
  163SOL    HW2  501   1.542   1.338   1.307
  164SOL     OW  502   1.046   1.103   0.707
  164SOL    HW1  503   0.972   1.051   0.751
  164SOL    HW2  504   1.111   1.039   0.665
  165SOL     OW  505   1.017   0.240   0.966
  165SOL    HW1  506   1.009   0.191   0.879
  165SOL    HW2  507   1.018   0.174   1.041
  166SOL     OW  508   0.600   1.490   0.485
  166SOL    HW1  509   0.641   1.434   0.413
  166SOL    HW2  510   0.536   1.555   0.443
  167SOL     OW  511   1.721   0.390   1.380
  167SOL    HW1  512   1.792   0.461   1.378
  167SOL    HW2  513   1.747   0.316   1.318
  168SOL     OW  514   0.261   1.340   0.295
  168SOL    HW1  515   0.169   1.342   0.256
  168SOL    HW2  516   0.260   1.386   0.384
  169SOL     OW  517   0.124   1.014   1.712
  169SOL    HW1  518   0.041   0.979   1.755
  169SOL    HW2  519   0.204   0.976   1.757
  170SOL     OW  520   0.668   0.208   1.494
  170SOL    HW1  521   0.753   0.181   1.448
  170SOL    HW2  522   0.686   0.223   1.591
  171SOL     OW  523   0.071   0.323   0.049
  171SOL    HW1  524   2.973   0.325   0.031
  171SOL    HW2  525   0.113   0.407   0.014
  172SOL     OW  526   1.432   0.861   1.402
  172SOL    HW1  527   1.379   0.923   1.344
  172SOL    HW2  528   1.528   0.861   1.372
  173SOL     OW  529   0.039   0.190   0.292
  173SOL    HW1  530   0.045   0.255   0.216
  173SOL    HW2  531   0.127   0.144   0.302
  174SOL     OW  532   1.185   1.351   0.125
  174SOL    HW1  533   1.088   1.329   0.111
  174SOL    HW2  534   1.208   1.340   0.221
  175SOL     OW  535   0.618   0.833   1.431
  175SOL    HW1  536   0.673   0.915   1.417
  175SOL    HW2  537   0.678   0.754   1.441
  176SOL     OW  538   1.489   1.774   0.976
  176SOL    HW1  539   1.515   1.830   0.898
  176SOL    HW2  540   1.569   1.758   1.034
  177SOL     OW  541   0.716   0.565   1.709
  177SOL    HW1  542   0.751   0.636   1.771
  177SOL    HW2  543   0.762   0.478   1.729
  178SOL     OW  544   0.386   1.738   1.563
  178SOL    HW1  545   0.297   1.781   1.551
  178SOL    HW2  546   0.375   1.650   1.610
  179SOL     OW  547   1.676   0.881   1.255
  179SOL    HW1  548   1.662   0.790   1.216
  179SOL    HW2  549   1.664   0.950   1.184
  180SOL     OW  550   1.228   0.316   0.454
  180SOL    HW1  551   1.291   0.239   0.449
  180SOL    HW2  552   1.247   0.371   0.536
  181SOL     OW  553   0.593   0.742   0.660
  181SOL    HW1  554   0.635   0.832   0.650
  181SOL    HW2  555   0.514   0.736   0.600
  182SOL     OW  556   1.763   0.351   1.645
  182SOL    HW1  557   1.746   0.375   1.549
  182SOL    HW2  558   1.680   0.313   1.685
  183SOL     OW  559   1.738   0.936   1.512
  183SOL    HW1  560   1.784   1.024   1.528
  183SOL    HW2  561   1.726   0.923   1.414
  184SOL     OW  562   0.902   1.385   0.060
  184SOL    HW1  563   0.827   1.383   0.125
  184SOL    HW2  564   0.871   1.426   2.974
  185SOL     OW  565   0.659   1.795   0.951
  185SOL    HW1  566   0.631   1.887   0.924
  185SOL    HW2  567   0.758   1.786   0.939
  186SOL     OW  568   0.865   0.964   0.858
  186SOL    HW1  569   0.918   0.889   0.899
  186SOL    HW2  570   0.830   1.023   0.931
  187SOL     OW  571   1.101   1.023   0.094
  187SOL    HW1  572   1.058   1.056   0.010
  187SOL    HW2  573   1.167   0.952   0.072
  188SOL     OW  574   1.858   1.559   0.846
  188SOL    HW1  575   1.780   1.549   0.784
  188SOL    HW2  576   1.853   1.490   0.918
  189SOL     OW  577   0.224   1.305   1.854
  189SOL    HW1  578   0.171   1.225   1.825
  189SOL    HW2  579   0.213   1.318   1.953
  190SOL     OW  580   0.126   1.250   0.662
  190SOL    HW1  581   0.079   1.186   0.723
  190SOL    HW2  582   0.175   1.199   0.592
  191SOL     OW  583   0.679   1.401   1.628
  191SOL    HW1  584   0.597   1.350   1.654
  191SOL    HW2  585   0.673   1.494   1.665
  192SOL     OW  586   1.794   0.177   1.233
  192SOL    HW1  587   1.840   0.100   1.277
  192SOL    HW2  588   1.824   0.182   1.137
  193SOL     OW  589   0.459   0.431   0.542
  193SOL    HW1  590   0.457   0.366   0.466
  193SOL    HW2  591   0.401   0.397   0.616
  194SOL     OW  592   1.697   1.497   1.101
  194SOL    HW1  593   1.615   1.465   1.052
  194SOL    HW2  594   1.726   1.426   1.165
  195SOL     OW  595   0.330   0.550   1.288
  195SOL    HW1  596   0.387   0.496   1.349
  195SOL    HW2  597   0.350   0.526   1.193
  196SOL     OW  598   0.823   1.579   0.682
  196SOL    HW1  599   0.828   1.620   0.591
  196SOL    HW2  600   0.740   1.523   0.689
  197SOL     OW  601   1.428   0.218   1.126
  197SOL    HW1  602   1.456   0.139   1.181
  197SOL    HW2  603   1.375   0.281   1.182
  198SOL     OW  604   1.009   0.030   1.152
  198SOL    HW1  605   0.932   2.986   1.107
  198SOL    HW2  606   1.091   2.974   1.141
  199SOL     OW  607   0.765   1.328   0.312
  199SOL    HW1  608   0.730   1.236   0.326
  199SOL    HW2  609   0.857   1.335   0.352
  200SOL     OW  610   0.623   1.562   1.285
  200SOL    HW1  611   0.622   1.647   1.339
  200SOL    HW2  612   0.713   1.551   1.242
  201SOL     OW  613   1.353   0.055   0.170
  201SOL    HW1  614   1.416   2.989   0.129
  201SOL    HW2  615   1.259   0.021   0.163
  202SOL     OW  616   1.297   0.460   0.685
  202SOL    HW1  617   1.240   0.542   0.690
  202SOL    HW2  618   1.297   0.415   0.774
  203SOL     OW  619   1.605   0.233   0.887
  203SOL    HW1  620   1.521   0.222   0.940
  203SOL    HW2  621   1.595   0.312   0.826
  204SOL     OW  622   0.067   1.088   0.340
  204SOL    HW1  623   0.151   1.053   0.298
  204SOL    HW2  624   2.997   1.017   0.339
  205SOL     OW  625   0.878   1.652   0.347
  205SOL    HW1  626   0.808   1.625   0.281
  205SOL    HW2  627   0.847   1.730   0.400
  206SOL     OW  628   0.235   0.646   1.972
  206SOL    HW1  629   0.165   0.606   2.031
  206SOL    HW2  630   0.230   0.603   1.882
  207SOL     OW  631   0.233   0.250   2.850
  207SOL    HW1  632   0.255   0.241   2.947
  207SOL    HW2  633   0.135   0.239   2.836
  208SOL     OW  634   0.008   0.385   2.521
  208SOL    HW1  635   2.922   0.426   2.550
  208SOL    HW2  636   2.990   0.310   2.457
  209SOL     OW  637   1.554   1.510   2.567
  209SOL    HW1  638   1.508   1.492   2.654
  209SOL    HW2  639   1.485   1.520   2.494
  210SOL     OW  640   1.132   0.702   2.566
  210SOL    HW1  641   1.186   0.784   2.547
  210SOL    HW2  642   1.079   0.715   2.650
  211SOL     OW  643   1.761   0.607   2.093
  211SOL    HW1  644   1.744   0.599   1.994
  211SOL    HW2  645   1.729   0.524   2.139
  212SOL     OW  646   0.754   1.147   2.889
  212SOL    HW1  647   0.684   1.183   2.951
  212SOL    HW2  648   0.805   1.223   2.849
  213SOL     OW  649   0.685   1.010   2.515
  213SOL    HW1  650   0.754   0.992   2.585
  213SOL    HW2  651   0.608   1.060   2.556
  214SOL     OW  652   0.331   1.453   2.930
  214SOL    HW1  653   0.271   1.386   2.886
  214SOL    HW2  654   0.391   1.494   2.861
  215SOL     OW  655   1.615   0.456   2.592
  215SOL    HW1  656   1.533   0.479   2.540
  215SOL    HW2  657   1.628   0.523   2.666
  216SOL     OW  658   0.224   1.712   2.347
  216SOL    HW1  659   0.245   1.798   2.393
  216SOL    HW2  660   0.280   1.703   2.265
  217SOL     OW  661   0.246   1.446   2.390
  217SOL    HW1  662   0.216   1.542   2.389
  217SOL    HW2  663   0.183   1.393   2.447
  218SOL     OW  664   0.239   1.085   2.750
  218SOL    HW1  665   0.258   0.997   2.794
  218SOL    HW2  666   0.191   1.145   2.814
  219SOL     OW  667   0.592   0.980   1.993
  219SOL    HW1  668   0.631   1.037   1.921
  219SOL    HW2  669   0.635   1.003   2.080
  220SOL     OW  670   0.127   0.628   2.436
  220SOL    HW1  671   0.079   0.546   2.467
  220SOL    HW2  672   0.119   0.699   2.506
  221SOL     OW  673   1.842   1.763   2.201
  221SOL    HW1  674   1.898   1.729   2.277
  221SOL    HW2  675   1.869   1.857   2.179
  222SOL     OW  676   0.029   1.597   1.995
  222SOL    HW1  677   0.021   1.498   2.005
  222SOL    HW2  678   2.979   1.642   2.068
  223SOL     OW  679   1.690   0.921   2.497
  223SOL    HW1  680   1.780   0.878   2.485
  223SOL    HW2  681   1.668   0.974   2.415
  224SOL     OW  682   1.646   1.109   2.294
  224SOL    HW1  683   1.732   1.116   2.243
  224SOL    HW2  684   1.648   1.171   2.372
  225SOL     OW  685   0.607   1.378   2.593
  225SOL    HW1  686   0.560   1.291   2.604
  225SOL    HW2  687   0.593   1.412   2.499
  226SOL     OW  688   0.819   0.010   2.361
  226SOL    HW1  689   0.851   0.104   2.352
  226SOL    HW2  690   0.719   0.010   2.362
  227SOL     OW  691   1.535   0.991   2.058
  227SOL    HW1  692   1.460   0.929   2.081
  227SOL    HW2  693   1.574   1.029   2.143
  228SOL     OW  694   1.437   1.422   2.803
  228SOL    HW1  695   1.416   1.428   2.900
  228SOL    HW2  696   1.446   1.326   2.776
  229SOL     OW  697   1.660   1.728   2.439
  229SOL    HW1  698   1.634   1.704   2.346
  229SOL    HW2  699   1.635   1.654   2.501
  230SOL     OW  700   0.596   0.725   2.126
  230SOL    HW1  701   0.610   0.804   2.067
  230SOL    HW2  702   0.527   0.746   2.195
  231SOL     OW  703   1.293   0.332   2.804
  231SOL    HW1  704   1.194   0.319   2.799
  231SOL    HW2  705   1.327   0.297   2.891
  232SOL     OW  706   1.585   1.667   2.171
  232SOL    HW1  707   1.677   1.705   2.170
  232SOL    HW2  708   1.556   1.647   2.077
  233SOL     OW  709   1.046   0.699   2.291
  233SOL    HW1  710   1.065   0.694   2.389
  233SOL    HW2  711   0.962   0.649   2.270
  234SOL     OW  712   0.103   0.818   2.626
  234SOL    HW1  713   0.187   0.809   2.681
  234SOL    HW2  714   0.043   0.886   2.668
  235SOL     OW  715   0.873   0.353   2.052
  235SOL    HW1  716   0.934   0.413   2.000
  235SOL    HW2  717   0.892   0.258   2.030
  236SOL     OW  718   1.373   1.144   2.403
  236SOL    HW1  719   1.456   1.122   2.351
  236SOL    HW2  720   1.318   1.210   2.351
  237SOL     OW  721   0.546   0.195   2.815
  237SOL    HW1  722   0.515   0.258   2.886
  237SOL    HW2  723   0.563   0.245   2.730
  238SOL     OW  724   1.007   1.447   2.335
  238SOL    HW1  725   0.964   1.522   2.284
  238SOL    HW2  726   0.999   1.464   2.433
  239SOL     OW  727   0.354   1.800   2.712
  239SOL    HW1  728   0.402   1.714   2.728
  239SOL    HW2  729   0.415   1.876   2.731
  240SOL     OW  730   1.802   1.062   2.721
  240SOL    HW1  731   1.742   1.045   2.643
  240SOL    HW2  732   1.747   1.064   2.805
  241SOL     OW  733   0.317   0.949   2.104
  241SOL    HW1  734   0.405   0.979   2.068
  241SOL    HW2  735   0.293   0.860   2.064
  242SOL     OW  736   1.472   0.742   2.589
  242SOL    HW1  737   1.465   0.682   2.669
  242SOL    HW2  738   1.554   0.797   2.596
  243SOL     OW  739   1.120   1.774   2.092
  243SOL    HW1  740   1.046   1.733   2.145
  243SOL    HW2  741   1.142   1.715   2.015
  244SOL     OW  742   1.627   1.376   1.948
  244SOL    HW1  743   1.588   1.467   1.938
  244SOL    HW2  744   1.559   1.307   1.924
  245SOL     OW  745   0.468   1.739   2.182
  245SOL    HW1  746   0.503   1.798   2.255
  245SOL    HW2  747   0.543   1.712   2.122
  246SOL     OW  748   1.408   0.108   2.293
  246SOL    HW1  749   1.389   0.075   2.200
  246SOL    HW2  750   1.506   0.130   2.301
  247SOL     OW  751   0.263   1.798   0.098
  247SOL    HW1  752   0.306   1.729   0.155
  247SOL    HW2  753   0.209   1.754   0.027
  248SOL     OW  754   0.941   1.692   2.759
  248SOL    HW1  755   1.025   1.639   2.768
  248SOL    HW2  756   0.883   1.652   2.689
  249SOL     OW  757   0.390   0.692   2.339
  249SOL    HW1  758   0.427   0.600   2.350
  249SOL    HW2  759   0.293   0.691   2.365
  250SOL     OW  760   0.622   0.123   1.974
  250SOL    HW1  761   0.714   0.086   1.981
  250SOL    HW2  762   0.583   0.101   1.884
  251SOL     OW  763   0.806   1.402   2.784
  251SOL    HW1  764   0.897   1.392   2.746
  251SOL    HW2  765   0.738   1.392   2.711
  252SOL     OW  766   0.920   0.516   2.758
  252SOL    HW1  767   0.900   0.497   2.662
  252SOL    HW2  768   0.955   0.433   2.802
  253SOL     OW  769   0.541   0.058   2.363
  253SOL    HW1  770   0.450   0.042   2.403
  253SOL    HW2  771   0.536   0.135   2.300
  254SOL     OW  772   1.429   1.192   1.899
  254SOL    HW1  773   1.464   1.116   1.953
  254SOL    HW2  774   1.340   1.219   1.933
  255SOL     OW  775   0.294   0.033   2.047
  255SOL    HW1  776   0.342   0.115   2.017
  255SOL    HW2  777   0.359   2.969   2.087
  256SOL     OW  778   0.940   0.250   2.329
  256SOL    HW1  779   0.901   0.296   2.249
  256SOL    HW2  780   1.039   0.260   2.329
  257SOL     OW  781   1.221   1.581   2.668
  257SOL    HW1  782   1.244   1.642   2.591
  257SOL    HW2  783   1.303   1.563   2.721
  258SOL     OW  784   0.461   1.144   2.602
  258SOL    HW1  785   0.387   1.129   2.667
  258SOL    HW2  786   0.428   1.129   2.509
  259SOL     OW  787   1.271   1.795   2.463
  259SOL    HW1  788   1.318   1.858   2.401
  259SOL    HW2  789   1.205   1.846   2.518
  260SOL     OW  790   1.023   0.549   1.882
  260SOL    HW1  791   0.982   0.637   1.858
  260SOL    HW2  792   1.092   0.563   1.953
  261SOL     OW  793   0.875   0.466   2.498
  261SOL    HW1  794   0.821   0.522   2.434
  261SOL    HW2  795   0.887   0.375   2.459
  262SOL     OW  796   0.999   0.048   2.624
  262SOL    HW1  797   0.960   0.057   2.533
  262SOL    HW2  798   0.980   2.956   2.659
  263SOL     OW  799   1.439   1.161   2.715
  263SOL    HW1  800   1.363   1.096   2.714
  263SOL    HW2  801   1.465   1.183   2.621
  264SOL     OW  802   1.489   0.583   2.821
  264SOL    HW1  803   1.421   0.511   2.831
  264SOL    HW2  804   1.518   0.614   2.912
  265SOL     OW  805   1.849   0.819   2.242
  265SOL    HW1  806   1.906   0.766   2.304
  265SOL    HW2  807   1.815   0.760   2.169
  266SOL     OW  808   0.492   1.407   2.027
  266SOL    HW1  809   0.411   1.380   2.080
  266SOL    HW2  810   0.471   1.404   1.930
  267SOL     OW  811   1.668   1.268   2.512
  267SOL    HW1  812   1.767   1.271   2.522
  267SOL    HW2  813   1.630   1.358   2.534
  268SOL     OW  814   1.391   0.573   1.934
  268SOL    HW1  815   1.329   0.553   2.010
  268SOL    HW2  816   1.482   0.538   1.956
  269SOL     OW  817   0.529   0.266   2.183
  269SOL    HW1  818   0.564   0.205   2.112
  269SOL    HW2  819   0.512   0.356   2.144
  270SOL     OW  820   1.648   1.103   2.933
  270SOL    HW1  821   1.655   1.174   0.003
  270SOL    HW2  822   1.559   1.109   2.888
  271SOL     OW  823   0.708   1.056   2.234
  271SOL    HW1  824   0.692   1.047   2.333
  271SOL    HW2  825   0.789   1.003   2.209
  272SOL     OW  826   0.357   1.106   2.354
  272SOL    HW1  827   0.358   1.187   2.295
  272SOL    HW2  828   0.360   1.023   2.298
  273SOL     OW  829   0.551   0.547   2.730
  273SOL    HW1  830   0.571   0.597   2.646
  273SOL    HW2  831   0.619   0.570   2.800
  274SOL     OW  832   1.247   1.350   2.254
  274SOL    HW1  833   1.307   1.424   2.284
  274SOL    HW2  834   1.154   1.367   2.285
  275SOL     OW  835   1.584   0.629   2.337
  275SOL    HW1  836   1.538   0.687   2.405
  275SOL    HW2  837   1.630   0.686   2.270
  276SOL     OW  838   0.577   0.870   2.880
  276SOL    HW1  839   0.622   0.955   2.855
  276SOL    HW2  840   0.540   0.877   2.973
  277SOL     OW  841   1.210   0.533   2.135
  277SOL    HW1  842   1.217   0.447   2.185
  277SOL    HW2  843   1.164   0.601   2.193
  278SOL     OW  844   0.731   0.640   2.916
  278SOL    HW1  845   0.800   0.610   2.851
  278SOL    HW2  846   0.695   0.730   2.888
  279SOL     OW  847   0.310   0.066   2.504
  279SOL    HW1  848   0.304   0.160   2.539
  279SOL    HW2  849   0.284   0.003   2.577
  280SOL     OW  850   1.610   0.374   2.233
  280SOL    HW1  851   1.648   0.305   2.295
  280SOL    HW2  852   1.586   0.456   2.284
  281SOL     OW  853   1.019   0.761   2.820
  281SOL    HW1  854   1.027   0.775   2.918
  281SOL    HW2  855   0.993   0.666   2.802
  282SOL     OW  856   1.532   0.274   1.994
  282SOL    HW1  857   1.466   0.203   2.018
  282SOL    HW2  858   1.568   0.316   2.078
  283SOL     OW  859   1.297   0.828   1.898
  283SOL    HW1  860   1.337   0.737   1.905
  283SOL    HW2  861   1.324   0.869   1.810
  284SOL     OW  862   1.055   1.346   2.698
  284SOL    HW1  863   1.065   1.258   2.650
  284SOL    HW2  864   1.132   1.405   2.676
  285SOL     OW  865   0.313   0.811   2.811
  285SOL    HW1  866   0.410   0.835   2.807
  285SOL    HW2  867   0.303   0.719   2.849
  286SOL     OW  868   0.324   0.516   2.871
  286SOL    HW1  869   0.287   0.426   2.849
  286SOL    HW2  870   0.406   0.533   2.816
  287SOL     OW  871   2.997   1.318   2.044
  287SOL    HW1  872   2.901   1.331   2.019
  287SOL    HW2  873   0.008   1.233   2.094
  288SOL     OW  874   0.096   1.813   2.807
  288SOL    HW1  875   0.052   1.733   2.766
  288SOL    HW2  876   0.190   1.820   2.775
  289SOL     OW  877   0.505   1.575   2.762
  289SOL    HW1  878   0.575   1.642   2.787
  289SOL    HW2  879   0.547   1.501   2.709
  290SOL     OW  880   0.982   0.760   0.086
  290SOL    HW1  881   1.036   0.754   0.171
  290SOL    HW2  882   0.886   0.770   0.109
  291SOL     OW  883   0.814   0.571   2.211
  291SOL    HW1  884   0.822   0.490   2.152
  291SOL    HW2  885   0.735   0.625   2.184
  292SOL     OW  886   0.700   0.447   0.097
  292SOL    HW1  887   0.607   0.410   0.093
  292SOL    HW2  888   0.707   0.524   0.034
  293SOL     OW  889   0.468   0.497   2.052
  293SOL    HW1  890   0.532   0.572   2.069
  293SOL    HW2  891   0.375   0.533   2.045
  294SOL     OW  892   1.305   0.855   2.169
  294SOL    HW1  893   1.225   0.827   2.221
  294SOL    HW2  894   1.288   0.842   2.071
  295SOL     OW  895   1.733   1.763   2.971
  295SOL    HW1  896   1.815   1.793   2.923
  295SOL    HW2  897   1.753   1.680   0.023
  296SOL     OW  898   0.075   1.249   2.900
  296SOL    HW1  899   0.050   1.273   2.994
  296SOL    HW2  900   2.999   1.271   2.838
  297SOL     OW  901   1.719   0.140   2.367
  297SOL    HW1  902   1.788   0.133   2.295
  297SOL    HW2  903   1.722   0.058   2.424
  298SOL     OW  904   1.391   1.570   2.343
  298SOL    HW1  905   1.457   1.597   2.273
  298SOL    HW2  906   1.341   1.650   2.374
  299SOL     OW  907   1.279   0.925   2.529
  299SOL    HW1  908   1.352   0.858   2.540
  299SOL    HW2  909   1.313   1.003   2.477
  300SOL     OW  910   0.673   1.612   2.016
  300SOL    HW1  911   0.682   1.627   1.918
  300SOL    HW2  912   0.618   1.530   2.032
  301SOL     OW  913   1.851   0.162   2.815
  301SOL    HW1  914   1.856   0.072   2.774
  301SOL    HW2  915   1.761   0.202   2.797
  302SOL     OW  916   0.271   0.337   2.602
  302SOL    HW1  917   0.179   0.371   2.583
  302SOL    HW2  918   0.275   0.301   2.695
  303SOL     OW  919   1.203   1.608   1.888
  303SOL    HW1  920   1.203   1.516   1.929
  303SOL    HW2  921   1.133   1.613   1.817
  304SOL     OW  922   0.917   0.910   2.149
  304SOL    HW1  923   0.981   0.945   2.080
  304SOL    HW2  924   0.960   0.835   2.199
  305SOL     OW  925   1.496   1.625   1.906
  305SOL    HW1  926   1.396   1.620   1.901
  305SOL    HW2  927   1.535   1.626   1.814
  306SOL     OW  928   1.048   1.102   2.570
  306SOL    HW1  929   0.972   1.051   2.611
  306SOL    HW2  930   1.112   1.038   2.527
  307SOL     OW  931   1.012   0.242   2.814
  307SOL    HW1  932   1.007   0.181   2.735
  307SOL    HW2  933   1.045   0.192   2.893
  308SOL     OW  934   0.600   1.489   2.345
  308SOL    HW1  935   0.641   1.433   2.272
  308SOL    HW2  936   0.533   1.551   2.305
  309SOL     OW  937   0.252   1.348   2.146
  309SOL    HW1  938   0.155   1.343   2.123
  309SOL    HW2  939   0.263   1.388   2.237
  310SOL     OW  940   0.094   0.330   1.913
  310SOL    HW1  941   0.006   0.295   1.880
  310SOL    HW2  942   0.116   0.416   1.866
  311SOL     OW  943   0.029   0.213   2.149
  311SOL    HW1  944   0.063   0.267   2.072
  311SOL    HW2  945   0.094   0.140   2.170
  312SOL     OW  946   1.183   1.346   1.982
  312SOL    HW1  947   1.088   1.316   1.977
  312SOL    HW2  948   1.214   1.342   2.077
  313SOL     OW  949   1.504   1.781   2.829
  313SOL    HW1  950   1.518   1.832   2.744
  313SOL    HW2  951   1.586   1.785   2.885
  314SOL     OW  952   1.717   0.853   0.066
  314SOL    HW1  953   1.638   0.801   0.100
  314SOL    HW2  954   1.690   0.947   0.047
  315SOL     OW  955   1.226   0.316   2.316
  315SOL    HW1  956   1.291   0.240   2.312
  315SOL    HW2  957   1.245   0.372   2.397
  316SOL     OW  958   0.591   0.743   2.524
  316SOL    HW1  959   0.636   0.831   2.511
  316SOL    HW2  960   0.514   0.735   2.461
  317SOL     OW  961   0.864   1.369   1.891
  317SOL    HW1  962   0.818   1.389   1.978
  317SOL    HW2  963   0.884   1.455   1.845
  318SOL     OW  964   0.662   1.797   2.821
  318SOL    HW1  965   0.633   1.886   2.787
  318SOL    HW2  966   0.760   1.785   2.806
  319SOL     OW  967   0.862   0.963   2.718
  319SOL    HW1  968   0.916   0.889   2.758
  319SOL    HW2  969   0.830   1.024   2.791
  320SOL     OW  970   1.080   0.988   1.949
  320SOL    HW1  971   1.053   1.039   1.867
  320SOL    HW2  972   1.160   0.932   1.928
  321SOL     OW  973   1.854   1.561   2.714
  321SOL    HW1  974   1.780   1.547   2.648
  321SOL    HW2  975   1.864   1.479   2.770
  322SOL     OW  976   0.124   1.248   2.521
  322SOL    HW1  977   0.087   1.186   2.589
  322SOL    HW2  978   0.182   1.197   2.457
  323SOL     OW  979   1.810   0.191   0.081
  323SOL    HW1  980   1.834   0.108   0.131
  323SOL    HW2  981   1.829   0.177   2.983
  324SOL     OW  982   0.460   0.431   2.401
  324SOL    HW1  983   0.458   0.365   2.326
  324SOL    HW2  984   0.403   0.398   2.476
  325SOL     OW  985   0.818   1.586   2.542
  325SOL    HW1  986   0.827   1.619   2.448
  325SOL    HW2  987   0.739   1.525   2.549
  326SOL     OW  988   0.772   1.331   2.170
  326SOL    HW1  989   0.733   1.239   2.177
  326SOL    HW2  990   0.859   1.334   2.219
  327SOL     OW  991   1.348   0.047   2.030
  327SOL    HW1  992   1.412   2.989   1.980
  327SOL    HW2  993   1.261   0.000   2.039
  328SOL     OW  994   1.297   0.458   2.550
  328SOL    HW1  995   1.240   0.540   2.555
  328SOL    HW2  996   1.298   0.413   2.639
  329SOL     OW  997   1.601   0.237   2.751
  329SOL    HW1  998   1.509   0.218   2.784
  329SOL    HW2  999   1.599   0.313   2.686
  330SOL     OW 1000   0.062   1.083   2.167
  330SOL    HW1 1001   0.155   1.047   2.161
  330SOL    HW2 1002   0.000   1.011   2.198
  331SOL     OW 1003   0.877   1.650   2.209
  331SOL    HW1 1004   0.807   1.626   2.142
  331SOL    HW2 1005   0.849   1.730   2.261
  332SOL     OW 1006   0.231   2.513   0.098
  332SOL    HW1 1007   0.164   2.467   0.157
  332SOL    HW2 1008   0.250   2.455   0.018
  333SOL     OW 1009   0.213   2.137   0.991
  333SOL    HW1 1010   0.250   2.109   1.079
  333SOL    HW2 1011   0.123   2.096   0.978
  334SOL     OW 1012   0.017   2.248   0.642
  334SOL    HW1 1013   2.930   2.285   0.675
  334SOL    HW2 1014   0.001   2.160   0.597
  335SOL     OW 1015   1.134   2.568   0.704
  335SOL    HW1 1016   1.185   2.653   0.690
  335SOL    HW2 1017   1.078   2.577   0.787
  336SOL     OW 1018   1.757   2.460   0.228
  336SOL    HW1 1019   1.749   2.441   0.130
  336SOL    HW2 1020   1.724   2.380   0.280
  337SOL     OW 1021   0.761   0.009   1.030
  337SOL    HW1 1022   0.674   0.033   1.072
  337SOL    HW2 1023   0.791   0.082   0.969
  338SOL     OW 1024   0.862   2.645   1.819
  338SOL    HW1 1025   0.843   2.710   1.893
  338SOL    HW2 1026   0.887   2.695   1.736
  339SOL     OW 1027   0.657   2.848   0.704
  339SOL    HW1 1028   0.753   2.854   0.729
  339SOL    HW2 1029   0.625   2.938   0.674
  340SOL     OW 1030   0.469   2.268   1.490
  340SOL    HW1 1031   0.544   2.202   1.492
  340SOL    HW2 1032   0.382   2.221   1.506
  341SOL     OW 1033   1.614   2.312   0.739
  341SOL    HW1 1034   1.533   2.339   0.686
  341SOL    HW2 1035   1.642   2.388   0.797
  342SOL     OW 1036   0.214   0.309   0.469
  342SOL    HW1 1037   0.225   0.393   0.523
  342SOL    HW2 1038   0.190   0.233   0.530
  343SOL     OW 1039   0.236   2.945   0.879
  343SOL    HW1 1040   0.258   2.859   0.925
  343SOL    HW2 1041   0.197   0.009   0.944
  344SOL     OW 1042   0.616   2.831   0.147
  344SOL    HW1 1043   0.598   2.924   0.115
  344SOL    HW2 1044   0.671   2.834   0.230
  345SOL     OW 1045   1.593   1.977   1.479
  345SOL    HW1 1046   1.590   2.046   1.407
  345SOL    HW2 1047   1.591   2.021   1.569
  346SOL     OW 1048   0.119   2.499   0.567
  346SOL    HW1 1049   0.091   2.408   0.598
  346SOL    HW2 1050   0.114   2.562   0.644
  347SOL     OW 1051   1.699   2.806   0.624
  347SOL    HW1 1052   1.779   2.747   0.633
  347SOL    HW2 1053   1.683   2.827   0.528
  348SOL     OW 1054   0.123   2.608   1.590
  348SOL    HW1 1055   0.222   2.611   1.605
  348SOL    HW2 1056   0.085   2.700   1.601
  349SOL     OW 1057   0.655   0.238   0.685
  349SOL    HW1 1058   0.591   0.172   0.724
  349SOL    HW2 1059   0.606   0.298   0.622
  350SOL     OW 1060   1.301   0.052   1.437
  350SOL    HW1 1061   1.333   2.994   1.362
  350SOL    HW2 1062   1.378   0.103   1.475
  351SOL     OW 1063   0.811   1.863   0.503
  351SOL    HW1 1064   0.856   1.951   0.490
  351SOL    HW2 1065   0.712   1.877   0.514
  352SOL     OW 1066   0.193   2.835   1.257
  352SOL    HW1 1067   0.280   2.788   1.250
  352SOL    HW2 1068   0.118   2.773   1.232
  353SOL     OW 1069   1.524   2.844   0.204
  353SOL    HW1 1070   1.449   2.793   0.246
  353SOL    HW2 1071   1.591   2.870   0.274
  354SOL     OW 1072   0.332   2.112   1.806
  354SOL    HW1 1073   0.388   2.194   1.820
  354SOL    HW2 1074   0.242   2.127   1.847
  355SOL     OW 1075   0.594   2.584   0.269
  355SOL    HW1 1076   0.604   2.665   0.211
  355SOL    HW2 1077   0.524   2.601   0.338
  356SOL     OW 1078   1.280   2.206   0.933
  356SOL    HW1 1079   1.186   2.173   0.936
  356SOL    HW2 1080   1.336   2.156   0.998
  357SOL     OW 1081   0.794   2.475   1.455
  357SOL    HW1 1082   0.766   2.457   1.550
  357SOL    HW2 1083   0.749   2.410   1.394
  358SOL     OW 1084   1.394   2.333   1.678
  358SOL    HW1 1085   1.388   2.381   1.766
  358SOL    HW2 1086   1.463   2.262   1.683
  359SOL     OW 1087   0.961   2.756   1.585
  359SOL    HW1 1088   1.017   2.680   1.551
  359SOL    HW2 1089   0.906   2.793   1.511
  360SOL     OW 1090   0.993   2.275   1.236
  360SOL    HW1 1091   0.911   2.301   1.288
  360SOL    HW2 1092   0.966   2.220   1.157
  361SOL     OW 1093   1.047   2.565   0.424
  361SOL    HW1 1094   1.065   2.561   0.522
  361SOL    HW2 1095   0.964   2.514   0.403
  362SOL     OW 1096   0.102   2.673   0.768
  362SOL    HW1 1097   0.185   2.671   0.824
  362SOL    HW2 1098   0.043   2.748   0.798
  363SOL     OW 1099   0.924   2.196   0.220
  363SOL    HW1 1100   0.932   2.263   0.146
  363SOL    HW2 1101   0.894   2.109   0.182
  364SOL     OW 1102   1.710   2.440   1.827
  364SOL    HW1 1103   1.676   2.523   1.784
  364SOL    HW2 1104   1.734   2.373   1.756
  365SOL     OW 1105   0.545   2.047   0.893
  365SOL    HW1 1106   0.550   2.070   0.991
  365SOL    HW2 1107   0.551   2.131   0.839
  366SOL     OW 1108   1.796   2.909   0.868
  366SOL    HW1 1109   1.740   2.893   0.787
  366SOL    HW2 1110   1.737   2.921   0.948
  367SOL     OW 1111   1.478   2.599   0.726
  367SOL    HW1 1112   1.457   2.543   0.807
  367SOL    HW2 1113   1.554   2.660   0.747
  368SOL     OW 1114   0.229   2.169   1.512
  368SOL    HW1 1115   0.147   2.213   1.478
  368SOL    HW2 1116   0.204   2.086   1.563
  369SOL     OW 1117   1.402   1.968   0.427
  369SOL    HW1 1118   1.388   1.945   0.331
  369SOL    HW2 1119   1.500   1.980   0.444
  370SOL     OW 1120   0.386   2.554   0.476
  370SOL    HW1 1121   0.418   2.459   0.482
  370SOL    HW2 1122   0.290   2.559   0.501
  371SOL     OW 1123   1.541   2.090   1.729
  371SOL    HW1 1124   1.546   2.113   1.826
  371SOL    HW2 1125   1.470   2.021   1.714
  372SOL     OW 1126   0.626   1.986   0.116
  372SOL    HW1 1127   0.723   1.961   0.121
  372SOL    HW2 1128   0.584   1.940   0.038
  373SOL     OW 1129   0.769   2.135   1.752
  373SOL    HW1 1130   0.845   2.072   1.764
  373SOL    HW2 1131   0.710   2.134   1.832
  374SOL     OW 1132   1.343   2.451   1.434
  374SOL    HW1 1133   1.373   2.413   1.522
  374SOL    HW2 1134   1.379   2.544   1.424
  375SOL     OW 1135   0.926   2.371   0.901
  375SOL    HW1 1136   0.901   2.362   0.805
  375SOL    HW2 1137   0.963   2.284   0.934
  376SOL     OW 1138   0.545   1.924   0.506
  376SOL    HW1 1139   0.461   1.924   0.561
  376SOL    HW2 1140   0.547   2.004   0.447
  377SOL     OW 1141   0.941   2.103   0.472
  377SOL    HW1 1142   0.907   2.143   0.388
  377SOL    HW2 1143   1.040   2.112   0.477
  378SOL     OW 1144   1.079   2.543   1.458
  378SOL    HW1 1145   1.000   2.482   1.467
  378SOL    HW2 1146   1.163   2.489   1.452
  379SOL     OW 1147   1.046   2.366   0.025
  379SOL    HW1 1148   0.994   2.449   0.005
  379SOL    HW2 1149   1.110   2.385   0.100
  380SOL     OW 1150   0.086   2.418   1.397
  380SOL    HW1 1151   0.175   2.420   1.350
  380SOL    HW2 1152   0.084   2.491   1.466
  381SOL     OW 1153   0.562   2.086   1.163
  381SOL    HW1 1154   0.604   2.002   1.196
  381SOL    HW2 1155   0.466   2.089   1.191
  382SOL     OW 1156   0.870   2.322   0.639
  382SOL    HW1 1157   0.820   2.383   0.578
  382SOL    HW2 1158   0.892   2.237   0.590
  383SOL     OW 1159   1.014   1.912   0.753
  383SOL    HW1 1160   0.953   1.910   0.675
  383SOL    HW2 1161   0.994   1.834   0.813
  384SOL     OW 1162   1.429   2.998   0.872
  384SOL    HW1 1163   1.358   2.936   0.839
  384SOL    HW2 1164   1.451   0.064   0.800
  385SOL     OW 1165   1.469   2.461   0.986
  385SOL    HW1 1166   1.419   2.375   0.986
  385SOL    HW2 1167   1.535   2.462   1.061
  386SOL     OW 1168   1.835   2.669   0.389
  386SOL    HW1 1169   1.899   2.618   0.446
  386SOL    HW2 1170   1.815   2.617   0.306
  387SOL     OW 1171   1.408   2.441   0.101
  387SOL    HW1 1172   1.333   2.427   0.165
  387SOL    HW2 1173   1.469   2.361   0.103
  388SOL     OW 1174   0.525   2.125   0.325
  388SOL    HW1 1175   0.559   2.067   0.251
  388SOL    HW2 1176   0.505   2.216   0.290
  389SOL     OW 1177   1.783   0.079   1.596
  389SOL    HW1 1178   1.873   0.041   1.576
  389SOL    HW2 1179   1.792   0.171   1.631
  390SOL     OW 1180   1.629   2.957   1.078
  390SOL    HW1 1181   1.648   0.042   1.127
  390SOL    HW2 1182   1.550   2.971   1.018
  391SOL     OW 1183   0.920   1.959   1.400
  391SOL    HW1 1184   0.939   1.936   1.305
  391SOL    HW2 1185   1.000   2.004   1.440
  392SOL     OW 1186   0.415   2.677   1.254
  392SOL    HW1 1187   0.490   2.687   1.319
  392SOL    HW2 1188   0.375   2.586   1.263
  393SOL     OW 1189   1.268   2.243   1.271
  393SOL    HW1 1190   1.303   2.321   1.322
  393SOL    HW2 1191   1.175   2.262   1.241
  394SOL     OW 1192   0.558   2.404   0.863
  394SOL    HW1 1193   0.574   2.460   0.782
  394SOL    HW2 1194   0.620   2.431   0.936
  395SOL     OW 1195   1.579   2.490   0.473
  395SOL    HW1 1196   1.539   2.547   0.545
  395SOL    HW2 1197   1.638   2.547   0.415
  396SOL     OW 1198   0.411   2.602   1.602
  396SOL    HW1 1199   0.470   2.655   1.541
  396SOL    HW2 1200   0.454   2.515   1.623
  397SOL     OW 1201   1.594   2.639   1.677
  397SOL    HW1 1202   1.502   2.677   1.671
  397SOL    HW2 1203   1.652   2.683   1.607
  398SOL     OW 1204   0.996   1.982   1.762
  398SOL    HW1 1205   1.045   2.060   1.723
  398SOL    HW2 1206   1.035   1.897   1.727
  399SOL     OW 1207   0.498   1.907   1.743
  399SOL    HW1 1208   0.459   1.846   1.674
  399SOL    HW2 1209   0.434   1.982   1.762
  400SOL     OW 1210   0.590   2.728   1.039
  400SOL    HW1 1211   0.603   2.822   1.010
  400SOL    HW2 1212   0.519   2.725   1.110
  401SOL     OW 1213   1.352   2.715   1.035
  401SOL    HW1 1214   1.279   2.712   0.967
  401SOL    HW2 1215   1.399   2.626   1.037
  402SOL     OW 1216   1.205   2.394   0.275
  402SOL    HW1 1217   1.213   2.305   0.320
  402SOL    HW2 1218   1.159   2.458   0.335
  403SOL     OW 1219   0.300   2.066   1.241
  403SOL    HW1 1220   0.283   2.102   1.333
  403SOL    HW2 1221   0.284   1.967   1.241
  404SOL     OW 1222   0.055   0.169   1.273
  404SOL    HW1 1223   0.088   0.131   1.360
  404SOL    HW2 1224   0.019   0.261   1.289
  405SOL     OW 1225   0.731   2.495   1.063
  405SOL    HW1 1226   0.800   2.471   0.995
  405SOL    HW2 1227   0.694   2.585   1.041
  406SOL     OW 1228   1.733   2.819   1.844
  406SOL    HW1 1229   1.683   2.764   1.777
  406SOL    HW2 1230   1.677   2.828   1.927
  407SOL     OW 1231   0.301   1.931   0.624
  407SOL    HW1 1232   0.285   2.026   0.650
  407SOL    HW2 1233   0.309   1.875   0.707
  408SOL     OW 1234   1.618   2.235   0.370
  408SOL    HW1 1235   1.643   2.164   0.436
  408SOL    HW2 1236   1.586   2.316   0.420
  409SOL     OW 1237   1.024   2.618   0.967
  409SOL    HW1 1238   1.029   2.637   1.066
  409SOL    HW2 1239   0.996   2.523   0.953
  410SOL     OW 1240   0.355   2.785   1.797
  410SOL    HW1 1241   0.422   2.789   1.870
  410SOL    HW2 1242   0.379   2.711   1.734
  411SOL     OW 1243   1.510   2.158   0.127
  411SOL    HW1 1244   1.466   2.070   0.140
  411SOL    HW2 1245   1.564   2.181   0.209
  412SOL     OW 1246   1.297   2.686   0.038
  412SOL    HW1 1247   1.337   2.596   0.053
  412SOL    HW2 1248   1.324   2.720   2.948
  413SOL     OW 1249   0.314   2.677   0.952
  413SOL    HW1 1250   0.412   2.693   0.936
  413SOL    HW2 1251   0.301   2.584   0.987
  414SOL     OW 1252   0.338   2.376   1.012
  414SOL    HW1 1253   0.292   2.289   0.993
  414SOL    HW2 1254   0.416   2.387   0.950
  415SOL     OW 1255   1.136   2.242   1.683
  415SOL    HW1 1256   1.086   2.299   1.748
  415SOL    HW2 1257   1.230   2.276   1.674
  416SOL     OW 1258   1.154   2.073   1.474
  416SOL    HW1 1259   1.148   2.138   1.550
  416SOL    HW2 1260   1.196   2.117   1.395
  417SOL     OW 1261   0.986   2.669   1.235
  417SOL    HW1 1262   1.041   2.635   1.311
  417SOL    HW2 1263   0.899   2.620   1.232
  418SOL     OW 1264   0.050   2.436   1.114
  418SOL    HW1 1265   0.126   2.385   1.072
  418SOL    HW2 1266   0.034   2.400   1.206
  419SOL     OW 1267   0.198   2.380   1.721
  419SOL    HW1 1268   0.266   2.346   1.656
  419SOL    HW2 1269   0.152   2.460   1.683
  420SOL     OW 1270   1.375   2.806   1.660
  420SOL    HW1 1271   1.408   2.900   1.669
  420SOL    HW2 1272   1.372   2.781   1.564
  421SOL     OW 1273   0.819   2.438   0.346
  421SOL    HW1 1274   0.824   2.355   0.291
  421SOL    HW2 1275   0.735   2.488   0.325
  422SOL     OW 1276   1.646   2.465   1.192
  422SOL    HW1 1277   1.626   2.402   1.267
  422SOL    HW2 1278   1.735   2.444   1.153
  423SOL     OW 1279   0.692   2.318   1.263
  423SOL    HW1 1280   0.641   2.237   1.234
  423SOL    HW2 1281   0.696   2.383   1.187
  424SOL     OW 1282   0.438   2.360   0.210
  424SOL    HW1 1283   0.518   2.420   0.217
  424SOL    HW2 1284   0.357   2.414   0.191
  425SOL     OW 1285   0.162   0.004   1.469
  425SOL    HW1 1286   0.153   2.952   1.554
  425SOL    HW2 1287   0.175   2.941   1.393
  426SOL     OW 1288   1.353   2.908   1.220
  426SOL    HW1 1289   1.365   2.842   1.146
  426SOL    HW2 1290   1.270   2.962   1.203
  427SOL     OW 1291   1.300   2.721   0.310
  427SOL    HW1 1292   1.223   2.681   0.360
  427SOL    HW2 1293   1.290   2.700   0.213
  428SOL     OW 1294   0.898   1.939   0.129
  428SOL    HW1 1295   0.949   1.931   0.043
  428SOL    HW2 1296   0.949   1.897   0.203
  429SOL     OW 1297   1.714   2.000   0.511
  429SOL    HW1 1298   1.798   1.995   0.456
  429SOL    HW2 1299   1.699   1.912   0.556
  430SOL     OW 1300   1.292   2.792   0.681
  430SOL    HW1 1301   1.361   2.720   0.681
  430SOL    HW2 1302   1.306   2.852   0.602
  431SOL     OW 1303   1.840   2.035   0.964
  431SOL    HW1 1304   1.874   1.945   0.939
  431SOL    HW2 1305   1.748   2.048   0.928
  432SOL     OW 1306   0.268   2.181   0.722
  432SOL    HW1 1307   0.182   2.221   0.689
  432SOL    HW2 1308   0.262   2.167   0.821
  433SOL     OW 1309   0.812   2.862   1.371
  433SOL    HW1 1310   0.870   2.833   1.295
  433SOL    HW2 1311   0.835   2.956   1.397
  434SOL     OW 1312   0.906   2.789   0.291
  434SOL    HW1 1313   0.981   2.814   0.230
  434SOL    HW2 1314   0.938   2.725   0.360
  435SOL     OW 1315   1.019   2.101   0.966
  435SOL    HW1 1316   1.011   2.055   0.877
  435SOL    HW2 1317   1.015   2.032   1.039
  436SOL     OW 1318   1.721   2.253   1.380
  436SOL    HW1 1319   1.792   2.323   1.379
  436SOL    HW2 1320   1.749   2.177   1.321
  437SOL     OW 1321   0.115   2.867   1.701
  437SOL    HW1 1322   0.039   2.842   1.760
  437SOL    HW2 1323   0.202   2.850   1.748
  438SOL     OW 1324   0.675   2.059   1.497
  438SOL    HW1 1325   0.761   2.040   1.450
  438SOL    HW2 1326   0.694   2.083   1.592
  439SOL     OW 1327   0.058   2.182   0.051
  439SOL    HW1 1328   2.963   2.195   0.020
  439SOL    HW2 1329   0.116   2.253   0.011
  440SOL     OW 1330   1.434   2.718   1.403
  440SOL    HW1 1331   1.384   2.778   1.339
  440SOL    HW2 1332   1.531   2.718   1.380
  441SOL     OW 1333   0.066   2.056   0.322
  441SOL    HW1 1334   0.049   2.104   0.235
  441SOL    HW2 1335   0.136   1.986   0.308
  442SOL     OW 1336   1.144   0.216   0.098
  442SOL    HW1 1337   1.059   0.239   0.146
  442SOL    HW2 1338   1.221   0.223   0.161
  443SOL     OW 1339   0.615   2.692   1.433
  443SOL    HW1 1340   0.673   2.772   1.416
  443SOL    HW2 1341   0.672   2.611   1.443
  444SOL     OW 1342   0.718   2.427   1.708
  444SOL    HW1 1343   0.751   2.497   1.771
  444SOL    HW2 1344   0.759   2.339   1.731
  445SOL     OW 1345   1.677   2.744   1.254
  445SOL    HW1 1346   1.665   2.651   1.218
  445SOL    HW2 1347   1.660   2.811   1.182
  446SOL     OW 1348   1.223   2.180   0.459
  446SOL    HW1 1349   1.289   2.106   0.445
  446SOL    HW2 1350   1.250   2.233   0.539
  447SOL     OW 1351   0.592   2.591   0.659
  447SOL    HW1 1352   0.625   2.685   0.666
  447SOL    HW2 1353   0.514   2.587   0.596
  448SOL     OW 1354   1.764   2.222   1.647
  448SOL    HW1 1355   1.749   2.235   1.549
  448SOL    HW2 1356   1.691   2.163   1.684
  449SOL     OW 1357   1.736   2.796   1.514
  449SOL    HW1 1358   1.754   2.891   1.538
  449SOL    HW2 1359   1.727   2.788   1.414
  450SOL     OW 1360   0.885   2.830   0.864
  450SOL    HW1 1361   0.922   2.745   0.902
  450SOL    HW2 1362   0.826   2.874   0.931
  451SOL     OW 1363   1.111   2.890   0.083
  451SOL    HW1 1364   1.056   2.893   2.999
  451SOL    HW2 1365   1.173   2.811   0.078
  452SOL     OW 1366   1.812   2.048   1.236
  452SOL    HW1 1367   1.812   1.952   1.262
  452SOL    HW2 1368   1.824   2.056   1.137
  453SOL     OW 1369   0.431   2.292   0.526
  453SOL    HW1 1370   0.463   2.220   0.464
  453SOL    HW2 1371   0.382   2.250   0.603
  454SOL     OW 1372   0.332   2.414   1.287
  454SOL    HW1 1373   0.392   2.359   1.347
  454SOL    HW2 1374   0.348   2.388   1.192
  455SOL     OW 1375   1.432   2.085   1.118
  455SOL    HW1 1376   1.470   2.005   1.163
  455SOL    HW2 1377   1.376   2.137   1.183
  456SOL     OW 1378   1.006   1.885   1.148
  456SOL    HW1 1379   0.945   1.816   1.109
  456SOL    HW2 1380   1.100   1.848   1.150
  457SOL     OW 1381   1.352   1.913   0.163
  457SOL    HW1 1382   1.385   1.865   0.082
  457SOL    HW2 1383   1.262   1.876   0.190
  458SOL     OW 1384   1.298   2.324   0.687
  458SOL    HW1 1385   1.239   2.404   0.692
  458SOL    HW2 1386   1.298   2.276   0.775
  459SOL     OW 1387   1.588   2.072   0.878
  459SOL    HW1 1388   1.519   2.083   0.949
  459SOL    HW2 1389   1.590   2.154   0.821
  460SOL     OW 1390   0.005   2.891   0.285
  460SOL    HW1 1391   0.098   2.920   0.261
  460SOL    HW2 1392   0.007   2.846   0.373
  461SOL     OW 1393   0.226   2.506   1.968
  461SOL    HW1 1394   0.162   2.460   2.028
  461SOL    HW2 1395   0.226   2.461   1.879
  462SOL     OW 1396   0.235   2.125   2.839
  462SOL    HW1 1397   0.271   2.104   2.930
  462SOL    HW2 1398   0.142   2.088   2.831
  463SOL     OW 1399   0.016   2.248   2.503
  463SOL    HW1 1400   2.930   2.284   2.537
  463SOL    HW2 1401   0.001   2.158   2.462
  464SOL     OW 1402   1.135   2.568   2.566
  464SOL    HW1 1403   1.186   2.653   2.551
  464SOL    HW2 1404   1.079   2.578   2.649
  465SOL     OW 1405   1.758   2.468   2.091
  465SOL    HW1 1406   1.743   2.459   1.993
  465SOL    HW2 1407   1.728   2.385   2.138
  466SOL     OW 1408   0.782   0.012   2.881
  466SOL    HW1 1409   0.694   0.022   2.928
  466SOL    HW2 1410   0.799   0.093   2.824
  467SOL     OW 1411   0.657   2.846   2.561
  467SOL    HW1 1412   0.752   2.851   2.594
  467SOL    HW2 1413   0.625   2.938   2.539
  468SOL     OW 1414   1.617   2.312   2.594
  468SOL    HW1 1415   1.535   2.336   2.543
  468SOL    HW2 1416   1.634   2.381   2.665
  469SOL     OW 1417   0.214   0.308   2.332
  469SOL    HW1 1418   0.226   0.392   2.386
  469SOL    HW2 1419   0.191   0.232   2.393
  470SOL     OW 1420   0.235   2.946   2.744
  470SOL    HW1 1421   0.257   2.858   2.785
  470SOL    HW2 1422   0.204   0.009   2.814
  471SOL     OW 1423   0.610   2.824   1.990
  471SOL    HW1 1424   0.600   2.910   1.939
  471SOL    HW2 1425   0.663   2.842   2.073
  472SOL     OW 1426   0.119   2.497   2.429
  472SOL    HW1 1427   0.091   2.407   2.462
  472SOL    HW2 1428   0.117   2.562   2.505
  473SOL     OW 1429   1.698   2.806   2.486
  473SOL    HW1 1430   1.779   2.748   2.496
  473SOL    HW2 1431   1.683   2.825   2.389
  474SOL     OW 1432   0.640   0.245   2.562
  474SOL    HW1 1433   0.589   0.159   2.568
  474SOL    HW2 1434   0.606   0.298   2.485
  475SOL     OW 1435   0.810   1.863   2.364
  475SOL    HW1 1436   0.856   1.950   2.350
  475SOL    HW2 1437   0.712   1.878   2.378
  476SOL     OW 1438   0.209   2.807   0.098
  476SOL    HW1 1439   0.284   2.741   0.103
  476SOL    HW2 1440   0.122   2.759   0.095
  477SOL     OW 1441   1.541   2.839   2.047
  477SOL    HW1 1442   1.465   2.785   2.082
  477SOL    HW2 1443   1.592   2.878   2.123
  478SOL     OW 1444   0.596   2.583   2.128
  478SOL    HW1 1445   0.608   2.662   2.067
  478SOL    HW2 1446   0.527   2.604   2.197
  479SOL     OW 1447   1.295   2.196   2.805
  479SOL    HW1 1448   1.197   2.178   2.799
  479SOL    HW2 1449   1.330   2.162   2.892
  480SOL     OW 1450   1.049   2.561   2.290
  480SOL    HW1 1451   1.064   2.558   2.389
  480SOL    HW2 1452   0.963   2.514   2.268
  481SOL     OW 1453   0.105   2.674   2.628
  481SOL    HW1 1454   0.187   2.670   2.685
  481SOL    HW2 1455   0.043   2.745   2.662
  482SOL     OW 1456   0.881   2.209   2.056
  482SOL    HW1 1457   0.929   2.274   1.997
  482SOL    HW2 1458   0.900   2.116   2.024
  483SOL     OW 1459   0.551   2.048   2.763
  483SOL    HW1 1460   0.522   2.075   2.855
  483SOL    HW2 1461   0.558   2.130   2.706
  484SOL     OW 1462   1.797   2.912   2.729
  484SOL    HW1 1463   1.738   2.893   2.650
  484SOL    HW2 1464   1.741   2.919   2.811
  485SOL     OW 1465   1.477   2.601   2.586
  485SOL    HW1 1466   1.462   2.541   2.665
  485SOL    HW2 1467   1.556   2.660   2.604
  486SOL     OW 1468   1.402   1.968   2.290
  486SOL    HW1 1469   1.386   1.943   2.194
  486SOL    HW2 1470   1.500   1.980   2.305
  487SOL     OW 1471   0.393   2.552   2.339
  487SOL    HW1 1472   0.416   2.455   2.351
  487SOL    HW2 1473   0.295   2.566   2.357
  488SOL     OW 1474   0.624   1.987   1.970
  488SOL    HW1 1475   0.709   1.937   1.985
  488SOL    HW2 1476   0.579   1.952   1.887
  489SOL     OW 1477   0.921   2.378   2.757
  489SOL    HW1 1478   0.899   2.358   2.662
  489SOL    HW2 1479   0.960   2.297   2.801
  490SOL     OW 1480   0.545   1.925   2.368
  490SOL    HW1 1481   0.462   1.924   2.423
  490SOL    HW2 1482   0.546   2.006   2.309
  491SOL     OW 1483   0.293   1.904   2.042
  491SOL    HW1 1484   0.348   1.981   2.009
  491SOL    HW2 1485   0.353   1.837   2.086
  492SOL     OW 1486   0.938   2.102   2.328
  492SOL    HW1 1487   0.898   2.150   2.249
  492SOL    HW2 1488   1.037   2.115   2.329
  493SOL     OW 1489   1.027   2.409   1.880
  493SOL    HW1 1490   0.980   2.494   1.856
  493SOL    HW2 1491   1.093   2.427   1.953
  494SOL     OW 1492   0.870   2.319   2.499
  494SOL    HW1 1493   0.821   2.382   2.439
  494SOL    HW2 1494   0.890   2.235   2.449
  495SOL     OW 1495   1.012   1.909   2.614
  495SOL    HW1 1496   0.953   1.909   2.534
  495SOL    HW2 1497   0.992   1.830   2.671
  496SOL     OW 1498   1.425   0.003   2.735
  496SOL    HW1 1499   1.354   2.940   2.703
  496SOL    HW2 1500   1.452   0.063   2.660
  497SOL     OW 1501   1.488   2.446   2.821
  497SOL    HW1 1502   1.419   2.374   2.833
  497SOL    HW2 1503   1.519   2.477   2.910
  498SOL     OW 1504   1.840   2.670   2.251
  498SOL    HW1 1505   1.902   2.618   2.311
  498SOL    HW2 1506   1.814   2.613   2.173
  499SOL     OW 1507   1.391   2.435   1.934
  499SOL    HW1 1508   1.331   2.414   2.011
  499SOL    HW2 1509   1.484   2.404   1.955
  500SOL     OW 1510   0.529   2.125   2.183
  500SOL    HW1 1511   0.564   2.067   2.109
  500SOL    HW2 1512   0.512   2.217   2.148
  501SOL     OW 1513   1.628   2.966   2.937
  501SOL    HW1 1514   1.640   0.045   2.997
  501SOL    HW2 1515   1.549   2.981   2.877
  502SOL     OW 1516   0.556   2.401   2.726
  502SOL    HW1 1517   0.571   2.459   2.646
  502SOL    HW2 1518   0.617   2.431   2.800
  503SOL     OW 1519   1.579   2.489   2.333
  503SOL    HW1 1520   1.539   2.546   2.405
  503SOL    HW2 1521   1.636   2.546   2.274
  504SOL     OW 1522   0.575   2.726   2.882
  504SOL    HW1 1523   0.620   2.810   2.852
  504SOL    HW2 1524   0.546   2.735   2.977
  505SOL     OW 1525   1.208   2.391   2.134
  505SOL    HW1 1526   1.218   2.307   2.188
  505SOL    HW2 1527   1.162   2.460   2.190
  506SOL     OW 1528   0.323   2.062   0.083
  506SOL    HW1 1529   0.308   2.112   0.169
  506SOL    HW2 1530   0.297   1.966   0.096
  507SOL     OW 1531   0.732   2.502   2.916
  507SOL    HW1 1532   0.799   2.473   2.847
  507SOL    HW2 1533   0.692   2.590   2.889
  508SOL     OW 1534   0.302   1.931   2.485
  508SOL    HW1 1535   0.285   2.026   2.510
  508SOL    HW2 1536   0.307   1.875   2.568
  509SOL     OW 1537   1.614   2.234   2.233
  509SOL    HW1 1538   1.643   2.165   2.299
  509SOL    HW2 1539   1.587   2.317   2.281
  510SOL     OW 1540   1.022   2.620   2.822
  510SOL    HW1 1541   1.028   2.633   2.921
  510SOL    HW2 1542   0.993   2.526   2.802
  511SOL     OW 1543   1.532   2.135   1.992
  511SOL    HW1 1544   1.464   2.065   2.016
  511SOL    HW2 1545   1.567   2.177   2.075
  512SOL     OW 1546   1.297   2.689   1.896
  512SOL    HW1 1547   1.337   2.598   1.905
  512SOL    HW2 1548   1.324   2.729   1.809
  513SOL     OW 1549   0.313   2.674   2.810
  513SOL    HW1 1550   0.411   2.695   2.806
  513SOL    HW2 1551   0.300   2.582   2.848
  514SOL     OW 1552   0.324   2.382   2.866
  514SOL    HW1 1553   0.289   2.289   2.853
  514SOL    HW2 1554   0.407   2.394   2.812
  515SOL     OW 1555   0.987   2.624   0.088
  515SOL    HW1 1556   1.035   2.611   0.174
  515SOL    HW2 1557   0.889   2.633   0.105
  516SOL     OW 1558   0.816   2.431   2.211
  516SOL    HW1 1559   0.820   2.351   2.152
  516SOL    HW2 1560   0.737   2.488   2.186
  517SOL     OW 1561   0.700   2.314   0.104
  517SOL    HW1 1562   0.621   2.256   0.090
  517SOL    HW2 1563   0.702   2.386   0.035
  518SOL     OW 1564   0.467   2.359   2.050
  518SOL    HW1 1565   0.532   2.432   2.070
  518SOL    HW2 1566   0.374   2.396   2.048
  519SOL     OW 1567   1.301   2.724   2.169
  519SOL    HW1 1568   1.224   2.686   2.221
  519SOL    HW2 1569   1.289   2.704   2.072
  520SOL     OW 1570   1.717   2.000   2.372
  520SOL    HW1 1571   1.796   1.993   2.312
  520SOL    HW2 1572   1.701   1.913   2.417
  521SOL     OW 1573   1.292   2.794   2.542
  521SOL    HW1 1574   1.360   2.721   2.545
  521SOL    HW2 1575   1.307   2.851   2.461
  522SOL     OW 1576   1.840   2.038   2.821
  522SOL    HW1 1577   1.875   1.948   2.797
  522SOL    HW2 1578   1.747   2.048   2.788
  523SOL     OW 1579   0.269   2.182   2.578
  523SOL    HW1 1580   0.183   2.223   2.550
  523SOL    HW2 1581   0.267   2.165   2.677
  524SOL     OW 1582   0.908   2.758   2.120
  524SOL    HW1 1583   0.983   2.809   2.078
  524SOL    HW2 1584   0.943   2.704   2.197
  525SOL     OW 1585   1.031   2.104   2.810
  525SOL    HW1 1586   1.017   2.050   2.727
  525SOL    HW2 1587   1.013   2.047   2.890
  526SOL     OW 1588   0.092   2.187   1.916
  526SOL    HW1 1589   0.005   2.152   1.881
  526SOL    HW2 1590   0.113   2.275   1.873
  527SOL     OW 1591   0.069   2.055   2.179
  527SOL    HW1 1592   0.064   2.111   2.096
  527SOL    HW2 1593   0.140   1.985   2.169
  528SOL     OW 1594   1.140   0.247   1.995
  528SOL    HW1 1595   1.093   0.165   1.964
  528SOL    HW2 1596   1.215   0.221   2.057
  529SOL     OW 1597   1.726   2.711   0.056
  529SOL    HW1 1598   1.652   2.657   0.098
  529SOL    HW2 1599   1.696   2.806   0.046
  530SOL     OW 1600   1.222   2.180   2.319
  530SOL    HW1 1601   1.287   2.106   2.307
  530SOL    HW2 1602   1.247   2.234   2.400
  531SOL     OW 1603   0.593   2.589   2.521
  531SOL    HW1 1604   0.627   2.683   2.529
  531SOL    HW2 1605   0.516   2.586   2.458
  532SOL     OW 1606   0.879   2.825   2.720
  532SOL    HW1 1607   0.924   2.745   2.761
  532SOL    HW2 1608   0.840   2.881   2.793
  533SOL     OW 1609   1.100   2.869   1.952
  533SOL    HW1 1610   1.056   2.903   1.869
  533SOL    HW2 1611   1.161   2.794   1.930
  534SOL     OW 1612   1.827   2.055   0.092
  534SOL    HW1 1613   1.801   1.961   0.116
  534SOL    HW2 1614   1.830   2.064   2.992
  535SOL     OW 1615   0.428   2.290   2.382
  535SOL    HW1 1616   0.462   2.216   2.324
  535SOL    HW2 1617   0.382   2.252   2.462
  536SOL     OW 1618   1.349   1.916   2.026
  536SOL    HW1 1619   1.386   1.858   1.953
  536SOL    HW2 1620   1.260   1.881   2.055
  537SOL     OW 1621   1.296   2.320   2.550
  537SOL    HW1 1622   1.240   2.403   2.556
  537SOL    HW2 1623   1.299   2.276   2.639
  538SOL     OW 1624   1.587   2.078   2.739
  538SOL    HW1 1625   1.502   2.087   2.791
  538SOL    HW2 1626   1.597   2.156   2.678
  539SOL     OW 1627   0.022   2.929   2.153
  539SOL    HW1 1628   0.122   2.924   2.147
  539SOL    HW2 1629   2.990   2.868   2.226
  540SOL     OW 1630   2.091   0.634   0.118
  540SOL    HW1 1631   1.995   0.627   0.143
  540SOL    HW2 1632   2.105   0.596   0.027
  541SOL     OW 1633   2.078   0.282   1.004
  541SOL    HW1 1634   2.114   0.251   1.092
  541SOL    HW2 1635   1.988   0.241   0.989
  542SOL     OW 1636   1.865   0.380   0.644
  542SOL    HW1 1637   1.781   0.410   0.688
  542SOL    HW2 1638   1.845   0.303   0.583
  543SOL     OW 1639   2.427   1.279   1.171
  543SOL    HW1 1640   2.336   1.279   1.130
  543SOL    HW2 1641   2.446   1.369   1.209
  544SOL     OW 1642   2.619   1.146   1.031
  544SOL    HW1 1643   2.548   1.176   1.094
  544SOL    HW2 1644   2.661   1.226   0.988
  545SOL     OW 1645   2.718   0.784   1.816
  545SOL    HW1 1646   2.711   0.853   1.888
  545SOL    HW2 1647   2.742   0.827   1.730
  546SOL     OW 1648   2.547   1.009   0.654
  546SOL    HW1 1649   2.613   0.989   0.726
  546SOL    HW2 1650   2.470   1.060   0.693
  547SOL     OW 1651   2.566   1.156   1.809
  547SOL    HW1 1652   2.619   1.237   1.833
  547SOL    HW2 1653   2.477   1.184   1.772
  548SOL     OW 1654   2.193   1.431   1.068
  548SOL    HW1 1655   2.115   1.394   1.016
  548SOL    HW2 1656   2.250   1.485   1.007
  549SOL     OW 1657   2.310   0.399   1.492
  549SOL    HW1 1658   2.390   0.339   1.494
  549SOL    HW2 1659   2.227   0.345   1.504
  550SOL     OW 1660   2.085   1.714   0.476
  550SOL    HW1 1661   2.106   1.792   0.533
  550SOL    HW2 1662   2.157   1.702   0.407
  551SOL     OW 1663   2.981   1.345   1.690
  551SOL    HW1 1664   0.038   1.351   1.771
  551SOL    HW2 1665   2.934   1.257   1.688
  552SOL     OW 1666   2.087   1.441   0.536
  552SOL    HW1 1667   2.075   1.540   0.542
  552SOL    HW2 1668   2.024   1.397   0.599
  553SOL     OW 1669   2.114   1.090   0.893
  553SOL    HW1 1670   2.115   0.999   0.933
  553SOL    HW2 1671   2.055   1.150   0.947
  554SOL     OW 1672   2.478   1.791   1.435
  554SOL    HW1 1673   2.390   1.770   1.478
  554SOL    HW2 1674   2.503   1.885   1.456
  555SOL     OW 1675   2.458   0.975   0.145
  555SOL    HW1 1676   2.473   1.050   0.081
  555SOL    HW2 1677   2.497   0.999   0.234
  556SOL     OW 1678   1.979   0.645   0.564
  556SOL    HW1 1679   1.933   0.559   0.583
  556SOL    HW2 1680   1.972   0.705   0.644
  557SOL     OW 1681   1.876   1.587   0.123
  557SOL    HW1 1682   1.888   1.492   0.150
  557SOL    HW2 1683   1.878   1.646   0.204
  558SOL     OW 1684   1.982   0.741   1.588
  558SOL    HW1 1685   2.080   0.751   1.608
  558SOL    HW2 1686   1.938   0.831   1.593
  559SOL     OW 1687   2.471   1.380   0.734
  559SOL    HW1 1688   2.425   1.292   0.745
  559SOL    HW2 1689   2.457   1.413   0.641
  560SOL     OW 1690   2.681   0.015   0.508
  560SOL    HW1 1691   2.711   0.109   0.495
  560SOL    HW2 1692   2.581   0.011   0.502
  561SOL     OW 1693   2.055   0.969   1.264
  561SOL    HW1 1694   2.144   0.924   1.251
  561SOL    HW2 1695   1.982   0.910   1.229
  562SOL     OW 1696   2.186   0.254   1.800
  562SOL    HW1 1697   2.245   0.332   1.819
  562SOL    HW2 1698   2.096   0.269   1.842
  563SOL     OW 1699   2.455   0.723   0.266
  563SOL    HW1 1700   2.467   0.806   0.211
  563SOL    HW2 1701   2.386   0.740   0.337
  564SOL     OW 1702   2.651   0.623   1.455
  564SOL    HW1 1703   2.626   0.599   1.549
  564SOL    HW2 1704   2.612   0.555   1.393
  565SOL     OW 1705   2.833   0.884   1.572
  565SOL    HW1 1706   2.865   0.793   1.544
  565SOL    HW2 1707   2.780   0.925   1.498
  566SOL     OW 1708   2.845   0.380   1.259
  566SOL    HW1 1709   2.771   0.438   1.294
  566SOL    HW2 1710   2.835   0.370   1.160
  567SOL     OW 1711   2.892   0.712   0.412
  567SOL    HW1 1712   2.933   0.701   0.503
  567SOL    HW2 1713   2.813   0.651   0.403
  568SOL     OW 1714   1.952   0.821   0.774
  568SOL    HW1 1715   2.038   0.808   0.823
  568SOL    HW2 1716   1.905   0.902   0.811
  569SOL     OW 1717   1.993   1.837   1.576
  569SOL    HW1 1718   1.988   1.815   1.673
  569SOL    HW2 1719   1.900   1.853   1.541
  570SOL     OW 1720   2.783   0.341   0.218
  570SOL    HW1 1721   2.775   0.404   0.140
  570SOL    HW2 1722   2.769   0.247   0.186
  571SOL     OW 1723   2.380   0.195   0.913
  571SOL    HW1 1724   2.398   0.210   1.010
  571SOL    HW2 1725   2.406   0.276   0.861
  572SOL     OW 1726   2.861   1.445   0.470
  572SOL    HW1 1727   2.825   1.525   0.421
  572SOL    HW2 1728   2.866   1.466   0.567
  573SOL     OW 1729   2.217   1.804   0.854
  573SOL    HW1 1730   2.261   1.716   0.867
  573SOL    HW2 1731   2.283   1.878   0.870
  574SOL     OW 1732   2.182   0.951   0.241
  574SOL    HW1 1733   2.271   0.973   0.201
  574SOL    HW2 1734   2.151   0.863   0.207
  575SOL     OW 1735   2.324   1.258   1.734
  575SOL    HW1 1736   2.296   1.267   1.638
  575SOL    HW2 1737   2.243   1.261   1.793
  576SOL     OW 1738   2.063   0.294   1.498
  576SOL    HW1 1739   1.978   0.345   1.489
  576SOL    HW2 1740   2.053   0.225   1.570
  577SOL     OW 1741   2.329   1.728   0.330
  577SOL    HW1 1742   2.359   1.797   0.396
  577SOL    HW2 1743   2.399   1.716   0.259
  578SOL     OW 1744   2.125   1.797   1.231
  578SOL    HW1 1745   2.174   1.730   1.286
  578SOL    HW2 1746   2.095   1.755   1.146
  579SOL     OW 1747   2.801   1.696   0.900
  579SOL    HW1 1748   2.868   1.630   0.934
  579SOL    HW2 1749   2.748   1.655   0.825
  580SOL     OW 1750   2.252   0.691   0.478
  580SOL    HW1 1751   2.288   0.598   0.489
  580SOL    HW2 1752   2.155   0.692   0.502
  581SOL     OW 1753   2.475   0.108   0.109
  581SOL    HW1 1754   2.574   0.111   0.122
  581SOL    HW2 1755   2.453   0.129   0.014
  582SOL     OW 1756   2.636   0.274   1.754
  582SOL    HW1 1757   2.705   0.204   1.770
  582SOL    HW2 1758   2.572   0.277   1.831
  583SOL     OW 1759   2.742   1.516   1.192
  583SOL    HW1 1760   2.720   1.483   1.100
  583SOL    HW2 1761   2.805   1.451   1.235
  584SOL     OW 1762   2.669   1.404   0.933
  584SOL    HW1 1763   2.759   1.391   0.891
  584SOL    HW2 1764   2.598   1.396   0.864
  585SOL     OW 1765   2.784   0.505   0.903
  585SOL    HW1 1766   2.754   0.495   0.808
  585SOL    HW2 1767   2.828   0.420   0.933
  586SOL     OW 1768   2.399   0.050   0.496
  586SOL    HW1 1769   2.311   0.040   0.542
  586SOL    HW2 1770   2.398   0.134   0.441
  587SOL     OW 1771   0.316   1.156   0.046
  587SOL    HW1 1772   0.314   1.092   0.123
  587SOL    HW2 1773   0.243   1.224   0.058
  588SOL     OW 1774   2.163   0.081   0.188
  588SOL    HW1 1775   2.242   0.143   0.186
  588SOL    HW2 1776   2.194   2.988   0.212
  589SOL     OW 1777   2.819   0.247   0.469
  589SOL    HW1 1778   2.769   0.294   0.396
  589SOL    HW2 1779   2.902   0.207   0.431
  590SOL     OW 1780   0.081   1.577   0.799
  590SOL    HW1 1781   0.106   1.622   0.713
  590SOL    HW2 1782   0.164   1.553   0.849
  591SOL     OW 1783   2.326   1.145   0.738
  591SOL    HW1 1784   2.253   1.129   0.804
  591SOL    HW2 1785   2.290   1.130   0.645
  592SOL     OW 1786   2.891   0.514   0.022
  592SOL    HW1 1787   2.842   0.598   2.998
  592SOL    HW2 1788   2.948   0.531   0.102
  593SOL     OW 1789   1.938   0.558   1.390
  593SOL    HW1 1790   2.032   0.551   1.357
  593SOL    HW2 1791   1.933   0.630   1.459
  594SOL     OW 1792   2.428   0.218   1.177
  594SOL    HW1 1793   2.468   0.155   1.243
  594SOL    HW2 1794   2.331   0.232   1.199
  595SOL     OW 1795   2.744   0.467   0.635
  595SOL    HW1 1796   2.679   0.524   0.586
  595SOL    HW2 1797   2.743   0.375   0.596
  596SOL     OW 1798   2.862   0.052   0.761
  596SOL    HW1 1799   2.820   0.059   0.670
  596SOL    HW2 1800   2.840   2.964   0.802
  597SOL     OW 1801   2.351   1.399   0.155
  597SOL    HW1 1802   2.281   1.372   0.221
  597SOL    HW2 1803   2.309   1.409   0.064
  598SOL     OW 1804   2.394   0.264   0.325
  598SOL    HW1 1805   2.432   0.206   0.253
  598SOL    HW2 1806   2.368   0.352   0.285
  599SOL     OW 1807   2.779   0.111   1.401
  599SOL    HW1 1808   2.807   0.093   1.307
  599SOL    HW2 1809   2.846   0.171   1.445
  600SOL     OW 1810   2.839   1.108   1.726
  600SOL    HW1 1811   2.743   1.133   1.740
  600SOL    HW2 1812   2.846   1.037   1.656
  601SOL     OW 1813   2.565   1.058   0.378
  601SOL    HW1 1814   2.547   1.051   0.476
  601SOL    HW2 1815   2.652   1.014   0.356
  602SOL     OW 1816   2.278   0.812   1.252
  602SOL    HW1 1817   2.353   0.827   1.317
  602SOL    HW2 1818   2.238   0.721   1.267
  603SOL     OW 1819   1.946   1.569   1.302
  603SOL    HW1 1820   1.902   1.658   1.290
  603SOL    HW2 1821   2.038   1.582   1.339
  604SOL     OW 1822   2.221   1.107   0.491
  604SOL    HW1 1823   2.218   1.188   0.432
  604SOL    HW2 1824   2.218   1.024   0.434
  605SOL     OW 1825   2.419   0.546   0.864
  605SOL    HW1 1826   2.437   0.602   0.783
  605SOL    HW2 1827   2.484   0.571   0.937
  606SOL     OW 1828   2.220   1.519   1.322
  606SOL    HW1 1829   2.196   1.479   1.233
  606SOL    HW2 1830   2.318   1.536   1.325
  607SOL     OW 1831   2.273   0.745   1.601
  607SOL    HW1 1832   2.334   0.796   1.541
  607SOL    HW2 1833   2.313   0.655   1.620
  608SOL     OW 1834   2.869   0.115   1.760
  608SOL    HW1 1835   2.897   0.198   1.712
  608SOL    HW2 1836   2.906   0.035   1.713
  609SOL     OW 1837   2.363   0.056   1.748
  609SOL    HW1 1838   2.334   2.987   1.682
  609SOL    HW2 1839   2.289   0.122   1.762
  610SOL     OW 1840   2.442   0.871   1.032
  610SOL    HW1 1841   2.479   0.964   1.024
  610SOL    HW2 1842   2.382   0.866   1.112
  611SOL     OW 1843   0.064   0.533   0.274
  611SOL    HW1 1844   0.086   0.445   0.317
  611SOL    HW2 1845   0.029   0.596   0.343
  612SOL     OW 1846   2.163   0.203   1.247
  612SOL    HW1 1847   2.132   0.244   1.333
  612SOL    HW2 1848   2.140   0.106   1.247
  613SOL     OW 1849   1.898   1.308   1.284
  613SOL    HW1 1850   1.946   1.254   1.354
  613SOL    HW2 1851   1.923   1.404   1.293
  614SOL     OW 1852   2.590   0.633   1.061
  614SOL    HW1 1853   2.667   0.611   1.001
  614SOL    HW2 1854   2.558   0.726   1.041
  615SOL     OW 1855   2.169   0.059   0.641
  615SOL    HW1 1856   2.170   0.156   0.664
  615SOL    HW2 1857   2.151   0.005   0.723
  616SOL     OW 1858   2.866   0.768   0.972
  616SOL    HW1 1859   2.896   0.779   1.066
  616SOL    HW2 1860   2.868   0.671   0.947
  617SOL     OW 1861   2.833   1.566   1.701
  617SOL    HW1 1862   2.824   1.611   1.613
  617SOL    HW2 1863   2.892   1.486   1.692
  618SOL     OW 1864   2.214   0.914   1.805
  618SOL    HW1 1865   2.297   0.939   1.856
  618SOL    HW2 1866   2.238   0.851   1.731
  619SOL     OW 1867   2.908   1.343   0.836
  619SOL    HW1 1868   2.909   1.261   0.779
  619SOL    HW2 1869   2.983   1.403   0.808
  620SOL     OW 1870   2.175   0.809   0.947
  620SOL    HW1 1871   2.271   0.838   0.943
  620SOL    HW2 1872   2.169   0.717   0.985
  621SOL     OW 1873   2.198   0.520   1.012
  621SOL    HW1 1874   2.155   0.431   0.997
  621SOL    HW2 1875   2.276   0.531   0.951
  622SOL     OW 1876   2.966   0.371   1.666
  622SOL    HW1 1877   2.912   0.437   1.718
  622SOL    HW2 1878   0.061   0.402   1.661
  623SOL     OW 1879   1.870   1.318   0.185
  623SOL    HW1 1880   1.776   1.336   0.157
  623SOL    HW2 1881   1.875   1.229   0.230
  624SOL     OW 1882   1.954   1.792   0.934
  624SOL    HW1 1883   1.916   1.708   0.895
  624SOL    HW2 1884   2.048   1.804   0.904
  625SOL     OW 1885   2.363   1.574   0.906
  625SOL    HW1 1886   2.432   1.641   0.931
  625SOL    HW2 1887   2.405   1.501   0.851
  626SOL     OW 1888   2.862   0.799   1.248
  626SOL    HW1 1889   2.912   0.740   1.312
  626SOL    HW2 1890   2.770   0.763   1.235
  627SOL     OW 1891   1.898   0.540   1.117
  627SOL    HW1 1892   1.982   0.523   1.065
  627SOL    HW2 1893   1.921   0.554   1.214
  628SOL     OW 1894   2.052   0.519   1.725
  628SOL    HW1 1895   2.111   0.476   1.657
  628SOL    HW2 1896   2.000   0.593   1.682
  629SOL     OW 1897   2.674   0.572   0.347
  629SOL    HW1 1898   2.683   0.489   0.291
  629SOL    HW2 1899   2.591   0.620   0.323
  630SOL     OW 1900   2.136   1.557   1.744
  630SOL    HW1 1901   2.083   1.624   1.796
  630SOL    HW2 1902   2.110   1.465   1.772
  631SOL     OW 1903   2.551   0.461   1.265
  631SOL    HW1 1904   2.506   0.377   1.235
  631SOL    HW2 1905   2.557   0.525   1.187
  632SOL     OW 1906   2.800   1.689   1.461
  632SOL    HW1 1907   2.767   1.638   1.381
  632SOL    HW2 1908   2.781   1.786   1.449
  633SOL     OW 1909   2.311   0.495   0.205
  633SOL    HW1 1910   2.380   0.565   0.219
  633SOL    HW2 1911   2.222   0.538   0.188
  634SOL     OW 1912   2.013   1.138   1.466
  634SOL    HW1 1913   2.015   1.089   1.553
  634SOL    HW2 1914   2.033   1.074   1.392
  635SOL     OW 1915   1.944   1.265   1.017
  635SOL    HW1 1916   1.932   1.274   1.116
  635SOL    HW2 1917   1.869   1.210   0.979
  636SOL     OW 1918   2.540   1.665   1.724
  636SOL    HW1 1919   2.484   1.747   1.722
  636SOL    HW2 1920   2.606   1.667   1.649
  637SOL     OW 1921   2.762   0.085   0.139
  637SOL    HW1 1922   2.808   0.049   0.057
  637SOL    HW2 1923   2.806   0.047   0.221
  638SOL     OW 1924   1.995   1.793   1.845
  638SOL    HW1 1925   1.942   1.724   1.894
  638SOL    HW2 1926   2.051   1.845   1.910
  639SOL     OW 1927   2.681   1.269   1.427
  639SOL    HW1 1928   2.673   1.315   1.515
  639SOL    HW2 1929   2.605   1.295   1.368
  640SOL     OW 1930   2.530   1.608   0.158
  640SOL    HW1 1931   2.539   1.629   0.061
  640SOL    HW2 1932   2.477   1.525   0.170
  641SOL     OW 1933   2.135   0.347   0.752
  641SOL    HW1 1934   2.043   0.371   0.721
  641SOL    HW2 1935   2.131   0.311   0.845
  642SOL     OW 1936   2.688   1.007   1.376
  642SOL    HW1 1937   2.733   0.995   1.287
  642SOL    HW2 1938   2.690   1.104   1.400
  643SOL     OW 1939   2.789   0.938   0.308
  643SOL    HW1 1940   2.838   0.954   0.222
  643SOL    HW2 1941   2.822   0.853   0.350
  644SOL     OW 1942   2.231   1.298   1.491
  644SOL    HW1 1943   2.223   1.382   1.437
  644SOL    HW2 1944   2.150   1.241   1.475
  645SOL     OW 1945   2.911   1.085   0.722
  645SOL    HW1 1946   2.831   1.040   0.763
  645SOL    HW2 1947   2.940   1.034   0.641
  646SOL     OW 1948   2.878   0.237   0.969
  646SOL    HW1 1949   2.874   0.188   0.882
  646SOL    HW2 1950   2.872   0.172   1.045
  647SOL     OW 1951   2.458   1.487   0.484
  647SOL    HW1 1952   2.505   1.434   0.413
  647SOL    HW2 1953   2.400   1.556   0.441
  648SOL     OW 1954   2.126   1.339   0.296
  648SOL    HW1 1955   2.037   1.341   0.251
  648SOL    HW2 1956   2.119   1.384   0.386
  649SOL     OW 1957   1.972   1.012   1.719
  649SOL    HW1 1958   1.892   0.992   1.776
  649SOL    HW2 1959   2.054   0.979   1.765
  650SOL     OW 1960   2.530   0.208   1.493
  650SOL    HW1 1961   2.616   0.183   1.447
  650SOL    HW2 1962   2.548   0.220   1.590
  651SOL     OW 1963   1.915   0.194   0.327
  651SOL    HW1 1964   1.888   0.241   0.243
  651SOL    HW2 1965   2.004   0.151   0.314
  652SOL     OW 1966   2.479   0.835   1.430
  652SOL    HW1 1967   2.535   0.917   1.416
  652SOL    HW2 1968   2.539   0.755   1.439
  653SOL     OW 1969   2.580   0.564   1.708
  653SOL    HW1 1970   2.611   0.633   1.772
  653SOL    HW2 1971   2.622   0.476   1.730
  654SOL     OW 1972   2.246   1.739   1.563
  654SOL    HW1 1973   2.156   1.783   1.551
  654SOL    HW2 1974   2.235   1.652   1.609
  655SOL     OW 1975   2.457   0.742   0.659
  655SOL    HW1 1976   2.497   0.833   0.651
  655SOL    HW2 1977   2.378   0.734   0.599
  656SOL     OW 1978   2.762   1.379   0.062
  656SOL    HW1 1979   2.686   1.384   0.127
  656SOL    HW2 1980   2.741   1.434   2.981
  657SOL     OW 1981   2.522   1.797   0.952
  657SOL    HW1 1982   2.493   1.888   0.924
  657SOL    HW2 1983   2.620   1.787   0.938
  658SOL     OW 1984   2.718   0.960   0.859
  658SOL    HW1 1985   2.770   0.885   0.900
  658SOL    HW2 1986   2.686   1.022   0.931
  659SOL     OW 1987   2.959   1.018   0.075
  659SOL    HW1 1988   2.921   1.054   2.989
  659SOL    HW2 1989   0.018   0.940   0.055
  660SOL     OW 1990   2.086   1.304   1.854
  660SOL    HW1 1991   2.015   1.241   1.823
  660SOL    HW2 1992   2.075   1.321   1.951
  661SOL     OW 1993   1.944   1.236   0.661
  661SOL    HW1 1994   1.944   1.185   0.748
  661SOL    HW2 1995   2.017   1.201   0.603
  662SOL     OW 1996   2.539   1.401   1.626
  662SOL    HW1 1997   2.457   1.350   1.655
  662SOL    HW2 1998   2.536   1.493   1.665
  663SOL     OW 1999   2.333   0.431   0.546
  663SOL    HW1 2000   2.325   0.370   0.467
  663SOL    HW2 2001   2.265   0.405   0.615
  664SOL     OW 2002   2.186   0.548   1.288
  664SOL    HW1 2003   2.245   0.496   1.350
  664SOL    HW2 2004   2.210   0.527   1.194
  665SOL     OW 2005   2.681   1.584   0.683
  665SOL    HW1 2006   2.691   1.615   0.588
  665SOL    HW2 2007   2.602   1.524   0.690
  666SOL     OW 2008   2.854   0.022   1.151
  666SOL    HW1 2009   2.809   2.950   1.097
  666SOL    HW2 2010   2.950   2.998   1.165
  667SOL     OW 2011   2.628   1.329   0.313
  667SOL    HW1 2012   2.596   1.236   0.328
  667SOL    HW2 2013   2.717   1.341   0.357
  668SOL     OW 2014   2.486   1.563   1.285
  668SOL    HW1 2015   2.486   1.647   1.339
  668SOL    HW2 2016   2.576   1.551   1.242
  669SOL     OW 2017   1.903   1.075   0.304
  669SOL    HW1 2018   2.002   1.072   0.286
  669SOL    HW2 2019   1.872   0.983   0.328
  670SOL     OW 2020   2.735   1.650   0.348
  670SOL    HW1 2021   2.665   1.628   0.280
  670SOL    HW2 2022   2.707   1.732   0.399
  671SOL     OW 2023   2.092   0.622   1.982
  671SOL    HW1 2024   1.999   0.624   2.020
  671SOL    HW2 2025   2.088   0.594   1.886
  672SOL     OW 2026   2.085   0.276   2.874
  672SOL    HW1 2027   2.109   0.242   2.965
  672SOL    HW2 2028   1.995   0.241   2.849
  673SOL     OW 2029   1.866   0.380   2.505
  673SOL    HW1 2030   1.781   0.412   2.549
  673SOL    HW2 2031   1.845   0.303   2.445
  674SOL     OW 2032   2.617   1.149   2.889
  674SOL    HW1 2033   2.550   1.182   2.955
  674SOL    HW2 2034   2.665   1.226   2.847
  675SOL     OW 2035   2.547   1.010   2.514
  675SOL    HW1 2036   2.612   0.989   2.587
  675SOL    HW2 2037   2.470   1.060   2.552
  676SOL     OW 2038   2.205   1.432   2.928
  676SOL    HW1 2039   2.121   1.397   2.885
  676SOL    HW2 2040   2.255   1.489   2.863
  677SOL     OW 2041   2.084   1.712   2.340
  677SOL    HW1 2042   2.107   1.792   2.395
  677SOL    HW2 2043   2.150   1.703   2.264
  678SOL     OW 2044   2.091   1.439   2.397
  678SOL    HW1 2045   2.077   1.538   2.401
  678SOL    HW2 2046   2.026   1.394   2.458
  679SOL     OW 2047   2.116   1.091   2.757
  679SOL    HW1 2048   2.112   0.999   2.794
  679SOL    HW2 2049   2.054   1.151   2.809
  680SOL     OW 2050   2.456   0.978   1.993
  680SOL    HW1 2051   2.494   1.037   1.921
  680SOL    HW2 2052   2.496   1.004   2.081
  681SOL     OW 2053   1.979   0.646   2.427
  681SOL    HW1 2054   1.932   0.559   2.444
  681SOL    HW2 2055   1.972   0.705   2.507
  682SOL     OW 2056   1.881   1.598   1.986
  682SOL    HW1 2057   1.875   1.500   2.005
  682SOL    HW2 2058   1.865   1.649   2.070
  683SOL     OW 2059   2.468   1.379   2.592
  683SOL    HW1 2060   2.421   1.291   2.603
  683SOL    HW2 2061   2.455   1.412   2.499
  684SOL     OW 2062   2.682   0.013   2.366
  684SOL    HW1 2063   2.712   0.108   2.355
  684SOL    HW2 2064   2.582   0.009   2.364
  685SOL     OW 2065   2.459   0.726   2.127
  685SOL    HW1 2066   2.469   0.805   2.067
  685SOL    HW2 2067   2.388   0.746   2.195
  686SOL     OW 2068   2.892   0.707   2.281
  686SOL    HW1 2069   2.926   0.696   2.374
  686SOL    HW2 2070   2.812   0.648   2.268
  687SOL     OW 2071   1.952   0.822   2.636
  687SOL    HW1 2072   2.037   0.808   2.686
  687SOL    HW2 2073   1.904   0.901   2.673
  688SOL     OW 2074   2.736   0.347   2.054
  688SOL    HW1 2075   2.790   0.411   1.998
  688SOL    HW2 2076   2.766   0.254   2.035
  689SOL     OW 2077   2.407   0.197   2.812
  689SOL    HW1 2078   2.374   0.255   2.886
  689SOL    HW2 2079   2.417   0.251   2.729
  690SOL     OW 2080   2.861   1.444   2.332
  690SOL    HW1 2081   2.824   1.523   2.283
  690SOL    HW2 2082   2.869   1.465   2.429
  691SOL     OW 2083   2.217   1.803   2.715
  691SOL    HW1 2084   2.262   1.714   2.729
  691SOL    HW2 2085   2.282   1.876   2.731
  692SOL     OW 2086   2.186   0.951   2.109
  692SOL    HW1 2087   2.272   0.978   2.065
  692SOL    HW2 2088   2.151   0.868   2.066
  693SOL     OW 2089   2.330   1.739   2.183
  693SOL    HW1 2090   2.366   1.798   2.255
  693SOL    HW2 2091   2.404   1.711   2.122
  694SOL     OW 2092   2.125   1.799   0.100
  694SOL    HW1 2093   2.170   1.732   0.158
  694SOL    HW2 2094   2.080   1.753   0.023
  695SOL     OW 2095   2.796   1.698   2.760
  695SOL    HW1 2096   2.865   1.638   2.800
  695SOL    HW2 2097   2.750   1.651   2.685
  696SOL     OW 2098   2.252   0.691   2.342
  696SOL    HW1 2099   2.288   0.597   2.351
  696SOL    HW2 2100   2.155   0.692   2.364
  697SOL     OW 2101   2.484   0.124   1.973
  697SOL    HW1 2102   2.576   0.086   1.980
  697SOL    HW2 2103   2.445   0.100   1.884
  698SOL     OW 2104   2.663   1.403   2.784
  698SOL    HW1 2105   2.754   1.394   2.746
  698SOL    HW2 2106   2.595   1.393   2.711
  699SOL     OW 2107   2.783   0.516   2.756
  699SOL    HW1 2108   2.754   0.495   2.662
  699SOL    HW2 2109   2.817   0.432   2.799
  700SOL     OW 2110   2.402   0.058   2.362
  700SOL    HW1 2111   2.313   0.042   2.404
  700SOL    HW2 2112   2.397   0.136   2.300
  701SOL     OW 2113   2.154   0.035   2.057
  701SOL    HW1 2114   2.196   0.115   2.014
  701SOL    HW2 2115   2.225   2.970   2.084
  702SOL     OW 2116   2.814   0.250   2.326
  702SOL    HW1 2117   2.755   0.291   2.256
  702SOL    HW2 2118   2.897   0.215   2.282
  703SOL     OW 2119   0.082   1.574   2.661
  703SOL    HW1 2120   0.108   1.624   2.579
  703SOL    HW2 2121   0.163   1.555   2.717
  704SOL     OW 2122   2.326   1.144   2.600
  704SOL    HW1 2123   2.253   1.129   2.667
  704SOL    HW2 2124   2.290   1.128   2.508
  705SOL     OW 2125   2.888   0.553   1.875
  705SOL    HW1 2126   2.839   0.637   1.853
  705SOL    HW2 2127   2.943   0.567   1.957
  706SOL     OW 2128   2.743   0.466   2.494
  706SOL    HW1 2129   2.679   0.524   2.445
  706SOL    HW2 2130   2.744   0.375   2.454
  707SOL     OW 2131   2.859   0.052   2.620
  707SOL    HW1 2132   2.818   0.053   2.529
  707SOL    HW2 2133   2.842   2.963   2.663
  708SOL     OW 2134   2.354   1.408   2.027
  708SOL    HW1 2135   2.274   1.379   2.080
  708SOL    HW2 2136   2.335   1.400   1.929
  709SOL     OW 2137   2.395   0.267   2.183
  709SOL    HW1 2138   2.426   0.205   2.111
  709SOL    HW2 2139   2.373   0.356   2.143
  710SOL     OW 2140   2.569   1.056   2.234
  710SOL    HW1 2141   2.552   1.047   2.332
  710SOL    HW2 2142   2.652   1.005   2.210
  711SOL     OW 2143   2.221   1.105   2.354
  711SOL    HW1 2144   2.221   1.186   2.296
  711SOL    HW2 2145   2.219   1.023   2.297
  712SOL     OW 2146   2.418   0.544   2.728
  712SOL    HW1 2147   2.434   0.598   2.646
  712SOL    HW2 2148   2.481   0.572   2.800
  713SOL     OW 2149   2.438   0.869   2.880
  713SOL    HW1 2150   2.485   0.953   2.855
  713SOL    HW2 2151   2.404   0.876   2.974
  714SOL     OW 2152   0.057   0.531   2.136
  714SOL    HW1 2153   0.085   0.448   2.184
  714SOL    HW2 2154   0.023   0.597   2.202
  715SOL     OW 2155   2.595   0.643   2.917
  715SOL    HW1 2156   2.662   0.614   2.849
  715SOL    HW2 2157   2.556   0.731   2.889
  716SOL     OW 2158   2.173   0.059   2.505
  716SOL    HW1 2159   2.165   0.156   2.528
  716SOL    HW2 2160   2.150   0.004   2.586
  717SOL     OW 2161   2.872   0.773   2.829
  717SOL    HW1 2162   2.886   0.774   2.928
  717SOL    HW2 2163   2.864   0.679   2.797
  718SOL     OW 2164   2.908   1.342   2.698
  718SOL    HW1 2165   2.911   1.262   2.637
  718SOL    HW2 2166   2.980   1.406   2.671
  719SOL     OW 2167   2.173   0.810   2.811
  719SOL    HW1 2168   2.270   0.836   2.806
  719SOL    HW2 2169   2.166   0.716   2.845
  720SOL     OW 2170   2.188   0.529   2.868
  720SOL    HW1 2171   2.146   0.438   2.862
  720SOL    HW2 2172   2.270   0.531   2.810
  721SOL     OW 2173   1.865   1.322   2.057
  721SOL    HW1 2174   1.774   1.339   2.018
  721SOL    HW2 2175   1.870   1.228   2.091
  722SOL     OW 2176   1.954   1.796   2.794
  722SOL    HW1 2177   1.915   1.711   2.760
  722SOL    HW2 2178   2.049   1.803   2.765
  723SOL     OW 2179   2.367   1.577   2.765
  723SOL    HW1 2180   2.438   1.643   2.788
  723SOL    HW2 2181   2.407   1.502   2.712
  724SOL     OW 2182   2.851   0.763   0.100
  724SOL    HW1 2183   2.896   0.747   0.189
  724SOL    HW2 2184   2.752   0.769   0.113
  725SOL     OW 2185   2.672   0.567   2.211
  725SOL    HW1 2186   2.677   0.485   2.153
  725SOL    HW2 2187   2.593   0.622   2.183
  726SOL     OW 2188   2.564   0.444   0.091
  726SOL    HW1 2189   2.470   0.413   0.099
  726SOL    HW2 2190   2.568   0.525   0.032
  727SOL     OW 2191   2.331   0.497   2.054
  727SOL    HW1 2192   2.391   0.574   2.071
  727SOL    HW2 2193   2.237   0.530   2.041
  728SOL     OW 2194   1.943   1.267   2.884
  728SOL    HW1 2195   1.934   1.274   2.984
  728SOL    HW2 2196   1.868   1.212   2.848
  729SOL     OW 2197   2.532   1.614   2.016
  729SOL    HW1 2198   2.545   1.627   1.917
  729SOL    HW2 2199   2.479   1.531   2.031
  730SOL     OW 2200   2.133   0.337   2.613
  730SOL    HW1 2201   2.043   0.369   2.583
  730SOL    HW2 2202   2.128   0.309   2.709
  731SOL     OW 2203   2.785   0.919   2.155
  731SOL    HW1 2204   2.836   0.936   2.070
  731SOL    HW2 2205   2.819   0.836   2.198
  732SOL     OW 2206   2.910   1.082   2.585
  732SOL    HW1 2207   2.828   1.037   2.622
  732SOL    HW2 2208   2.939   1.034   2.503
  733SOL     OW 2209   2.879   0.235   2.823
  733SOL    HW1 2210   2.872   0.190   2.734
  733SOL    HW2 2211   2.883   0.165   2.895
  734SOL     OW 2212   2.459   1.486   2.344
  734SOL    HW1 2213   2.505   1.433   2.273
  734SOL    HW2 2214   2.398   1.553   2.302
  735SOL     OW 2215   2.116   1.349   2.149
  735SOL    HW1 2216   2.020   1.345   2.122
  735SOL    HW2 2217   2.124   1.387   2.241
  736SOL     OW 2218   1.940   0.340   1.898
  736SOL    HW1 2219   1.848   0.311   1.872
  736SOL    HW2 2220   1.969   0.417   1.841
  737SOL     OW 2221   1.904   0.201   2.163
  737SOL    HW1 2222   1.918   0.270   2.091
  737SOL    HW2 2223   1.982   0.138   2.162
  738SOL     OW 2224   2.456   0.742   2.523
  738SOL    HW1 2225   2.497   0.832   2.511
  738SOL    HW2 2226   2.378   0.733   2.462
  739SOL     OW 2227   2.730   1.369   1.895
  739SOL    HW1 2228   2.677   1.397   1.976
  739SOL    HW2 2229   2.750   1.450   1.840
  740SOL     OW 2230   2.525   1.798   2.822
  740SOL    HW1 2231   2.497   1.887   2.786
  740SOL    HW2 2232   2.622   1.784   2.805
  741SOL     OW 2233   2.714   0.959   2.721
  741SOL    HW1 2234   2.771   0.887   2.761
  741SOL    HW2 2235   2.687   1.023   2.792
  742SOL     OW 2236   2.932   0.956   1.933
  742SOL    HW1 2237   2.906   1.034   1.876
  742SOL    HW2 2238   0.031   0.956   1.946
  743SOL     OW 2239   1.945   1.237   2.524
  743SOL    HW1 2240   1.940   1.184   2.609
  743SOL    HW2 2241   2.016   1.200   2.465
  744SOL     OW 2242   2.328   0.428   2.405
  744SOL    HW1 2243   2.322   0.368   2.326
  744SOL    HW2 2244   2.262   0.400   2.474
  745SOL     OW 2245   2.681   1.584   2.541
  745SOL    HW1 2246   2.692   1.614   2.447
  745SOL    HW2 2247   2.601   1.525   2.548
  746SOL     OW 2248   2.634   1.332   2.172
  746SOL    HW1 2249   2.598   1.239   2.179
  746SOL    HW2 2250   2.720   1.339   2.223
  747SOL     OW 2251   1.905   1.073   2.166
  747SOL    HW1 2252   2.004   1.069   2.148
  747SOL    HW2 2253   1.873   0.982   2.191
  748SOL     OW 2254   2.734   1.647   2.210
  748SOL    HW1 2255   2.665   1.628   2.141
  748SOL    HW2 2256   2.710   1.731   2.259
  749SOL     OW 2257   2.089   2.497   0.112
  749SOL    HW1 2258   1.995   2.479   0.142
  749SOL    HW2 2259   2.105   2.453   0.024
  750SOL     OW 2260   2.085   2.141   0.992
  750SOL    HW1 2261   2.118   2.111   1.081
  750SOL    HW2 2262   1.992   2.106   0.978
  751SOL     OW 2263   1.870   2.245   0.636
  751SOL    HW1 2264   1.784   2.270   0.682
  751SOL    HW2 2265   1.856   2.160   0.585
  752SOL     OW 2266   2.606   0.002   1.020
  752SOL    HW1 2267   2.529   0.037   1.073
  752SOL    HW2 2268   2.652   0.078   0.973
  753SOL     OW 2269   2.716   2.644   1.816
  753SOL    HW1 2270   2.715   2.705   1.895
  753SOL    HW2 2271   2.747   2.694   1.735
  754SOL     OW 2272   2.519   2.847   0.703
  754SOL    HW1 2273   2.616   2.853   0.729
  754SOL    HW2 2274   2.486   2.937   0.677
  755SOL     OW 2275   2.306   2.260   1.494
  755SOL    HW1 2276   2.387   2.201   1.494
  755SOL    HW2 2277   2.224   2.203   1.502
  756SOL     OW 2278   2.104   0.301   0.484
  756SOL    HW1 2279   2.070   0.393   0.507
  756SOL    HW2 2280   2.042   0.233   0.522
  757SOL     OW 2281   2.108   2.948   0.883
  757SOL    HW1 2282   2.122   2.857   0.923
  757SOL    HW2 2283   2.061   0.006   0.949
  758SOL     OW 2284   2.478   2.830   0.146
  758SOL    HW1 2285   2.461   2.923   0.115
  758SOL    HW2 2286   2.536   2.832   0.227
  759SOL     OW 2287   1.976   2.511   0.562
  759SOL    HW1 2288   1.946   2.417   0.579
  759SOL    HW2 2289   1.969   2.564   0.646
  760SOL     OW 2290   1.981   2.604   1.586
  760SOL    HW1 2291   2.078   2.612   1.609
  760SOL    HW2 2292   1.936   2.692   1.599
  761SOL     OW 2293   2.518   0.242   0.681
  761SOL    HW1 2294   2.460   0.175   0.726
  761SOL    HW2 2295   2.462   0.301   0.622
  762SOL     OW 2296   2.672   1.865   0.502
  762SOL    HW1 2297   2.716   1.954   0.491
  762SOL    HW2 2298   2.574   1.877   0.515
  763SOL     OW 2299   2.058   2.840   1.256
  763SOL    HW1 2300   2.144   2.789   1.250
  763SOL    HW2 2301   1.981   2.779   1.236
  764SOL     OW 2302   2.190   2.114   1.807
  764SOL    HW1 2303   2.246   2.196   1.818
  764SOL    HW2 2304   2.097   2.132   1.840
  765SOL     OW 2305   2.455   2.583   0.268
  765SOL    HW1 2306   2.469   2.664   0.212
  765SOL    HW2 2307   2.387   2.602   0.338
  766SOL     OW 2308   2.650   2.485   1.454
  766SOL    HW1 2309   2.627   2.461   1.549
  766SOL    HW2 2310   2.611   2.416   1.393
  767SOL     OW 2311   2.830   2.748   1.578
  767SOL    HW1 2312   2.865   2.659   1.550
  767SOL    HW2 2313   2.773   2.786   1.504
  768SOL     OW 2314   2.847   2.243   1.256
  768SOL    HW1 2315   2.770   2.296   1.293
  768SOL    HW2 2316   2.833   2.227   1.159
  769SOL     OW 2317   2.890   2.576   0.413
  769SOL    HW1 2318   2.932   2.563   0.503
  769SOL    HW2 2319   2.812   2.514   0.404
  770SOL     OW 2320   1.948   2.682   0.777
  770SOL    HW1 2321   2.037   2.668   0.820
  770SOL    HW2 2322   1.907   2.767   0.812
  771SOL     OW 2323   2.788   2.196   0.216
  771SOL    HW1 2324   2.784   2.268   0.147
  771SOL    HW2 2325   2.756   2.110   0.177
  772SOL     OW 2326   2.408   2.048   0.893
  772SOL    HW1 2327   2.412   2.069   0.991
  772SOL    HW2 2328   2.413   2.132   0.840
  773SOL     OW 2329   2.062   2.148   1.500
  773SOL    HW1 2330   1.978   2.200   1.487
  773SOL    HW2 2331   2.049   2.082   1.575
  774SOL     OW 2332   2.248   2.554   0.477
  774SOL    HW1 2333   2.279   2.459   0.483
  774SOL    HW2 2334   2.150   2.558   0.500
  775SOL     OW 2335   2.486   1.984   0.115
  775SOL    HW1 2336   2.584   1.963   0.121
  775SOL    HW2 2337   2.447   1.939   0.034
  776SOL     OW 2338   2.634   2.140   1.755
  776SOL    HW1 2339   2.706   2.071   1.768
  776SOL    HW2 2340   2.567   2.132   1.829
  777SOL     OW 2341   2.786   2.367   0.902
  777SOL    HW1 2342   2.756   2.357   0.807
  777SOL    HW2 2343   2.827   2.281   0.933
  778SOL     OW 2344   2.406   1.923   0.506
  778SOL    HW1 2345   2.324   1.924   0.562
  778SOL    HW2 2346   2.407   2.004   0.447
  779SOL     OW 2347   2.806   2.100   0.467
  779SOL    HW1 2348   2.764   2.150   0.392
  779SOL    HW2 2349   2.899   2.073   0.442
  780SOL     OW 2350   2.882   2.384   0.030
  780SOL    HW1 2351   2.843   2.471   3.000
  780SOL    HW2 2352   2.947   2.401   0.104
  781SOL     OW 2353   1.939   2.420   1.389
  781SOL    HW1 2354   2.033   2.413   1.356
  781SOL    HW2 2355   1.933   2.492   1.459
  782SOL     OW 2356   2.424   2.086   1.163
  782SOL    HW1 2357   2.467   2.002   1.196
  782SOL    HW2 2358   2.329   2.089   1.193
  783SOL     OW 2359   2.741   2.320   0.636
  783SOL    HW1 2360   2.684   2.385   0.585
  783SOL    HW2 2361   2.747   2.234   0.585
  784SOL     OW 2362   2.859   1.921   0.755
  784SOL    HW1 2363   2.808   1.905   0.671
  784SOL    HW2 2364   2.853   1.840   0.814
  785SOL     OW 2365   2.385   2.124   0.324
  785SOL    HW1 2366   2.422   2.067   0.250
  785SOL    HW2 2367   2.368   2.216   0.290
  786SOL     OW 2368   2.760   1.950   1.393
  786SOL    HW1 2369   2.782   1.931   1.298
  786SOL    HW2 2370   2.837   1.997   1.436
  787SOL     OW 2371   2.276   2.677   1.255
  787SOL    HW1 2372   2.352   2.687   1.319
  787SOL    HW2 2373   2.236   2.585   1.265
  788SOL     OW 2374   2.420   2.404   0.863
  788SOL    HW1 2375   2.435   2.462   0.783
  788SOL    HW2 2376   2.483   2.430   0.935
  789SOL     OW 2377   2.275   2.605   1.602
  789SOL    HW1 2378   2.337   2.654   1.541
  789SOL    HW2 2379   2.312   2.514   1.622
  790SOL     OW 2380   2.859   1.986   1.769
  790SOL    HW1 2381   2.896   2.051   1.703
  790SOL    HW2 2382   2.901   1.896   1.755
  791SOL     OW 2383   2.359   1.909   1.744
  791SOL    HW1 2384   2.321   1.848   1.674
  791SOL    HW2 2385   2.294   1.983   1.762
  792SOL     OW 2386   2.449   2.729   1.037
  792SOL    HW1 2387   2.470   2.823   1.013
  792SOL    HW2 2388   2.381   2.727   1.111
  793SOL     OW 2389   0.063   2.399   0.274
  793SOL    HW1 2390   0.083   2.312   0.321
  793SOL    HW2 2391   0.029   2.465   0.341
  794SOL     OW 2392   2.165   2.066   1.243
  794SOL    HW1 2393   2.129   2.103   1.329
  794SOL    HW2 2394   2.147   1.968   1.239
  795SOL     OW 2395   2.590   2.493   1.061
  795SOL    HW1 2396   2.667   2.473   1.000
  795SOL    HW2 2397   2.556   2.585   1.042
  796SOL     OW 2398   2.161   1.928   0.625
  796SOL    HW1 2399   2.146   2.024   0.649
  796SOL    HW2 2400   2.169   1.873   0.708
  797SOL     OW 2401   2.859   2.626   0.980
  797SOL    HW1 2402   2.905   2.630   1.069
  797SOL    HW2 2403   2.864   2.533   0.944
  798SOL     OW 2404   2.221   2.785   1.798
  798SOL    HW1 2405   2.290   2.786   1.870
  798SOL    HW2 2406   2.242   2.713   1.733
  799SOL     OW 2407   2.176   2.674   0.950
  799SOL    HW1 2408   2.273   2.696   0.937
  799SOL    HW2 2409   2.168   2.581   0.986
  800SOL     OW 2410   2.196   2.382   1.009
  800SOL    HW1 2411   2.156   2.291   0.995
  800SOL    HW2 2412   2.277   2.391   0.950
  801SOL     OW 2413   2.971   2.242   1.666
  801SOL    HW1 2414   2.914   2.304   1.722
  801SOL    HW2 2415   0.065   2.274   1.668
  802SOL     OW 2416   2.981   2.062   1.474
  802SOL    HW1 2417   2.969   2.136   1.540
  802SOL    HW2 2418   2.994   2.101   1.383
  803SOL     OW 2419   2.857   2.669   1.258
  803SOL    HW1 2420   2.912   2.605   1.312
  803SOL    HW2 2421   2.772   2.624   1.230
  804SOL     OW 2422   1.898   2.409   1.117
  804SOL    HW1 2423   1.980   2.382   1.065
  804SOL    HW2 2424   1.920   2.415   1.214
  805SOL     OW 2425   2.053   2.381   1.723
  805SOL    HW1 2426   2.111   2.338   1.654
  805SOL    HW2 2427   1.998   2.453   1.681
  806SOL     OW 2428   2.672   2.429   0.353
  806SOL    HW1 2429   2.680   2.353   0.288
  806SOL    HW2 2430   2.594   2.486   0.328
  807SOL     OW 2431   2.551   2.320   1.264
  807SOL    HW1 2432   2.504   2.237   1.235
  807SOL    HW2 2433   2.557   2.384   1.188
  808SOL     OW 2434   2.304   2.357   0.211
  808SOL    HW1 2435   2.380   2.422   0.219
  808SOL    HW2 2436   2.220   2.407   0.188
  809SOL     OW 2437   2.016   2.994   1.474
  809SOL    HW1 2438   2.024   2.938   1.556
  809SOL    HW2 2439   2.035   2.937   1.393
  810SOL     OW 2440   2.761   1.938   0.128
  810SOL    HW1 2441   2.815   1.916   0.047
  810SOL    HW2 2442   2.805   1.898   0.209
  811SOL     OW 2443   2.126   2.180   0.720
  811SOL    HW1 2444   2.040   2.219   0.689
  811SOL    HW2 2445   2.124   2.167   0.819
  812SOL     OW 2446   2.673   2.867   1.373
  812SOL    HW1 2447   2.730   2.836   1.297
  812SOL    HW2 2448   2.700   2.959   1.400
  813SOL     OW 2449   2.750   2.780   0.292
  813SOL    HW1 2450   2.828   2.830   0.255
  813SOL    HW2 2451   2.783   2.712   0.358
  814SOL     OW 2452   2.879   2.100   0.968
  814SOL    HW1 2453   2.874   2.053   0.880
  814SOL    HW2 2454   2.869   2.034   1.042
  815SOL     OW 2455   1.973   2.864   1.713
  815SOL    HW1 2456   1.893   2.856   1.772
  815SOL    HW2 2457   2.056   2.843   1.765
  816SOL     OW 2458   2.532   2.061   1.498
  816SOL    HW1 2459   2.616   2.040   1.448
  816SOL    HW2 2460   2.555   2.086   1.592
  817SOL     OW 2461   1.937   2.021   0.338
  817SOL    HW1 2462   1.902   2.076   0.262
  817SOL    HW2 2463   2.030   1.991   0.317
  818SOL     OW 2464   2.476   2.695   1.432
  818SOL    HW1 2465   2.535   2.774   1.416
  818SOL    HW2 2466   2.533   2.613   1.441
  819SOL     OW 2467   2.580   2.425   1.706
  819SOL    HW1 2468   2.610   2.496   1.769
  819SOL    HW2 2469   2.620   2.337   1.732
  820SOL     OW 2470   2.454   2.590   0.658
  820SOL    HW1 2471   2.488   2.684   0.666
  820SOL    HW2 2472   2.377   2.588   0.595
  821SOL     OW 2473   2.748   2.835   0.862
  821SOL    HW1 2474   2.780   2.748   0.900
  821SOL    HW2 2475   2.683   2.876   0.925
  822SOL     OW 2476   2.293   2.292   0.527
  822SOL    HW1 2477   2.324   2.220   0.464
  822SOL    HW2 2478   2.244   2.250   0.603
  823SOL     OW 2479   2.188   2.412   1.288
  823SOL    HW1 2480   2.244   2.358   1.350
  823SOL    HW2 2481   2.210   2.387   1.193
  824SOL     OW 2482   2.865   1.882   1.149
  824SOL    HW1 2483   2.806   1.813   1.107
  824SOL    HW2 2484   2.961   1.860   1.129
  825SOL     OW 2485   1.876   2.917   0.305
  825SOL    HW1 2486   1.966   2.926   0.261
  825SOL    HW2 2487   1.865   2.824   0.339
  826SOL     OW 2488   2.093   2.470   1.982
  826SOL    HW1 2489   2.002   2.492   2.019
  826SOL    HW2 2490   2.086   2.452   1.884
  827SOL     OW 2491   2.088   2.140   2.848
  827SOL    HW1 2492   2.121   2.114   2.938
  827SOL    HW2 2493   1.994   2.107   2.835
  828SOL     OW 2494   1.870   2.245   2.496
  828SOL    HW1 2495   1.785   2.273   2.541
  828SOL    HW2 2496   1.855   2.158   2.448
  829SOL     OW 2497   2.642   0.014   2.881
  829SOL    HW1 2498   2.559   0.021   2.936
  829SOL    HW2 2499   2.651   0.094   2.822
  830SOL     OW 2500   2.520   2.844   2.558
  830SOL    HW1 2501   2.612   2.849   2.595
  830SOL    HW2 2502   2.485   2.937   2.542
  831SOL     OW 2503   2.095   0.297   2.341
  831SOL    HW1 2504   2.067   0.389   2.366
  831SOL    HW2 2505   2.039   0.231   2.391
  832SOL     OW 2506   2.111   2.950   2.749
  832SOL    HW1 2507   2.122   2.858   2.785
  832SOL    HW2 2508   2.058   0.005   2.813
  833SOL     OW 2509   2.469   2.825   1.992
  833SOL    HW1 2510   2.463   2.909   1.938
  833SOL    HW2 2511   2.527   2.841   2.072
  834SOL     OW 2512   1.977   2.511   2.425
  834SOL    HW1 2513   1.946   2.418   2.442
  834SOL    HW2 2514   1.969   2.564   2.509
  835SOL     OW 2515   2.508   0.247   2.556
  835SOL    HW1 2516   2.457   0.163   2.573
  835SOL    HW2 2517   2.462   0.301   2.486
  836SOL     OW 2518   2.672   1.865   2.363
  836SOL    HW1 2519   2.717   1.953   2.352
  836SOL    HW2 2520   2.574   1.878   2.378
  837SOL     OW 2521   2.062   2.809   0.111
  837SOL    HW1 2522   2.138   2.745   0.106
  837SOL    HW2 2523   1.976   2.761   0.094
  838SOL     OW 2524   2.459   2.583   2.128
  838SOL    HW1 2525   2.470   2.661   2.066
  838SOL    HW2 2526   2.389   2.605   2.196
  839SOL     OW 2527   2.896   2.576   2.277
  839SOL    HW1 2528   2.931   2.565   2.370
  839SOL    HW2 2529   2.814   2.519   2.266
  840SOL     OW 2530   1.948   2.683   2.639
  840SOL    HW1 2531   2.036   2.667   2.684
  840SOL    HW2 2532   1.906   2.766   2.676
  841SOL     OW 2533   2.746   2.206   2.060
  841SOL    HW1 2534   2.787   2.273   1.999
  841SOL    HW2 2535   2.752   2.115   2.019
  842SOL     OW 2536   2.411   2.049   2.762
  842SOL    HW1 2537   2.386   2.076   2.855
  842SOL    HW2 2538   2.418   2.131   2.705
  843SOL     OW 2539   2.248   2.553   2.339
  843SOL    HW1 2540   2.279   2.459   2.347
  843SOL    HW2 2541   2.151   2.558   2.362
  844SOL     OW 2542   2.489   1.988   1.968
  844SOL    HW1 2543   2.569   1.931   1.986
  844SOL    HW2 2544   2.441   1.953   1.887
  845SOL     OW 2545   2.785   2.374   2.756
  845SOL    HW1 2546   2.757   2.355   2.662
  845SOL    HW2 2547   2.818   2.290   2.799
  846SOL     OW 2548   2.407   1.925   2.368
  846SOL    HW1 2549   2.323   1.924   2.423
  846SOL    HW2 2550   2.407   2.006   2.310
  847SOL     OW 2551   2.155   1.907   2.045
  847SOL    HW1 2552   2.209   1.981   2.005
  847SOL    HW2 2553   2.217   1.840   2.086
  848SOL     OW 2554   2.803   2.102   2.323
  848SOL    HW1 2555   2.757   2.151   2.249
  848SOL    HW2 2556   2.895   2.076   2.295
  849SOL     OW 2557   2.888   2.415   1.876
  849SOL    HW1 2558   2.838   2.498   1.853
  849SOL    HW2 2559   2.942   2.430   1.958
  850SOL     OW 2560   2.741   2.319   2.496
  850SOL    HW1 2561   2.682   2.384   2.447
  850SOL    HW2 2562   2.746   2.233   2.444
  851SOL     OW 2563   2.857   1.922   2.613
  851SOL    HW1 2564   2.804   1.901   2.531
  851SOL    HW2 2565   2.856   1.844   2.675
  852SOL     OW 2566   2.392   2.125   2.183
  852SOL    HW1 2567   2.427   2.068   2.109
  852SOL    HW2 2568   2.372   2.217   2.148
  853SOL     OW 2569   2.420   2.400   2.724
  853SOL    HW1 2570   2.433   2.459   2.645
  853SOL    HW2 2571   2.479   2.430   2.799
  854SOL     OW 2572   2.434   2.728   2.882
  854SOL    HW1 2573   2.486   2.809   2.854
  854SOL    HW2 2574   2.410   2.736   2.979
  855SOL     OW 2575   0.056   2.392   2.138
  855SOL    HW1 2576   0.091   2.312   2.188
  855SOL    HW2 2577   0.019   2.458   2.203
  856SOL     OW 2578   2.163   2.068   0.091
  856SOL    HW1 2579   2.178   2.110   0.180
  856SOL    HW2 2580   2.151   1.969   0.101
  857SOL     OW 2581   2.591   2.500   2.914
  857SOL    HW1 2582   2.664   2.475   2.850
  857SOL    HW2 2583   2.556   2.591   2.891
  858SOL     OW 2584   2.162   1.928   2.486
  858SOL    HW1 2585   2.146   2.024   2.510
  858SOL    HW2 2586   2.168   1.873   2.569
  859SOL     OW 2587   2.869   2.631   2.826
  859SOL    HW1 2588   2.895   2.639   2.922
  859SOL    HW2 2589   2.866   2.534   2.800
  860SOL     OW 2590   2.173   2.671   2.810
  860SOL    HW1 2591   2.270   2.698   2.808
  860SOL    HW2 2592   2.165   2.577   2.843
  861SOL     OW 2593   2.187   2.391   2.864
  861SOL    HW1 2594   2.147   2.300   2.859
  861SOL    HW2 2595   2.271   2.394   2.810
  862SOL     OW 2596   2.877   2.646   0.093
  862SOL    HW1 2597   2.918   2.633   0.183
  862SOL    HW2 2598   2.778   2.660   0.103
  863SOL     OW 2599   2.675   2.429   2.212
  863SOL    HW1 2600   2.678   2.348   2.154
  863SOL    HW2 2601   2.597   2.486   2.186
  864SOL     OW 2602   2.565   2.311   0.103
  864SOL    HW1 2603   2.481   2.258   0.091
  864SOL    HW2 2604   2.567   2.385   0.036
  865SOL     OW 2605   2.332   2.356   2.054
  865SOL    HW1 2606   2.392   2.434   2.073
  865SOL    HW2 2607   2.238   2.389   2.040
  866SOL     OW 2608   0.169   2.703   2.168
  866SOL    HW1 2609   0.096   2.654   2.216
  866SOL    HW2 2610   0.191   2.655   2.084
  867SOL     OW 2611   2.127   2.181   2.580
  867SOL    HW1 2612   2.040   2.220   2.549
  867SOL    HW2 2613   2.125   2.169   2.679
  868SOL     OW 2614   2.764   2.762   2.120
  868SOL    HW1 2615   2.839   2.814   2.080
  868SOL    HW2 2616   2.800   2.700   2.191
  869SOL     OW 2617   2.878   2.099   2.822
  869SOL    HW1 2618   2.872   2.056   2.732
  869SOL    HW2 2619   2.892   2.029   2.891
  870SOL     OW 2620   1.939   2.198   1.895
  870SOL    HW1 2621   1.847   2.175   1.864
  870SOL    HW2 2622   1.972   2.278   1.845
  871SOL     OW 2623   1.932   2.021   2.176
  871SOL    HW1 2624   1.914   2.106   2.125
  871SOL    HW2 2625   2.021   1.984   2.149
  872SOL     OW 2626   2.455   2.588   2.518
  872SOL    HW1 2627   2.489   2.682   2.527
  872SOL    HW2 2628   2.376   2.587   2.457
  873SOL     OW 2629   2.739   2.830   2.717
  873SOL    HW1 2630   2.783   2.749   2.755
  873SOL    HW2 2631   2.701   2.885   2.792
  874SOL     OW 2632   2.944   2.830   1.900
  874SOL    HW1 2633   2.913   2.925   1.903
  874SOL    HW2 2634   0.017   2.816   1.967
  875SOL     OW 2635   2.294   2.291   2.387
  875SOL    HW1 2636   2.322   2.218   2.324
  875SOL    HW2 2637   2.244   2.252   2.463
  876SOL     OW 2638   1.888   2.917   2.169
  876SOL    HW1 2639   1.979   2.932   2.131
  876SOL    HW2 2640   1.878   2.821   2.196
   3.00000   3.00000   3.00000
