Hydrogen molecule
  202
    17Y9E    H2    1   2.727   0.158   0.041
    17Y9E    H1    2   2.687   0.205   3.000
    27Y9E    H2    3   0.268   1.079   2.658
    27Y9E    H1    4   0.229   1.059   2.718
    37Y9E    H2    5   1.205   2.550   1.054
    37Y9E    H1    6   1.172   2.603   1.015
    47Y9E    H2    7   2.201   0.261   2.082
    47Y9E    H1    8   2.203   0.244   2.154
    57Y9E    H2    9   0.019   2.536   0.383
    57Y9E    H1   10   2.984   2.601   0.389
    67Y9E    H2   11   0.225   2.076   2.416
    67Y9E    H1   12   0.160   2.092   2.447
    77Y9E    H2   13   1.867   0.405   1.107
    77Y9E    H1   14   1.862   0.463   1.061
    87Y9E    H2   15   0.496   0.096   0.356
    87Y9E    H1   16   0.475   0.167   0.353
    97Y9E    H2   17   0.744   2.404   1.607
    97Y9E    H1   18   0.677   2.418   1.580
   107Y9E    H2   19   0.917   0.277   2.754
   107Y9E    H1   20   0.845   0.292   2.744
   117Y9E    H2   21   0.560   1.273   1.805
   117Y9E    H1   22   0.498   1.260   1.767
   127Y9E    H2   23   2.449   2.033   1.567
   127Y9E    H1   24   2.448   1.990   1.628
   137Y9E    H2   25   1.213   0.962   0.590
   137Y9E    H1   26   1.149   0.962   0.627
   147Y9E    H2   27   1.641   2.840   0.506
   147Y9E    H1   28   1.586   2.880   0.534
   157Y9E    H2   29   1.977   1.601   2.268
   157Y9E    H1   30   2.006   1.622   2.333
   167Y9E    H2   31   2.131   1.750   1.919
   167Y9E    H1   32   2.075   1.702   1.919
   177Y9E    H2   33   0.380   2.765   0.827
   177Y9E    H1   34   0.313   2.778   0.799
   187Y9E    H2   35   2.307   0.024   1.129
   187Y9E    H1   36   2.248   2.981   1.115
   197Y9E    H2   37   0.751   2.339   2.812
   197Y9E    H1   38   0.820   2.333   2.783
   207Y9E    H2   39   0.951   0.535   0.944
   207Y9E    H1   40   0.892   0.577   0.958
   217Y9E    H2   41   2.457   0.379   0.098
   217Y9E    H1   42   2.406   0.387   0.151
   227Y9E    H2   43   0.138   0.272   2.166
   227Y9E    H1   44   0.091   0.236   2.211
   237Y9E    H2   45   1.449   0.142   0.902
   237Y9E    H1   46   1.493   0.098   0.862
   247Y9E    H2   47   1.092   0.614   0.403
   247Y9E    H1   48   1.085   0.609   0.329
   257Y9E    H2   49   0.441   1.024   0.082
   257Y9E    H1   50   0.422   1.093   0.063
   267Y9E    H2   51   0.599   2.545   0.667
   267Y9E    H1   52   0.617   2.545   0.595
   277Y9E    H2   53   1.755   1.099   0.272
   277Y9E    H1   54   1.744   1.128   0.339
   287Y9E    H2   55   2.938   1.745   0.172
   287Y9E    H1   56   2.992   1.708   0.139
   297Y9E    H2   57   2.050   2.102   2.040
   297Y9E    H1   58   2.048   2.076   2.109
   307Y9E    H2   59   2.920   2.958   2.075
   307Y9E    H1   60   2.907   2.886   2.065
   317Y9E    H2   61   0.347   0.815   1.594
   317Y9E    H1   62   0.348   0.741   1.593
   327Y9E    H2   63   0.415   2.805   0.037
   327Y9E    H1   64   0.459   2.852   3.000
   337Y9E    H2   65   1.265   0.494   0.538
   337Y9E    H1   66   1.220   0.526   0.489
   347Y9E    H2   67   0.265   0.370   2.478
   347Y9E    H1   68   0.248   0.311   2.518
   357Y9E    H2   69   2.330   0.290   0.235
   357Y9E    H1   70   2.356   0.234   0.194
   367Y9E    H2   71   2.129   1.383   0.631
   367Y9E    H1   72   2.180   1.340   0.664
   377Y9E    H2   73   0.118   2.283   2.738
   377Y9E    H1   74   0.117   2.225   2.692
   387Y9E    H2   75   1.453   2.809   0.417
   387Y9E    H1   76   1.481   2.855   0.366
   397Y9E    H2   77   0.590   0.828   1.481
   397Y9E    H1   78   0.529   0.817   1.442
   407Y9E    H2   79   1.427   0.871   0.586
   407Y9E    H1   80   1.466   0.871   0.524
   417Y9E    H2   81   0.090   2.380   1.052
   417Y9E    H1   82   0.163   2.384   1.068
   427Y9E    H2   83   1.259   2.752   1.584
   427Y9E    H1   84   1.268   2.825   1.593
   437Y9E    H2   85   2.117   0.516   0.153
   437Y9E    H1   86   2.101   0.525   0.081
   447Y9E    H2   87   1.490   2.249   2.371
   447Y9E    H1   88   1.467   2.188   2.405
   457Y9E    H2   89   2.613   2.379   0.042
   457Y9E    H1   90   2.625   2.411   0.108
   467Y9E    H2   91   2.308   1.615   1.277
   467Y9E    H1   92   2.346   1.568   1.233
   477Y9E    H2   93   0.260   2.047   0.897
   477Y9E    H1   94   0.189   2.048   0.878
   487Y9E    H2   95   1.513   2.111   2.131
   487Y9E    H1   96   1.467   2.056   2.112
   497Y9E    H2   97   1.812   2.289   0.502
   497Y9E    H1   98   1.822   2.218   0.519
   507Y9E    H2   99   1.600   1.397   0.613
   507Y9E    H1  100   1.636   1.454   0.581
   517Y9E    H2  101   0.364   2.046   0.623
   517Y9E    H1  102   0.299   2.012   0.637
   527Y9E    H2  103   2.737   2.905   2.979
   527Y9E    H1  104   2.678   2.861   2.971
   537Y9E    H2  105   2.639   1.461   2.936
   537Y9E    H1  106   2.640   1.452   0.009
   547Y9E    H2  107   0.506   0.080   2.734
   547Y9E    H1  108   0.483   0.013   2.756
   557Y9E    H2  109   1.929   2.301   2.376
   557Y9E    H1  110   1.876   2.349   2.396
   567Y9E    H2  111   1.726   1.866   2.568
   567Y9E    H1  112   1.698   1.889   2.504
   577Y9E    H2  113   1.137   2.771   1.904
   577Y9E    H1  114   1.163   2.840   1.907
   587Y9E    H2  115   2.595   2.940   1.284
   587Y9E    H1  116   2.619   2.888   1.238
   597Y9E    H2  117   1.010   0.816   0.967
   597Y9E    H1  118   1.071   0.823   0.927
   607Y9E    H2  119   0.130   1.739   1.378
   607Y9E    H1  120   0.109   1.758   1.447
   617Y9E    H2  121   2.457   1.155   0.931
   617Y9E    H1  122   2.384   1.147   0.924
   627Y9E    H2  123   1.653   1.900   1.602
   627Y9E    H1  124   1.713   1.889   1.559
   637Y9E    H2  125   0.761   0.116   2.037
   637Y9E    H1  126   0.792   0.146   1.978
   647Y9E    H2  127   0.236   1.142   2.296
   647Y9E    H1  128   0.205   1.075   2.301
   657Y9E    H2  129   1.352   0.142   2.727
   657Y9E    H1  130   1.386   0.196   2.766
   667Y9E    H2  131   0.936   0.980   1.437
   667Y9E    H1  132   0.878   0.977   1.482
   677Y9E    H2  133   0.382   2.690   2.067
   677Y9E    H1  134   0.377   2.678   1.994
   687Y9E    H2  135   1.864   1.662   0.128
   687Y9E    H1  136   1.791   1.656   0.124
   697Y9E    H2  137   1.091   2.055   2.473
   697Y9E    H1  138   1.128   1.995   2.498
   707Y9E    H2  139   1.753   1.900   1.861
   707Y9E    H1  140   1.725   1.893   1.793
   717Y9E    H2  141   2.491   0.446   0.438
   717Y9E    H1  142   2.481   0.374   0.423
   727Y9E    H2  143   0.132   1.408   2.006
   727Y9E    H1  144   0.088   1.389   2.062
   737Y9E    H2  145   1.995   1.305   1.166
   737Y9E    H1  146   2.037   1.353   1.203
   747Y9E    H2  147   0.818   0.143   2.989
   747Y9E    H1  148   0.862   0.161   0.045
   757Y9E    H2  149   1.082   1.483   2.285
   757Y9E    H1  150   1.144   1.493   2.245
   767Y9E    H2  151   2.922   2.095   2.345
   767Y9E    H1  152   2.873   2.119   2.296
   777Y9E    H2  153   0.247   2.189   2.878
   777Y9E    H1  154   0.239   2.263   2.878
   787Y9E    H2  155   1.877   1.317   1.247
   787Y9E    H1  156   1.849   1.374   1.209
   797Y9E    H2  157   2.614   1.576   1.676
   797Y9E    H1  158   2.594   1.628   1.726
   807Y9E    H2  159   1.398   1.820   0.674
   807Y9E    H1  160   1.339   1.780   0.654
   817Y9E    H2  161   2.946   0.220   0.563
   817Y9E    H1  162   0.018   0.228   0.575
   827Y9E    H2  163   0.197   2.109   2.751
   827Y9E    H1  164   0.150   2.068   2.712
   837Y9E    H2  165   0.444   2.623   1.600
   837Y9E    H1  166   0.511   2.650   1.619
   847Y9E    H2  167   0.861   0.067   1.430
   847Y9E    H1  168   0.930   0.055   1.454
   857Y9E    H2  169   1.609   1.027   2.927
   857Y9E    H1  170   1.653   1.079   2.897
   867Y9E    H2  171   1.762   2.487   0.259
   867Y9E    H1  172   1.743   2.522   0.321
   877Y9E    H2  173   0.962   1.599   1.859
   877Y9E    H1  174   0.906   1.566   1.895
   887Y9E    H2  175   1.159   1.228   2.859
   887Y9E    H1  176   1.221   1.223   2.818
   897Y9E    H2  177   2.798   2.430   2.548
   897Y9E    H1  178   2.839   2.387   2.592
   907Y9E    H2  179   1.211   2.756   0.542
   907Y9E    H1  180   1.185   2.815   0.505
   917Y9E    H2  181   0.814   1.972   1.183
   917Y9E    H1  182   0.819   2.046   1.179
   927Y9E    H2  183   2.868   1.436   2.436
   927Y9E    H1  184   2.884   1.365   2.422
   937Y9E    H2  185   0.437   0.324   1.170
   937Y9E    H1  186   0.477   0.273   1.205
   947Y9E    H2  187   1.500   1.091   2.853
   947Y9E    H1  188   1.536   1.061   2.796
   957Y9E    H2  189   0.455   1.864   1.164
   957Y9E    H1  190   0.419   1.894   1.106
   967Y9E    H2  191   2.964   0.920   1.981
   967Y9E    H1  192   2.933   0.862   2.014
   977Y9E    H2  193   1.194   2.179   1.474
   977Y9E    H1  194   1.264   2.158   1.480
   987Y9E    H2  195   2.811   0.560   1.644
   987Y9E    H1  196   2.750   0.533   1.611
   997Y9E    H2  197   0.179   1.384   1.788
   997Y9E    H1  198   0.138   1.385   1.850
  1007Y9E    H2  199   1.849   2.907   2.284
  1007Y9E    H1  200   1.916   2.878   2.267
  1017Y9E    H2  201   0.997   0.591   2.044
  1017Y9E    H1  202   1.054   0.570   2.002
   3.00000   3.00000   3.00000
