OJI7 in water
 2644
    1OJI7    H6    1   1.396   1.777   1.517
    1OJI7    O1    2   1.487   1.742   1.514
    1OJI7    C1    3   1.489   1.608   1.495
    1OJI7    C2    4   1.372   1.534   1.491
    1OJI7    H1    5   1.277   1.585   1.486
    1OJI7    C3    6   1.378   1.397   1.503
    1OJI7    H2    7   1.287   1.338   1.509
    1OJI7    C4    8   1.500   1.332   1.519
    1OJI7    H3    9   1.505   1.224   1.526
    1OJI7    C5   10   1.617   1.407   1.520
    1OJI7    H4   11   1.714   1.358   1.535
    1OJI7    C6   12   1.610   1.544   1.502
    1OJI7    H5   13   1.701   1.603   1.492
    2SOL     OW   14   0.235   0.658   0.105
    2SOL    HW1   15   0.166   0.610   0.160
    2SOL    HW2   16   0.255   0.604   0.023
    3SOL     OW   17   0.205   0.272   1.001
    3SOL    HW1   18   0.246   0.248   1.090
    3SOL    HW2   19   0.107   0.255   1.004
    4SOL     OW   20   0.009   0.390   0.659
    4SOL    HW1   21   2.923   0.432   0.689
    4SOL    HW2   22   2.989   0.314   0.596
    5SOL     OW   23   0.568   1.283   1.174
    5SOL    HW1   24   0.475   1.275   1.138
    5SOL    HW2   25   0.581   1.375   1.211
    6SOL     OW   26   1.555   1.510   0.705
    6SOL    HW1   27   1.513   1.492   0.794
    6SOL    HW2   28   1.485   1.519   0.635
    7SOL     OW   29   1.131   0.702   0.701
    7SOL    HW1   30   1.184   0.785   0.685
    7SOL    HW2   31   1.080   0.711   0.786
    8SOL     OW   32   1.763   0.594   0.231
    8SOL    HW1   33   1.747   0.583   0.133
    8SOL    HW2   34   1.724   0.517   0.280
    9SOL     OW   35   0.758   1.146   1.035
    9SOL    HW1   36   0.685   1.176   1.096
    9SOL    HW2   37   0.796   1.226   0.987
   10SOL     OW   38   0.859   0.782   1.818
   10SOL    HW1   39   0.852   0.853   1.889
   10SOL    HW2   40   0.887   0.825   1.732
   11SOL     OW   41   0.684   1.006   0.654
   11SOL    HW1   42   0.754   0.991   0.724
   11SOL    HW2   43   0.608   1.058   0.693
   12SOL     OW   44   0.706   1.155   1.809
   12SOL    HW1   45   0.758   1.236   1.837
   12SOL    HW2   46   0.617   1.183   1.773
   13SOL     OW   47   0.327   1.433   1.069
   13SOL    HW1   48   0.260   1.378   1.021
   13SOL    HW2   49   0.386   1.480   1.003
   14SOL     OW   50   0.450   0.401   1.493
   14SOL    HW1   51   0.529   0.340   1.494
   14SOL    HW2   52   0.367   0.347   1.505
   15SOL     OW   53   1.612   0.458   0.737
   15SOL    HW1   54   1.533   0.481   0.681
   15SOL    HW2   55   1.632   0.534   0.799
   16SOL     OW   56   0.220   1.717   0.480
   16SOL    HW1   57   0.240   1.801   0.530
   16SOL    HW2   58   0.291   1.702   0.410
   17SOL     OW   59   1.123   1.334   1.692
   17SOL    HW1   60   1.180   1.339   1.774
   17SOL    HW2   61   1.067   1.251   1.696
   18SOL     OW   62   0.249   1.452   0.532
   18SOL    HW1   63   0.214   1.545   0.525
   18SOL    HW2   64   0.187   1.397   0.588
   19SOL     OW   65   0.260   1.083   0.898
   19SOL    HW1   66   0.257   0.989   0.932
   19SOL    HW2   67   0.195   1.139   0.949
   20SOL     OW   68   0.617   1.791   1.435
   20SOL    HW1   69   0.529   1.768   1.477
   20SOL    HW2   70   0.640   1.886   1.457
   21SOL     OW   71   0.590   0.975   0.152
   21SOL    HW1   72   0.600   1.047   0.083
   21SOL    HW2   73   0.633   1.003   0.237
   22SOL     OW   74   1.550   0.145   1.467
   22SOL    HW1   75   1.585   0.217   1.406
   22SOL    HW2   76   1.624   0.114   1.527
   23SOL     OW   77   0.120   0.631   0.572
   23SOL    HW1   78   0.081   0.546   0.608
   23SOL    HW2   79   0.117   0.701   0.643
   24SOL     OW   80   1.845   1.760   0.336
   24SOL    HW1   81   1.900   1.721   0.409
   24SOL    HW2   82   1.869   1.857   0.323
   25SOL     OW   83   0.018   1.597   0.115
   25SOL    HW1   84   0.021   1.498   0.131
   25SOL    HW2   85   2.991   1.644   0.199
   26SOL     OW   86   1.690   0.921   0.639
   26SOL    HW1   87   1.779   0.875   0.624
   26SOL    HW2   88   1.667   0.974   0.558
   27SOL     OW   89   1.648   1.109   0.433
   27SOL    HW1   90   1.736   1.111   0.385
   27SOL    HW2   91   1.650   1.172   0.510
   28SOL     OW   92   0.127   0.747   1.591
   28SOL    HW1   93   0.227   0.753   1.596
   28SOL    HW2   94   0.089   0.839   1.590
   29SOL     OW   95   0.609   1.383   0.734
   29SOL    HW1   96   0.562   1.295   0.747
   29SOL    HW2   97   0.595   1.415   0.641
   30SOL     OW   98   0.818   0.015   0.509
   30SOL    HW1   99   0.853   0.107   0.495
   30SOL    HW2  100   0.718   0.015   0.499
   31SOL     OW  101   0.190   0.958   1.273
   31SOL    HW1  102   0.278   0.916   1.252
   31SOL    HW2  103   0.118   0.914   1.218
   32SOL     OW  104   1.507   1.007   0.212
   32SOL    HW1  105   1.438   0.943   0.247
   32SOL    HW2  106   1.564   1.039   0.288
   33SOL     OW  107   1.211   1.807   1.606
   33SOL    HW1  108   1.183   1.878   1.541
   33SOL    HW2  109   1.154   1.726   1.592
   34SOL     OW  110   0.330   0.253   1.799
   34SOL    HW1  111   0.389   0.331   1.820
   34SOL    HW2  112   0.243   0.263   1.845
   35SOL     OW  113   1.462   1.420   0.952
   35SOL    HW1  114   1.396   1.436   1.025
   35SOL    HW2  115   1.456   1.324   0.922
   36SOL     OW  116   1.660   1.731   0.577
   36SOL    HW1  117   1.635   1.707   0.483
   36SOL    HW2  118   1.633   1.657   0.638
   37SOL     OW  119   0.592   0.720   0.268
   37SOL    HW1  120   0.604   0.805   0.216
   37SOL    HW2  121   0.525   0.735   0.341
   38SOL     OW  122   1.285   0.340   0.930
   38SOL    HW1  123   1.188   0.315   0.935
   38SOL    HW2  124   1.336   0.291   1.001
   39SOL     OW  125   1.586   1.667   0.309
   39SOL    HW1  126   1.679   1.703   0.305
   39SOL    HW2  127   1.555   1.645   0.216
   40SOL     OW  128   0.792   0.615   1.456
   40SOL    HW1  129   0.764   0.594   1.549
   40SOL    HW2  130   0.749   0.550   1.393
   41SOL     OW  131   1.396   0.476   1.678
   41SOL    HW1  132   1.392   0.524   1.766
   41SOL    HW2  133   1.456   0.397   1.686
   42SOL     OW  134   0.960   0.887   1.578
   42SOL    HW1  135   1.016   0.812   1.545
   42SOL    HW2  136   0.906   0.925   1.502
   43SOL     OW  137   0.996   0.418   1.227
   43SOL    HW1  138   0.919   0.438   1.288
   43SOL    HW2  139   0.963   0.365   1.148
   44SOL     OW  140   1.047   0.705   0.425
   44SOL    HW1  141   1.067   0.697   0.523
   44SOL    HW2  142   0.964   0.653   0.405
   45SOL     OW  143   0.105   0.819   0.763
   45SOL    HW1  144   0.186   0.812   0.821
   45SOL    HW2  145   0.035   0.873   0.810
   46SOL     OW  146   0.141   1.841   1.575
   46SOL    HW1  147   0.128   1.815   1.671
   46SOL    HW2  148   0.053   1.868   1.536
   47SOL     OW  149   0.926   0.338   0.221
   47SOL    HW1  150   0.938   0.403   0.146
   47SOL    HW2  151   0.880   0.256   0.187
   48SOL     OW  152   1.711   0.579   1.826
   48SOL    HW1  153   1.672   0.659   1.781
   48SOL    HW2  154   1.736   0.511   1.758
   49SOL     OW  155   1.374   1.142   0.539
   49SOL    HW1  156   1.458   1.124   0.487
   49SOL    HW2  157   1.319   1.209   0.490
   50SOL     OW  158   0.514   0.198   0.916
   50SOL    HW1  159   0.537   0.210   1.012
   50SOL    HW2  160   0.550   0.276   0.863
   51SOL     OW  161   1.005   1.447   0.472
   51SOL    HW1  162   0.963   1.521   0.420
   51SOL    HW2  163   0.993   1.463   0.569
   52SOL     OW  164   0.356   1.806   0.855
   52SOL    HW1  165   0.402   1.718   0.868
   52SOL    HW2  166   0.421   1.880   0.873
   53SOL     OW  167   1.798   1.061   0.865
   53SOL    HW1  168   1.743   1.043   0.783
   53SOL    HW2  169   1.738   1.063   0.945
   54SOL     OW  170   0.322   0.949   0.231
   54SOL    HW1  171   0.418   0.959   0.208
   54SOL    HW2  172   0.291   0.858   0.203
   55SOL     OW  173   1.476   0.741   0.727
   55SOL    HW1  174   1.462   0.691   0.813
   55SOL    HW2  175   1.555   0.801   0.735
   56SOL     OW  176   0.464   1.258   1.731
   56SOL    HW1  177   0.435   1.267   1.636
   56SOL    HW2  178   0.383   1.264   1.791
   57SOL     OW  179   1.110   1.774   0.225
   57SOL    HW1  180   1.047   1.727   0.286
   57SOL    HW2  181   1.145   1.709   0.157
   58SOL     OW  182   0.202   0.298   1.498
   58SOL    HW1  183   0.115   0.346   1.484
   58SOL    HW2  184   0.186   0.218   1.556
   59SOL     OW  185   1.624   1.362   0.084
   59SOL    HW1  186   1.599   1.459   0.077
   59SOL    HW2  187   1.542   1.306   0.078
   60SOL     OW  188   0.468   1.724   0.332
   60SOL    HW1  189   0.498   1.796   0.394
   60SOL    HW2  190   0.536   1.711   0.261
   61SOL     OW  191   1.410   0.108   0.433
   61SOL    HW1  192   1.389   0.079   0.339
   61SOL    HW2  193   1.507   0.128   0.441
   62SOL     OW  194   0.265   1.798   1.231
   62SOL    HW1  195   0.305   1.724   1.285
   62SOL    HW2  196   0.224   1.761   1.148
   63SOL     OW  197   0.937   1.698   0.900
   63SOL    HW1  198   1.020   1.648   0.924
   63SOL    HW2  199   0.888   1.650   0.827
   64SOL     OW  200   0.391   0.689   0.475
   64SOL    HW1  201   0.426   0.597   0.490
   64SOL    HW2  202   0.294   0.692   0.501
   65SOL     OW  203   1.538   0.249   1.738
   65SOL    HW1  204   1.540   0.258   1.837
   65SOL    HW2  205   1.482   0.170   1.712
   66SOL     OW  206   0.610   0.108   0.104
   66SOL    HW1  207   0.709   0.109   0.119
   66SOL    HW2  208   0.590   0.140   0.011
   67SOL     OW  209   0.766   0.271   1.750
   67SOL    HW1  210   0.844   0.210   1.762
   67SOL    HW2  211   0.716   0.278   1.837
   68SOL     OW  212   0.879   1.517   1.192
   68SOL    HW1  213   0.858   1.484   1.100
   68SOL    HW2  214   0.950   1.460   1.233
   69SOL     OW  215   1.345   0.589   1.434
   69SOL    HW1  216   1.373   0.553   1.522
   69SOL    HW2  217   1.377   0.683   1.424
   70SOL     OW  218   0.814   1.397   0.933
   70SOL    HW1  219   0.904   1.388   0.889
   70SOL    HW2  220   0.742   1.395   0.864
   71SOL     OW  221   0.926   0.509   0.901
   71SOL    HW1  222   0.902   0.503   0.805
   71SOL    HW2  223   0.961   0.421   0.933
   72SOL     OW  224   0.538   0.048   0.496
   72SOL    HW1  225   0.450   0.038   0.542
   72SOL    HW2  226   0.537   0.130   0.439
   73SOL     OW  227   1.411   1.207   0.052
   73SOL    HW1  228   1.436   1.128   0.108
   73SOL    HW2  229   1.318   1.237   0.075
   74SOL     OW  230   0.300   0.080   0.197
   74SOL    HW1  231   0.379   0.141   0.194
   74SOL    HW2  232   0.330   2.985   0.205
   75SOL     OW  233   0.948   0.252   0.474
   75SOL    HW1  234   0.917   0.291   0.387
   75SOL    HW2  235   1.047   0.260   0.482
   76SOL     OW  236   1.080   0.678   1.459
   76SOL    HW1  237   1.002   0.616   1.466
   76SOL    HW2  238   1.165   0.625   1.452
   77SOL     OW  239   1.224   1.570   0.796
   77SOL    HW1  240   1.240   1.639   0.725
   77SOL    HW2  241   1.297   1.574   0.864
   78SOL     OW  242   0.465   1.147   0.738
   78SOL    HW1  243   0.393   1.128   0.804
   78SOL    HW2  244   0.430   1.135   0.645
   79SOL     OW  245   1.269   1.795   0.603
   79SOL    HW1  246   1.319   1.857   0.542
   79SOL    HW2  247   1.201   1.846   0.655
   80SOL     OW  248   1.041   0.500   0.032
   80SOL    HW1  249   0.998   0.589   0.017
   80SOL    HW2  250   1.114   0.509   0.100
   81SOL     OW  251   0.084   0.565   1.391
   81SOL    HW1  252   0.175   0.559   1.351
   81SOL    HW2  253   0.084   0.632   1.465
   82SOL     OW  254   0.578   0.213   1.179
   82SOL    HW1  255   0.621   0.162   1.253
   82SOL    HW2  256   0.481   0.225   1.198
   83SOL     OW  257   0.875   0.470   0.638
   83SOL    HW1  258   0.820   0.524   0.575
   83SOL    HW2  259   0.888   0.378   0.601
   84SOL     OW  260   0.996   0.054   0.764
   84SOL    HW1  261   0.959   0.067   0.672
   84SOL    HW2  262   0.975   2.962   0.797
   85SOL     OW  263   1.439   1.163   0.857
   85SOL    HW1  264   1.366   1.094   0.860
   85SOL    HW2  265   1.464   1.180   0.762
   86SOL     OW  266   1.470   0.600   0.981
   86SOL    HW1  267   1.414   0.517   0.984
   86SOL    HW2  268   1.533   0.600   1.058
   87SOL     OW  269   1.846   0.818   0.381
   87SOL    HW1  270   1.903   0.761   0.441
   87SOL    HW2  271   1.817   0.764   0.302
   88SOL     OW  272   0.487   1.406   0.154
   88SOL    HW1  273   0.420   1.375   0.221
   88SOL    HW2  274   0.443   1.414   0.065
   89SOL     OW  275   1.669   1.267   0.649
   89SOL    HW1  276   1.768   1.268   0.660
   89SOL    HW2  277   1.632   1.358   0.670
   90SOL     OW  278   1.411   0.576   0.101
   90SOL    HW1  279   1.336   0.568   0.167
   90SOL    HW2  280   1.465   0.492   0.101
   91SOL     OW  281   0.528   0.263   0.323
   91SOL    HW1  282   0.571   0.207   0.252
   91SOL    HW2  283   0.502   0.351   0.285
   92SOL     OW  284   1.056   1.342   1.337
   92SOL    HW1  285   0.968   1.319   1.380
   92SOL    HW2  286   1.130   1.324   1.402
   93SOL     OW  287   1.130   1.212   1.106
   93SOL    HW1  288   1.070   1.241   1.179
   93SOL    HW2  289   1.089   1.234   1.017
   94SOL     OW  290   1.628   1.088   1.071
   94SOL    HW1  291   1.628   1.159   1.142
   94SOL    HW2  292   1.548   1.100   1.012
   95SOL     OW  293   0.902   0.111   1.387
   95SOL    HW1  294   0.939   0.087   1.297
   95SOL    HW2  295   0.969   0.166   1.437
   96SOL     OW  296   0.977   1.110   1.722
   96SOL    HW1  297   0.882   1.128   1.744
   96SOL    HW2  298   0.983   1.029   1.664
   97SOL     OW  299   0.705   1.060   0.380
   97SOL    HW1  300   0.687   1.049   0.477
   97SOL    HW2  301   0.790   1.012   0.356
   98SOL     OW  302   0.420   0.811   1.250
   98SOL    HW1  303   0.492   0.826   1.318
   98SOL    HW2  304   0.379   0.721   1.264
   99SOL     OW  305   1.271   0.389   1.262
   99SOL    HW1  306   1.304   0.462   1.321
   99SOL    HW2  307   1.173   0.400   1.246
  100SOL     OW  308   0.069   1.570   1.309
  100SOL    HW1  309   0.021   1.655   1.334
  100SOL    HW2  310   0.161   1.572   1.347
  101SOL     OW  311   0.362   1.111   0.489
  101SOL    HW1  312   0.349   1.190   0.428
  101SOL    HW2  313   0.356   1.027   0.435
  102SOL     OW  314   0.554   0.546   0.863
  102SOL    HW1  315   0.572   0.602   0.782
  102SOL    HW2  316   0.620   0.569   0.935
  103SOL     OW  317   1.247   1.349   0.397
  103SOL    HW1  318   1.307   1.424   0.424
  103SOL    HW2  319   1.153   1.370   0.426
  104SOL     OW  320   1.278   1.453   1.150
  104SOL    HW1  321   1.311   1.455   1.245
  104SOL    HW2  322   1.221   1.372   1.137
  105SOL     OW  323   1.582   0.627   0.477
  105SOL    HW1  324   1.536   0.683   0.546
  105SOL    HW2  325   1.632   0.686   0.414
  106SOL     OW  326   0.353   1.526   1.321
  106SOL    HW1  327   0.328   1.484   1.233
  106SOL    HW2  328   0.452   1.540   1.324
  107SOL     OW  329   0.411   0.741   1.601
  107SOL    HW1  330   0.469   0.795   1.540
  107SOL    HW2  331   0.457   0.654   1.622
  108SOL     OW  332   1.599   0.780   1.679
  108SOL    HW1  333   1.505   0.815   1.676
  108SOL    HW2  334   1.653   0.825   1.608
  109SOL     OW  335   1.005   0.111   1.762
  109SOL    HW1  336   1.048   0.198   1.738
  109SOL    HW2  337   1.026   0.043   1.691
  110SOL     OW  338   0.502   0.052   1.750
  110SOL    HW1  339   0.474   2.986   1.681
  110SOL    HW2  340   0.430   0.121   1.761
  111SOL     OW  341   0.583   0.870   1.033
  111SOL    HW1  342   0.614   0.965   1.024
  111SOL    HW2  343   0.522   0.862   1.111
  112SOL     OW  344   1.362   0.861   1.033
  112SOL    HW1  345   1.274   0.858   0.984
  112SOL    HW2  346   1.402   0.769   1.034
  113SOL     OW  347   1.203   0.530   0.273
  113SOL    HW1  348   1.215   0.445   0.324
  113SOL    HW2  349   1.160   0.598   0.332
  114SOL     OW  350   0.324   0.208   1.246
  114SOL    HW1  351   0.290   0.256   1.327
  114SOL    HW2  352   0.275   0.121   1.237
  115SOL     OW  353   0.038   1.305   1.281
  115SOL    HW1  354   0.072   1.253   1.359
  115SOL    HW2  355   0.047   1.403   1.298
  116SOL     OW  356   0.727   0.632   1.060
  116SOL    HW1  357   0.802   0.609   0.997
  116SOL    HW2  358   0.693   0.724   1.039
  117SOL     OW  359   1.731   0.958   1.850
  117SOL    HW1  360   1.684   0.899   1.784
  117SOL    HW2  361   1.672   0.974   1.929
  118SOL     OW  362   0.309   0.071   0.644
  118SOL    HW1  363   0.306   0.163   0.681
  118SOL    HW2  364   0.284   0.005   0.715
  119SOL     OW  365   1.619   0.376   0.368
  119SOL    HW1  366   1.649   0.305   0.430
  119SOL    HW2  367   1.589   0.456   0.420
  120SOL     OW  368   1.024   0.758   0.963
  120SOL    HW1  369   1.027   0.780   1.060
  120SOL    HW2  370   0.996   0.662   0.951
  121SOL     OW  371   1.000   1.572   1.704
  121SOL    HW1  372   0.965   1.609   1.618
  121SOL    HW2  373   1.035   1.479   1.690
  122SOL     OW  374   1.900   1.510   1.612
  122SOL    HW1  375   1.903   1.536   1.516
  122SOL    HW2  376   1.986   1.536   1.656
  123SOL     OW  377   0.356   0.914   1.806
  123SOL    HW1  378   0.437   0.937   1.859
  123SOL    HW2  379   0.380   0.849   1.734
  124SOL     OW  380   1.502   0.299   0.128
  124SOL    HW1  381   1.458   0.210   0.140
  124SOL    HW2  382   1.561   0.318   0.206
  125SOL     OW  383   1.294   0.823   0.035
  125SOL    HW1  384   1.336   0.734   0.052
  125SOL    HW2  385   1.322   0.857   2.946
  126SOL     OW  386   1.066   1.335   0.851
  126SOL    HW1  387   1.067   1.257   0.788
  126SOL    HW2  388   1.130   1.405   0.817
  127SOL     OW  389   0.313   0.808   0.946
  127SOL    HW1  390   0.410   0.832   0.942
  127SOL    HW2  391   0.303   0.717   0.986
  128SOL     OW  392   0.335   0.513   1.015
  128SOL    HW1  393   0.291   0.426   0.994
  128SOL    HW2  394   0.413   0.527   0.954
  129SOL     OW  395   1.141   0.384   1.700
  129SOL    HW1  396   1.092   0.440   1.768
  129SOL    HW2  397   1.234   0.420   1.689
  130SOL     OW  398   1.100   0.255   1.476
  130SOL    HW1  399   1.120   0.310   1.557
  130SOL    HW2  400   1.184   0.238   1.425
  131SOL     OW  401   0.008   1.313   0.171
  131SOL    HW1  402   2.913   1.334   0.146
  131SOL    HW2  403   0.011   1.235   0.232
  132SOL     OW  404   0.102   1.803   0.966
  132SOL    HW1  405   0.053   1.736   0.910
  132SOL    HW2  406   0.192   1.822   0.926
  133SOL     OW  407   0.498   1.573   0.903
  133SOL    HW1  408   0.567   1.639   0.932
  133SOL    HW2  409   0.540   1.503   0.846
  134SOL     OW  410   0.987   0.798   1.230
  134SOL    HW1  411   1.043   0.769   1.308
  134SOL    HW2  412   0.897   0.757   1.236
  135SOL     OW  413   0.046   0.557   1.107
  135SOL    HW1  414   0.138   0.532   1.077
  135SOL    HW2  415   0.038   0.543   1.206
  136SOL     OW  416   0.194   0.518   1.721
  136SOL    HW1  417   0.268   0.486   1.661
  136SOL    HW2  418   0.153   0.601   1.682
  137SOL     OW  419   1.376   0.943   1.664
  137SOL    HW1  420   1.398   1.039   1.683
  137SOL    HW2  421   1.380   0.927   1.566
  138SOL     OW  422   0.819   0.578   0.347
  138SOL    HW1  423   0.827   0.494   0.293
  138SOL    HW2  424   0.734   0.625   0.323
  139SOL     OW  425   1.645   0.604   1.189
  139SOL    HW1  426   1.624   0.543   1.266
  139SOL    HW2  427   1.735   0.581   1.152
  140SOL     OW  428   0.284   1.559   1.749
  140SOL    HW1  429   0.223   1.625   1.794
  140SOL    HW2  430   0.253   1.466   1.769
  141SOL     OW  431   0.692   0.458   1.263
  141SOL    HW1  432   0.645   0.375   1.233
  141SOL    HW2  433   0.697   0.523   1.187
  142SOL     OW  434   0.940   1.686   1.464
  142SOL    HW1  435   0.909   1.640   1.381
  142SOL    HW2  436   0.926   1.785   1.455
  143SOL     OW  437   0.447   0.495   0.203
  143SOL    HW1  438   0.518   0.563   0.219
  143SOL    HW2  439   0.359   0.542   0.191
  144SOL     OW  440   0.161   1.140   1.466
  144SOL    HW1  441   0.145   1.094   1.553
  144SOL    HW2  442   0.171   1.072   1.393
  145SOL     OW  443   1.327   1.050   1.228
  145SOL    HW1  444   1.355   0.985   1.157
  145SOL    HW2  445   1.254   1.108   1.193
  146SOL     OW  446   1.306   0.850   0.309
  146SOL    HW1  447   1.226   0.824   0.363
  146SOL    HW2  448   1.285   0.839   0.212
  147SOL     OW  449   1.766   1.752   1.144
  147SOL    HW1  450   1.833   1.777   1.073
  147SOL    HW2  451   1.738   1.657   1.132
  148SOL     OW  452   1.245   1.732   1.119
  148SOL    HW1  453   1.329   1.757   1.071
  148SOL    HW2  454   1.243   1.633   1.133
  149SOL     OW  455   0.092   1.247   1.027
  149SOL    HW1  456   0.077   1.261   1.124
  149SOL    HW2  457   0.007   1.264   0.977
  150SOL     OW  458   0.682   1.667   1.725
  150SOL    HW1  459   0.619   1.745   1.730
  150SOL    HW2  460   0.739   1.676   1.643
  151SOL     OW  461   0.879   0.083   0.145
  151SOL    HW1  462   0.935   0.066   0.063
  151SOL    HW2  463   0.914   0.027   0.220
  152SOL     OW  464   1.713   0.140   0.503
  152SOL    HW1  465   1.787   0.139   0.435
  152SOL    HW2  466   1.723   0.061   0.564
  153SOL     OW  467   1.392   1.570   0.482
  153SOL    HW1  468   1.458   1.599   0.413
  153SOL    HW2  469   1.341   1.650   0.515
  154SOL     OW  470   0.127   1.794   1.845
  154SOL    HW1  471   0.079   1.721   1.894
  154SOL    HW2  472   0.187   1.843   1.908
  155SOL     OW  473   1.280   0.924   0.666
  155SOL    HW1  474   1.354   0.858   0.679
  155SOL    HW2  475   1.313   1.003   0.615
  156SOL     OW  476   0.815   1.276   1.431
  156SOL    HW1  477   0.788   1.314   1.519
  156SOL    HW2  478   0.741   1.291   1.365
  157SOL     OW  479   0.670   1.608   0.160
  157SOL    HW1  480   0.676   1.631   0.063
  157SOL    HW2  481   0.613   1.526   0.170
  158SOL     OW  482   1.848   0.157   0.964
  158SOL    HW1  483   1.857   0.070   0.917
  158SOL    HW2  484   1.762   0.201   0.938
  159SOL     OW  485   0.268   0.333   0.741
  159SOL    HW1  486   0.175   0.366   0.722
  159SOL    HW2  487   0.272   0.301   0.836
  160SOL     OW  488   1.206   1.603   0.035
  160SOL    HW1  489   1.199   1.510   0.070
  160SOL    HW2  490   1.152   1.612   2.952
  161SOL     OW  491   0.824   1.009   1.375
  161SOL    HW1  492   0.870   0.996   1.287
  161SOL    HW2  493   0.824   1.106   1.399
  162SOL     OW  494   0.922   0.928   0.304
  162SOL    HW1  495   0.987   0.965   0.238
  162SOL    HW2  496   0.966   0.855   0.357
  163SOL     OW  497   1.487   1.602   0.050
  163SOL    HW1  498   1.388   1.612   0.057
  163SOL    HW2  499   1.518   1.638   2.962
  164SOL     OW  500   0.372   1.303   1.488
  164SOL    HW1  501   0.359   1.387   1.436
  164SOL    HW2  502   0.293   1.243   1.476
  165SOL     OW  503   1.617   1.281   1.251
  165SOL    HW1  504   1.701   1.278   1.306
  165SOL    HW2  505   1.546   1.329   1.303
  166SOL     OW  506   1.049   1.104   0.708
  166SOL    HW1  507   0.975   1.052   0.752
  166SOL    HW2  508   1.115   1.040   0.668
  167SOL     OW  509   1.018   0.241   0.966
  167SOL    HW1  510   1.010   0.191   0.879
  167SOL    HW2  511   1.020   0.177   1.042
  168SOL     OW  512   0.601   1.490   0.484
  168SOL    HW1  513   0.644   1.435   0.413
  168SOL    HW2  514   0.535   1.552   0.442
  169SOL     OW  515   1.724   0.391   1.379
  169SOL    HW1  516   1.795   0.461   1.377
  169SOL    HW2  517   1.747   0.316   1.317
  170SOL     OW  518   0.263   1.337   0.296
  170SOL    HW1  519   0.172   1.339   0.255
  170SOL    HW2  520   0.261   1.384   0.384
  171SOL     OW  521   0.125   1.016   1.711
  171SOL    HW1  522   0.044   0.977   1.753
  171SOL    HW2  523   0.207   0.977   1.754
  172SOL     OW  524   0.667   0.211   1.494
  172SOL    HW1  525   0.751   0.180   1.449
  172SOL    HW2  526   0.686   0.227   1.591
  173SOL     OW  527   0.070   0.319   0.053
  173SOL    HW1  528   2.973   0.328   0.033
  173SOL    HW2  529   0.118   0.401   0.021
  174SOL     OW  530   1.431   0.863   1.402
  174SOL    HW1  531   1.378   0.926   1.345
  174SOL    HW2  532   1.526   0.861   1.371
  175SOL     OW  533   0.036   0.186   0.289
  175SOL    HW1  534   0.039   0.248   0.210
  175SOL    HW2  535   0.127   0.145   0.302
  176SOL     OW  536   1.184   1.349   0.126
  176SOL    HW1  537   1.086   1.335   0.111
  176SOL    HW2  538   1.204   1.339   0.223
  177SOL     OW  539   0.619   0.832   1.432
  177SOL    HW1  540   0.675   0.914   1.417
  177SOL    HW2  541   0.678   0.752   1.442
  178SOL     OW  542   1.488   1.774   0.979
  178SOL    HW1  543   1.512   1.832   0.901
  178SOL    HW2  544   1.569   1.759   1.036
  179SOL     OW  545   0.717   0.565   1.709
  179SOL    HW1  546   0.755   0.636   1.768
  179SOL    HW2  547   0.758   0.476   1.732
  180SOL     OW  548   0.387   1.736   1.563
  180SOL    HW1  549   0.298   1.781   1.550
  180SOL    HW2  550   0.373   1.651   1.614
  181SOL     OW  551   1.675   0.881   1.254
  181SOL    HW1  552   1.664   0.789   1.217
  181SOL    HW2  553   1.661   0.949   1.182
  182SOL     OW  554   1.228   0.316   0.456
  182SOL    HW1  555   1.291   0.238   0.451
  182SOL    HW2  556   1.249   0.371   0.536
  183SOL     OW  557   0.592   0.741   0.662
  183SOL    HW1  558   0.634   0.832   0.653
  183SOL    HW2  559   0.515   0.733   0.599
  184SOL     OW  560   1.762   0.353   1.645
  184SOL    HW1  561   1.745   0.376   1.550
  184SOL    HW2  562   1.678   0.315   1.685
  185SOL     OW  563   1.740   0.936   1.512
  185SOL    HW1  564   1.786   1.023   1.529
  185SOL    HW2  565   1.727   0.924   1.413
  186SOL     OW  566   0.906   1.388   0.061
  186SOL    HW1  567   0.832   1.382   0.128
  186SOL    HW2  568   0.868   1.416   2.973
  187SOL     OW  569   0.660   1.794   0.950
  187SOL    HW1  570   0.633   1.887   0.923
  187SOL    HW2  571   0.758   1.783   0.937
  188SOL     OW  572   0.866   0.965   0.858
  188SOL    HW1  573   0.918   0.889   0.897
  188SOL    HW2  574   0.829   1.022   0.931
  189SOL     OW  575   1.099   1.020   0.097
  189SOL    HW1  576   1.059   1.060   0.015
  189SOL    HW2  577   1.168   0.953   0.072
  190SOL     OW  578   1.857   1.557   0.845
  190SOL    HW1  579   1.778   1.548   0.784
  190SOL    HW2  580   1.850   1.490   0.919
  191SOL     OW  581   0.224   1.303   1.854
  191SOL    HW1  582   0.175   1.221   1.825
  191SOL    HW2  583   0.213   1.315   1.952
  192SOL     OW  584   0.129   1.249   0.661
  192SOL    HW1  585   0.078   1.185   0.719
  192SOL    HW2  586   0.180   1.199   0.592
  193SOL     OW  587   0.680   1.403   1.630
  193SOL    HW1  588   0.598   1.351   1.655
  193SOL    HW2  589   0.673   1.496   1.667
  194SOL     OW  590   1.792   0.174   1.233
  194SOL    HW1  591   1.842   0.101   1.279
  194SOL    HW2  592   1.822   0.180   1.137
  195SOL     OW  593   0.461   0.430   0.545
  195SOL    HW1  594   0.457   0.365   0.470
  195SOL    HW2  595   0.403   0.398   0.620
  196SOL     OW  596   1.699   1.497   1.094
  196SOL    HW1  597   1.616   1.470   1.044
  196SOL    HW2  598   1.720   1.428   1.163
  197SOL     OW  599   0.332   0.552   1.288
  197SOL    HW1  600   0.391   0.498   1.349
  197SOL    HW2  601   0.351   0.526   1.193
  198SOL     OW  602   0.824   1.579   0.681
  198SOL    HW1  603   0.824   1.626   0.593
  198SOL    HW2  604   0.743   1.521   0.688
  199SOL     OW  605   1.427   0.218   1.127
  199SOL    HW1  606   1.453   0.138   1.182
  199SOL    HW2  607   1.375   0.282   1.183
  200SOL     OW  608   1.010   0.029   1.149
  200SOL    HW1  609   0.927   2.994   1.106
  200SOL    HW2  610   1.085   2.964   1.136
  201SOL     OW  611   0.766   1.327   0.313
  201SOL    HW1  612   0.731   1.235   0.329
  201SOL    HW2  613   0.856   1.337   0.356
  202SOL     OW  614   0.624   1.561   1.286
  202SOL    HW1  615   0.623   1.646   1.339
  202SOL    HW2  616   0.714   1.549   1.243
  203SOL     OW  617   1.356   0.055   0.168
  203SOL    HW1  618   1.419   2.982   0.142
  203SOL    HW2  619   1.262   0.024   0.155
  204SOL     OW  620   1.296   0.461   0.684
  204SOL    HW1  621   1.239   0.543   0.689
  204SOL    HW2  622   1.295   0.415   0.773
  205SOL     OW  623   1.604   0.233   0.887
  205SOL    HW1  624   1.523   0.226   0.945
  205SOL    HW2  625   1.596   0.312   0.827
  206SOL     OW  626   0.070   1.090   0.341
  206SOL    HW1  627   0.152   1.050   0.301
  206SOL    HW2  628   2.995   1.023   0.338
  207SOL     OW  629   0.880   1.654   0.346
  207SOL    HW1  630   0.808   1.628   0.281
  207SOL    HW2  631   0.848   1.732   0.400
  208SOL     OW  632   0.238   0.644   1.974
  208SOL    HW1  633   0.168   0.606   2.033
  208SOL    HW2  634   0.229   0.606   1.882
  209SOL     OW  635   0.234   0.250   2.850
  209SOL    HW1  636   0.252   0.233   2.947
  209SOL    HW2  637   0.135   0.240   2.833
  210SOL     OW  638   0.008   0.389   2.522
  210SOL    HW1  639   2.921   0.429   2.549
  210SOL    HW2  640   2.992   0.313   2.459
  211SOL     OW  641   1.555   1.509   2.567
  211SOL    HW1  642   1.509   1.491   2.654
  211SOL    HW2  643   1.487   1.519   2.495
  212SOL     OW  644   1.133   0.701   2.563
  212SOL    HW1  645   1.186   0.784   2.545
  212SOL    HW2  646   1.081   0.713   2.648
  213SOL     OW  647   1.762   0.606   2.091
  213SOL    HW1  648   1.744   0.599   1.993
  213SOL    HW2  649   1.729   0.523   2.137
  214SOL     OW  650   0.751   1.147   2.892
  214SOL    HW1  651   0.681   1.185   2.952
  214SOL    HW2  652   0.802   1.221   2.849
  215SOL     OW  653   0.684   1.008   2.513
  215SOL    HW1  654   0.754   0.991   2.582
  215SOL    HW2  655   0.607   1.058   2.554
  216SOL     OW  656   0.332   1.452   2.930
  216SOL    HW1  657   0.274   1.383   2.886
  216SOL    HW2  658   0.391   1.494   2.862
  217SOL     OW  659   1.615   0.457   2.594
  217SOL    HW1  660   1.536   0.478   2.536
  217SOL    HW2  661   1.620   0.523   2.669
  218SOL     OW  662   0.222   1.712   2.347
  218SOL    HW1  663   0.242   1.799   2.393
  218SOL    HW2  664   0.281   1.703   2.267
  219SOL     OW  665   0.250   1.447   2.389
  219SOL    HW1  666   0.220   1.543   2.387
  219SOL    HW2  667   0.188   1.394   2.446
  220SOL     OW  668   0.240   1.085   2.752
  220SOL    HW1  669   0.259   0.996   2.794
  220SOL    HW2  670   0.191   1.143   2.817
  221SOL     OW  671   0.589   0.982   1.995
  221SOL    HW1  672   0.632   1.035   1.922
  221SOL    HW2  673   0.631   1.007   2.082
  222SOL     OW  674   0.125   0.627   2.437
  222SOL    HW1  675   0.082   0.544   2.471
  222SOL    HW2  676   0.120   0.699   2.506
  223SOL     OW  677   1.842   1.762   2.200
  223SOL    HW1  678   1.902   1.728   2.273
  223SOL    HW2  679   1.867   1.856   2.177
  224SOL     OW  680   0.027   1.596   1.998
  224SOL    HW1  681   0.021   1.497   2.006
  224SOL    HW2  682   2.976   1.640   2.072
  225SOL     OW  683   1.690   0.920   2.499
  225SOL    HW1  684   1.778   0.875   2.486
  225SOL    HW2  685   1.667   0.974   2.418
  226SOL     OW  686   1.646   1.108   2.294
  226SOL    HW1  687   1.733   1.114   2.244
  226SOL    HW2  688   1.649   1.172   2.371
  227SOL     OW  689   0.607   1.381   2.593
  227SOL    HW1  690   0.559   1.294   2.605
  227SOL    HW2  691   0.594   1.413   2.499
  228SOL     OW  692   0.819   0.013   2.368
  228SOL    HW1  693   0.855   0.105   2.351
  228SOL    HW2  694   0.719   0.014   2.359
  229SOL     OW  695   1.534   0.992   2.060
  229SOL    HW1  696   1.459   0.931   2.086
  229SOL    HW2  697   1.575   1.031   2.143
  230SOL     OW  698   1.433   1.422   2.800
  230SOL    HW1  699   1.418   1.429   2.899
  230SOL    HW2  700   1.441   1.326   2.774
  231SOL     OW  701   1.657   1.732   2.440
  231SOL    HW1  702   1.635   1.707   2.346
  231SOL    HW2  703   1.633   1.657   2.501
  232SOL     OW  704   0.597   0.724   2.127
  232SOL    HW1  705   0.607   0.805   2.069
  232SOL    HW2  706   0.528   0.742   2.197
  233SOL     OW  707   1.294   0.335   2.807
  233SOL    HW1  708   1.195   0.322   2.798
  233SOL    HW2  709   1.324   0.300   2.895
  234SOL     OW  710   1.585   1.668   2.171
  234SOL    HW1  711   1.678   1.704   2.169
  234SOL    HW2  712   1.555   1.648   2.077
  235SOL     OW  713   1.046   0.699   2.290
  235SOL    HW1  714   1.066   0.693   2.388
  235SOL    HW2  715   0.962   0.649   2.270
  236SOL     OW  716   0.106   0.817   2.625
  236SOL    HW1  717   0.188   0.812   2.682
  236SOL    HW2  718   0.041   0.881   2.667
  237SOL     OW  719   0.872   0.356   2.050
  237SOL    HW1  720   0.933   0.416   1.999
  237SOL    HW2  721   0.898   0.261   2.035
  238SOL     OW  722   1.375   1.144   2.401
  238SOL    HW1  723   1.458   1.124   2.349
  238SOL    HW2  724   1.319   1.210   2.350
  239SOL     OW  725   0.554   0.200   2.830
  239SOL    HW1  726   0.505   0.271   2.880
  239SOL    HW2  727   0.576   0.232   2.738
  240SOL     OW  728   1.004   1.445   2.333
  240SOL    HW1  729   0.964   1.521   2.284
  240SOL    HW2  730   0.995   1.460   2.432
  241SOL     OW  731   0.355   1.802   2.714
  241SOL    HW1  732   0.402   1.715   2.729
  241SOL    HW2  733   0.417   1.877   2.737
  242SOL     OW  734   1.804   1.060   2.720
  242SOL    HW1  735   1.745   1.042   2.641
  242SOL    HW2  736   1.748   1.063   2.803
  243SOL     OW  737   0.316   0.948   2.106
  243SOL    HW1  738   0.404   0.979   2.068
  243SOL    HW2  739   0.293   0.859   2.067
  244SOL     OW  740   1.474   0.745   2.588
  244SOL    HW1  741   1.469   0.686   2.669
  244SOL    HW2  742   1.558   0.800   2.592
  245SOL     OW  743   1.119   1.775   2.090
  245SOL    HW1  744   1.045   1.734   2.144
  245SOL    HW2  745   1.146   1.713   2.017
  246SOL     OW  746   1.624   1.375   1.955
  246SOL    HW1  747   1.588   1.466   1.937
  246SOL    HW2  748   1.559   1.306   1.923
  247SOL     OW  749   0.468   1.739   2.181
  247SOL    HW1  750   0.504   1.799   2.252
  247SOL    HW2  751   0.542   1.708   2.122
  248SOL     OW  752   1.410   0.110   2.293
  248SOL    HW1  753   1.391   0.076   2.201
  248SOL    HW2  754   1.507   0.130   2.302
  249SOL     OW  755   0.264   1.799   0.098
  249SOL    HW1  756   0.307   1.729   0.156
  249SOL    HW2  757   0.203   1.755   0.032
  250SOL     OW  758   0.942   1.691   2.756
  250SOL    HW1  759   1.027   1.640   2.763
  250SOL    HW2  760   0.883   1.650   2.686
  251SOL     OW  761   0.392   0.689   2.339
  251SOL    HW1  762   0.428   0.597   2.352
  251SOL    HW2  763   0.295   0.691   2.363
  252SOL     OW  764   0.625   0.121   1.974
  252SOL    HW1  765   0.717   0.084   1.977
  252SOL    HW2  766   0.584   0.101   1.885
  253SOL     OW  767   0.807   1.397   2.788
  253SOL    HW1  768   0.899   1.390   2.748
  253SOL    HW2  769   0.739   1.391   2.714
  254SOL     OW  770   0.920   0.517   2.758
  254SOL    HW1  771   0.900   0.499   2.661
  254SOL    HW2  772   0.953   0.433   2.801
  255SOL     OW  773   0.542   0.059   2.365
  255SOL    HW1  774   0.451   0.042   2.404
  255SOL    HW2  775   0.536   0.134   2.299
  256SOL     OW  776   1.427   1.189   1.895
  256SOL    HW1  777   1.463   1.115   1.952
  256SOL    HW2  778   1.340   1.220   1.934
  257SOL     OW  779   0.292   0.032   2.051
  257SOL    HW1  780   0.340   0.113   2.018
  257SOL    HW2  781   0.358   2.967   2.089
  258SOL     OW  782   0.941   0.253   2.325
  258SOL    HW1  783   0.905   0.301   2.245
  258SOL    HW2  784   1.040   0.264   2.328
  259SOL     OW  785   1.220   1.583   2.671
  259SOL    HW1  786   1.243   1.643   2.594
  259SOL    HW2  787   1.303   1.559   2.720
  260SOL     OW  788   0.461   1.145   2.601
  260SOL    HW1  789   0.387   1.129   2.667
  260SOL    HW2  790   0.427   1.130   2.508
  261SOL     OW  791   1.270   1.795   2.465
  261SOL    HW1  792   1.319   1.857   2.403
  261SOL    HW2  793   1.201   1.846   2.517
  262SOL     OW  794   1.022   0.549   1.886
  262SOL    HW1  795   0.979   0.636   1.863
  262SOL    HW2  796   1.092   0.563   1.956
  263SOL     OW  797   0.873   0.467   2.497
  263SOL    HW1  798   0.821   0.522   2.432
  263SOL    HW2  799   0.889   0.376   2.459
  264SOL     OW  800   0.997   0.049   2.623
  264SOL    HW1  801   0.961   0.060   2.530
  264SOL    HW2  802   0.976   2.957   2.655
  265SOL     OW  803   1.440   1.161   2.713
  265SOL    HW1  804   1.362   1.098   2.711
  265SOL    HW2  805   1.470   1.179   2.619
  266SOL     OW  806   1.488   0.584   2.819
  266SOL    HW1  807   1.420   0.511   2.824
  266SOL    HW2  808   1.513   0.614   2.911
  267SOL     OW  809   1.849   0.816   2.242
  267SOL    HW1  810   1.907   0.764   2.305
  267SOL    HW2  811   1.814   0.756   2.171
  268SOL     OW  812   0.491   1.411   2.025
  268SOL    HW1  813   0.411   1.383   2.078
  268SOL    HW2  814   0.471   1.402   1.928
  269SOL     OW  815   1.669   1.267   2.510
  269SOL    HW1  816   1.768   1.268   2.521
  269SOL    HW2  817   1.632   1.357   2.531
  270SOL     OW  818   1.391   0.573   1.934
  270SOL    HW1  819   1.328   0.553   2.009
  270SOL    HW2  820   1.483   0.539   1.957
  271SOL     OW  821   0.528   0.265   2.182
  271SOL    HW1  822   0.566   0.206   2.111
  271SOL    HW2  823   0.508   0.355   2.143
  272SOL     OW  824   1.650   1.105   2.933
  272SOL    HW1  825   1.655   1.175   0.003
  272SOL    HW2  826   1.561   1.111   2.887
  273SOL     OW  827   0.709   1.056   2.234
  273SOL    HW1  828   0.693   1.045   2.332
  273SOL    HW2  829   0.789   1.003   2.207
  274SOL     OW  830   0.354   1.109   2.353
  274SOL    HW1  831   0.356   1.188   2.292
  274SOL    HW2  832   0.357   1.025   2.298
  275SOL     OW  833   0.546   0.550   2.731
  275SOL    HW1  834   0.567   0.599   2.646
  275SOL    HW2  835   0.618   0.568   2.798
  276SOL     OW  836   1.247   1.350   2.254
  276SOL    HW1  837   1.308   1.424   2.283
  276SOL    HW2  838   1.154   1.369   2.285
  277SOL     OW  839   1.583   0.627   2.339
  277SOL    HW1  840   1.535   0.684   2.405
  277SOL    HW2  841   1.629   0.685   2.272
  278SOL     OW  842   0.578   0.871   2.880
  278SOL    HW1  843   0.622   0.956   2.851
  278SOL    HW2  844   0.547   0.881   2.974
  279SOL     OW  845   1.208   0.534   2.134
  279SOL    HW1  846   1.216   0.447   2.184
  279SOL    HW2  847   1.161   0.601   2.191
  280SOL     OW  848   0.731   0.641   2.915
  280SOL    HW1  849   0.801   0.610   2.851
  280SOL    HW2  850   0.694   0.729   2.885
  281SOL     OW  851   0.309   0.070   2.507
  281SOL    HW1  852   0.304   0.163   2.544
  281SOL    HW2  853   0.282   0.004   2.577
  282SOL     OW  854   1.612   0.376   2.232
  282SOL    HW1  855   1.651   0.307   2.293
  282SOL    HW2  856   1.589   0.458   2.284
  283SOL     OW  857   1.018   0.760   2.818
  283SOL    HW1  858   1.023   0.773   2.916
  283SOL    HW2  859   0.991   0.666   2.798
  284SOL     OW  860   1.530   0.272   1.998
  284SOL    HW1  861   1.463   0.202   2.022
  284SOL    HW2  862   1.566   0.314   2.081
  285SOL     OW  863   1.295   0.827   1.896
  285SOL    HW1  864   1.335   0.736   1.904
  285SOL    HW2  865   1.324   0.869   1.810
  286SOL     OW  866   1.053   1.348   2.695
  286SOL    HW1  867   1.064   1.261   2.647
  286SOL    HW2  868   1.131   1.407   2.675
  287SOL     OW  869   0.313   0.811   2.810
  287SOL    HW1  870   0.410   0.833   2.807
  287SOL    HW2  871   0.301   0.718   2.846
  288SOL     OW  872   0.321   0.518   2.873
  288SOL    HW1  873   0.285   0.427   2.851
  288SOL    HW2  874   0.403   0.535   2.819
  289SOL     OW  875   2.995   1.318   2.043
  289SOL    HW1  876   2.899   1.327   2.014
  289SOL    HW2  877   0.006   1.233   2.094
  290SOL     OW  878   0.097   1.816   2.809
  290SOL    HW1  879   0.054   1.735   2.768
  290SOL    HW2  880   0.192   1.822   2.779
  291SOL     OW  881   0.504   1.576   2.761
  291SOL    HW1  882   0.575   1.642   2.787
  291SOL    HW2  883   0.545   1.504   2.705
  292SOL     OW  884   0.978   0.755   0.085
  292SOL    HW1  885   1.034   0.754   0.168
  292SOL    HW2  886   0.882   0.772   0.110
  293SOL     OW  887   0.815   0.571   2.214
  293SOL    HW1  888   0.822   0.492   2.153
  293SOL    HW2  889   0.737   0.627   2.186
  294SOL     OW  890   0.698   0.441   0.090
  294SOL    HW1  891   0.600   0.422   0.098
  294SOL    HW2  892   0.711   0.521   0.032
  295SOL     OW  893   0.466   0.497   2.052
  295SOL    HW1  894   0.532   0.570   2.070
  295SOL    HW2  895   0.375   0.536   2.040
  296SOL     OW  896   1.307   0.856   2.168
  296SOL    HW1  897   1.228   0.827   2.222
  296SOL    HW2  898   1.287   0.842   2.071
  297SOL     OW  899   1.736   1.765   2.971
  297SOL    HW1  900   1.814   1.794   2.916
  297SOL    HW2  901   1.762   1.685   0.026
  298SOL     OW  902   0.074   1.250   2.902
  298SOL    HW1  903   0.047   1.274   2.995
  298SOL    HW2  904   0.002   1.279   2.838
  299SOL     OW  905   1.718   0.143   2.363
  299SOL    HW1  906   1.785   0.138   2.288
  299SOL    HW2  907   1.728   0.062   2.421
  300SOL     OW  908   1.392   1.570   2.345
  300SOL    HW1  909   1.457   1.598   2.275
  300SOL    HW2  910   1.340   1.649   2.376
  301SOL     OW  911   1.279   0.926   2.528
  301SOL    HW1  912   1.353   0.860   2.541
  301SOL    HW2  913   1.313   1.004   2.475
  302SOL     OW  914   0.672   1.613   2.017
  302SOL    HW1  915   0.683   1.629   1.918
  302SOL    HW2  916   0.616   1.532   2.031
  303SOL     OW  917   1.851   0.161   2.813
  303SOL    HW1  918   1.855   0.070   2.772
  303SOL    HW2  919   1.762   0.203   2.794
  304SOL     OW  920   0.271   0.334   2.599
  304SOL    HW1  921   0.178   0.369   2.583
  304SOL    HW2  922   0.278   0.300   2.693
  305SOL     OW  923   1.205   1.605   1.892
  305SOL    HW1  924   1.203   1.512   1.929
  305SOL    HW2  925   1.135   1.614   1.821
  306SOL     OW  926   0.917   0.910   2.149
  306SOL    HW1  927   0.981   0.945   2.080
  306SOL    HW2  928   0.961   0.836   2.200
  307SOL     OW  929   1.495   1.625   1.905
  307SOL    HW1  930   1.396   1.619   1.896
  307SOL    HW2  931   1.537   1.629   1.814
  308SOL     OW  932   1.051   1.103   2.572
  308SOL    HW1  933   0.975   1.052   2.612
  308SOL    HW2  934   1.116   1.039   2.531
  309SOL     OW  935   1.018   0.246   2.811
  309SOL    HW1  936   1.010   0.179   2.737
  309SOL    HW2  937   1.049   0.200   2.894
  310SOL     OW  938   0.601   1.488   2.343
  310SOL    HW1  939   0.644   1.434   2.271
  310SOL    HW2  940   0.531   1.547   2.304
  311SOL     OW  941   0.252   1.347   2.145
  311SOL    HW1  942   0.154   1.341   2.123
  311SOL    HW2  943   0.263   1.388   2.235
  312SOL     OW  944   0.097   0.328   1.911
  312SOL    HW1  945   0.009   0.293   1.878
  312SOL    HW2  946   0.117   0.415   1.868
  313SOL     OW  947   0.021   0.215   2.144
  313SOL    HW1  948   0.061   0.267   2.069
  313SOL    HW2  949   0.080   0.138   2.168
  314SOL     OW  950   1.182   1.345   1.982
  314SOL    HW1  951   1.087   1.313   1.976
  314SOL    HW2  952   1.213   1.341   2.077
  315SOL     OW  953   1.506   1.782   2.831
  315SOL    HW1  954   1.516   1.833   2.745
  315SOL    HW2  955   1.591   1.787   2.883
  316SOL     OW  956   1.715   0.849   0.062
  316SOL    HW1  957   1.637   0.806   0.107
  316SOL    HW2  958   1.694   0.944   0.041
  317SOL     OW  959   1.225   0.316   2.318
  317SOL    HW1  960   1.289   0.239   2.314
  317SOL    HW2  961   1.246   0.372   2.398
  318SOL     OW  962   0.591   0.742   2.525
  318SOL    HW1  963   0.634   0.831   2.513
  318SOL    HW2  964   0.515   0.732   2.460
  319SOL     OW  965   0.864   1.369   1.894
  319SOL    HW1  966   0.820   1.387   1.982
  319SOL    HW2  967   0.882   1.455   1.847
  320SOL     OW  968   0.663   1.796   2.821
  320SOL    HW1  969   0.636   1.886   2.789
  320SOL    HW2  970   0.761   1.783   2.805
  321SOL     OW  971   0.863   0.965   2.717
  321SOL    HW1  972   0.916   0.890   2.755
  321SOL    HW2  973   0.830   1.023   2.792
  322SOL     OW  974   1.079   0.988   1.948
  322SOL    HW1  975   1.053   1.040   1.867
  322SOL    HW2  976   1.159   0.932   1.927
  323SOL     OW  977   1.853   1.559   2.714
  323SOL    HW1  978   1.778   1.546   2.650
  323SOL    HW2  979   1.865   1.476   2.769
  324SOL     OW  980   0.128   1.247   2.519
  324SOL    HW1  981   0.089   1.185   2.587
  324SOL    HW2  982   0.189   1.196   2.458
  325SOL     OW  983   1.808   0.187   0.080
  325SOL    HW1  984   1.834   0.104   0.128
  325SOL    HW2  985   1.829   0.177   2.983
  326SOL     OW  986   0.461   0.432   2.403
  326SOL    HW1  987   0.458   0.365   2.328
  326SOL    HW2  988   0.407   0.398   2.480
  327SOL     OW  989   0.818   1.586   2.540
  327SOL    HW1  990   0.822   1.625   2.448
  327SOL    HW2  991   0.740   1.523   2.546
  328SOL     OW  992   0.773   1.331   2.172
  328SOL    HW1  993   0.736   1.238   2.179
  328SOL    HW2  994   0.858   1.336   2.223
  329SOL     OW  995   1.347   0.046   2.029
  329SOL    HW1  996   1.417   2.985   1.992
  329SOL    HW2  997   1.260   2.998   2.036
  330SOL     OW  998   1.296   0.458   2.549
  330SOL    HW1  999   1.240   0.541   2.554
  330SOL    HW2 1000   1.296   0.413   2.638
  331SOL     OW 1001   1.600   0.237   2.750
  331SOL    HW1 1002   1.507   0.222   2.783
  331SOL    HW2 1003   1.601   0.314   2.686
  332SOL     OW 1004   0.064   1.082   2.163
  332SOL    HW1 1005   0.157   1.044   2.161
  332SOL    HW2 1006   0.001   1.014   2.199
  333SOL     OW 1007   0.879   1.652   2.208
  333SOL    HW1 1008   0.807   1.629   2.142
  333SOL    HW2 1009   0.851   1.732   2.261
  334SOL     OW 1010   0.236   2.512   0.099
  334SOL    HW1 1011   0.166   2.469   0.155
  334SOL    HW2 1012   0.252   2.457   0.017
  335SOL     OW 1013   0.212   2.137   0.991
  335SOL    HW1 1014   0.248   2.107   1.079
  335SOL    HW2 1015   0.120   2.099   0.977
  336SOL     OW 1016   0.017   2.250   0.643
  336SOL    HW1 1017   2.929   2.288   0.671
  336SOL    HW2 1018   0.002   2.162   0.598
  337SOL     OW 1019   1.134   2.570   0.702
  337SOL    HW1 1020   1.184   2.655   0.690
  337SOL    HW2 1021   1.078   2.575   0.785
  338SOL     OW 1022   1.758   2.457   0.226
  338SOL    HW1 1023   1.749   2.438   0.128
  338SOL    HW2 1024   1.724   2.378   0.278
  339SOL     OW 1025   0.760   0.010   1.030
  339SOL    HW1 1026   0.673   0.037   1.071
  339SOL    HW2 1027   0.788   0.079   0.963
  340SOL     OW 1028   0.865   2.640   1.820
  340SOL    HW1 1029   0.844   2.703   1.895
  340SOL    HW2 1030   0.890   2.692   1.739
  341SOL     OW 1031   0.653   2.850   0.711
  341SOL    HW1 1032   0.752   2.853   0.728
  341SOL    HW2 1033   0.626   2.934   0.663
  342SOL     OW 1034   0.472   2.270   1.488
  342SOL    HW1 1035   0.547   2.204   1.490
  342SOL    HW2 1036   0.386   2.222   1.504
  343SOL     OW 1037   1.614   2.311   0.740
  343SOL    HW1 1038   1.534   2.335   0.685
  343SOL    HW2 1039   1.638   2.388   0.799
  344SOL     OW 1040   0.212   0.314   0.463
  344SOL    HW1 1041   0.227   0.393   0.522
  344SOL    HW2 1042   0.199   0.232   0.520
  345SOL     OW 1043   0.235   2.942   0.877
  345SOL    HW1 1044   0.259   2.857   0.922
  345SOL    HW2 1045   0.201   0.007   0.946
  346SOL     OW 1046   0.617   2.832   0.150
  346SOL    HW1 1047   0.596   2.926   0.124
  346SOL    HW2 1048   0.680   2.831   0.227
  347SOL     OW 1049   1.606   2.007   1.468
  347SOL    HW1 1050   1.599   2.089   1.411
  347SOL    HW2 1051   1.591   2.031   1.564
  348SOL     OW 1052   0.116   2.499   0.567
  348SOL    HW1 1053   0.092   2.407   0.599
  348SOL    HW2 1054   0.114   2.563   0.644
  349SOL     OW 1055   1.701   2.806   0.626
  349SOL    HW1 1056   1.781   2.748   0.636
  349SOL    HW2 1057   1.684   2.824   0.528
  350SOL     OW 1058   0.127   2.608   1.589
  350SOL    HW1 1059   0.227   2.615   1.595
  350SOL    HW2 1060   0.087   2.698   1.607
  351SOL     OW 1061   0.657   0.242   0.685
  351SOL    HW1 1062   0.593   0.173   0.720
  351SOL    HW2 1063   0.609   0.303   0.623
  352SOL     OW 1064   1.304   0.052   1.441
  352SOL    HW1 1065   1.327   2.989   1.366
  352SOL    HW2 1066   1.386   0.102   1.469
  353SOL     OW 1067   0.812   1.864   0.505
  353SOL    HW1 1068   0.857   1.952   0.490
  353SOL    HW2 1069   0.714   1.878   0.515
  354SOL     OW 1070   0.192   2.835   1.257
  354SOL    HW1 1071   0.279   2.787   1.250
  354SOL    HW2 1072   0.118   2.774   1.231
  355SOL     OW 1073   1.523   2.844   0.207
  355SOL    HW1 1074   1.449   2.795   0.254
  355SOL    HW2 1075   1.595   2.866   0.272
  356SOL     OW 1076   0.336   2.112   1.810
  356SOL    HW1 1077   0.390   2.195   1.824
  356SOL    HW2 1078   0.245   2.124   1.849
  357SOL     OW 1079   0.594   2.583   0.272
  357SOL    HW1 1080   0.600   2.665   0.214
  357SOL    HW2 1081   0.523   2.596   0.341
  358SOL     OW 1082   1.279   2.208   0.933
  358SOL    HW1 1083   1.185   2.175   0.937
  358SOL    HW2 1084   1.336   2.157   0.997
  359SOL     OW 1085   0.793   2.475   1.454
  359SOL    HW1 1086   0.765   2.455   1.549
  359SOL    HW2 1087   0.749   2.410   1.393
  360SOL     OW 1088   1.393   2.333   1.678
  360SOL    HW1 1089   1.390   2.382   1.766
  360SOL    HW2 1090   1.460   2.259   1.683
  361SOL     OW 1091   0.960   2.756   1.588
  361SOL    HW1 1092   1.016   2.682   1.552
  361SOL    HW2 1093   0.903   2.794   1.515
  362SOL     OW 1094   0.993   2.273   1.236
  362SOL    HW1 1095   0.910   2.300   1.284
  362SOL    HW2 1096   0.968   2.221   1.154
  363SOL     OW 1097   1.048   2.566   0.424
  363SOL    HW1 1098   1.066   2.561   0.522
  363SOL    HW2 1099   0.964   2.516   0.403
  364SOL     OW 1100   0.104   2.672   0.768
  364SOL    HW1 1101   0.185   2.673   0.827
  364SOL    HW2 1102   0.042   2.746   0.795
  365SOL     OW 1103   0.925   2.195   0.222
  365SOL    HW1 1104   0.937   2.261   0.148
  365SOL    HW2 1105   0.896   2.107   0.184
  366SOL     OW 1106   1.709   2.439   1.826
  366SOL    HW1 1107   1.672   2.519   1.779
  366SOL    HW2 1108   1.736   2.371   1.757
  367SOL     OW 1109   0.545   2.045   0.895
  367SOL    HW1 1110   0.551   2.071   0.991
  367SOL    HW2 1111   0.551   2.127   0.838
  368SOL     OW 1112   1.795   2.907   0.867
  368SOL    HW1 1113   1.741   2.890   0.785
  368SOL    HW2 1114   1.735   2.917   0.946
  369SOL     OW 1115   1.482   2.600   0.726
  369SOL    HW1 1116   1.460   2.546   0.807
  369SOL    HW2 1117   1.557   2.662   0.747
  370SOL     OW 1118   0.232   2.167   1.509
  370SOL    HW1 1119   0.150   2.214   1.476
  370SOL    HW2 1120   0.204   2.084   1.558
  371SOL     OW 1121   1.403   1.967   0.428
  371SOL    HW1 1122   1.390   1.945   0.332
  371SOL    HW2 1123   1.500   1.980   0.447
  372SOL     OW 1124   0.388   2.552   0.475
  372SOL    HW1 1125   0.415   2.456   0.484
  372SOL    HW2 1126   0.291   2.561   0.498
  373SOL     OW 1127   1.538   2.090   1.728
  373SOL    HW1 1128   1.544   2.112   1.826
  373SOL    HW2 1129   1.473   2.014   1.715
  374SOL     OW 1130   0.627   1.984   0.118
  374SOL    HW1 1131   0.724   1.962   0.121
  374SOL    HW2 1132   0.585   1.936   0.041
  375SOL     OW 1133   0.768   2.137   1.753
  375SOL    HW1 1134   0.844   2.073   1.758
  375SOL    HW2 1135   0.711   2.128   1.835
  376SOL     OW 1136   1.342   2.451   1.435
  376SOL    HW1 1137   1.372   2.413   1.522
  376SOL    HW2 1138   1.378   2.543   1.423
  377SOL     OW 1139   0.927   2.370   0.900
  377SOL    HW1 1140   0.901   2.363   0.804
  377SOL    HW2 1141   0.961   2.282   0.933
  378SOL     OW 1142   0.545   1.924   0.504
  378SOL    HW1 1143   0.462   1.924   0.559
  378SOL    HW2 1144   0.546   2.004   0.444
  379SOL     OW 1145   0.944   2.104   0.473
  379SOL    HW1 1146   0.913   2.143   0.387
  379SOL    HW2 1147   1.043   2.115   0.481
  380SOL     OW 1148   1.079   2.545   1.458
  380SOL    HW1 1149   1.001   2.483   1.467
  380SOL    HW2 1150   1.163   2.492   1.453
  381SOL     OW 1151   1.048   2.360   0.029
  381SOL    HW1 1152   0.997   2.444   0.012
  381SOL    HW2 1153   1.112   2.374   0.104
  382SOL     OW 1154   0.089   2.417   1.399
  382SOL    HW1 1155   0.177   2.420   1.351
  382SOL    HW2 1156   0.086   2.490   1.467
  383SOL     OW 1157   0.561   2.087   1.165
  383SOL    HW1 1158   0.604   2.003   1.198
  383SOL    HW2 1159   0.465   2.088   1.193
  384SOL     OW 1160   0.870   2.322   0.638
  384SOL    HW1 1161   0.818   2.383   0.578
  384SOL    HW2 1162   0.892   2.238   0.590
  385SOL     OW 1163   1.015   1.913   0.752
  385SOL    HW1 1164   0.954   1.912   0.673
  385SOL    HW2 1165   0.993   1.835   0.811
  386SOL     OW 1166   1.429   2.993   0.873
  386SOL    HW1 1167   1.359   2.933   0.835
  386SOL    HW2 1168   1.452   0.063   0.806
  387SOL     OW 1169   1.468   2.463   0.983
  387SOL    HW1 1170   1.416   2.378   0.983
  387SOL    HW2 1171   1.533   2.462   1.059
  388SOL     OW 1172   1.832   2.665   0.389
  388SOL    HW1 1173   1.896   2.616   0.448
  388SOL    HW2 1174   1.813   2.609   0.308
  389SOL     OW 1175   1.410   2.438   0.102
  389SOL    HW1 1176   1.335   2.428   0.167
  389SOL    HW2 1177   1.466   2.354   0.103
  390SOL     OW 1178   0.523   2.126   0.324
  390SOL    HW1 1179   0.560   2.069   0.250
  390SOL    HW2 1180   0.500   2.216   0.288
  391SOL     OW 1181   1.782   0.079   1.591
  391SOL    HW1 1182   1.873   0.041   1.572
  391SOL    HW2 1183   1.791   0.169   1.633
  392SOL     OW 1184   1.627   2.956   1.077
  392SOL    HW1 1185   1.649   0.041   1.124
  392SOL    HW2 1186   1.549   2.971   1.016
  393SOL     OW 1187   0.920   1.959   1.399
  393SOL    HW1 1188   0.940   1.937   1.303
  393SOL    HW2 1189   0.999   2.006   1.438
  394SOL     OW 1190   0.416   2.678   1.254
  394SOL    HW1 1191   0.490   2.688   1.320
  394SOL    HW2 1192   0.377   2.586   1.262
  395SOL     OW 1193   1.266   2.241   1.274
  395SOL    HW1 1194   1.303   2.319   1.324
  395SOL    HW2 1195   1.172   2.260   1.245
  396SOL     OW 1196   0.556   2.403   0.863
  396SOL    HW1 1197   0.571   2.459   0.781
  396SOL    HW2 1198   0.621   2.430   0.934
  397SOL     OW 1199   1.578   2.488   0.474
  397SOL    HW1 1200   1.537   2.542   0.547
  397SOL    HW2 1201   1.639   2.546   0.419
  398SOL     OW 1202   0.412   2.600   1.602
  398SOL    HW1 1203   0.471   2.652   1.541
  398SOL    HW2 1204   0.456   2.512   1.624
  399SOL     OW 1205   1.597   2.640   1.679
  399SOL    HW1 1206   1.505   2.677   1.675
  399SOL    HW2 1207   1.654   2.683   1.609
  400SOL     OW 1208   0.996   1.983   1.754
  400SOL    HW1 1209   1.049   2.064   1.728
  400SOL    HW2 1210   1.051   1.901   1.737
  401SOL     OW 1211   0.497   1.904   1.745
  401SOL    HW1 1212   0.457   1.844   1.675
  401SOL    HW2 1213   0.435   1.981   1.762
  402SOL     OW 1214   0.592   2.727   1.040
  402SOL    HW1 1215   0.600   2.821   1.007
  402SOL    HW2 1216   0.522   2.724   1.111
  403SOL     OW 1217   1.350   2.713   1.033
  403SOL    HW1 1218   1.276   2.710   0.966
  403SOL    HW2 1219   1.398   2.625   1.033
  404SOL     OW 1220   1.203   2.394   0.273
  404SOL    HW1 1221   1.212   2.305   0.319
  404SOL    HW2 1222   1.155   2.458   0.334
  405SOL     OW 1223   0.300   2.065   1.242
  405SOL    HW1 1224   0.282   2.101   1.334
  405SOL    HW2 1225   0.285   1.966   1.242
  406SOL     OW 1226   0.054   0.169   1.271
  406SOL    HW1 1227   0.085   0.131   1.358
  406SOL    HW2 1228   0.009   0.257   1.287
  407SOL     OW 1229   0.731   2.494   1.061
  407SOL    HW1 1230   0.801   2.471   0.994
  407SOL    HW2 1231   0.693   2.584   1.042
  408SOL     OW 1232   1.733   2.819   1.843
  408SOL    HW1 1233   1.686   2.758   1.779
  408SOL    HW2 1234   1.677   2.831   1.926
  409SOL     OW 1235   0.301   1.930   0.625
  409SOL    HW1 1236   0.285   2.026   0.649
  409SOL    HW2 1237   0.311   1.876   0.708
  410SOL     OW 1238   1.621   2.236   0.369
  410SOL    HW1 1239   1.646   2.165   0.434
  410SOL    HW2 1240   1.589   2.317   0.419
  411SOL     OW 1241   1.025   2.616   0.967
  411SOL    HW1 1242   1.028   2.635   1.065
  411SOL    HW2 1243   0.997   2.521   0.953
  412SOL     OW 1244   0.357   2.786   1.795
  412SOL    HW1 1245   0.420   2.787   1.873
  412SOL    HW2 1246   0.381   2.711   1.734
  413SOL     OW 1247   1.505   2.163   0.128
  413SOL    HW1 1248   1.462   2.074   0.139
  413SOL    HW2 1249   1.561   2.183   0.209
  414SOL     OW 1250   1.296   2.684   0.038
  414SOL    HW1 1251   1.337   2.593   0.052
  414SOL    HW2 1252   1.324   2.719   2.949
  415SOL     OW 1253   0.314   2.676   0.951
  415SOL    HW1 1254   0.412   2.690   0.933
  415SOL    HW2 1255   0.300   2.584   0.986
  416SOL     OW 1256   0.336   2.377   1.014
  416SOL    HW1 1257   0.292   2.289   0.994
  416SOL    HW2 1258   0.415   2.388   0.952
  417SOL     OW 1259   1.135   2.238   1.684
  417SOL    HW1 1260   1.084   2.296   1.747
  417SOL    HW2 1261   1.229   2.273   1.675
  418SOL     OW 1262   1.159   2.066   1.473
  418SOL    HW1 1263   1.150   2.130   1.550
  418SOL    HW2 1264   1.199   2.114   1.395
  419SOL     OW 1265   0.982   2.669   1.234
  419SOL    HW1 1266   1.039   2.637   1.310
  419SOL    HW2 1267   0.896   2.618   1.232
  420SOL     OW 1268   0.049   2.439   1.116
  420SOL    HW1 1269   0.125   2.391   1.072
  420SOL    HW2 1270   0.032   2.398   1.206
  421SOL     OW 1271   0.197   2.381   1.722
  421SOL    HW1 1272   0.265   2.345   1.658
  421SOL    HW2 1273   0.156   2.463   1.683
  422SOL     OW 1274   1.377   2.804   1.660
  422SOL    HW1 1275   1.404   2.900   1.667
  422SOL    HW2 1276   1.372   2.777   1.564
  423SOL     OW 1277   0.820   2.439   0.348
  423SOL    HW1 1278   0.824   2.356   0.292
  423SOL    HW2 1279   0.737   2.490   0.326
  424SOL     OW 1280   1.645   2.466   1.190
  424SOL    HW1 1281   1.628   2.403   1.265
  424SOL    HW2 1282   1.735   2.447   1.150
  425SOL     OW 1283   0.697   2.315   1.260
  425SOL    HW1 1284   0.643   2.236   1.232
  425SOL    HW2 1285   0.699   2.382   1.186
  426SOL     OW 1286   0.439   2.359   0.211
  426SOL    HW1 1287   0.518   2.419   0.221
  426SOL    HW2 1288   0.358   2.414   0.188
  427SOL     OW 1289   0.160   0.006   1.469
  427SOL    HW1 1290   0.148   2.955   1.554
  427SOL    HW2 1291   0.174   2.942   1.394
  428SOL     OW 1292   1.348   2.906   1.220
  428SOL    HW1 1293   1.363   2.840   1.146
  428SOL    HW2 1294   1.273   2.967   1.195
  429SOL     OW 1295   1.299   2.722   0.311
  429SOL    HW1 1296   1.224   2.679   0.362
  429SOL    HW2 1297   1.291   2.700   0.214
  430SOL     OW 1298   0.898   1.939   0.128
  430SOL    HW1 1299   0.946   1.924   0.041
  430SOL    HW2 1300   0.950   1.895   0.202
  431SOL     OW 1301   1.713   2.002   0.509
  431SOL    HW1 1302   1.797   1.998   0.454
  431SOL    HW2 1303   1.699   1.913   0.553
  432SOL     OW 1304   1.293   2.793   0.682
  432SOL    HW1 1305   1.364   2.722   0.683
  432SOL    HW2 1306   1.304   2.850   0.601
  433SOL     OW 1307   1.840   2.035   0.963
  433SOL    HW1 1308   1.874   1.944   0.939
  433SOL    HW2 1309   1.749   2.047   0.926
  434SOL     OW 1310   0.267   2.180   0.722
  434SOL    HW1 1311   0.181   2.220   0.690
  434SOL    HW2 1312   0.263   2.166   0.821
  435SOL     OW 1313   0.813   2.861   1.373
  435SOL    HW1 1314   0.871   2.827   1.299
  435SOL    HW2 1315   0.836   2.956   1.393
  436SOL     OW 1316   0.904   2.792   0.287
  436SOL    HW1 1317   0.982   2.818   0.231
  436SOL    HW2 1318   0.934   2.733   0.362
  437SOL     OW 1319   1.019   2.101   0.966
  437SOL    HW1 1320   1.013   2.055   0.877
  437SOL    HW2 1321   1.016   2.032   1.039
  438SOL     OW 1322   1.723   2.258   1.377
  438SOL    HW1 1323   1.796   2.326   1.378
  438SOL    HW2 1324   1.752   2.180   1.321
  439SOL     OW 1325   0.117   2.866   1.697
  439SOL    HW1 1326   0.042   2.845   1.760
  439SOL    HW2 1327   0.204   2.850   1.743
  440SOL     OW 1328   0.677   2.059   1.498
  440SOL    HW1 1329   0.763   2.039   1.452
  440SOL    HW2 1330   0.696   2.086   1.593
  441SOL     OW 1331   0.054   2.174   0.055
  441SOL    HW1 1332   2.962   2.201   0.027
  441SOL    HW2 1333   0.120   2.239   0.018
  442SOL     OW 1334   1.433   2.717   1.403
  442SOL    HW1 1335   1.385   2.778   1.339
  442SOL    HW2 1336   1.530   2.716   1.380
  443SOL     OW 1337   0.063   2.060   0.321
  443SOL    HW1 1338   0.048   2.103   0.232
  443SOL    HW2 1339   0.131   1.986   0.311
  444SOL     OW 1340   1.140   0.213   0.095
  444SOL    HW1 1341   1.062   0.251   0.144
  444SOL    HW2 1342   1.222   0.220   0.151
  445SOL     OW 1343   0.615   2.690   1.435
  445SOL    HW1 1344   0.673   2.770   1.417
  445SOL    HW2 1345   0.672   2.609   1.445
  446SOL     OW 1346   0.719   2.426   1.707
  446SOL    HW1 1347   0.756   2.496   1.768
  446SOL    HW2 1348   0.754   2.337   1.734
  447SOL     OW 1349   1.677   2.744   1.254
  447SOL    HW1 1350   1.666   2.651   1.218
  447SOL    HW2 1351   1.658   2.810   1.182
  448SOL     OW 1352   1.223   2.179   0.461
  448SOL    HW1 1353   1.289   2.105   0.447
  448SOL    HW2 1354   1.251   2.233   0.540
  449SOL     OW 1355   0.591   2.589   0.662
  449SOL    HW1 1356   0.620   2.684   0.673
  449SOL    HW2 1357   0.516   2.584   0.595
  450SOL     OW 1358   1.760   2.226   1.648
  450SOL    HW1 1359   1.748   2.237   1.549
  450SOL    HW2 1360   1.690   2.164   1.684
  451SOL     OW 1361   1.736   2.796   1.513
  451SOL    HW1 1362   1.752   2.891   1.538
  451SOL    HW2 1363   1.728   2.788   1.414
  452SOL     OW 1364   0.889   2.830   0.864
  452SOL    HW1 1365   0.927   2.745   0.901
  452SOL    HW2 1366   0.827   2.870   0.931
  453SOL     OW 1367   1.111   2.888   0.084
  453SOL    HW1 1368   1.057   2.893   3.000
  453SOL    HW2 1369   1.176   2.812   0.077
  454SOL     OW 1370   1.814   2.050   1.235
  454SOL    HW1 1371   1.804   1.955   1.264
  454SOL    HW2 1372   1.826   2.054   1.136
  455SOL     OW 1373   0.432   2.292   0.528
  455SOL    HW1 1374   0.464   2.221   0.466
  455SOL    HW2 1375   0.382   2.250   0.604
  456SOL     OW 1376   0.335   2.415   1.288
  456SOL    HW1 1377   0.396   2.362   1.346
  456SOL    HW2 1378   0.348   2.389   1.192
  457SOL     OW 1379   1.432   2.086   1.118
  457SOL    HW1 1380   1.474   2.008   1.164
  457SOL    HW2 1381   1.377   2.137   1.184
  458SOL     OW 1382   1.008   1.882   1.146
  458SOL    HW1 1383   0.946   1.816   1.105
  458SOL    HW2 1384   1.101   1.845   1.148
  459SOL     OW 1385   1.352   1.913   0.163
  459SOL    HW1 1386   1.386   1.864   0.083
  459SOL    HW2 1387   1.263   1.877   0.189
  460SOL     OW 1388   1.298   2.325   0.686
  460SOL    HW1 1389   1.240   2.406   0.690
  460SOL    HW2 1390   1.295   2.278   0.774
  461SOL     OW 1391   1.587   2.070   0.878
  461SOL    HW1 1392   1.521   2.083   0.952
  461SOL    HW2 1393   1.589   2.152   0.821
  462SOL     OW 1394   0.001   2.886   0.284
  462SOL    HW1 1395   0.090   2.918   0.252
  462SOL    HW2 1396   0.009   2.848   0.376
  463SOL     OW 1397   0.229   2.503   1.971
  463SOL    HW1 1398   0.161   2.458   2.029
  463SOL    HW2 1399   0.225   2.464   1.879
  464SOL     OW 1400   0.235   2.125   2.839
  464SOL    HW1 1401   0.273   2.100   2.928
  464SOL    HW2 1402   0.143   2.087   2.830
  465SOL     OW 1403   0.016   2.249   2.504
  465SOL    HW1 1404   2.929   2.287   2.534
  465SOL    HW2 1405   0.001   2.158   2.464
  466SOL     OW 1406   1.136   2.570   2.564
  466SOL    HW1 1407   1.187   2.655   2.551
  466SOL    HW2 1408   1.081   2.576   2.647
  467SOL     OW 1409   1.759   2.467   2.089
  467SOL    HW1 1410   1.743   2.458   1.991
  467SOL    HW2 1411   1.728   2.383   2.135
  468SOL     OW 1412   0.783   0.012   2.878
  468SOL    HW1 1413   0.695   0.021   2.923
  468SOL    HW2 1414   0.800   0.092   2.821
  469SOL     OW 1415   0.653   2.847   2.569
  469SOL    HW1 1416   0.750   2.848   2.594
  469SOL    HW2 1417   0.628   2.934   2.527
  470SOL     OW 1418   1.618   2.312   2.595
  470SOL    HW1 1419   1.537   2.333   2.540
  470SOL    HW2 1420   1.627   2.378   2.669
  471SOL     OW 1421   0.210   0.312   2.326
  471SOL    HW1 1422   0.230   0.391   2.384
  471SOL    HW2 1423   0.201   0.230   2.383
  472SOL     OW 1424   0.235   2.944   2.743
  472SOL    HW1 1425   0.258   2.855   2.781
  472SOL    HW2 1426   0.209   0.006   2.817
  473SOL     OW 1427   0.608   2.823   1.992
  473SOL    HW1 1428   0.596   2.909   1.941
  473SOL    HW2 1429   0.668   2.840   2.071
  474SOL     OW 1430   0.117   2.497   2.428
  474SOL    HW1 1431   0.092   2.407   2.462
  474SOL    HW2 1432   0.118   2.563   2.503
  475SOL     OW 1433   1.700   2.805   2.487
  475SOL    HW1 1434   1.782   2.749   2.499
  475SOL    HW2 1435   1.685   2.821   2.389
  476SOL     OW 1436   0.629   0.246   2.570
  476SOL    HW1 1437   0.591   0.155   2.551
  476SOL    HW2 1438   0.612   0.306   2.492
  477SOL     OW 1439   0.812   1.864   2.365
  477SOL    HW1 1440   0.858   1.951   2.349
  477SOL    HW2 1441   0.714   1.880   2.378
  478SOL     OW 1442   0.213   2.805   0.102
  478SOL    HW1 1443   0.281   2.732   0.100
  478SOL    HW2 1444   0.122   2.766   0.093
  479SOL     OW 1445   1.539   2.842   2.048
  479SOL    HW1 1446   1.466   2.786   2.087
  479SOL    HW2 1447   1.599   2.876   2.121
  480SOL     OW 1448   0.597   2.581   2.129
  480SOL    HW1 1449   0.604   2.661   2.069
  480SOL    HW2 1450   0.528   2.598   2.200
  481SOL     OW 1451   1.297   2.198   2.808
  481SOL    HW1 1452   1.199   2.179   2.799
  481SOL    HW2 1453   1.328   2.167   2.898
  482SOL     OW 1454   1.050   2.561   2.289
  482SOL    HW1 1455   1.066   2.558   2.388
  482SOL    HW2 1456   0.964   2.514   2.268
  483SOL     OW 1457   0.108   2.673   2.626
  483SOL    HW1 1458   0.188   2.672   2.686
  483SOL    HW2 1459   0.041   2.739   2.661
  484SOL     OW 1460   0.885   2.210   2.056
  484SOL    HW1 1461   0.930   2.276   1.995
  484SOL    HW2 1462   0.902   2.117   2.023
  485SOL     OW 1463   0.549   2.046   2.766
  485SOL    HW1 1464   0.518   2.078   2.856
  485SOL    HW2 1465   0.559   2.125   2.705
  486SOL     OW 1466   1.797   2.908   2.729
  486SOL    HW1 1467   1.740   2.889   2.649
  486SOL    HW2 1468   1.738   2.915   2.810
  487SOL     OW 1469   1.481   2.603   2.585
  487SOL    HW1 1470   1.466   2.544   2.664
  487SOL    HW2 1471   1.560   2.662   2.603
  488SOL     OW 1472   1.402   1.968   2.291
  488SOL    HW1 1473   1.387   1.943   2.195
  488SOL    HW2 1474   1.500   1.979   2.308
  489SOL     OW 1475   0.395   2.551   2.337
  489SOL    HW1 1476   0.414   2.454   2.351
  489SOL    HW2 1477   0.298   2.569   2.355
  490SOL     OW 1478   0.628   1.986   1.968
  490SOL    HW1 1479   0.709   1.930   1.985
  490SOL    HW2 1480   0.580   1.951   1.887
  491SOL     OW 1481   0.922   2.379   2.756
  491SOL    HW1 1482   0.900   2.358   2.661
  491SOL    HW2 1483   0.960   2.298   2.800
  492SOL     OW 1484   0.546   1.925   2.366
  492SOL    HW1 1485   0.462   1.924   2.420
  492SOL    HW2 1486   0.546   2.006   2.307
  493SOL     OW 1487   0.292   1.904   2.042
  493SOL    HW1 1488   0.347   1.981   2.009
  493SOL    HW2 1489   0.351   1.838   2.087
  494SOL     OW 1490   0.939   2.105   2.325
  494SOL    HW1 1491   0.902   2.151   2.245
  494SOL    HW2 1492   1.038   2.118   2.329
  495SOL     OW 1493   1.025   2.407   1.882
  495SOL    HW1 1494   0.978   2.492   1.859
  495SOL    HW2 1495   1.092   2.424   1.954
  496SOL     OW 1496   0.869   2.319   2.499
  496SOL    HW1 1497   0.820   2.382   2.439
  496SOL    HW2 1498   0.891   2.235   2.448
  497SOL     OW 1499   1.012   1.909   2.613
  497SOL    HW1 1500   0.953   1.909   2.532
  497SOL    HW2 1501   0.992   1.829   2.669
  498SOL     OW 1502   1.424   2.999   2.736
  498SOL    HW1 1503   1.353   2.938   2.701
  498SOL    HW2 1504   1.454   0.061   2.663
  499SOL     OW 1505   1.486   2.447   2.818
  499SOL    HW1 1506   1.418   2.374   2.826
  499SOL    HW2 1507   1.514   2.477   2.910
  500SOL     OW 1508   1.838   2.666   2.251
  500SOL    HW1 1509   1.900   2.617   2.313
  500SOL    HW2 1510   1.812   2.606   2.175
  501SOL     OW 1511   1.391   2.435   1.934
  501SOL    HW1 1512   1.330   2.413   2.010
  501SOL    HW2 1513   1.484   2.404   1.956
  502SOL     OW 1514   0.529   2.126   2.181
  502SOL    HW1 1515   0.567   2.069   2.107
  502SOL    HW2 1516   0.509   2.217   2.145
  503SOL     OW 1517   1.627   2.966   2.936
  503SOL    HW1 1518   1.639   0.046   2.995
  503SOL    HW2 1519   1.549   2.981   2.875
  504SOL     OW 1520   0.553   2.401   2.726
  504SOL    HW1 1521   0.568   2.457   2.645
  504SOL    HW2 1522   0.617   2.429   2.798
  505SOL     OW 1523   1.577   2.487   2.334
  505SOL    HW1 1524   1.537   2.542   2.407
  505SOL    HW2 1525   1.636   2.545   2.277
  506SOL     OW 1526   0.577   2.726   2.883
  506SOL    HW1 1527   0.618   2.808   2.843
  506SOL    HW2 1528   0.557   2.742   2.980
  507SOL     OW 1529   1.205   2.391   2.133
  507SOL    HW1 1530   1.217   2.307   2.187
  507SOL    HW2 1531   1.158   2.460   2.188
  508SOL     OW 1532   0.327   2.061   0.080
  508SOL    HW1 1533   0.315   2.110   0.166
  508SOL    HW2 1534   0.302   1.965   0.093
  509SOL     OW 1535   0.730   2.501   2.913
  509SOL    HW1 1536   0.799   2.474   2.847
  509SOL    HW2 1537   0.690   2.589   2.887
  510SOL     OW 1538   0.302   1.930   2.485
  510SOL    HW1 1539   0.284   2.026   2.509
  510SOL    HW2 1540   0.309   1.876   2.569
  511SOL     OW 1541   1.617   2.235   2.231
  511SOL    HW1 1542   1.645   2.166   2.297
  511SOL    HW2 1543   1.590   2.318   2.280
  512SOL     OW 1544   1.023   2.618   2.821
  512SOL    HW1 1545   1.026   2.629   2.921
  512SOL    HW2 1546   0.992   2.525   2.800
  513SOL     OW 1547   1.530   2.134   1.992
  513SOL    HW1 1548   1.462   2.065   2.015
  513SOL    HW2 1549   1.566   2.175   2.076
  514SOL     OW 1550   1.294   2.687   1.895
  514SOL    HW1 1551   1.335   2.596   1.904
  514SOL    HW2 1552   1.323   2.729   1.809
  515SOL     OW 1553   0.314   2.673   2.808
  515SOL    HW1 1554   0.411   2.694   2.808
  515SOL    HW2 1555   0.298   2.582   2.845
  516SOL     OW 1556   0.321   2.384   2.867
  516SOL    HW1 1557   0.286   2.291   2.853
  516SOL    HW2 1558   0.405   2.396   2.813
  517SOL     OW 1559   0.983   2.618   0.086
  517SOL    HW1 1560   1.033   2.607   0.172
  517SOL    HW2 1561   0.886   2.634   0.106
  518SOL     OW 1562   0.817   2.432   2.214
  518SOL    HW1 1563   0.821   2.352   2.155
  518SOL    HW2 1564   0.739   2.489   2.188
  519SOL     OW 1565   0.701   2.313   0.102
  519SOL    HW1 1566   0.617   2.260   0.090
  519SOL    HW2 1567   0.704   2.386   0.034
  520SOL     OW 1568   0.465   2.358   2.050
  520SOL    HW1 1569   0.531   2.429   2.072
  520SOL    HW2 1570   0.373   2.398   2.043
  521SOL     OW 1571   1.302   2.725   2.168
  521SOL    HW1 1572   1.226   2.686   2.221
  521SOL    HW2 1573   1.288   2.704   2.071
  522SOL     OW 1574   1.717   2.002   2.370
  522SOL    HW1 1575   1.795   1.995   2.308
  522SOL    HW2 1576   1.701   1.914   2.415
  523SOL     OW 1577   1.294   2.796   2.543
  523SOL    HW1 1578   1.363   2.723   2.546
  523SOL    HW2 1579   1.306   2.849   2.459
  524SOL     OW 1580   1.841   2.039   2.820
  524SOL    HW1 1581   1.876   1.949   2.797
  524SOL    HW2 1582   1.747   2.048   2.786
  525SOL     OW 1583   0.269   2.181   2.577
  525SOL    HW1 1584   0.182   2.221   2.550
  525SOL    HW2 1585   0.269   2.165   2.676
  526SOL     OW 1586   0.907   2.758   2.114
  526SOL    HW1 1587   0.983   2.810   2.075
  526SOL    HW2 1588   0.938   2.707   2.193
  527SOL     OW 1589   1.035   2.107   2.805
  527SOL    HW1 1590   1.021   2.048   2.725
  527SOL    HW2 1591   1.012   2.057   2.888
  528SOL     OW 1592   0.093   2.183   1.918
  528SOL    HW1 1593   0.007   2.147   1.881
  528SOL    HW2 1594   0.112   2.272   1.878
  529SOL     OW 1595   0.066   2.058   2.177
  529SOL    HW1 1596   0.067   2.111   2.092
  529SOL    HW2 1597   0.136   1.987   2.172
  530SOL     OW 1598   1.131   0.243   2.002
  530SOL    HW1 1599   1.099   0.162   1.953
  530SOL    HW2 1600   1.215   0.222   2.052
  531SOL     OW 1601   1.727   2.710   0.053
  531SOL    HW1 1602   1.656   2.660   0.102
  531SOL    HW2 1603   1.698   2.804   0.038
  532SOL     OW 1604   1.221   2.180   2.320
  532SOL    HW1 1605   1.286   2.105   2.308
  532SOL    HW2 1606   1.247   2.233   2.401
  533SOL     OW 1607   0.593   2.586   2.524
  533SOL    HW1 1608   0.622   2.681   2.536
  533SOL    HW2 1609   0.519   2.582   2.457
  534SOL     OW 1610   0.884   2.824   2.718
  534SOL    HW1 1611   0.928   2.744   2.759
  534SOL    HW2 1612   0.844   2.881   2.791
  535SOL     OW 1613   1.103   2.874   1.953
  535SOL    HW1 1614   1.056   2.905   1.870
  535SOL    HW2 1615   1.163   2.797   1.930
  536SOL     OW 1616   1.826   2.053   0.093
  536SOL    HW1 1617   1.795   1.959   0.111
  536SOL    HW2 1618   1.831   2.068   2.994
  537SOL     OW 1619   0.428   2.290   2.383
  537SOL    HW1 1620   0.463   2.217   2.325
  537SOL    HW2 1621   0.380   2.251   2.461
  538SOL     OW 1622   1.349   1.916   2.026
  538SOL    HW1 1623   1.386   1.857   1.954
  538SOL    HW2 1624   1.260   1.881   2.054
  539SOL     OW 1625   1.295   2.321   2.549
  539SOL    HW1 1626   1.240   2.404   2.555
  539SOL    HW2 1627   1.297   2.276   2.639
  540SOL     OW 1628   1.586   2.077   2.738
  540SOL    HW1 1629   1.499   2.088   2.787
  540SOL    HW2 1630   1.599   2.155   2.676
  541SOL     OW 1631   0.019   2.931   2.155
  541SOL    HW1 1632   0.118   2.923   2.142
  541SOL    HW2 1633   2.990   2.873   2.231
  542SOL     OW 1634   2.092   0.633   0.120
  542SOL    HW1 1635   1.994   0.628   0.141
  542SOL    HW2 1636   2.107   0.599   0.027
  543SOL     OW 1637   2.077   0.284   1.007
  543SOL    HW1 1638   2.113   0.251   1.094
  543SOL    HW2 1639   1.989   0.242   0.989
  544SOL     OW 1640   1.865   0.382   0.641
  544SOL    HW1 1641   1.780   0.412   0.686
  544SOL    HW2 1642   1.845   0.305   0.582
  545SOL     OW 1643   2.427   1.282   1.173
  545SOL    HW1 1644   2.336   1.281   1.132
  545SOL    HW2 1645   2.446   1.373   1.210
  546SOL     OW 1646   2.616   1.145   1.032
  546SOL    HW1 1647   2.546   1.176   1.096
  546SOL    HW2 1648   2.660   1.224   0.990
  547SOL     OW 1649   2.719   0.779   1.815
  547SOL    HW1 1650   2.712   0.848   1.888
  547SOL    HW2 1651   2.744   0.824   1.729
  548SOL     OW 1652   2.545   1.007   0.653
  548SOL    HW1 1653   2.612   0.989   0.725
  548SOL    HW2 1654   2.469   1.059   0.691
  549SOL     OW 1655   2.568   1.156   1.811
  549SOL    HW1 1656   2.621   1.237   1.838
  549SOL    HW2 1657   2.480   1.184   1.773
  550SOL     OW 1658   2.190   1.430   1.067
  550SOL    HW1 1659   2.114   1.390   1.015
  550SOL    HW2 1660   2.248   1.483   1.005
  551SOL     OW 1661   2.312   0.400   1.488
  551SOL    HW1 1662   2.391   0.340   1.492
  551SOL    HW2 1663   2.229   0.346   1.502
  552SOL     OW 1664   2.085   1.714   0.475
  552SOL    HW1 1665   2.104   1.793   0.533
  552SOL    HW2 1666   2.160   1.701   0.410
  553SOL     OW 1667   2.980   1.346   1.692
  553SOL    HW1 1668   0.042   1.349   1.770
  553SOL    HW2 1669   2.932   1.258   1.691
  554SOL     OW 1670   2.085   1.442   0.536
  554SOL    HW1 1671   2.076   1.542   0.541
  554SOL    HW2 1672   2.024   1.400   0.603
  555SOL     OW 1673   2.117   1.090   0.895
  555SOL    HW1 1674   2.117   0.998   0.933
  555SOL    HW2 1675   2.057   1.149   0.949
  556SOL     OW 1676   2.475   1.791   1.434
  556SOL    HW1 1677   2.388   1.770   1.478
  556SOL    HW2 1678   2.501   1.886   1.455
  557SOL     OW 1679   2.454   0.976   0.148
  557SOL    HW1 1680   2.472   1.049   0.082
  557SOL    HW2 1681   2.492   1.002   0.237
  558SOL     OW 1682   1.978   0.647   0.564
  558SOL    HW1 1683   1.933   0.560   0.584
  558SOL    HW2 1684   1.972   0.706   0.644
  559SOL     OW 1685   1.873   1.587   0.123
  559SOL    HW1 1686   1.888   1.492   0.149
  559SOL    HW2 1687   1.877   1.645   0.205
  560SOL     OW 1688   1.984   0.742   1.586
  560SOL    HW1 1689   2.082   0.756   1.599
  560SOL    HW2 1690   1.937   0.830   1.598
  561SOL     OW 1691   2.471   1.383   0.734
  561SOL    HW1 1692   2.424   1.295   0.746
  561SOL    HW2 1693   2.457   1.415   0.641
  562SOL     OW 1694   2.681   0.017   0.514
  562SOL    HW1 1695   2.714   0.109   0.496
  562SOL    HW2 1696   2.582   0.013   0.501
  563SOL     OW 1697   2.054   0.966   1.265
  563SOL    HW1 1698   2.143   0.922   1.252
  563SOL    HW2 1699   1.982   0.909   1.227
  564SOL     OW 1700   2.187   0.254   1.802
  564SOL    HW1 1701   2.244   0.333   1.823
  564SOL    HW2 1702   2.096   0.267   1.843
  565SOL     OW 1703   2.454   0.722   0.268
  565SOL    HW1 1704   2.463   0.806   0.215
  565SOL    HW2 1705   2.386   0.735   0.340
  566SOL     OW 1706   2.650   0.624   1.454
  566SOL    HW1 1707   2.626   0.599   1.548
  566SOL    HW2 1708   2.611   0.557   1.391
  567SOL     OW 1709   2.832   0.882   1.572
  567SOL    HW1 1710   2.860   0.791   1.544
  567SOL    HW2 1711   2.779   0.925   1.499
  568SOL     OW 1712   2.847   0.376   1.260
  568SOL    HW1 1713   2.771   0.432   1.294
  568SOL    HW2 1714   2.841   0.371   1.160
  569SOL     OW 1715   2.892   0.713   0.409
  569SOL    HW1 1716   2.936   0.700   0.498
  569SOL    HW2 1717   2.813   0.653   0.402
  570SOL     OW 1718   1.953   0.822   0.774
  570SOL    HW1 1719   2.038   0.810   0.825
  570SOL    HW2 1720   1.904   0.902   0.810
  571SOL     OW 1721   1.992   1.844   1.578
  571SOL    HW1 1722   1.988   1.820   1.675
  571SOL    HW2 1723   1.899   1.847   1.541
  572SOL     OW 1724   2.780   0.343   0.219
  572SOL    HW1 1725   2.771   0.403   0.139
  572SOL    HW2 1726   2.772   0.247   0.190
  573SOL     OW 1727   2.379   0.199   0.913
  573SOL    HW1 1728   2.398   0.211   1.010
  573SOL    HW2 1729   2.406   0.281   0.863
  574SOL     OW 1730   2.856   1.442   0.467
  574SOL    HW1 1731   2.823   1.524   0.419
  574SOL    HW2 1732   2.863   1.463   0.565
  575SOL     OW 1733   2.217   1.806   0.857
  575SOL    HW1 1734   2.262   1.717   0.868
  575SOL    HW2 1735   2.284   1.879   0.875
  576SOL     OW 1736   2.182   0.952   0.242
  576SOL    HW1 1737   2.271   0.971   0.202
  576SOL    HW2 1738   2.149   0.863   0.210
  577SOL     OW 1739   2.325   1.259   1.733
  577SOL    HW1 1740   2.298   1.267   1.637
  577SOL    HW2 1741   2.244   1.261   1.791
  578SOL     OW 1742   2.063   0.294   1.498
  578SOL    HW1 1743   1.978   0.347   1.492
  578SOL    HW2 1744   2.053   0.221   1.566
  579SOL     OW 1745   2.329   1.725   0.331
  579SOL    HW1 1746   2.360   1.796   0.393
  579SOL    HW2 1747   2.398   1.709   0.261
  580SOL     OW 1748   2.122   1.794   1.231
  580SOL    HW1 1749   2.173   1.725   1.284
  580SOL    HW2 1750   2.099   1.756   1.141
  581SOL     OW 1751   2.799   1.696   0.900
  581SOL    HW1 1752   2.865   1.629   0.935
  581SOL    HW2 1753   2.749   1.655   0.823
  582SOL     OW 1754   2.255   0.688   0.477
  582SOL    HW1 1755   2.290   0.595   0.493
  582SOL    HW2 1756   2.157   0.691   0.499
  583SOL     OW 1757   2.476   0.105   0.104
  583SOL    HW1 1758   2.575   0.113   0.121
  583SOL    HW2 1759   2.455   0.141   0.013
  584SOL     OW 1760   2.633   0.276   1.755
  584SOL    HW1 1761   2.706   0.208   1.766
  584SOL    HW2 1762   2.573   0.274   1.834
  585SOL     OW 1763   2.740   1.514   1.192
  585SOL    HW1 1764   2.717   1.481   1.100
  585SOL    HW2 1765   2.805   1.452   1.234
  586SOL     OW 1766   2.670   1.402   0.936
  586SOL    HW1 1767   2.759   1.389   0.893
  586SOL    HW2 1768   2.598   1.396   0.867
  587SOL     OW 1769   2.784   0.504   0.903
  587SOL    HW1 1770   2.754   0.495   0.808
  587SOL    HW2 1771   2.828   0.419   0.933
  588SOL     OW 1772   2.399   0.048   0.496
  588SOL    HW1 1773   2.312   0.037   0.542
  588SOL    HW2 1774   2.398   0.131   0.440
  589SOL     OW 1775   0.319   1.153   0.046
  589SOL    HW1 1776   0.312   1.089   0.123
  589SOL    HW2 1777   0.250   1.224   0.055
  590SOL     OW 1778   2.161   0.086   0.188
  590SOL    HW1 1779   2.243   0.143   0.199
  590SOL    HW2 1780   2.184   2.990   0.205
  591SOL     OW 1781   2.824   0.246   0.467
  591SOL    HW1 1782   2.776   0.298   0.396
  591SOL    HW2 1783   2.906   0.204   0.428
  592SOL     OW 1784   0.081   1.578   0.798
  592SOL    HW1 1785   0.105   1.620   0.711
  592SOL    HW2 1786   0.165   1.550   0.846
  593SOL     OW 1787   2.326   1.147   0.735
  593SOL    HW1 1788   2.255   1.129   0.803
  593SOL    HW2 1789   2.290   1.132   0.643
  594SOL     OW 1790   2.888   0.510   0.025
  594SOL    HW1 1791   2.841   0.595   0.003
  594SOL    HW2 1792   2.945   0.523   0.106
  595SOL     OW 1793   1.940   0.558   1.390
  595SOL    HW1 1794   2.034   0.551   1.358
  595SOL    HW2 1795   1.933   0.630   1.459
  596SOL     OW 1796   2.427   0.215   1.181
  596SOL    HW1 1797   2.471   0.163   1.254
  596SOL    HW2 1798   2.330   0.227   1.202
  597SOL     OW 1799   2.743   0.468   0.635
  597SOL    HW1 1800   2.677   0.525   0.586
  597SOL    HW2 1801   2.741   0.375   0.599
  598SOL     OW 1802   2.860   0.056   0.759
  598SOL    HW1 1803   2.819   0.063   0.668
  598SOL    HW2 1804   2.836   2.967   0.799
  599SOL     OW 1805   2.350   1.400   0.152
  599SOL    HW1 1806   2.283   1.372   0.220
  599SOL    HW2 1807   2.306   1.410   0.063
  600SOL     OW 1808   2.393   0.262   0.322
  600SOL    HW1 1809   2.436   0.207   0.250
  600SOL    HW2 1810   2.364   0.350   0.283
  601SOL     OW 1811   2.777   0.113   1.400
  601SOL    HW1 1812   2.806   0.095   1.306
  601SOL    HW2 1813   2.841   0.177   1.443
  602SOL     OW 1814   2.838   1.108   1.727
  602SOL    HW1 1815   2.743   1.133   1.742
  602SOL    HW2 1816   2.843   1.037   1.657
  603SOL     OW 1817   2.566   1.060   0.379
  603SOL    HW1 1818   2.547   1.049   0.477
  603SOL    HW2 1819   2.654   1.017   0.357
  604SOL     OW 1820   2.279   0.812   1.252
  604SOL    HW1 1821   2.353   0.827   1.319
  604SOL    HW2 1822   2.240   0.721   1.266
  605SOL     OW 1823   1.928   1.574   1.343
  605SOL    HW1 1824   1.887   1.651   1.295
  605SOL    HW2 1825   2.028   1.582   1.342
  606SOL     OW 1826   2.218   1.109   0.488
  606SOL    HW1 1827   2.215   1.190   0.430
  606SOL    HW2 1828   2.215   1.027   0.432
  607SOL     OW 1829   2.418   0.547   0.864
  607SOL    HW1 1830   2.435   0.602   0.783
  607SOL    HW2 1831   2.484   0.570   0.935
  608SOL     OW 1832   2.212   1.524   1.317
  608SOL    HW1 1833   2.194   1.481   1.228
  608SOL    HW2 1834   2.310   1.539   1.327
  609SOL     OW 1835   2.274   0.744   1.601
  609SOL    HW1 1836   2.335   0.795   1.541
  609SOL    HW2 1837   2.314   0.654   1.620
  610SOL     OW 1838   2.867   0.118   1.759
  610SOL    HW1 1839   2.900   0.200   1.711
  610SOL    HW2 1840   2.903   0.037   1.713
  611SOL     OW 1841   2.364   0.056   1.749
  611SOL    HW1 1842   2.334   2.984   1.687
  611SOL    HW2 1843   2.290   0.123   1.761
  612SOL     OW 1844   2.442   0.872   1.032
  612SOL    HW1 1845   2.479   0.965   1.026
  612SOL    HW2 1846   2.383   0.865   1.113
  613SOL     OW 1847   0.063   0.532   0.271
  613SOL    HW1 1848   0.087   0.445   0.314
  613SOL    HW2 1849   0.028   0.595   0.341
  614SOL     OW 1850   2.160   0.200   1.250
  614SOL    HW1 1851   2.130   0.243   1.335
  614SOL    HW2 1852   2.141   0.102   1.253
  615SOL     OW 1853   1.897   1.309   1.287
  615SOL    HW1 1854   1.943   1.252   1.354
  615SOL    HW2 1855   1.912   1.406   1.309
  616SOL     OW 1856   2.590   0.634   1.060
  616SOL    HW1 1857   2.668   0.612   1.001
  616SOL    HW2 1858   2.557   0.726   1.039
  617SOL     OW 1859   2.169   0.062   0.643
  617SOL    HW1 1860   2.172   0.159   0.667
  617SOL    HW2 1861   2.151   0.007   0.725
  618SOL     OW 1862   2.866   0.768   0.971
  618SOL    HW1 1863   2.894   0.779   1.066
  618SOL    HW2 1864   2.869   0.672   0.946
  619SOL     OW 1865   2.831   1.567   1.701
  619SOL    HW1 1866   2.824   1.612   1.612
  619SOL    HW2 1867   2.890   1.486   1.693
  620SOL     OW 1868   2.215   0.915   1.806
  620SOL    HW1 1869   2.298   0.939   1.856
  620SOL    HW2 1870   2.238   0.851   1.732
  621SOL     OW 1871   2.908   1.343   0.835
  621SOL    HW1 1872   2.909   1.260   0.778
  621SOL    HW2 1873   2.981   1.404   0.805
  622SOL     OW 1874   2.174   0.808   0.945
  622SOL    HW1 1875   2.270   0.836   0.942
  622SOL    HW2 1876   2.168   0.715   0.982
  623SOL     OW 1877   2.197   0.523   1.013
  623SOL    HW1 1878   2.155   0.433   1.000
  623SOL    HW2 1879   2.276   0.533   0.953
  624SOL     OW 1880   2.963   0.368   1.667
  624SOL    HW1 1881   2.906   0.434   1.716
  624SOL    HW2 1882   0.057   0.402   1.664
  625SOL     OW 1883   1.872   1.315   0.181
  625SOL    HW1 1884   1.777   1.335   0.155
  625SOL    HW2 1885   1.875   1.228   0.229
  626SOL     OW 1886   1.954   1.790   0.935
  626SOL    HW1 1887   1.918   1.706   0.894
  626SOL    HW2 1888   2.049   1.804   0.905
  627SOL     OW 1889   2.361   1.574   0.907
  627SOL    HW1 1890   2.431   1.641   0.933
  627SOL    HW2 1891   2.403   1.504   0.848
  628SOL     OW 1892   2.862   0.796   1.249
  628SOL    HW1 1893   2.914   0.734   1.308
  628SOL    HW2 1894   2.769   0.761   1.238
  629SOL     OW 1895   1.898   0.541   1.118
  629SOL    HW1 1896   1.981   0.525   1.064
  629SOL    HW2 1897   1.922   0.553   1.214
  630SOL     OW 1898   2.051   0.520   1.726
  630SOL    HW1 1899   2.110   0.475   1.659
  630SOL    HW2 1900   2.003   0.596   1.682
  631SOL     OW 1901   2.673   0.572   0.349
  631SOL    HW1 1902   2.683   0.489   0.294
  631SOL    HW2 1903   2.590   0.620   0.323
  632SOL     OW 1904   2.132   1.557   1.744
  632SOL    HW1 1905   2.091   1.625   1.805
  632SOL    HW2 1906   2.116   1.465   1.782
  633SOL     OW 1907   2.555   0.460   1.263
  633SOL    HW1 1908   2.508   0.377   1.234
  633SOL    HW2 1909   2.559   0.524   1.186
  634SOL     OW 1910   2.801   1.690   1.459
  634SOL    HW1 1911   2.768   1.635   1.382
  634SOL    HW2 1912   2.775   1.785   1.445
  635SOL     OW 1913   2.314   0.494   0.203
  635SOL    HW1 1914   2.379   0.568   0.223
  635SOL    HW2 1915   2.224   0.534   0.185
  636SOL     OW 1916   2.013   1.137   1.466
  636SOL    HW1 1917   2.010   1.090   1.554
  636SOL    HW2 1918   2.033   1.071   1.394
  637SOL     OW 1919   1.944   1.265   1.017
  637SOL    HW1 1920   1.930   1.276   1.116
  637SOL    HW2 1921   1.871   1.210   0.979
  638SOL     OW 1922   2.539   1.666   1.728
  638SOL    HW1 1923   2.482   1.748   1.723
  638SOL    HW2 1924   2.608   1.668   1.656
  639SOL     OW 1925   2.763   0.085   0.142
  639SOL    HW1 1926   2.798   0.041   0.060
  639SOL    HW2 1927   2.808   0.047   0.223
  640SOL     OW 1928   1.999   1.792   1.845
  640SOL    HW1 1929   1.943   1.724   1.892
  640SOL    HW2 1930   2.051   1.845   1.912
  641SOL     OW 1931   2.678   1.270   1.427
  641SOL    HW1 1932   2.667   1.317   1.515
  641SOL    HW2 1933   2.603   1.296   1.366
  642SOL     OW 1934   2.528   1.609   0.160
  642SOL    HW1 1935   2.540   1.631   0.063
  642SOL    HW2 1936   2.474   1.525   0.168
  643SOL     OW 1937   2.134   0.346   0.751
  643SOL    HW1 1938   2.042   0.369   0.722
  643SOL    HW2 1939   2.132   0.312   0.845
  644SOL     OW 1940   2.689   1.008   1.376
  644SOL    HW1 1941   2.736   0.994   1.289
  644SOL    HW2 1942   2.689   1.105   1.399
  645SOL     OW 1943   2.795   0.945   0.310
  645SOL    HW1 1944   2.840   0.957   0.221
  645SOL    HW2 1945   2.825   0.858   0.350
  646SOL     OW 1946   2.230   1.301   1.489
  646SOL    HW1 1947   2.220   1.383   1.434
  646SOL    HW2 1948   2.150   1.242   1.476
  647SOL     OW 1949   2.914   1.085   0.724
  647SOL    HW1 1950   2.835   1.040   0.767
  647SOL    HW2 1951   2.937   1.037   0.639
  648SOL     OW 1952   2.880   0.237   0.970
  648SOL    HW1 1953   2.876   0.188   0.883
  648SOL    HW2 1954   2.871   0.172   1.046
  649SOL     OW 1955   2.459   1.486   0.483
  649SOL    HW1 1956   2.508   1.434   0.413
  649SOL    HW2 1957   2.400   1.554   0.439
  650SOL     OW 1958   2.128   1.335   0.299
  650SOL    HW1 1959   2.041   1.338   0.249
  650SOL    HW2 1960   2.118   1.381   0.387
  651SOL     OW 1961   1.971   1.010   1.715
  651SOL    HW1 1962   1.892   0.994   1.774
  651SOL    HW2 1963   2.054   0.980   1.762
  652SOL     OW 1964   2.530   0.210   1.492
  652SOL    HW1 1965   2.615   0.182   1.448
  652SOL    HW2 1966   2.547   0.224   1.590
  653SOL     OW 1967   1.912   0.196   0.328
  653SOL    HW1 1968   1.880   0.238   0.243
  653SOL    HW2 1969   2.003   0.158   0.315
  654SOL     OW 1970   2.480   0.836   1.431
  654SOL    HW1 1971   2.536   0.917   1.417
  654SOL    HW2 1972   2.539   0.755   1.440
  655SOL     OW 1973   2.580   0.562   1.706
  655SOL    HW1 1974   2.615   0.632   1.769
  655SOL    HW2 1975   2.616   0.473   1.733
  656SOL     OW 1976   2.244   1.739   1.563
  656SOL    HW1 1977   2.155   1.784   1.551
  656SOL    HW2 1978   2.231   1.652   1.612
  657SOL     OW 1979   2.457   0.740   0.661
  657SOL    HW1 1980   2.496   0.832   0.654
  657SOL    HW2 1981   2.379   0.732   0.598
  658SOL     OW 1982   2.765   1.380   0.065
  658SOL    HW1 1983   2.691   1.383   0.132
  658SOL    HW2 1984   2.735   1.426   2.981
  659SOL     OW 1985   2.522   1.796   0.950
  659SOL    HW1 1986   2.495   1.888   0.923
  659SOL    HW2 1987   2.621   1.784   0.936
  660SOL     OW 1988   2.718   0.962   0.859
  660SOL    HW1 1989   2.768   0.886   0.899
  660SOL    HW2 1990   2.684   1.022   0.931
  661SOL     OW 1991   2.955   1.017   0.075
  661SOL    HW1 1992   2.924   1.061   2.991
  661SOL    HW2 1993   0.018   0.942   0.053
  662SOL     OW 1994   2.090   1.305   1.856
  662SOL    HW1 1995   2.014   1.252   1.817
  662SOL    HW2 1996   2.073   1.319   1.954
  663SOL     OW 1997   1.944   1.234   0.663
  663SOL    HW1 1998   1.945   1.184   0.749
  663SOL    HW2 1999   2.016   1.199   0.603
  664SOL     OW 2000   2.540   1.403   1.628
  664SOL    HW1 2001   2.459   1.352   1.656
  664SOL    HW2 2002   2.536   1.495   1.668
  665SOL     OW 2003   2.338   0.431   0.551
  665SOL    HW1 2004   2.327   0.371   0.471
  665SOL    HW2 2005   2.269   0.408   0.619
  666SOL     OW 2006   2.188   0.550   1.289
  666SOL    HW1 2007   2.249   0.498   1.350
  666SOL    HW2 2008   2.210   0.528   1.194
  667SOL     OW 2009   2.682   1.585   0.681
  667SOL    HW1 2010   2.687   1.619   0.588
  667SOL    HW2 2011   2.604   1.523   0.690
  668SOL     OW 2012   2.852   0.021   1.150
  668SOL    HW1 2013   2.811   2.948   1.095
  668SOL    HW2 2014   2.949   3.000   1.167
  669SOL     OW 2015   2.629   1.329   0.315
  669SOL    HW1 2016   2.598   1.235   0.332
  669SOL    HW2 2017   2.717   1.344   0.361
  670SOL     OW 2018   2.485   1.561   1.286
  670SOL    HW1 2019   2.485   1.646   1.339
  670SOL    HW2 2020   2.575   1.548   1.244
  671SOL     OW 2021   1.904   1.073   0.305
  671SOL    HW1 2022   2.002   1.072   0.286
  671SOL    HW2 2023   1.873   0.981   0.329
  672SOL     OW 2024   2.735   1.652   0.348
  672SOL    HW1 2025   2.665   1.631   0.280
  672SOL    HW2 2026   2.708   1.733   0.400
  673SOL     OW 2027   2.091   0.621   1.984
  673SOL    HW1 2028   1.999   0.623   2.022
  673SOL    HW2 2029   2.086   0.595   1.887
  674SOL     OW 2030   2.085   0.277   2.879
  674SOL    HW1 2031   2.108   0.239   2.968
  674SOL    HW2 2032   1.996   0.242   2.849
  675SOL     OW 2033   1.865   0.382   2.503
  675SOL    HW1 2034   1.781   0.415   2.547
  675SOL    HW2 2035   1.844   0.304   2.444
  676SOL     OW 2036   2.614   1.149   2.891
  676SOL    HW1 2037   2.549   1.186   2.958
  676SOL    HW2 2038   2.662   1.224   2.846
  677SOL     OW 2039   2.546   1.008   2.512
  677SOL    HW1 2040   2.612   0.988   2.585
  677SOL    HW2 2041   2.469   1.059   2.549
  678SOL     OW 2042   2.205   1.432   2.928
  678SOL    HW1 2043   2.122   1.395   2.886
  678SOL    HW2 2044   2.254   1.488   2.862
  679SOL     OW 2045   2.083   1.712   2.338
  679SOL    HW1 2046   2.104   1.793   2.394
  679SOL    HW2 2047   2.152   1.703   2.266
  680SOL     OW 2048   2.092   1.440   2.398
  680SOL    HW1 2049   2.078   1.539   2.400
  680SOL    HW2 2050   2.028   1.396   2.460
  681SOL     OW 2051   2.119   1.092   2.759
  681SOL    HW1 2052   2.113   0.998   2.793
  681SOL    HW2 2053   2.057   1.150   2.811
  682SOL     OW 2054   2.455   0.980   1.994
  682SOL    HW1 2055   2.495   1.036   1.921
  682SOL    HW2 2056   2.493   1.008   2.082
  683SOL     OW 2057   1.978   0.647   2.427
  683SOL    HW1 2058   1.932   0.561   2.445
  683SOL    HW2 2059   1.972   0.706   2.507
  684SOL     OW 2060   1.887   1.597   1.988
  684SOL    HW1 2061   1.874   1.500   2.004
  684SOL    HW2 2062   1.867   1.648   2.072
  685SOL     OW 2063   2.468   1.382   2.592
  685SOL    HW1 2064   2.420   1.294   2.604
  685SOL    HW2 2065   2.456   1.414   2.499
  686SOL     OW 2066   2.682   0.016   2.374
  686SOL    HW1 2067   2.715   0.108   2.354
  686SOL    HW2 2068   2.583   0.012   2.362
  687SOL     OW 2069   2.458   0.726   2.127
  687SOL    HW1 2070   2.466   0.806   2.069
  687SOL    HW2 2071   2.388   0.742   2.197
  688SOL     OW 2072   2.890   0.707   2.280
  688SOL    HW1 2073   2.928   0.693   2.372
  688SOL    HW2 2074   2.810   0.648   2.268
  689SOL     OW 2075   1.953   0.823   2.636
  689SOL    HW1 2076   2.037   0.810   2.688
  689SOL    HW2 2077   1.903   0.901   2.672
  690SOL     OW 2078   2.738   0.349   2.052
  690SOL    HW1 2079   2.790   0.413   1.995
  690SOL    HW2 2080   2.774   0.256   2.039
  691SOL     OW 2081   2.415   0.203   2.826
  691SOL    HW1 2082   2.363   0.267   2.882
  691SOL    HW2 2083   2.430   0.242   2.735
  692SOL     OW 2084   2.857   1.441   2.330
  692SOL    HW1 2085   2.822   1.521   2.282
  692SOL    HW2 2086   2.867   1.462   2.427
  693SOL     OW 2087   2.217   1.804   2.717
  693SOL    HW1 2088   2.262   1.716   2.730
  693SOL    HW2 2089   2.283   1.877   2.736
  694SOL     OW 2090   2.187   0.953   2.111
  694SOL    HW1 2091   2.272   0.978   2.066
  694SOL    HW2 2092   2.150   0.870   2.068
  695SOL     OW 2093   2.329   1.738   2.182
  695SOL    HW1 2094   2.367   1.799   2.252
  695SOL    HW2 2095   2.403   1.706   2.122
  696SOL     OW 2096   2.126   1.800   0.102
  696SOL    HW1 2097   2.172   1.733   0.159
  696SOL    HW2 2098   2.078   1.754   0.027
  697SOL     OW 2099   2.794   1.699   2.760
  697SOL    HW1 2100   2.861   1.639   2.803
  697SOL    HW2 2101   2.751   1.651   2.683
  698SOL     OW 2102   2.255   0.688   2.342
  698SOL    HW1 2103   2.289   0.594   2.355
  698SOL    HW2 2104   2.157   0.691   2.362
  699SOL     OW 2105   2.488   0.123   1.972
  699SOL    HW1 2106   2.579   0.083   1.977
  699SOL    HW2 2107   2.446   0.100   1.884
  700SOL     OW 2108   2.664   1.400   2.787
  700SOL    HW1 2109   2.755   1.392   2.747
  700SOL    HW2 2110   2.595   1.394   2.715
  701SOL     OW 2111   2.783   0.518   2.755
  701SOL    HW1 2112   2.754   0.497   2.662
  701SOL    HW2 2113   2.816   0.435   2.800
  702SOL     OW 2114   2.403   0.058   2.363
  702SOL    HW1 2115   2.314   0.041   2.404
  702SOL    HW2 2116   2.397   0.135   2.299
  703SOL     OW 2117   2.151   0.033   2.060
  703SOL    HW1 2118   2.190   0.114   2.016
  703SOL    HW2 2119   2.223   2.971   2.087
  704SOL     OW 2120   2.813   0.250   2.321
  704SOL    HW1 2121   2.756   0.298   2.254
  704SOL    HW2 2122   2.897   0.219   2.276
  705SOL     OW 2123   0.081   1.573   2.661
  705SOL    HW1 2124   0.107   1.622   2.578
  705SOL    HW2 2125   0.163   1.553   2.715
  706SOL     OW 2126   2.327   1.145   2.598
  706SOL    HW1 2127   2.255   1.129   2.666
  706SOL    HW2 2128   2.289   1.129   2.506
  707SOL     OW 2129   2.884   0.551   1.879
  707SOL    HW1 2130   2.836   0.636   1.856
  707SOL    HW2 2131   2.942   0.566   1.959
  708SOL     OW 2132   2.742   0.467   2.494
  708SOL    HW1 2133   2.677   0.524   2.444
  708SOL    HW2 2134   2.743   0.375   2.454
  709SOL     OW 2135   2.857   0.054   2.617
  709SOL    HW1 2136   2.817   0.056   2.525
  709SOL    HW2 2137   2.838   2.965   2.659
  710SOL     OW 2138   2.353   1.412   2.025
  710SOL    HW1 2139   2.274   1.383   2.078
  710SOL    HW2 2140   2.337   1.393   1.928
  711SOL     OW 2141   2.396   0.267   2.181
  711SOL    HW1 2142   2.429   0.207   2.109
  711SOL    HW2 2143   2.370   0.355   2.142
  712SOL     OW 2144   2.570   1.058   2.234
  712SOL    HW1 2145   2.552   1.046   2.332
  712SOL    HW2 2146   2.653   1.006   2.209
  713SOL     OW 2147   2.219   1.107   2.352
  713SOL    HW1 2148   2.220   1.188   2.294
  713SOL    HW2 2149   2.215   1.025   2.294
  714SOL     OW 2150   2.414   0.546   2.729
  714SOL    HW1 2151   2.431   0.599   2.646
  714SOL    HW2 2152   2.481   0.570   2.799
  715SOL     OW 2153   2.439   0.870   2.879
  715SOL    HW1 2154   2.485   0.954   2.850
  715SOL    HW2 2155   2.411   0.879   2.975
  716SOL     OW 2156   0.055   0.532   2.134
  716SOL    HW1 2157   0.084   0.449   2.182
  716SOL    HW2 2158   0.019   0.597   2.201
  717SOL     OW 2159   2.597   0.645   2.916
  717SOL    HW1 2160   2.664   0.615   2.848
  717SOL    HW2 2161   2.555   0.731   2.885
  718SOL     OW 2162   2.174   0.062   2.509
  718SOL    HW1 2163   2.166   0.159   2.533
  718SOL    HW2 2164   2.151   0.006   2.588
  719SOL     OW 2165   2.873   0.774   2.829
  719SOL    HW1 2166   2.882   0.773   2.929
  719SOL    HW2 2167   2.864   0.681   2.795
  720SOL     OW 2168   2.909   1.342   2.697
  720SOL    HW1 2169   2.912   1.262   2.637
  720SOL    HW2 2170   2.978   1.408   2.668
  721SOL     OW 2171   2.173   0.809   2.810
  721SOL    HW1 2172   2.269   0.835   2.806
  721SOL    HW2 2173   2.164   0.714   2.840
  722SOL     OW 2174   2.184   0.533   2.869
  722SOL    HW1 2175   2.144   0.441   2.866
  722SOL    HW2 2176   2.266   0.535   2.812
  723SOL     OW 2177   1.865   1.321   2.057
  723SOL    HW1 2178   1.774   1.338   2.018
  723SOL    HW2 2179   1.869   1.227   2.091
  724SOL     OW 2180   1.953   1.795   2.794
  724SOL    HW1 2181   1.916   1.709   2.760
  724SOL    HW2 2182   2.049   1.803   2.767
  725SOL     OW 2183   2.366   1.578   2.764
  725SOL    HW1 2184   2.437   1.644   2.788
  725SOL    HW2 2185   2.406   1.505   2.708
  726SOL     OW 2186   2.847   0.760   0.102
  726SOL    HW1 2187   2.892   0.743   0.189
  726SOL    HW2 2188   2.749   0.769   0.116
  727SOL     OW 2189   2.670   0.566   2.213
  727SOL    HW1 2190   2.676   0.486   2.154
  727SOL    HW2 2191   2.593   0.623   2.185
  728SOL     OW 2192   2.560   0.439   0.082
  728SOL    HW1 2193   2.463   0.427   0.105
  728SOL    HW2 2194   2.571   0.522   0.027
  729SOL     OW 2195   2.329   0.497   2.053
  729SOL    HW1 2196   2.390   0.573   2.072
  729SOL    HW2 2197   2.236   0.531   2.039
  730SOL     OW 2198   1.943   1.268   2.885
  730SOL    HW1 2199   1.931   1.277   2.984
  730SOL    HW2 2200   1.868   1.212   2.848
  731SOL     OW 2201   2.532   1.615   2.016
  731SOL    HW1 2202   2.545   1.630   1.917
  731SOL    HW2 2203   2.476   1.534   2.030
  732SOL     OW 2204   2.131   0.333   2.613
  732SOL    HW1 2205   2.041   0.367   2.585
  732SOL    HW2 2206   2.129   0.309   2.710
  733SOL     OW 2207   2.788   0.921   2.155
  733SOL    HW1 2208   2.837   0.934   2.069
  733SOL    HW2 2209   2.820   0.838   2.200
  734SOL     OW 2210   2.912   1.081   2.587
  734SOL    HW1 2211   2.831   1.037   2.625
  734SOL    HW2 2212   2.937   1.036   2.501
  735SOL     OW 2213   2.883   0.235   2.820
  735SOL    HW1 2214   2.873   0.187   2.732
  735SOL    HW2 2215   2.881   0.169   2.895
  736SOL     OW 2216   2.460   1.486   2.343
  736SOL    HW1 2217   2.508   1.434   2.272
  736SOL    HW2 2218   2.396   1.549   2.300
  737SOL     OW 2219   2.116   1.348   2.150
  737SOL    HW1 2220   2.020   1.344   2.123
  737SOL    HW2 2221   2.123   1.386   2.242
  738SOL     OW 2222   1.940   0.338   1.898
  738SOL    HW1 2223   1.848   0.311   1.873
  738SOL    HW2 2224   1.969   0.415   1.842
  739SOL     OW 2225   1.900   0.205   2.159
  739SOL    HW1 2226   1.916   0.271   2.086
  739SOL    HW2 2227   1.974   0.138   2.161
  740SOL     OW 2228   2.456   0.741   2.525
  740SOL    HW1 2229   2.496   0.832   2.513
  740SOL    HW2 2230   2.380   0.730   2.461
  741SOL     OW 2231   2.730   1.369   1.898
  741SOL    HW1 2232   2.678   1.398   1.979
  741SOL    HW2 2233   2.749   1.448   1.840
  742SOL     OW 2234   2.527   1.798   2.822
  742SOL    HW1 2235   2.501   1.888   2.788
  742SOL    HW2 2236   2.624   1.782   2.804
  743SOL     OW 2237   2.713   0.961   2.721
  743SOL    HW1 2238   2.769   0.888   2.760
  743SOL    HW2 2239   2.685   1.024   2.793
  744SOL     OW 2240   2.934   0.954   1.930
  744SOL    HW1 2241   2.903   1.031   1.874
  744SOL    HW2 2242   0.030   0.966   1.954
  745SOL     OW 2243   1.945   1.236   2.526
  745SOL    HW1 2244   1.940   1.182   2.609
  745SOL    HW2 2245   2.015   1.198   2.465
  746SOL     OW 2246   2.332   0.428   2.409
  746SOL    HW1 2247   2.323   0.369   2.329
  746SOL    HW2 2248   2.265   0.401   2.478
  747SOL     OW 2249   2.682   1.584   2.540
  747SOL    HW1 2250   2.689   1.619   2.446
  747SOL    HW2 2251   2.603   1.524   2.547
  748SOL     OW 2252   2.634   1.332   2.174
  748SOL    HW1 2253   2.601   1.238   2.182
  748SOL    HW2 2254   2.719   1.343   2.227
  749SOL     OW 2255   1.906   1.071   2.167
  749SOL    HW1 2256   2.004   1.069   2.147
  749SOL    HW2 2257   1.874   0.980   2.192
  750SOL     OW 2258   2.735   1.649   2.210
  750SOL    HW1 2259   2.665   1.630   2.141
  750SOL    HW2 2260   2.712   1.733   2.259
  751SOL     OW 2261   2.090   2.496   0.112
  751SOL    HW1 2262   1.995   2.478   0.139
  751SOL    HW2 2263   2.108   2.455   0.022
  752SOL     OW 2264   2.085   2.142   0.993
  752SOL    HW1 2265   2.118   2.110   1.082
  752SOL    HW2 2266   1.991   2.108   0.978
  753SOL     OW 2267   1.869   2.246   0.636
  753SOL    HW1 2268   1.783   2.271   0.680
  753SOL    HW2 2269   1.856   2.162   0.583
  754SOL     OW 2270   2.600   0.001   1.019
  754SOL    HW1 2271   2.523   0.041   1.069
  754SOL    HW2 2272   2.648   0.074   0.969
  755SOL     OW 2273   2.720   2.639   1.817
  755SOL    HW1 2274   2.717   2.699   1.898
  755SOL    HW2 2275   2.751   2.692   1.738
  756SOL     OW 2276   2.516   2.847   0.709
  756SOL    HW1 2277   2.614   2.852   0.728
  756SOL    HW2 2278   2.486   2.933   0.667
  757SOL     OW 2279   2.308   2.260   1.491
  757SOL    HW1 2280   2.388   2.201   1.492
  757SOL    HW2 2281   2.225   2.205   1.501
  758SOL     OW 2282   2.109   0.304   0.478
  758SOL    HW1 2283   2.068   0.392   0.502
  758SOL    HW2 2284   2.049   0.230   0.508
  759SOL     OW 2285   2.109   2.946   0.883
  759SOL    HW1 2286   2.125   2.854   0.920
  759SOL    HW2 2287   2.064   0.003   0.952
  760SOL     OW 2288   2.479   2.831   0.149
  760SOL    HW1 2289   2.458   2.926   0.126
  760SOL    HW2 2290   2.546   2.828   0.223
  761SOL     OW 2291   1.975   2.512   0.563
  761SOL    HW1 2292   1.947   2.418   0.580
  761SOL    HW2 2293   1.968   2.566   0.647
  762SOL     OW 2294   1.983   2.604   1.585
  762SOL    HW1 2295   2.081   2.616   1.601
  762SOL    HW2 2296   1.936   2.691   1.602
  763SOL     OW 2297   2.521   0.247   0.679
  763SOL    HW1 2298   2.464   0.178   0.723
  763SOL    HW2 2299   2.464   0.308   0.624
  764SOL     OW 2300   2.673   1.866   0.504
  764SOL    HW1 2301   2.717   1.955   0.490
  764SOL    HW2 2302   2.575   1.879   0.516
  765SOL     OW 2303   2.058   2.841   1.256
  765SOL    HW1 2304   2.143   2.789   1.250
  765SOL    HW2 2305   1.981   2.781   1.234
  766SOL     OW 2306   2.193   2.113   1.812
  766SOL    HW1 2307   2.245   2.198   1.822
  766SOL    HW2 2308   2.099   2.128   1.842
  767SOL     OW 2309   2.455   2.581   0.271
  767SOL    HW1 2310   2.465   2.663   0.215
  767SOL    HW2 2311   2.385   2.598   0.341
  768SOL     OW 2312   2.648   2.485   1.453
  768SOL    HW1 2313   2.626   2.460   1.547
  768SOL    HW2 2314   2.610   2.417   1.391
  769SOL     OW 2315   2.827   2.746   1.580
  769SOL    HW1 2316   2.860   2.657   1.549
  769SOL    HW2 2317   2.771   2.787   1.508
  770SOL     OW 2318   2.848   2.239   1.256
  770SOL    HW1 2319   2.769   2.289   1.292
  770SOL    HW2 2320   2.837   2.227   1.158
  771SOL     OW 2321   2.889   2.578   0.411
  771SOL    HW1 2322   2.936   2.562   0.498
  771SOL    HW2 2323   2.812   2.515   0.403
  772SOL     OW 2324   1.948   2.684   0.777
  772SOL    HW1 2325   2.036   2.669   0.822
  772SOL    HW2 2326   1.906   2.768   0.812
  773SOL     OW 2327   2.787   2.195   0.217
  773SOL    HW1 2328   2.785   2.267   0.148
  773SOL    HW2 2329   2.759   2.108   0.177
  774SOL     OW 2330   2.408   2.045   0.894
  774SOL    HW1 2331   2.412   2.070   0.991
  774SOL    HW2 2332   2.413   2.128   0.839
  775SOL     OW 2333   2.063   2.148   1.502
  775SOL    HW1 2334   1.977   2.197   1.487
  775SOL    HW2 2335   2.048   2.075   1.569
  776SOL     OW 2336   2.249   2.552   0.476
  776SOL    HW1 2337   2.277   2.457   0.485
  776SOL    HW2 2338   2.152   2.561   0.498
  777SOL     OW 2339   2.487   1.981   0.116
  777SOL    HW1 2340   2.585   1.965   0.120
  777SOL    HW2 2341   2.449   1.934   0.036
  778SOL     OW 2342   2.631   2.141   1.757
  778SOL    HW1 2343   2.706   2.076   1.765
  778SOL    HW2 2344   2.566   2.127   1.831
  779SOL     OW 2345   2.787   2.365   0.902
  779SOL    HW1 2346   2.757   2.357   0.806
  779SOL    HW2 2347   2.827   2.279   0.932
  780SOL     OW 2348   2.406   1.924   0.504
  780SOL    HW1 2349   2.324   1.924   0.561
  780SOL    HW2 2350   2.406   2.004   0.444
  781SOL     OW 2351   2.810   2.099   0.465
  781SOL    HW1 2352   2.770   2.151   0.390
  781SOL    HW2 2353   2.903   2.070   0.440
  782SOL     OW 2354   2.881   2.380   0.035
  782SOL    HW1 2355   2.840   2.467   0.007
  782SOL    HW2 2356   2.945   2.396   0.110
  783SOL     OW 2357   1.941   2.421   1.389
  783SOL    HW1 2358   2.035   2.413   1.357
  783SOL    HW2 2359   1.934   2.492   1.459
  784SOL     OW 2360   2.423   2.086   1.165
  784SOL    HW1 2361   2.468   2.003   1.198
  784SOL    HW2 2362   2.328   2.087   1.196
  785SOL     OW 2363   2.742   2.320   0.635
  785SOL    HW1 2364   2.683   2.384   0.585
  785SOL    HW2 2365   2.748   2.234   0.584
  786SOL     OW 2366   2.857   1.923   0.756
  786SOL    HW1 2367   2.807   1.907   0.670
  786SOL    HW2 2368   2.850   1.841   0.813
  787SOL     OW 2369   2.382   2.123   0.322
  787SOL    HW1 2370   2.423   2.068   0.249
  787SOL    HW2 2371   2.363   2.215   0.288
  788SOL     OW 2372   2.756   1.950   1.389
  788SOL    HW1 2373   2.780   1.930   1.294
  788SOL    HW2 2374   2.833   1.996   1.434
  789SOL     OW 2375   2.276   2.677   1.255
  789SOL    HW1 2376   2.352   2.688   1.320
  789SOL    HW2 2377   2.237   2.585   1.264
  790SOL     OW 2378   2.419   2.404   0.862
  790SOL    HW1 2379   2.433   2.461   0.782
  790SOL    HW2 2380   2.484   2.429   0.934
  791SOL     OW 2381   2.275   2.604   1.602
  791SOL    HW1 2382   2.338   2.652   1.541
  791SOL    HW2 2383   2.312   2.513   1.622
  792SOL     OW 2384   2.858   1.989   1.770
  792SOL    HW1 2385   2.899   2.051   1.704
  792SOL    HW2 2386   2.900   1.899   1.762
  793SOL     OW 2387   2.357   1.907   1.745
  793SOL    HW1 2388   2.318   1.847   1.675
  793SOL    HW2 2389   2.295   1.983   1.762
  794SOL     OW 2390   2.450   2.728   1.037
  794SOL    HW1 2391   2.469   2.823   1.012
  794SOL    HW2 2392   2.383   2.726   1.112
  795SOL     OW 2393   0.061   2.400   0.271
  795SOL    HW1 2394   0.080   2.313   0.317
  795SOL    HW2 2395   0.027   2.466   0.337
  796SOL     OW 2396   2.163   2.063   1.245
  796SOL    HW1 2397   2.126   2.101   1.329
  796SOL    HW2 2398   2.145   1.965   1.241
  797SOL     OW 2399   2.590   2.492   1.060
  797SOL    HW1 2400   2.669   2.474   1.001
  797SOL    HW2 2401   2.555   2.584   1.042
  798SOL     OW 2402   2.162   1.928   0.625
  798SOL    HW1 2403   2.145   2.023   0.649
  798SOL    HW2 2404   2.171   1.874   0.709
  799SOL     OW 2405   2.858   2.624   0.980
  799SOL    HW1 2406   2.907   2.626   1.067
  799SOL    HW2 2407   2.862   2.531   0.942
  800SOL     OW 2408   2.224   2.786   1.798
  800SOL    HW1 2409   2.290   2.782   1.873
  800SOL    HW2 2410   2.243   2.713   1.733
  801SOL     OW 2411   2.176   2.673   0.947
  801SOL    HW1 2412   2.272   2.694   0.934
  801SOL    HW2 2413   2.167   2.580   0.983
  802SOL     OW 2414   2.195   2.384   1.010
  802SOL    HW1 2415   2.156   2.293   0.997
  802SOL    HW2 2416   2.276   2.394   0.951
  803SOL     OW 2417   2.967   2.242   1.668
  803SOL    HW1 2418   2.908   2.303   1.722
  803SOL    HW2 2419   0.061   2.277   1.671
  804SOL     OW 2420   2.977   2.065   1.472
  804SOL    HW1 2421   2.965   2.138   1.539
  804SOL    HW2 2422   2.982   2.104   1.380
  805SOL     OW 2423   2.856   2.668   1.260
  805SOL    HW1 2424   2.914   2.602   1.309
  805SOL    HW2 2425   2.771   2.623   1.231
  806SOL     OW 2426   1.898   2.411   1.116
  806SOL    HW1 2427   1.979   2.385   1.064
  806SOL    HW2 2428   1.921   2.414   1.213
  807SOL     OW 2429   2.053   2.381   1.724
  807SOL    HW1 2430   2.109   2.335   1.656
  807SOL    HW2 2431   2.001   2.455   1.681
  808SOL     OW 2432   2.671   2.428   0.355
  808SOL    HW1 2433   2.678   2.353   0.289
  808SOL    HW2 2434   2.593   2.487   0.330
  809SOL     OW 2435   2.555   2.318   1.263
  809SOL    HW1 2436   2.506   2.236   1.234
  809SOL    HW2 2437   2.559   2.383   1.187
  810SOL     OW 2438   2.304   2.357   0.211
  810SOL    HW1 2439   2.379   2.422   0.223
  810SOL    HW2 2440   2.220   2.405   0.186
  811SOL     OW 2441   2.018   2.993   1.476
  811SOL    HW1 2442   2.022   2.937   1.559
  811SOL    HW2 2443   2.035   2.935   1.396
  812SOL     OW 2444   2.761   1.936   0.128
  812SOL    HW1 2445   2.813   1.908   0.047
  812SOL    HW2 2446   2.802   1.896   0.210
  813SOL     OW 2447   2.124   2.179   0.719
  813SOL    HW1 2448   2.037   2.218   0.690
  813SOL    HW2 2449   2.124   2.167   0.818
  814SOL     OW 2450   2.675   2.867   1.375
  814SOL    HW1 2451   2.732   2.832   1.302
  814SOL    HW2 2452   2.702   2.961   1.397
  815SOL     OW 2453   2.745   2.783   0.289
  815SOL    HW1 2454   2.826   2.835   0.262
  815SOL    HW2 2455   2.771   2.714   0.357
  816SOL     OW 2456   2.881   2.101   0.968
  816SOL    HW1 2457   2.875   2.054   0.880
  816SOL    HW2 2458   2.869   2.035   1.042
  817SOL     OW 2459   1.974   2.865   1.711
  817SOL    HW1 2460   1.894   2.857   1.770
  817SOL    HW2 2461   2.056   2.843   1.764
  818SOL     OW 2462   2.531   2.062   1.500
  818SOL    HW1 2463   2.614   2.039   1.449
  818SOL    HW2 2464   2.556   2.091   1.593
  819SOL     OW 2465   1.935   2.019   0.339
  819SOL    HW1 2466   1.900   2.068   0.259
  819SOL    HW2 2467   2.030   1.994   0.323
  820SOL     OW 2468   2.476   2.694   1.433
  820SOL    HW1 2469   2.535   2.774   1.416
  820SOL    HW2 2470   2.533   2.613   1.442
  821SOL     OW 2471   2.580   2.424   1.704
  821SOL    HW1 2472   2.615   2.495   1.766
  821SOL    HW2 2473   2.614   2.335   1.735
  822SOL     OW 2474   2.454   2.588   0.660
  822SOL    HW1 2475   2.483   2.682   0.673
  822SOL    HW2 2476   2.379   2.585   0.594
  823SOL     OW 2477   2.752   2.837   0.864
  823SOL    HW1 2478   2.784   2.749   0.900
  823SOL    HW2 2479   2.681   2.874   0.923
  824SOL     OW 2480   2.294   2.292   0.529
  824SOL    HW1 2481   2.325   2.221   0.466
  824SOL    HW2 2482   2.242   2.250   0.604
  825SOL     OW 2483   2.190   2.413   1.288
  825SOL    HW1 2484   2.247   2.359   1.350
  825SOL    HW2 2485   2.210   2.388   1.193
  826SOL     OW 2486   2.866   1.880   1.145
  826SOL    HW1 2487   2.807   1.811   1.104
  826SOL    HW2 2488   2.961   1.859   1.123
  827SOL     OW 2489   1.872   2.914   0.302
  827SOL    HW1 2490   1.961   2.923   0.256
  827SOL    HW2 2491   1.862   2.822   0.339
  828SOL     OW 2492   2.093   2.468   1.983
  828SOL    HW1 2493   2.003   2.491   2.021
  828SOL    HW2 2494   2.084   2.450   1.885
  829SOL     OW 2495   2.088   2.142   2.847
  829SOL    HW1 2496   2.120   2.114   2.938
  829SOL    HW2 2497   1.994   2.110   2.834
  830SOL     OW 2498   1.869   2.246   2.495
  830SOL    HW1 2499   1.784   2.275   2.539
  830SOL    HW2 2500   1.854   2.159   2.448
  831SOL     OW 2501   2.645   0.016   2.880
  831SOL    HW1 2502   2.560   0.019   2.933
  831SOL    HW2 2503   2.648   0.095   2.818
  832SOL     OW 2504   2.515   2.844   2.565
  832SOL    HW1 2505   2.610   2.847   2.596
  832SOL    HW2 2506   2.488   2.933   2.531
  833SOL     OW 2507   2.099   0.298   2.335
  833SOL    HW1 2508   2.064   0.388   2.360
  833SOL    HW2 2509   2.045   0.227   2.380
  834SOL     OW 2510   2.112   2.949   2.749
  834SOL    HW1 2511   2.126   2.855   2.781
  834SOL    HW2 2512   2.059   3.000   2.817
  835SOL     OW 2513   2.466   2.824   1.995
  835SOL    HW1 2514   2.460   2.908   1.940
  835SOL    HW2 2515   2.531   2.838   2.070
  836SOL     OW 2516   1.976   2.512   2.426
  836SOL    HW1 2517   1.947   2.418   2.443
  836SOL    HW2 2518   1.969   2.566   2.510
  837SOL     OW 2519   2.503   0.249   2.562
  837SOL    HW1 2520   2.459   0.160   2.558
  837SOL    HW2 2521   2.464   0.309   2.492
  838SOL     OW 2522   2.673   1.866   2.365
  838SOL    HW1 2523   2.718   1.954   2.351
  838SOL    HW2 2524   2.575   1.880   2.378
  839SOL     OW 2525   2.062   2.807   0.114
  839SOL    HW1 2526   2.135   2.738   0.105
  839SOL    HW2 2527   1.974   2.765   0.092
  840SOL     OW 2528   2.459   2.582   2.130
  840SOL    HW1 2529   2.466   2.660   2.069
  840SOL    HW2 2530   2.389   2.600   2.199
  841SOL     OW 2531   2.895   2.577   2.274
  841SOL    HW1 2532   2.933   2.565   2.366
  841SOL    HW2 2533   2.813   2.520   2.265
  842SOL     OW 2534   1.948   2.685   2.639
  842SOL    HW1 2535   2.035   2.669   2.686
  842SOL    HW2 2536   1.905   2.767   2.677
  843SOL     OW 2537   2.749   2.208   2.060
  843SOL    HW1 2538   2.788   2.275   1.997
  843SOL    HW2 2539   2.751   2.117   2.017
  844SOL     OW 2540   2.409   2.047   2.765
  844SOL    HW1 2541   2.382   2.079   2.855
  844SOL    HW2 2542   2.419   2.125   2.703
  845SOL     OW 2543   2.250   2.552   2.338
  845SOL    HW1 2544   2.277   2.456   2.348
  845SOL    HW2 2545   2.152   2.561   2.360
  846SOL     OW 2546   2.493   1.987   1.966
  846SOL    HW1 2547   2.568   1.923   1.987
  846SOL    HW2 2548   2.441   1.953   1.887
  847SOL     OW 2549   2.785   2.375   2.756
  847SOL    HW1 2550   2.758   2.356   2.661
  847SOL    HW2 2551   2.817   2.291   2.800
  848SOL     OW 2552   2.407   1.925   2.365
  848SOL    HW1 2553   2.324   1.924   2.421
  848SOL    HW2 2554   2.406   2.007   2.307
  849SOL     OW 2555   2.155   1.909   2.047
  849SOL    HW1 2556   2.208   1.981   2.004
  849SOL    HW2 2557   2.216   1.842   2.088
  850SOL     OW 2558   2.805   2.102   2.318
  850SOL    HW1 2559   2.761   2.152   2.243
  850SOL    HW2 2560   2.897   2.075   2.290
  851SOL     OW 2561   2.884   2.414   1.879
  851SOL    HW1 2562   2.835   2.497   1.855
  851SOL    HW2 2563   2.939   2.430   1.961
  852SOL     OW 2564   2.741   2.318   2.495
  852SOL    HW1 2565   2.681   2.383   2.447
  852SOL    HW2 2566   2.746   2.233   2.442
  853SOL     OW 2567   2.854   1.923   2.611
  853SOL    HW1 2568   2.803   1.901   2.528
  853SOL    HW2 2569   2.852   1.845   2.673
  854SOL     OW 2570   2.392   2.126   2.181
  854SOL    HW1 2571   2.430   2.069   2.107
  854SOL    HW2 2572   2.369   2.216   2.145
  855SOL     OW 2573   2.418   2.399   2.724
  855SOL    HW1 2574   2.431   2.457   2.644
  855SOL    HW2 2575   2.479   2.428   2.797
  856SOL     OW 2576   2.436   2.728   2.884
  856SOL    HW1 2577   2.483   2.807   2.845
  856SOL    HW2 2578   2.421   2.743   2.982
  857SOL     OW 2579   0.054   2.392   2.137
  857SOL    HW1 2580   0.089   2.314   2.188
  857SOL    HW2 2581   0.012   2.457   2.201
  858SOL     OW 2582   2.163   2.068   0.090
  858SOL    HW1 2583   2.187   2.109   0.178
  858SOL    HW2 2584   2.152   1.969   0.101
  859SOL     OW 2585   2.591   2.500   2.912
  859SOL    HW1 2586   2.665   2.476   2.849
  859SOL    HW2 2587   2.554   2.589   2.888
  860SOL     OW 2588   2.162   1.928   2.486
  860SOL    HW1 2589   2.144   2.023   2.509
  860SOL    HW2 2590   2.169   1.874   2.570
  861SOL     OW 2591   2.872   2.630   2.825
  861SOL    HW1 2592   2.894   2.637   2.922
  861SOL    HW2 2593   2.865   2.534   2.798
  862SOL     OW 2594   2.173   2.671   2.808
  862SOL    HW1 2595   2.270   2.697   2.810
  862SOL    HW2 2596   2.163   2.576   2.838
  863SOL     OW 2597   2.184   2.394   2.864
  863SOL    HW1 2598   2.144   2.303   2.859
  863SOL    HW2 2599   2.269   2.397   2.811
  864SOL     OW 2600   2.878   2.645   0.093
  864SOL    HW1 2601   2.922   2.635   0.182
  864SOL    HW2 2602   2.781   2.668   0.106
  865SOL     OW 2603   2.675   2.430   2.215
  865SOL    HW1 2604   2.678   2.349   2.156
  865SOL    HW2 2605   2.597   2.487   2.188
  866SOL     OW 2606   2.565   2.310   0.100
  866SOL    HW1 2607   2.477   2.264   0.091
  866SOL    HW2 2608   2.570   2.385   0.034
  867SOL     OW 2609   2.330   2.356   2.053
  867SOL    HW1 2610   2.390   2.432   2.075
  867SOL    HW2 2611   2.237   2.389   2.037
  868SOL     OW 2612   0.167   2.701   2.163
  868SOL    HW1 2613   0.101   2.650   2.218
  868SOL    HW2 2614   0.199   2.644   2.087
  869SOL     OW 2615   2.125   2.180   2.578
  869SOL    HW1 2616   2.038   2.218   2.549
  869SOL    HW2 2617   2.125   2.170   2.678
  870SOL     OW 2618   2.761   2.762   2.114
  870SOL    HW1 2619   2.838   2.816   2.079
  870SOL    HW2 2620   2.793   2.701   2.186
  871SOL     OW 2621   2.878   2.101   2.818
  871SOL    HW1 2622   2.871   2.054   2.730
  871SOL    HW2 2623   2.899   2.034   2.890
  872SOL     OW 2624   1.940   2.196   1.895
  872SOL    HW1 2625   1.848   2.173   1.863
  872SOL    HW2 2626   1.973   2.276   1.845
  873SOL     OW 2627   1.931   2.020   2.174
  873SOL    HW1 2628   1.914   2.105   2.124
  873SOL    HW2 2629   2.020   1.983   2.146
  874SOL     OW 2630   2.455   2.585   2.520
  874SOL    HW1 2631   2.484   2.679   2.534
  874SOL    HW2 2632   2.378   2.583   2.456
  875SOL     OW 2633   2.742   2.831   2.716
  875SOL    HW1 2634   2.787   2.750   2.753
  875SOL    HW2 2635   2.706   2.886   2.790
  876SOL     OW 2636   2.947   2.835   1.900
  876SOL    HW1 2637   2.912   2.929   1.907
  876SOL    HW2 2638   0.014   2.819   1.972
  877SOL     OW 2639   2.295   2.291   2.388
  877SOL    HW1 2640   2.323   2.219   2.325
  877SOL    HW2 2641   2.242   2.252   2.463
  878SOL     OW 2642   1.888   2.917   2.173
  878SOL    HW1 2643   1.976   2.933   2.128
  878SOL    HW2 2644   1.879   2.821   2.198
   3.00000   3.00000   3.00000
