;----------------------------TITLE -----------------------------------------------------------------------------------------
;   D-(+)-Glucose
;
[ moleculetype ]
; Name   nrexcl
S5R7     3
[ atoms ]
;  nr  type  resnr  resid  atom  cgnr  charge    mass
    1  OOpt    1    S5R7     O6    1   -0.483  15.9994
    2  COpt    1    S5R7     C6    2    0.351  12.0110
    3  HOpt    1    S5R7     H9    3    0.071   1.0080
    4  COpt    1    S5R7     C4    4    0.247  12.0110
    5  HOpt    1    S5R7     H4    5    0.101   1.0080
    6  OAlc    1    S5R7     O4    6   -0.686  15.9994
    7     H    1    S5R7    H11    7    0.457   1.0080
    8  COpt    1    S5R7     C2    8    0.087  12.0110
    9  HOpt    1    S5R7     H2    9    0.093   1.0080
   10  OAlc    1    S5R7     O2   10   -0.704  15.9994
   11     H    1    S5R7     H8   11    0.452   1.0080
   12  COpt    1    S5R7     C1   12    0.233  12.0110
   13  HOpt    1    S5R7     H1   13    0.063   1.0080
   14  OAlc    1    S5R7     O1   14   -0.645  15.9994
   15     H    1    S5R7     H7   15    0.426   1.0080
   16  COpt    1    S5R7     C3   16    0.106  12.0110
   17  HOpt    1    S5R7     H3   17    0.036   1.0080
   18  OAlc    1    S5R7     O3   18   -0.654  15.9994
   19     H    1    S5R7    H10   19    0.412   1.0080
   20  COpt    1    S5R7     C5   20    0.155  12.0110
   21  HOpt    1    S5R7     H5   21    0.067   1.0080
   22  HOpt    1    S5R7     H6   22    0.047   1.0080
   23  OAlc    1    S5R7     O5   23   -0.667  15.9994
   24     H    1    S5R7    H12   24    0.435   1.0080
; total charge of the molecule:  -0.000
[ bonds ]
;  ai   aj  funct   c0         c1
    1    2    2   0.1220   2.2843e+07
    2    3    2   0.1100   1.2100e+07
    2    4    2   0.1520   5.4300e+06
    4    5    2   0.1100   1.2100e+07
    4    6    2   0.1420   3.2236e+06
    4    8    2   0.1530   7.1500e+06
    6    7    2   0.0972   1.9581e+07
    8    9    2   0.1100   1.2100e+07
    8   10    2   0.1420   3.2236e+06
    8   12    2   0.1540   4.0057e+06
   10   11    2   0.0972   1.9581e+07
   12   13    2   0.1090   1.2300e+07
   12   14    2   0.1430   8.1800e+06
   12   16    2   0.1530   7.1500e+06
   14   15    2   0.0972   1.9581e+07
   16   17    2   0.1100   1.2100e+07
   16   18    2   0.1420   3.2236e+06
   16   20    2   0.1520   5.4300e+06
   18   19    2   0.0972   1.9581e+07
   20   21    2   0.1090   1.2300e+07
   20   22    2   0.1090   1.2300e+07
   20   23    2   0.1420   3.2236e+06
   23   24    2   0.0972   1.9581e+07
[ pairs ]
;  ai   aj  funct  ;  all 1-4 pairs but the ones excluded in GROMOS itp
    1    5    1
    1    6    1
    1    8    1
    2    7    1
    2    9    1
    2   10    1
    2   12    1
    3    5    1
    3    6    1
    3    8    1
    4   11    1
    4   13    1
    4   14    1
    4   16    1
    5    7    1
    5    9    1
    5   10    1
    5   12    1
    6    9    1
    6   10    1
    6   12    1
    7    8    1
    8   15    1
    8   17    1
    8   18    1
    8   20    1
    9   11    1
    9   13    1
    9   14    1
    9   16    1
   10   13    1
   10   14    1
   10   16    1
   11   12    1
   12   19    1
   12   21    1
   12   22    1
   12   23    1
   13   15    1
   13   17    1
   13   18    1
   13   20    1
   14   17    1
   14   18    1
   14   20    1
   15   16    1
   16   24    1
   17   19    1
   17   21    1
   17   22    1
   17   23    1
   18   21    1
   18   22    1
   18   23    1
   19   20    1
   21   24    1
   22   24    1
[ angles ]
;  ai   aj   ak  funct   angle     fc
    1    2    3    2    120.00   505.00
    1    2    4    2    121.00   685.00
    3    2    4    2    120.00   505.00
    2    4    5    2    106.75   503.00
    2    4    6    2    109.50   520.00
    2    4    8    2    111.00   530.00
    5    4    6    2    110.30   524.00
    5    4    8    2    104.00   490.00
    6    4    8    2    111.00   530.00
    4    6    7    2    109.50   450.00
    4    8    9    2    107.57   484.00
    4    8   10    2    104.00   490.00
    4    8   12    2    120.00   560.00
    9    8   10    2    110.30   524.00
    9    8   12    2    108.53   443.00
   10    8   12    2    109.50   520.00
    8   10   11    2    104.00   490.00
    8   12   13    2    109.50   448.00
    8   12   14    2    109.50   520.00
    8   12   16    2    119.00  2211.40
   13   12   14    2    104.00   490.00
   13   12   16    2    107.60   507.00
   14   12   16    2    111.00   530.00
   12   14   15    2    109.50   450.00
   12   16   17    2    109.60   450.00
   12   16   18    2    111.00   530.00
   12   16   20    2    111.00   530.00
   17   16   18    2    111.00   530.00
   17   16   20    2    108.53   443.00
   18   16   20    2    106.00  1733.55
   16   18   19    2    109.50   450.00
   16   20   21    2    111.00   530.00
   16   20   22    2    108.53   443.00
   16   20   23    2    111.00   530.00
   21   20   22    2    108.53   443.00
   21   20   23    2    107.57   484.00
   22   20   23    2    111.00   530.00
   20   23   24    2    106.75   503.00
[ dihedrals ]
; GROMOS improper dihedrals
;  ai   aj   ak   al  funct   angle     fc
    2    1    3    4    2      0.00   167.36
[ dihedrals ]
;  ai   aj   ak   al  funct    ph0      cp     mult
   11   10    8    9    1     90.00     5.90    1
   15   14   12   13    1     90.00     5.90    1
   19   18   16   17    1     90.00     5.90    1
   12   16   20   23    1      0.00     5.44    3
   12   16   20   23    1    -90.00     4.10    1
    7    6    4    2    1    -90.00     2.70    2
    8    4    2    3    1    -90.00    10.60    2
    8    4    2    3    1    -90.00     5.50    1
    8    4    2    3    1      0.00     4.69    3
   13   12    8    9    1      0.00     4.69    3
   13   12   16   17    1      0.00     5.44    3
   24   23   20   21    1      0.00     2.10    3
   24   23   20   21    1    -90.00     1.70    1
   24   23   20   21    1     90.00     1.20    2
   24   23   20   21    1      0.00     1.20    1
    6    4    8   10    1      0.00     5.92    3
[ exclusions ]
;  ai   aj  funct  ;  GROMOS 1-4 exclusions
