HEMAGGLUTININ in water
 2635
    1ILE      N    1   1.450   0.294   1.095
    1ILE     H1    2   1.504   0.257   1.172
    1ILE     H2    3   1.352   0.281   1.119
    1ILE     H3    4   1.470   0.242   1.011
    1ILE     CA    5   1.477   0.440   1.077
    1ILE     HA    6   1.582   0.454   1.053
    1ILE     CB    7   1.393   0.496   0.959
    1ILE     HB    8   1.288   0.470   0.975
    1ILE    CG2    9   1.401   0.649   0.939
    1ILE   HG21   10   1.355   0.676   0.845
    1ILE   HG22   11   1.344   0.702   1.015
    1ILE   HG23   12   1.504   0.684   0.941
    1ILE    CG1   13   1.440   0.428   0.828
    1ILE   HG11   14   1.377   0.462   0.746
    1ILE   HG12   15   1.426   0.320   0.835
    1ILE     CD   16   1.587   0.456   0.792
    1ILE    HD1   17   1.610   0.405   0.699
    1ILE    HD2   18   1.602   0.563   0.776
    1ILE    HD3   19   1.654   0.421   0.870
    1ILE      C   20   1.454   0.515   1.208
    1ILE      O   21   1.363   0.596   1.223
    2PHE      N   22   1.529   0.483   1.313
    2PHE      H   23   1.609   0.421   1.304
    2PHE     CA   24   1.495   0.530   1.448
    2PHE     HA   25   1.401   0.586   1.448
    2PHE     CB   26   1.473   0.411   1.539
    2PHE    HB1   27   1.562   0.396   1.598
    2PHE    HB2   28   1.455   0.324   1.478
    2PHE     CG   29   1.358   0.424   1.632
    2PHE    CD1   30   1.231   0.378   1.594
    2PHE    HD1   31   1.217   0.329   1.499
    2PHE    CE1   32   1.122   0.390   1.682
    2PHE    HE1   33   1.024   0.355   1.653
    2PHE     CZ   34   1.143   0.446   1.809
    2PHE     HZ   35   1.062   0.451   1.880
    2PHE    CE2   36   1.272   0.485   1.849
    2PHE    HE2   37   1.291   0.518   1.949
    2PHE    CD2   38   1.379   0.476   1.761
    2PHE    HD2   39   1.478   0.503   1.795
    2PHE      C   40   1.603   0.623   1.499
    2PHE      O   41   1.710   0.580   1.541
    3GLY      N   42   1.575   0.753   1.492
    3GLY      H   43   1.483   0.780   1.460
    3GLY     CA   44   1.676   0.855   1.518
    3GLY    HA1   45   1.774   0.815   1.494
    3GLY    HA2   46   1.674   0.881   1.623
    3GLY      C   47   1.657   0.980   1.435
    3GLY      O   48   1.690   1.088   1.480
    4ALA      N   49   1.588   0.967   1.321
    4ALA      H   50   1.559   0.876   1.290
    4ALA     CA   51   1.548   1.082   1.240
    4ALA     HA   52   1.637   1.135   1.206
    4ALA     CB   53   1.471   1.030   1.120
    4ALA    HB1   54   1.438   1.116   1.063
    4ALA    HB2   55   1.534   0.966   1.058
    4ALA    HB3   56   1.382   0.975   1.152
    4ALA      C   57   1.461   1.182   1.318
    4ALA      O   58   1.464   1.301   1.287
    5ILE      N   59   1.395   1.136   1.424
    5ILE      H   60   1.403   1.039   1.445
    5ILE     CA   61   1.327   1.222   1.521
    5ILE     HA   62   1.259   1.287   1.468
    5ILE     CB   63   1.249   1.136   1.623
    5ILE     HB   64   1.301   1.041   1.638
    5ILE    CG2   65   1.240   1.202   1.760
    5ILE   HG21   66   1.175   1.145   1.825
    5ILE   HG22   67   1.337   1.205   1.810
    5ILE   HG23   68   1.199   1.303   1.750
    5ILE    CG1   69   1.107   1.109   1.572
    5ILE   HG11   70   1.073   1.189   1.506
    5ILE   HG12   71   1.035   1.103   1.654
    5ILE     CD   72   1.102   0.976   1.497
    5ILE    HD1   73   1.001   0.957   1.464
    5ILE    HD2   74   1.169   0.978   1.411
    5ILE    HD3   75   1.132   0.897   1.566
    5ILE      C   76   1.428   1.315   1.587
    5ILE      O   77   1.412   1.435   1.579
    6ALA      N   78   1.535   1.262   1.646
    6ALA      H   79   1.553   1.164   1.636
    6ALA     CA   80   1.635   1.345   1.710
    6ALA     HA   81   1.584   1.415   1.776
    6ALA     CB   82   1.728   1.254   1.788
    6ALA    HB1   83   1.804   1.317   1.834
    6ALA    HB2   84   1.672   1.200   1.864
    6ALA    HB3   85   1.777   1.185   1.721
    6ALA      C   86   1.713   1.429   1.609
    6ALA      O   87   1.746   1.543   1.638
    7GLY      N   88   1.734   1.376   1.489
    7GLY      H   89   1.702   1.281   1.473
    7GLY     CA   90   1.799   1.449   1.383
    7GLY    HA1   91   1.813   1.382   1.298
    7GLY    HA2   92   1.896   1.484   1.418
    7GLY      C   93   1.715   1.569   1.341
    7GLY      O   94   1.768   1.679   1.333
    8PHE      N   95   1.584   1.552   1.322
    8PHE      H   96   1.542   1.461   1.339
    8PHE     CA   97   1.492   1.661   1.285
    8PHE     HA   98   1.537   1.721   1.207
    8PHE     CB   99   1.361   1.602   1.231
    8PHE    HB1  100   1.332   1.517   1.293
    8PHE    HB2  101   1.379   1.565   1.131
    8PHE     CG  102   1.242   1.696   1.226
    8PHE    CD1  103   1.215   1.774   1.111
    8PHE    HD1  104   1.280   1.768   1.025
    8PHE    CE1  105   1.104   1.860   1.108
    8PHE    HE1  106   1.086   1.920   1.021
    8PHE     CZ  107   1.020   1.870   1.221
    8PHE     HZ  108   0.936   1.937   1.219
    8PHE    CE2  109   1.046   1.792   1.335
    8PHE    HE2  110   0.980   1.798   1.420
    8PHE    CD2  111   1.155   1.705   1.337
    8PHE    HD2  112   1.173   1.643   1.423
    8PHE      C  113   1.468   1.754   1.403
    8PHE      O  114   1.469   1.874   1.385
    9ILE      N  115   1.456   1.702   1.525
    9ILE      H  116   1.463   1.602   1.536
    9ILE     CA  117   1.429   1.785   1.643
    9ILE     HA  118   1.348   1.853   1.621
    9ILE     CB  119   1.389   1.695   1.761
    9ILE     HB  120   1.461   1.613   1.766
    9ILE    CG2  121   1.395   1.768   1.896
    9ILE   HG21  122   1.359   1.702   1.975
    9ILE   HG22  123   1.498   1.797   1.920
    9ILE   HG23  124   1.334   1.858   1.893
    9ILE    CG1  125   1.249   1.634   1.734
    9ILE   HG11  126   1.239   1.544   1.793
    9ILE   HG12  127   1.242   1.605   1.630
    9ILE     CD  128   1.130   1.726   1.762
    9ILE    HD1  129   1.038   1.676   1.733
    9ILE    HD2  130   1.125   1.747   1.868
    9ILE    HD3  131   1.140   1.820   1.707
    9ILE      C  132   1.550   1.871   1.673
    9ILE      O  133   1.534   1.989   1.702
   10LYS      N  134   1.671   1.817   1.657
   10LYS      H  135   1.680   1.720   1.629
   10LYS     CA  136   1.793   1.895   1.677
   10LYS     HA  137   1.776   1.961   1.763
   10LYS     CB  138   1.909   1.801   1.710
   10LYS    HB1  139   1.948   1.755   1.619
   10LYS    HB2  140   1.871   1.722   1.774
   10LYS     CG  141   2.021   1.876   1.784
   10LYS    HG1  142   1.986   1.974   1.815
   10LYS    HG2  143   2.105   1.889   1.716
   10LYS     CD  144   2.063   1.798   1.909
   10LYS    HD1  145   2.077   1.693   1.881
   10LYS    HD2  146   1.983   1.805   1.981
   10LYS     CE  147   2.190   1.851   1.975
   10LYS    HE1  148   2.165   1.901   2.068
   10LYS    HE2  149   2.234   1.927   1.910
   10LYS     NZ  150   2.288   1.742   1.997
   10LYS    HZ1  151   2.376   1.778   2.035
   10LYS    HZ2  152   2.253   1.670   2.058
   10LYS    HZ3  153   2.313   1.697   1.910
   10LYS      C  154   1.819   1.985   1.558
   10LYS      O  155   1.851   2.101   1.579
   11ASN      N  156   1.803   1.937   1.434
   11ASN      H  157   1.775   1.840   1.422
   11ASN     CA  158   1.821   2.019   1.315
   11ASN     HA  159   1.921   2.062   1.316
   11ASN     CB  160   1.805   1.936   1.187
   11ASN    HB1  161   1.703   1.899   1.179
   11ASN    HB2  162   1.873   1.852   1.188
   11ASN     CG  163   1.835   2.022   1.066
   11ASN    OD1  164   1.746   2.080   1.006
   11ASN    ND2  165   1.960   2.034   1.029
   11ASN   HD21  166   2.025   1.968   1.068
   11ASN   HD22  167   1.971   2.068   0.936
   11ASN      C  168   1.722   2.136   1.310
   11ASN      O  169   1.757   2.244   1.266
   12ILE      N  170   1.599   2.115   1.356
   12ILE      H  171   1.573   2.022   1.387
   12ILE     CA  172   1.497   2.219   1.359
   12ILE     HA  173   1.506   2.280   1.269
   12ILE     CB  174   1.358   2.156   1.359
   12ILE     HB  175   1.354   2.084   1.440
   12ILE    CG2  176   1.247   2.258   1.387
   12ILE   HG21  177   1.152   2.206   1.386
   12ILE   HG22  178   1.261   2.302   1.485
   12ILE   HG23  179   1.248   2.337   1.311
   12ILE    CG1  180   1.333   2.081   1.225
   12ILE   HG11  181   1.255   2.009   1.245
   12ILE   HG12  182   1.421   2.026   1.195
   12ILE     CD  183   1.292   2.167   1.105
   12ILE    HD1  184   1.285   2.103   1.017
   12ILE    HD2  185   1.195   2.212   1.123
   12ILE    HD3  186   1.366   2.244   1.088
   12ILE      C  187   1.521   2.310   1.479
   12ILE      O  188   1.504   2.431   1.465
   13TRP      N  189   1.562   2.254   1.593
   13TRP      H  190   1.573   2.154   1.597
   13TRP     CA  191   1.593   2.328   1.715
   13TRP     HA  192   1.580   2.433   1.696
   13TRP     CB  193   1.495   2.292   1.826
   13TRP    HB1  194   1.547   2.302   1.921
   13TRP    HB2  195   1.465   2.187   1.818
   13TRP     CG  196   1.370   2.372   1.838
   13TRP    CD1  197   1.303   2.441   1.741
   13TRP    HD1  198   1.334   2.448   1.637
   13TRP    NE1  199   1.189   2.496   1.794
   13TRP    HE1  200   1.125   2.556   1.742
   13TRP    CE2  201   1.183   2.477   1.931
   13TRP    CZ2  202   1.099   2.525   2.031
   13TRP    HZ2  203   1.013   2.585   2.004
   13TRP    CH2  204   1.129   2.500   2.166
   13TRP    HH2  205   1.066   2.538   2.245
   13TRP    CZ3  206   1.245   2.427   2.198
   13TRP    HZ3  207   1.271   2.410   2.302
   13TRP    CE3  208   1.326   2.375   2.097
   13TRP    HE3  209   1.414   2.318   2.123
   13TRP    CD2  210   1.299   2.400   1.960
   13TRP      C  211   1.740   2.312   1.756
   13TRP      O  212   1.779   2.229   1.837
   14NH2      N  213   1.824   2.398   1.701
   14NH2     H1  214   1.789   2.468   1.637
   14NH2     H2  215   1.922   2.390   1.719
   15SOL     OW  216   0.229   0.658   0.102
   15SOL    HW1  217   0.168   0.607   0.154
   15SOL    HW2  218   0.252   0.601   0.028
   16SOL     OW  219   0.207   0.271   0.999
   16SOL    HW1  220   0.246   0.249   1.083
   16SOL    HW2  221   0.116   0.245   1.007
   17SOL     OW  222   0.009   0.382   0.657
   17SOL    HW1  223   2.925   0.420   0.684
   17SOL    HW2  224   2.984   0.311   0.597
   18SOL     OW  225   0.567   1.278   1.169
   18SOL    HW1  226   0.478   1.279   1.136
   18SOL    HW2  227   0.581   1.366   1.204
   19SOL     OW  228   1.554   1.510   0.703
   19SOL    HW1  229   1.508   1.500   0.786
   19SOL    HW2  230   1.485   1.519   0.637
   20SOL     OW  231   1.125   0.709   0.703
   20SOL    HW1  232   1.177   0.789   0.694
   20SOL    HW2  233   1.080   0.719   0.787
   21SOL     OW  234   1.758   0.596   0.235
   21SOL    HW1  235   1.745   0.586   0.141
   21SOL    HW2  236   1.726   0.514   0.273
   22SOL     OW  237   0.760   1.145   1.032
   22SOL    HW1  238   0.691   1.175   1.090
   22SOL    HW2  239   0.794   1.224   0.991
   23SOL     OW  240   0.842   0.791   1.817
   23SOL    HW1  241   0.848   0.854   1.889
   23SOL    HW2  242   0.864   0.842   1.739
   24SOL     OW  243   0.687   1.011   0.652
   24SOL    HW1  244   0.749   0.994   0.723
   24SOL    HW2  245   0.615   1.059   0.695
   25SOL     OW  246   0.697   1.150   1.813
   25SOL    HW1  247   0.754   1.226   1.822
   25SOL    HW2  248   0.615   1.185   1.777
   26SOL     OW  249   0.329   1.437   1.069
   26SOL    HW1  250   0.267   1.387   1.016
   26SOL    HW2  251   0.386   1.480   1.005
   27SOL     OW  252   0.448   0.399   1.493
   27SOL    HW1  253   0.522   0.338   1.498
   27SOL    HW2  254   0.371   0.344   1.506
   28SOL     OW  255   0.220   1.714   0.481
   28SOL    HW1  256   0.246   1.795   0.525
   28SOL    HW2  257   0.285   1.704   0.411
   29SOL     OW  258   0.244   1.448   0.532
   29SOL    HW1  259   0.208   1.536   0.529
   29SOL    HW2  260   0.181   1.398   0.584
   30SOL     OW  261   0.249   1.083   0.887
   30SOL    HW1  262   0.253   0.999   0.934
   30SOL    HW2  263   0.194   1.138   0.942
   31SOL     OW  264   0.624   1.789   1.445
   31SOL    HW1  265   0.536   1.770   1.477
   31SOL    HW2  266   0.636   1.883   1.461
   32SOL     OW  267   0.592   0.975   0.144
   32SOL    HW1  268   0.611   1.048   0.085
   32SOL    HW2  269   0.637   0.999   0.226
   33SOL     OW  270   1.550   0.110   1.459
   33SOL    HW1  271   1.607   0.162   1.403
   33SOL    HW2  272   1.602   0.095   1.538
   34SOL     OW  273   0.123   0.629   0.570
   34SOL    HW1  274   0.081   0.552   0.608
   34SOL    HW2  275   0.117   0.695   0.639
   35SOL     OW  276   1.843   1.763   0.338
   35SOL    HW1  277   1.893   1.729   0.412
   35SOL    HW2  278   1.873   1.854   0.328
   36SOL     OW  279   0.014   1.598   0.113
   36SOL    HW1  280   0.019   1.504   0.134
   36SOL    HW2  281   2.995   1.640   0.196
   37SOL     OW  282   1.691   0.919   0.631
   37SOL    HW1  283   1.777   0.882   0.613
   37SOL    HW2  284   1.672   0.973   0.554
   38SOL     OW  285   1.646   1.109   0.433
   38SOL    HW1  286   1.730   1.118   0.388
   38SOL    HW2  287   1.652   1.169   0.507
   39SOL     OW  288   0.123   0.746   1.593
   39SOL    HW1  289   0.217   0.752   1.609
   39SOL    HW2  290   0.094   0.837   1.585
   40SOL     OW  291   0.610   1.378   0.734
   40SOL    HW1  292   0.565   1.295   0.741
   40SOL    HW2  293   0.593   1.407   0.644
   41SOL     OW  294   0.819   0.012   0.521
   41SOL    HW1  295   0.849   0.099   0.495
   41SOL    HW2  296   0.725   0.011   0.501
   42SOL     OW  297   0.191   0.963   1.271
   42SOL    HW1  298   0.275   0.923   1.250
   42SOL    HW2  299   0.126   0.911   1.223
   43SOL     OW  300   1.509   1.008   0.205
   43SOL    HW1  301   1.447   0.941   0.235
   43SOL    HW2  302   1.561   1.028   0.283
   44SOL     OW  303   0.327   0.255   1.790
   44SOL    HW1  304   0.383   0.327   1.822
   44SOL    HW2  305   0.246   0.265   1.839
   45SOL     OW  306   1.461   1.412   0.957
   45SOL    HW1  307   1.394   1.411   1.025
   45SOL    HW2  308   1.452   1.328   0.912
   46SOL     OW  309   1.666   1.726   0.576
   46SOL    HW1  310   1.635   1.700   0.489
   46SOL    HW2  311   1.638   1.656   0.634
   47SOL     OW  312   0.597   0.726   0.268
   47SOL    HW1  313   0.603   0.804   0.213
   47SOL    HW2  314   0.528   0.747   0.331
   48SOL     OW  315   1.582   1.666   0.309
   48SOL    HW1  316   1.670   1.704   0.303
   48SOL    HW2  317   1.559   1.646   0.219
   49SOL     OW  318   0.805   0.610   1.458
   49SOL    HW1  319   0.770   0.595   1.545
   49SOL    HW2  320   0.755   0.552   1.400
   50SOL     OW  321   0.979   0.408   1.242
   50SOL    HW1  322   0.899   0.444   1.281
   50SOL    HW2  323   0.950   0.374   1.157
   51SOL     OW  324   1.046   0.702   0.426
   51SOL    HW1  325   1.060   0.695   0.520
   51SOL    HW2  326   0.966   0.651   0.410
   52SOL     OW  327   0.100   0.818   0.764
   52SOL    HW1  328   0.179   0.810   0.817
   52SOL    HW2  329   0.046   0.881   0.812
   53SOL     OW  330   0.138   1.831   1.572
   53SOL    HW1  331   0.124   1.811   1.665
   53SOL    HW2  332   0.052   1.859   1.541
   54SOL     OW  333   0.919   0.340   0.218
   54SOL    HW1  334   0.939   0.397   0.144
   54SOL    HW2  335   0.889   0.258   0.178
   55SOL     OW  336   1.712   0.584   1.826
   55SOL    HW1  337   1.720   0.673   1.793
   55SOL    HW2  338   1.738   0.528   1.752
   56SOL     OW  339   1.373   1.142   0.541
   56SOL    HW1  340   1.450   1.127   0.486
   56SOL    HW2  341   1.321   1.205   0.492
   57SOL     OW  342   0.515   0.188   0.918
   57SOL    HW1  343   0.537   0.214   1.007
   57SOL    HW2  344   0.545   0.261   0.863
   58SOL     OW  345   1.012   1.450   0.476
   58SOL    HW1  346   0.967   1.518   0.426
   58SOL    HW2  347   0.996   1.472   0.567
   59SOL     OW  348   0.354   1.803   0.853
   59SOL    HW1  349   0.401   1.721   0.865
   59SOL    HW2  350   0.419   1.871   0.865
   60SOL     OW  351   1.786   1.065   0.878
   60SOL    HW1  352   1.744   1.053   0.793
   60SOL    HW2  353   1.714   1.067   0.941
   61SOL     OW  354   0.320   0.953   0.229
   61SOL    HW1  355   0.412   0.959   0.204
   61SOL    HW2  356   0.294   0.864   0.202
   62SOL     OW  357   0.462   1.263   1.735
   62SOL    HW1  358   0.432   1.269   1.645
   62SOL    HW2  359   0.382   1.265   1.788
   63SOL     OW  360   1.110   1.777   0.225
   63SOL    HW1  361   1.053   1.728   0.283
   63SOL    HW2  362   1.140   1.713   0.161
   64SOL     OW  363   0.199   0.295   1.495
   64SOL    HW1  364   0.115   0.341   1.492
   64SOL    HW2  365   0.188   0.229   1.564
   65SOL     OW  366   1.627   1.366   0.082
   65SOL    HW1  367   1.598   1.457   0.075
   65SOL    HW2  368   1.547   1.314   0.076
   66SOL     OW  369   0.467   1.728   0.331
   66SOL    HW1  370   0.499   1.793   0.394
   66SOL    HW2  371   0.534   1.726   0.263
   67SOL     OW  372   1.411   0.110   0.436
   67SOL    HW1  373   1.382   0.079   0.350
   67SOL    HW2  374   1.506   0.124   0.425
   68SOL     OW  375   0.259   1.795   1.235
   68SOL    HW1  376   0.302   1.724   1.283
   68SOL    HW2  377   0.235   1.755   1.151
   69SOL     OW  378   0.932   1.700   0.895
   69SOL    HW1  379   1.005   1.646   0.926
   69SOL    HW2  380   0.891   1.647   0.826
   70SOL     OW  381   0.389   0.697   0.477
   70SOL    HW1  382   0.422   0.607   0.482
   70SOL    HW2  383   0.297   0.689   0.503
   71SOL     OW  384   1.559   0.202   1.741
   71SOL    HW1  385   1.557   0.237   1.830
   71SOL    HW2  386   1.475   0.156   1.732
   72SOL     OW  387   0.611   0.112   0.111
   72SOL    HW1  388   0.707   0.110   0.120
   72SOL    HW2  389   0.597   0.137   0.020
   73SOL     OW  390   0.777   0.276   1.752
   73SOL    HW1  391   0.836   0.204   1.773
   73SOL    HW2  392   0.714   0.277   1.825
   74SOL     OW  393   0.866   1.508   1.191
   74SOL    HW1  394   0.861   1.481   1.100
   74SOL    HW2  395   0.945   1.466   1.224
   75SOL     OW  396   0.810   1.400   0.931
   75SOL    HW1  397   0.894   1.394   0.885
   75SOL    HW2  398   0.745   1.395   0.861
   76SOL     OW  399   0.928   0.506   0.904
   76SOL    HW1  400   0.904   0.501   0.811
   76SOL    HW2  401   0.960   0.418   0.925
   77SOL     OW  402   0.543   0.053   0.503
   77SOL    HW1  403   0.454   0.044   0.539
   77SOL    HW2  404   0.537   0.128   0.443
   78SOL     OW  405   1.415   1.209   0.049
   78SOL    HW1  406   1.439   1.133   0.102
   78SOL    HW2  407   1.324   1.226   0.071
   79SOL     OW  408   0.303   0.077   0.208
   79SOL    HW1  409   0.368   0.128   0.161
   79SOL    HW2  410   0.337   2.987   0.206
   80SOL     OW  411   0.940   0.249   0.471
   80SOL    HW1  412   0.906   0.286   0.389
   80SOL    HW2  413   1.035   0.255   0.463
   81SOL     OW  414   1.085   0.670   1.461
   81SOL    HW1  415   0.995   0.639   1.473
   81SOL    HW2  416   1.135   0.591   1.440
   82SOL     OW  417   1.230   1.569   0.794
   82SOL    HW1  418   1.242   1.638   0.729
   82SOL    HW2  419   1.299   1.584   0.858
   83SOL     OW  420   0.464   1.146   0.741
   83SOL    HW1  421   0.391   1.128   0.799
   83SOL    HW2  422   0.430   1.130   0.653
   84SOL     OW  423   1.271   1.795   0.601
   84SOL    HW1  424   1.314   1.859   0.545
   84SOL    HW2  425   1.207   1.846   0.651
   85SOL     OW  426   1.033   0.512   0.034
   85SOL    HW1  427   0.996   0.595   0.007
   85SOL    HW2  428   1.108   0.536   0.089
   86SOL     OW  429   0.080   0.562   1.390
   86SOL    HW1  430   0.169   0.560   1.355
   86SOL    HW2  431   0.084   0.628   1.460
   87SOL     OW  432   0.575   0.222   1.175
   87SOL    HW1  433   0.603   0.153   1.235
   87SOL    HW2  434   0.482   0.234   1.194
   88SOL     OW  435   0.879   0.466   0.638
   88SOL    HW1  436   0.822   0.516   0.579
   88SOL    HW2  437   0.884   0.379   0.598
   89SOL     OW  438   1.004   0.051   0.765
   89SOL    HW1  439   0.962   0.060   0.680
   89SOL    HW2  440   0.979   2.963   0.795
   90SOL     OW  441   1.430   1.177   0.829
   90SOL    HW1  442   1.365   1.107   0.835
   90SOL    HW2  443   1.448   1.185   0.736
   91SOL     OW  444   1.847   0.823   0.384
   91SOL    HW1  445   1.903   0.763   0.433
   91SOL    HW2  446   1.820   0.773   0.307
   92SOL     OW  447   0.490   1.404   0.157
   92SOL    HW1  448   0.421   1.375   0.217
   92SOL    HW2  449   0.447   1.407   0.072
   93SOL     OW  450   1.669   1.267   0.652
   93SOL    HW1  451   1.763   1.277   0.662
   93SOL    HW2  452   1.633   1.353   0.674
   94SOL     OW  453   1.415   0.580   0.098
   94SOL    HW1  454   1.341   0.566   0.157
   94SOL    HW2  455   1.462   0.497   0.099
   95SOL     OW  456   0.535   0.264   0.329
   95SOL    HW1  457   0.562   0.208   0.256
   95SOL    HW2  458   0.510   0.346   0.288
   96SOL     OW  459   1.058   1.357   1.317
   96SOL    HW1  460   0.981   1.330   1.367
   96SOL    HW2  461   1.132   1.337   1.375
   97SOL     OW  462   1.113   1.192   1.102
   97SOL    HW1  463   1.080   1.250   1.170
   97SOL    HW2  464   1.085   1.232   1.020
   98SOL     OW  465   0.920   0.113   1.401
   98SOL    HW1  466   0.949   0.094   1.312
   98SOL    HW2  467   0.998   0.149   1.444
   99SOL     OW  468   0.703   1.061   0.376
   99SOL    HW1  469   0.690   1.050   0.471
   99SOL    HW2  470   0.784   1.013   0.358
  100SOL     OW  471   0.417   0.812   1.250
  100SOL    HW1  472   0.485   0.823   1.315
  100SOL    HW2  473   0.380   0.726   1.268
  101SOL     OW  474   1.234   0.349   1.257
  101SOL    HW1  475   1.262   0.425   1.307
  101SOL    HW2  476   1.140   0.362   1.243
  102SOL     OW  477   0.067   1.569   1.316
  102SOL    HW1  478   0.032   1.658   1.318
  102SOL    HW2  479   0.156   1.577   1.349
  103SOL     OW  480   0.362   1.106   0.494
  103SOL    HW1  481   0.354   1.180   0.433
  103SOL    HW2  482   0.360   1.029   0.437
  104SOL     OW  483   0.556   0.542   0.865
  104SOL    HW1  484   0.575   0.595   0.787
  104SOL    HW2  485   0.618   0.574   0.931
  105SOL     OW  486   1.248   1.345   0.395
  105SOL    HW1  487   1.301   1.420   0.423
  105SOL    HW2  488   1.160   1.366   0.424
  106SOL     OW  489   1.588   0.632   0.483
  106SOL    HW1  490   1.560   0.706   0.537
  106SOL    HW2  491   1.630   0.672   0.407
  107SOL     OW  492   0.352   1.524   1.323
  107SOL    HW1  493   0.332   1.482   1.239
  107SOL    HW2  494   0.447   1.535   1.323
  108SOL     OW  495   0.408   0.743   1.601
  108SOL    HW1  496   0.466   0.792   1.544
  108SOL    HW2  497   0.455   0.661   1.619
  109SOL     OW  498   0.993   0.095   1.756
  109SOL    HW1  499   1.045   0.175   1.748
  109SOL    HW2  500   1.038   0.031   1.701
  110SOL     OW  501   0.504   0.054   1.744
  110SOL    HW1  502   0.466   2.991   1.682
  110SOL    HW2  503   0.433   0.117   1.760
  111SOL     OW  504   0.583   0.870   1.032
  111SOL    HW1  505   0.613   0.961   1.025
  111SOL    HW2  506   0.524   0.870   1.107
  112SOL     OW  507   1.214   0.539   0.276
  112SOL    HW1  508   1.208   0.450   0.311
  112SOL    HW2  509   1.163   0.592   0.338
  113SOL     OW  510   0.322   0.206   1.246
  113SOL    HW1  511   0.288   0.248   1.325
  113SOL    HW2  512   0.273   0.124   1.239
  114SOL     OW  513   0.036   1.305   1.279
  114SOL    HW1  514   0.071   1.259   1.355
  114SOL    HW2  515   0.046   1.398   1.301
  115SOL     OW  516   0.730   0.635   1.063
  115SOL    HW1  517   0.796   0.616   0.996
  115SOL    HW2  518   0.699   0.723   1.041
  116SOL     OW  519   1.730   0.938   1.856
  116SOL    HW1  520   1.667   0.939   1.784
  116SOL    HW2  521   1.677   0.956   1.934
  117SOL     OW  522   0.308   0.062   0.639
  117SOL    HW1  523   0.303   0.152   0.672
  117SOL    HW2  524   0.286   0.007   0.714
  118SOL     OW  525   1.611   0.372   0.369
  118SOL    HW1  526   1.642   0.308   0.434
  118SOL    HW2  527   1.585   0.448   0.421
  119SOL     OW  528   1.023   0.759   0.962
  119SOL    HW1  529   1.030   0.778   1.056
  119SOL    HW2  530   0.995   0.668   0.958
  120SOL     OW  531   0.353   0.916   1.805
  120SOL    HW1  532   0.434   0.933   1.853
  120SOL    HW2  533   0.379   0.853   1.737
  121SOL     OW  534   1.519   0.291   0.121
  121SOL    HW1  535   1.461   0.218   0.143
  121SOL    HW2  536   1.565   0.311   0.203
  122SOL     OW  537   1.299   0.828   0.037
  122SOL    HW1  538   1.337   0.741   0.049
  122SOL    HW2  539   1.320   0.851   2.947
  123SOL     OW  540   1.067   1.335   0.852
  123SOL    HW1  541   1.068   1.261   0.791
  123SOL    HW2  542   1.129   1.398   0.814
  124SOL     OW  543   0.312   0.811   0.950
  124SOL    HW1  544   0.406   0.831   0.944
  124SOL    HW2  545   0.309   0.724   0.989
  125SOL     OW  546   0.338   0.512   1.015
  125SOL    HW1  547   0.296   0.430   0.988
  125SOL    HW2  548   0.411   0.523   0.953
  126SOL     OW  549   0.006   1.317   0.176
  126SOL    HW1  550   2.913   1.331   0.156
  126SOL    HW2  551   0.007   1.237   0.229
  127SOL     OW  552   0.097   1.805   0.960
  127SOL    HW1  553   0.055   1.737   0.906
  127SOL    HW2  554   0.182   1.819   0.919
  128SOL     OW  555   0.500   1.572   0.903
  128SOL    HW1  556   0.569   1.633   0.929
  128SOL    HW2  557   0.545   1.504   0.854
  129SOL     OW  558   0.995   0.792   1.231
  129SOL    HW1  559   1.036   0.768   1.315
  129SOL    HW2  560   0.903   0.768   1.242
  130SOL     OW  561   0.045   0.562   1.107
  130SOL    HW1  562   0.130   0.527   1.080
  130SOL    HW2  563   0.040   0.544   1.200
  131SOL     OW  564   0.194   0.516   1.718
  131SOL    HW1  565   0.265   0.495   1.657
  131SOL    HW2  566   0.154   0.595   1.681
  132SOL     OW  567   0.819   0.575   0.346
  132SOL    HW1  568   0.824   0.497   0.291
  132SOL    HW2  569   0.737   0.617   0.322
  133SOL     OW  570   0.278   1.561   1.748
  133SOL    HW1  571   0.219   1.617   1.798
  133SOL    HW2  572   0.249   1.472   1.767
  134SOL     OW  573   0.693   0.459   1.265
  134SOL    HW1  574   0.644   0.382   1.235
  134SOL    HW2  575   0.692   0.519   1.191
  135SOL     OW  576   0.434   0.496   0.218
  135SOL    HW1  577   0.513   0.549   0.210
  135SOL    HW2  578   0.363   0.554   0.189
  136SOL     OW  579   0.160   1.142   1.465
  136SOL    HW1  580   0.152   1.090   1.544
  136SOL    HW2  581   0.169   1.078   1.394
  137SOL     OW  582   1.306   0.848   0.314
  137SOL    HW1  583   1.224   0.823   0.355
  137SOL    HW2  584   1.289   0.841   0.220
  138SOL     OW  585   0.092   1.244   1.028
  138SOL    HW1  586   0.077   1.260   1.121
  138SOL    HW2  587   0.006   1.252   0.988
  139SOL     OW  588   0.691   1.668   1.722
  139SOL    HW1  589   0.627   1.739   1.725
  139SOL    HW2  590   0.727   1.673   1.633
  140SOL     OW  591   0.891   0.085   0.137
  140SOL    HW1  592   0.928   0.097   0.050
  140SOL    HW2  593   0.949   0.023   0.181
  141SOL     OW  594   1.723   0.141   0.518
  141SOL    HW1  595   1.790   0.139   0.449
  141SOL    HW2  596   1.722   0.052   0.553
  142SOL     OW  597   1.390   1.569   0.481
  142SOL    HW1  598   1.450   1.598   0.413
  142SOL    HW2  599   1.344   1.648   0.509
  143SOL     OW  600   0.125   1.800   1.844
  143SOL    HW1  601   0.083   1.730   1.894
  143SOL    HW2  602   0.184   1.842   1.907
  144SOL     OW  603   1.287   0.923   0.672
  144SOL    HW1  604   1.361   0.864   0.658
  144SOL    HW2  605   1.309   1.001   0.622
  145SOL     OW  606   0.826   1.274   1.435
  145SOL    HW1  607   0.794   1.311   1.517
  145SOL    HW2  608   0.756   1.291   1.372
  146SOL     OW  609   0.674   1.608   0.157
  146SOL    HW1  610   0.671   1.625   0.063
  146SOL    HW2  611   0.619   1.530   0.170
  147SOL     OW  612   1.842   0.166   0.962
  147SOL    HW1  613   1.864   0.084   0.919
  147SOL    HW2  614   1.756   0.190   0.927
  148SOL     OW  615   0.270   0.337   0.745
  148SOL    HW1  616   0.182   0.369   0.725
  148SOL    HW2  617   0.264   0.306   0.835
  149SOL     OW  618   1.203   1.607   0.032
  149SOL    HW1  619   1.199   1.517   0.066
  149SOL    HW2  620   1.145   1.606   2.955
  150SOL     OW  621   0.792   1.013   1.348
  150SOL    HW1  622   0.855   1.009   1.276
  150SOL    HW2  623   0.811   1.096   1.391
  151SOL     OW  624   0.920   0.928   0.309
  151SOL    HW1  625   0.980   0.953   0.239
  151SOL    HW2  626   0.960   0.852   0.349
  152SOL     OW  627   1.492   1.603   0.049
  152SOL    HW1  628   1.398   1.621   0.053
  152SOL    HW2  629   1.517   1.629   2.960
  153SOL     OW  630   0.372   1.301   1.491
  153SOL    HW1  631   0.355   1.381   1.440
  153SOL    HW2  632   0.295   1.246   1.475
  154SOL     OW  633   1.046   1.103   0.704
  154SOL    HW1  634   0.975   1.054   0.746
  154SOL    HW2  635   1.101   1.037   0.664
  155SOL     OW  636   1.014   0.242   0.969
  155SOL    HW1  637   1.011   0.196   0.885
  155SOL    HW2  638   1.013   0.172   1.035
  156SOL     OW  639   0.600   1.492   0.485
  156SOL    HW1  640   0.636   1.438   0.414
  156SOL    HW2  641   0.538   1.550   0.441
  157SOL     OW  642   0.261   1.340   0.292
  157SOL    HW1  643   0.171   1.344   0.261
  157SOL    HW2  644   0.259   1.383   0.378
  158SOL     OW  645   0.122   1.015   1.715
  158SOL    HW1  646   0.048   0.971   1.756
  158SOL    HW2  647   0.199   0.978   1.758
  159SOL     OW  648   0.667   0.206   1.492
  159SOL    HW1  649   0.752   0.183   1.454
  159SOL    HW2  650   0.685   0.216   1.585
  160SOL     OW  651   0.067   0.328   0.048
  160SOL    HW1  652   2.976   0.335   0.022
  160SOL    HW2  653   0.111   0.402   0.006
  161SOL     OW  654   0.041   0.193   0.295
  161SOL    HW1  655   0.052   0.252   0.221
  161SOL    HW2  656   0.126   0.148   0.303
  162SOL     OW  657   1.184   1.352   0.123
  162SOL    HW1  658   1.093   1.325   0.114
  162SOL    HW2  659   1.204   1.339   0.216
  163SOL     OW  660   0.614   0.830   1.435
  163SOL    HW1  661   0.663   0.909   1.412
  163SOL    HW2  662   0.680   0.761   1.440
  164SOL     OW  663   1.514   1.761   0.943
  164SOL    HW1  664   1.526   1.837   0.886
  164SOL    HW2  665   1.581   1.772   1.010
  165SOL     OW  666   0.717   0.566   1.706
  165SOL    HW1  667   0.746   0.631   1.770
  165SOL    HW2  668   0.757   0.484   1.736
  166SOL     OW  669   0.388   1.738   1.562
  166SOL    HW1  670   0.301   1.777   1.552
  166SOL    HW2  671   0.371   1.654   1.605
  167SOL     OW  672   1.222   0.312   0.449
  167SOL    HW1  673   1.290   0.244   0.448
  167SOL    HW2  674   1.240   0.363   0.528
  168SOL     OW  675   0.593   0.743   0.665
  168SOL    HW1  676   0.633   0.828   0.646
  168SOL    HW2  677   0.520   0.736   0.603
  169SOL     OW  678   1.790   0.333   1.644
  169SOL    HW1  679   1.767   0.401   1.580
  169SOL    HW2  680   1.706   0.304   1.679
  170SOL     OW  681   0.900   1.382   0.058
  170SOL    HW1  682   0.826   1.387   0.118
  170SOL    HW2  683   0.870   1.428   2.979
  171SOL     OW  684   0.657   1.796   0.954
  171SOL    HW1  685   0.638   1.884   0.922
  171SOL    HW2  686   0.752   1.787   0.946
  172SOL     OW  687   0.864   0.963   0.857
  172SOL    HW1  688   0.916   0.895   0.900
  172SOL    HW2  689   0.833   1.018   0.928
  173SOL     OW  690   1.107   1.029   0.092
  173SOL    HW1  691   1.060   1.047   0.011
  173SOL    HW2  692   1.162   0.954   0.072
  174SOL     OW  693   1.861   1.542   0.835
  174SOL    HW1  694   1.779   1.550   0.787
  174SOL    HW2  695   1.837   1.495   0.915
  175SOL     OW  696   0.220   1.306   1.853
  175SOL    HW1  697   0.173   1.226   1.833
  175SOL    HW2  698   0.212   1.316   1.948
  176SOL     OW  699   0.123   1.252   0.665
  176SOL    HW1  700   0.082   1.185   0.720
  176SOL    HW2  701   0.169   1.202   0.598
  177SOL     OW  702   0.679   1.399   1.626
  177SOL    HW1  703   0.600   1.351   1.651
  177SOL    HW2  704   0.668   1.486   1.665
  178SOL     OW  705   1.770   0.175   1.230
  178SOL    HW1  706   1.828   0.121   1.284
  178SOL    HW2  707   1.818   0.187   1.148
  179SOL     OW  708   0.459   0.432   0.542
  179SOL    HW1  709   0.455   0.373   0.466
  179SOL    HW2  710   0.400   0.394   0.606
  180SOL     OW  711   1.715   1.448   1.062
  180SOL    HW1  712   1.624   1.455   1.033
  180SOL    HW2  713   1.710   1.446   1.157
  181SOL     OW  714   0.329   0.552   1.289
  181SOL    HW1  715   0.382   0.495   1.344
  181SOL    HW2  716   0.350   0.526   1.199
  182SOL     OW  717   0.824   1.574   0.679
  182SOL    HW1  718   0.823   1.616   0.593
  182SOL    HW2  719   0.742   1.525   0.682
  183SOL     OW  720   1.013   0.024   1.159
  183SOL    HW1  721   0.936   2.990   1.113
  183SOL    HW2  722   1.085   2.969   1.130
  184SOL     OW  723   0.765   1.330   0.311
  184SOL    HW1  724   0.732   1.241   0.324
  184SOL    HW2  725   0.853   1.329   0.348
  185SOL     OW  726   0.619   1.564   1.284
  185SOL    HW1  727   0.627   1.644   1.335
  185SOL    HW2  728   0.706   1.551   1.246
  186SOL     OW  729   1.349   0.043   0.183
  186SOL    HW1  730   1.402   2.999   0.116
  186SOL    HW2  731   1.259   0.019   0.162
  187SOL     OW  732   0.065   1.087   0.339
  187SOL    HW1  733   0.145   1.054   0.299
  187SOL    HW2  734   0.005   1.013   0.337
  188SOL     OW  735   0.880   1.649   0.346
  188SOL    HW1  736   0.809   1.627   0.284
  188SOL    HW2  737   0.846   1.724   0.394
  189SOL     OW  738   0.226   0.654   1.969
  189SOL    HW1  739   0.166   0.608   2.028
  189SOL    HW2  740   0.228   0.600   1.890
  190SOL     OW  741   0.248   0.192   2.909
  190SOL    HW1  742   0.217   0.229   2.992
  190SOL    HW2  743   0.190   0.230   2.843
  191SOL     OW  744   2.992   0.407   2.500
  191SOL    HW1  745   2.906   0.416   2.539
  191SOL    HW2  746   2.996   0.316   2.471
  192SOL     OW  747   1.555   1.511   2.567
  192SOL    HW1  748   1.508   1.495   2.648
  192SOL    HW2  749   1.486   1.518   2.500
  193SOL     OW  750   1.132   0.700   2.567
  193SOL    HW1  751   1.181   0.781   2.555
  193SOL    HW2  752   1.081   0.714   2.647
  194SOL     OW  753   1.763   0.607   2.093
  194SOL    HW1  754   1.740   0.592   2.002
  194SOL    HW2  755   1.727   0.531   2.140
  195SOL     OW  756   0.754   1.145   2.892
  195SOL    HW1  757   0.688   1.187   2.947
  195SOL    HW2  758   0.805   1.218   2.856
  196SOL     OW  759   0.686   1.014   2.513
  196SOL    HW1  760   0.749   0.993   2.581
  196SOL    HW2  761   0.615   1.059   2.558
  197SOL     OW  762   0.328   1.455   2.931
  197SOL    HW1  763   0.275   1.389   2.886
  197SOL    HW2  764   0.386   1.490   2.863
  198SOL     OW  765   1.615   0.456   2.591
  198SOL    HW1  766   1.533   0.478   2.547
  198SOL    HW2  767   1.624   0.521   2.661
  199SOL     OW  768   0.222   1.712   2.345
  199SOL    HW1  769   0.246   1.794   2.388
  199SOL    HW2  770   0.280   1.707   2.270
  200SOL     OW  771   0.243   1.445   2.388
  200SOL    HW1  772   0.211   1.535   2.392
  200SOL    HW2  773   0.183   1.396   2.445
  201SOL     OW  774   0.236   1.084   2.746
  201SOL    HW1  775   0.257   1.004   2.795
  201SOL    HW2  776   0.195   1.142   2.810
  202SOL     OW  777   0.590   0.977   1.994
  202SOL    HW1  778   0.627   1.033   1.927
  202SOL    HW2  779   0.636   1.002   2.074
  203SOL     OW  780   0.121   0.634   2.428
  203SOL    HW1  781   0.094   0.549   2.463
  203SOL    HW2  782   0.116   0.693   2.503
  204SOL     OW  783   1.844   1.758   2.199
  204SOL    HW1  784   1.888   1.735   2.282
  204SOL    HW2  785   1.867   1.850   2.185
  205SOL     OW  786   0.028   1.598   1.992
  205SOL    HW1  787   0.022   1.503   2.006
  205SOL    HW2  788   2.985   1.636   2.068
  206SOL     OW  789   1.692   0.922   2.496
  206SOL    HW1  790   1.778   0.883   2.481
  206SOL    HW2  791   1.671   0.969   2.415
  207SOL     OW  792   1.645   1.110   2.290
  207SOL    HW1  793   1.732   1.118   2.251
  207SOL    HW2  794   1.648   1.167   2.367
  208SOL     OW  795   0.610   1.377   2.593
  208SOL    HW1  796   0.563   1.294   2.601
  208SOL    HW2  797   0.592   1.406   2.503
  209SOL     OW  798   0.811   0.009   2.329
  209SOL    HW1  799   0.842   0.095   2.355
  209SOL    HW2  800   0.721   0.005   2.361
  210SOL     OW  801   1.540   0.989   2.051
  210SOL    HW1  802   1.461   0.940   2.075
  210SOL    HW2  803   1.570   1.028   2.134
  211SOL     OW  804   1.442   1.422   2.804
  211SOL    HW1  805   1.413   1.420   2.896
  211SOL    HW2  806   1.449   1.330   2.779
  212SOL     OW  807   1.669   1.725   2.437
  212SOL    HW1  808   1.631   1.701   2.352
  212SOL    HW2  809   1.640   1.656   2.496
  213SOL     OW  810   0.593   0.723   2.125
  213SOL    HW1  811   0.606   0.802   2.073
  213SOL    HW2  812   0.530   0.748   2.192
  214SOL     OW  813   1.296   0.332   2.805
  214SOL    HW1  814   1.203   0.312   2.796
  214SOL    HW2  815   1.320   0.295   2.889
  215SOL     OW  816   1.580   1.676   2.174
  215SOL    HW1  817   1.669   1.710   2.170
  215SOL    HW2  818   1.566   1.634   2.089
  216SOL     OW  819   1.043   0.706   2.298
  216SOL    HW1  820   1.057   0.694   2.392
  216SOL    HW2  821   0.965   0.654   2.279
  217SOL     OW  822   0.100   0.822   2.626
  217SOL    HW1  823   0.179   0.805   2.678
  217SOL    HW2  824   0.054   0.889   2.676
  218SOL     OW  825   0.866   0.348   2.053
  218SOL    HW1  826   0.938   0.401   2.020
  218SOL    HW2  827   0.891   0.258   2.030
  219SOL     OW  828   1.375   1.144   2.406
  219SOL    HW1  829   1.450   1.126   2.350
  219SOL    HW2  830   1.322   1.205   2.356
  220SOL     OW  831   0.554   0.199   2.813
  220SOL    HW1  832   0.493   0.230   2.879
  220SOL    HW2  833   0.532   0.249   2.734
  221SOL     OW  834   1.010   1.448   2.337
  221SOL    HW1  835   0.967   1.519   2.289
  221SOL    HW2  836   0.998   1.470   2.429
  222SOL     OW  837   0.352   1.799   2.711
  222SOL    HW1  838   0.401   1.718   2.728
  222SOL    HW2  839   0.414   1.869   2.731
  223SOL     OW  840   1.802   1.064   2.721
  223SOL    HW1  841   1.741   1.045   2.650
  223SOL    HW2  842   1.748   1.065   2.800
  224SOL     OW  843   0.315   0.952   2.102
  224SOL    HW1  844   0.400   0.974   2.065
  224SOL    HW2  845   0.295   0.865   2.067
  225SOL     OW  846   1.471   0.741   2.588
  225SOL    HW1  847   1.461   0.683   2.663
  225SOL    HW2  848   1.551   0.790   2.605
  226SOL     OW  849   1.115   1.775   2.114
  226SOL    HW1  850   1.044   1.725   2.155
  226SOL    HW2  851   1.136   1.726   2.034
  227SOL     OW  852   1.602   1.408   2.017
  227SOL    HW1  853   1.603   1.474   1.948
  227SOL    HW2  854   1.548   1.338   1.982
  228SOL     OW  855   0.467   1.741   2.183
  228SOL    HW1  856   0.503   1.794   2.253
  228SOL    HW2  857   0.542   1.718   2.128
  229SOL     OW  858   1.409   0.110   2.294
  229SOL    HW1  859   1.392   0.076   2.207
  229SOL    HW2  860   1.503   0.127   2.296
  230SOL     OW  861   0.262   1.798   0.100
  230SOL    HW1  862   0.302   1.728   0.151
  230SOL    HW2  863   0.213   1.752   0.031
  231SOL     OW  864   0.941   1.693   2.761
  231SOL    HW1  865   1.018   1.637   2.768
  231SOL    HW2  866   0.886   1.651   2.694
  232SOL     OW  867   0.386   0.700   2.337
  232SOL    HW1  868   0.420   0.611   2.344
  232SOL    HW2  869   0.294   0.693   2.366
  233SOL     OW  870   0.625   0.132   1.967
  233SOL    HW1  871   0.706   0.082   1.980
  233SOL    HW2  872   0.590   0.099   1.884
  234SOL     OW  873   0.803   1.407   2.786
  234SOL    HW1  874   0.890   1.395   2.747
  234SOL    HW2  875   0.743   1.393   2.713
  235SOL     OW  876   0.921   0.521   2.758
  235SOL    HW1  877   0.905   0.499   2.667
  235SOL    HW2  878   0.947   0.439   2.799
  236SOL     OW  879   0.529   0.041   2.346
  236SOL    HW1  880   0.449   0.043   2.400
  236SOL    HW2  881   0.534   0.130   2.309
  237SOL     OW  882   0.301   0.029   2.035
  237SOL    HW1  883   0.346   0.114   2.028
  237SOL    HW2  884   0.357   2.977   2.092
  238SOL     OW  885   0.937   0.249   2.335
  238SOL    HW1  886   0.906   0.292   2.256
  238SOL    HW2  887   1.033   0.257   2.331
  239SOL     OW  888   1.222   1.579   2.664
  239SOL    HW1  889   1.246   1.641   2.594
  239SOL    HW2  890   1.301   1.572   2.718
  240SOL     OW  891   0.461   1.146   2.604
  240SOL    HW1  892   0.388   1.128   2.663
  240SOL    HW2  893   0.427   1.128   2.516
  241SOL     OW  894   1.274   1.797   2.465
  241SOL    HW1  895   1.313   1.860   2.404
  241SOL    HW2  896   1.209   1.848   2.513
  242SOL     OW  897   0.879   0.471   2.495
  242SOL    HW1  898   0.817   0.511   2.433
  242SOL    HW2  899   0.883   0.379   2.469
  243SOL     OW  900   1.032   0.006   2.577
  243SOL    HW1  901   0.957   0.050   2.536
  243SOL    HW2  902   1.003   2.986   2.666
  244SOL     OW  903   1.438   1.161   2.715
  244SOL    HW1  904   1.366   1.098   2.713
  244SOL    HW2  905   1.456   1.180   2.623
  245SOL     OW  906   1.490   0.583   2.823
  245SOL    HW1  907   1.425   0.513   2.830
  245SOL    HW2  908   1.511   0.605   2.914
  246SOL     OW  909   1.849   0.821   2.241
  246SOL    HW1  910   1.903   0.768   2.300
  246SOL    HW2  911   1.819   0.760   2.175
  247SOL     OW  912   0.493   1.409   2.027
  247SOL    HW1  913   0.417   1.380   2.077
  247SOL    HW2  914   0.467   1.398   1.936
  248SOL     OW  915   1.668   1.268   2.510
  248SOL    HW1  916   1.762   1.276   2.526
  248SOL    HW2  917   1.632   1.354   2.534
  249SOL     OW  918   0.523   0.262   2.180
  249SOL    HW1  919   0.564   0.208   2.112
  249SOL    HW2  920   0.517   0.349   2.141
  250SOL     OW  921   1.647   1.102   2.933
  250SOL    HW1  922   1.647   1.170   0.000
  250SOL    HW2  923   1.560   1.108   2.892
  251SOL     OW  924   0.707   1.060   2.236
  251SOL    HW1  925   0.694   1.048   2.330
  251SOL    HW2  926   0.783   1.006   2.215
  252SOL     OW  927   0.355   1.105   2.356
  252SOL    HW1  928   0.359   1.177   2.293
  252SOL    HW2  929   0.361   1.026   2.303
  253SOL     OW  930   0.557   0.555   2.736
  253SOL    HW1  931   0.579   0.600   2.655
  253SOL    HW2  932   0.628   0.576   2.796
  254SOL     OW  933   1.250   1.345   2.261
  254SOL    HW1  934   1.302   1.420   2.288
  254SOL    HW2  935   1.161   1.365   2.289
  255SOL     OW  936   1.586   0.631   2.337
  255SOL    HW1  937   1.541   0.686   2.401
  255SOL    HW2  938   1.625   0.692   2.276
  256SOL     OW  939   0.576   0.870   2.878
  256SOL    HW1  940   0.619   0.954   2.864
  256SOL    HW2  941   0.542   0.875   2.968
  257SOL     OW  942   1.197   0.535   2.158
  257SOL    HW1  943   1.211   0.456   2.211
  257SOL    HW2  944   1.153   0.595   2.217
  258SOL     OW  945   0.741   0.646   2.923
  258SOL    HW1  946   0.799   0.613   2.854
  258SOL    HW2  947   0.703   0.726   2.886
  259SOL     OW  948   0.301   0.061   2.495
  259SOL    HW1  949   0.302   0.148   2.535
  259SOL    HW2  950   0.279   0.002   2.567
  260SOL     OW  951   1.610   0.372   2.232
  260SOL    HW1  952   1.643   0.309   2.296
  260SOL    HW2  953   1.585   0.448   2.284
  261SOL     OW  954   1.024   0.765   2.822
  261SOL    HW1  955   1.027   0.774   2.917
  261SOL    HW2  956   0.997   0.675   2.806
  262SOL     OW  957   1.533   0.275   1.991
  262SOL    HW1  958   1.473   0.207   2.021
  262SOL    HW2  959   1.564   0.317   2.072
  263SOL     OW  960   1.304   0.832   1.896
  263SOL    HW1  961   1.323   0.741   1.914
  263SOL    HW2  962   1.322   0.842   1.802
  264SOL     OW  963   1.055   1.345   2.700
  264SOL    HW1  964   1.065   1.262   2.653
  264SOL    HW2  965   1.130   1.397   2.674
  265SOL     OW  966   0.311   0.812   2.816
  265SOL    HW1  967   0.404   0.830   2.809
  265SOL    HW2  968   0.306   0.721   2.846
  266SOL     OW  969   0.331   0.515   2.883
  266SOL    HW1  970   0.291   0.440   2.839
  266SOL    HW2  971   0.409   0.534   2.832
  267SOL     OW  972   2.997   1.319   2.045
  267SOL    HW1  973   2.903   1.325   2.030
  267SOL    HW2  974   0.009   1.237   2.092
  268SOL     OW  975   0.092   1.815   2.805
  268SOL    HW1  976   0.056   1.735   2.768
  268SOL    HW2  977   0.183   1.818   2.774
  269SOL     OW  978   0.504   1.573   2.761
  269SOL    HW1  979   0.574   1.635   2.785
  269SOL    HW2  980   0.550   1.503   2.715
  270SOL     OW  981   0.986   0.769   0.089
  270SOL    HW1  982   1.027   0.747   0.173
  270SOL    HW2  983   0.892   0.762   0.106
  271SOL     OW  984   0.816   0.572   2.206
  271SOL    HW1  985   0.811   0.491   2.154
  271SOL    HW2  986   0.736   0.619   2.183
  272SOL     OW  987   0.689   0.462   0.112
  272SOL    HW1  988   0.631   0.396   0.074
  272SOL    HW2  989   0.706   0.523   0.041
  273SOL     OW  990   0.471   0.495   2.040
  273SOL    HW1  991   0.528   0.568   2.063
  273SOL    HW2  992   0.382   0.528   2.056
  274SOL     OW  993   1.304   0.862   2.172
  274SOL    HW1  994   1.232   0.824   2.222
  274SOL    HW2  995   1.283   0.842   2.081
  275SOL     OW  996   1.733   1.764   2.971
  275SOL    HW1  997   1.816   1.788   2.930
  275SOL    HW2  998   1.751   1.683   0.018
  276SOL     OW  999   0.078   1.250   2.898
  276SOL    HW1 1000   0.052   1.271   2.988
  276SOL    HW2 1001   2.998   1.265   2.847
  277SOL     OW 1002   1.722   0.142   2.373
  277SOL    HW1 1003   1.787   0.131   2.304
  277SOL    HW2 1004   1.722   0.058   2.419
  278SOL     OW 1005   1.390   1.569   2.344
  278SOL    HW1 1006   1.450   1.599   2.276
  278SOL    HW2 1007   1.343   1.648   2.371
  279SOL     OW 1008   1.277   0.926   2.534
  279SOL    HW1 1009   1.348   0.862   2.538
  279SOL    HW2 1010   1.312   0.998   2.481
  280SOL     OW 1011   0.673   1.614   2.016
  280SOL    HW1 1012   0.677   1.623   1.921
  280SOL    HW2 1013   0.622   1.535   2.030
  281SOL     OW 1014   1.851   0.163   2.817
  281SOL    HW1 1015   1.852   0.078   2.774
  281SOL    HW2 1016   1.764   0.199   2.798
  282SOL     OW 1017   0.912   0.910   2.158
  282SOL    HW1 1018   0.972   0.934   2.087
  282SOL    HW2 1019   0.954   0.836   2.201
  283SOL     OW 1020   1.047   1.103   2.566
  283SOL    HW1 1021   0.975   1.053   2.606
  283SOL    HW2 1022   1.105   1.036   2.529
  284SOL     OW 1023   0.602   1.492   2.344
  284SOL    HW1 1024   0.635   1.437   2.273
  284SOL    HW2 1025   0.535   1.547   2.303
  285SOL     OW 1026   0.254   1.348   2.144
  285SOL    HW1 1027   0.160   1.345   2.128
  285SOL    HW2 1028   0.263   1.386   2.232
  286SOL     OW 1029   0.096   0.333   1.911
  286SOL    HW1 1030   0.010   0.303   1.883
  286SOL    HW2 1031   0.110   0.415   1.865
  287SOL     OW 1032   0.025   0.201   2.142
  287SOL    HW1 1033   0.067   0.265   2.085
  287SOL    HW2 1034   0.097   0.146   2.173
  288SOL     OW 1035   1.175   1.370   1.999
  288SOL    HW1 1036   1.090   1.327   1.996
  288SOL    HW2 1037   1.209   1.350   2.086
  289SOL     OW 1038   1.502   1.776   2.826
  289SOL    HW1 1039   1.519   1.833   2.751
  289SOL    HW2 1040   1.580   1.785   2.881
  290SOL     OW 1041   1.719   0.855   0.074
  290SOL    HW1 1042   1.639   0.805   0.087
  290SOL    HW2 1043   1.688   0.943   0.053
  291SOL     OW 1044   1.225   0.315   2.317
  291SOL    HW1 1045   1.288   0.242   2.318
  291SOL    HW2 1046   1.244   0.363   2.397
  292SOL     OW 1047   0.595   0.744   2.524
  292SOL    HW1 1048   0.633   0.830   2.504
  292SOL    HW2 1049   0.519   0.737   2.466
  293SOL     OW 1050   0.864   1.368   1.887
  293SOL    HW1 1051   0.821   1.379   1.972
  293SOL    HW2 1052   0.888   1.457   1.861
  294SOL     OW 1053   0.660   1.797   2.821
  294SOL    HW1 1054   0.635   1.884   2.788
  294SOL    HW2 1055   0.754   1.792   2.806
  295SOL     OW 1056   0.863   0.963   2.716
  295SOL    HW1 1057   0.913   0.893   2.757
  295SOL    HW2 1058   0.832   1.017   2.790
  296SOL     OW 1059   1.067   0.964   1.949
  296SOL    HW1 1060   1.060   1.033   1.882
  296SOL    HW2 1061   1.153   0.926   1.935
  297SOL     OW 1062   1.859   1.559   2.708
  297SOL    HW1 1063   1.780   1.547   2.655
  297SOL    HW2 1064   1.860   1.483   2.767
  298SOL     OW 1065   0.122   1.250   2.523
  298SOL    HW1 1066   0.088   1.187   2.586
  298SOL    HW2 1067   0.177   1.199   2.464
  299SOL     OW 1068   1.820   0.195   0.083
  299SOL    HW1 1069   1.830   0.107   0.122
  299SOL    HW2 1070   1.828   0.180   2.989
  300SOL     OW 1071   0.458   0.446   2.369
  300SOL    HW1 1072   0.462   0.366   2.317
  300SOL    HW2 1073   0.416   0.420   2.450
  301SOL     OW 1074   0.820   1.583   2.541
  301SOL    HW1 1075   0.821   1.616   2.451
  301SOL    HW2 1076   0.742   1.528   2.546
  302SOL     OW 1077   0.774   1.330   2.165
  302SOL    HW1 1078   0.735   1.243   2.176
  302SOL    HW2 1079   0.854   1.328   2.217
  303SOL     OW 1080   1.361   0.044   2.033
  303SOL    HW1 1081   1.407   2.985   1.973
  303SOL    HW2 1082   1.273   0.007   2.041
  304SOL     OW 1083   1.304   0.459   2.551
  304SOL    HW1 1084   1.242   0.532   2.558
  304SOL    HW2 1085   1.297   0.414   2.635
  305SOL     OW 1086   1.601   0.237   2.754
  305SOL    HW1 1087   1.510   0.222   2.780
  305SOL    HW2 1088   1.596   0.308   2.690
  306SOL     OW 1089   0.059   1.081   2.163
  306SOL    HW1 1090   0.149   1.048   2.162
  306SOL    HW2 1091   0.008   1.011   2.203
  307SOL     OW 1092   0.878   1.647   2.207
  307SOL    HW1 1093   0.806   1.627   2.147
  307SOL    HW2 1094   0.849   1.723   2.256
  308SOL     OW 1095   0.230   2.515   0.099
  308SOL    HW1 1096   0.166   2.468   0.152
  308SOL    HW2 1097   0.245   2.458   0.023
  309SOL     OW 1098   0.213   2.138   0.990
  309SOL    HW1 1099   0.248   2.110   1.075
  309SOL    HW2 1100   0.129   2.093   0.983
  310SOL     OW 1101   0.015   2.246   0.644
  310SOL    HW1 1102   2.930   2.278   0.673
  310SOL    HW2 1103   2.996   2.164   0.599
  311SOL     OW 1104   1.137   2.565   0.711
  311SOL    HW1 1105   1.181   2.649   0.695
  311SOL    HW2 1106   1.080   2.582   0.786
  312SOL     OW 1107   1.761   2.459   0.230
  312SOL    HW1 1108   1.744   2.442   0.138
  312SOL    HW2 1109   1.726   2.382   0.275
  313SOL     OW 1110   0.765   0.013   1.035
  313SOL    HW1 1111   0.677   0.035   1.066
  313SOL    HW2 1112   0.785   0.080   0.970
  314SOL     OW 1113   0.850   2.651   1.814
  314SOL    HW1 1114   0.840   2.713   1.886
  314SOL    HW2 1115   0.880   2.705   1.741
  315SOL     OW 1116   0.654   2.853   0.711
  315SOL    HW1 1117   0.749   2.861   0.719
  315SOL    HW2 1118   0.626   2.934   0.670
  316SOL     OW 1119   0.468   2.268   1.491
  316SOL    HW1 1120   0.535   2.200   1.497
  316SOL    HW2 1121   0.386   2.222   1.505
  317SOL     OW 1122   1.621   2.316   0.736
  317SOL    HW1 1123   1.544   2.344   0.685
  317SOL    HW2 1124   1.642   2.392   0.791
  318SOL     OW 1125   0.217   0.308   0.473
  318SOL    HW1 1126   0.215   0.388   0.526
  318SOL    HW2 1127   0.185   0.239   0.532
  319SOL     OW 1128   0.234   2.946   0.879
  319SOL    HW1 1129   0.256   2.867   0.927
  319SOL    HW2 1130   0.197   0.005   0.946
  320SOL     OW 1131   0.612   2.829   0.144
  320SOL    HW1 1132   0.609   2.916   0.103
  320SOL    HW2 1133   0.666   2.842   0.222
  321SOL     OW 1134   0.122   2.496   0.567
  321SOL    HW1 1135   0.091   2.412   0.601
  321SOL    HW2 1136   0.114   2.556   0.640
  322SOL     OW 1137   1.699   2.807   0.623
  322SOL    HW1 1138   1.776   2.750   0.629
  322SOL    HW2 1139   1.687   2.822   0.529
  323SOL     OW 1140   0.123   2.608   1.589
  323SOL    HW1 1141   0.217   2.616   1.609
  323SOL    HW2 1142   0.088   2.696   1.601
  324SOL     OW 1143   0.653   0.243   0.692
  324SOL    HW1 1144   0.594   0.171   0.712
  324SOL    HW2 1145   0.609   0.291   0.621
  325SOL     OW 1146   1.277   0.073   1.438
  325SOL    HW1 1147   1.320   0.023   1.369
  325SOL    HW2 1148   1.348   0.105   1.493
  326SOL     OW 1149   0.810   1.860   0.502
  326SOL    HW1 1150   0.850   1.947   0.492
  326SOL    HW2 1151   0.717   1.879   0.513
  327SOL     OW 1152   0.192   2.836   1.256
  327SOL    HW1 1153   0.275   2.789   1.249
  327SOL    HW2 1154   0.126   2.770   1.233
  328SOL     OW 1155   1.532   2.837   0.202
  328SOL    HW1 1156   1.453   2.796   0.238
  328SOL    HW2 1157   1.582   2.864   0.279
  329SOL     OW 1158   0.331   2.113   1.800
  329SOL    HW1 1159   0.382   2.191   1.822
  329SOL    HW2 1160   0.246   2.128   1.843
  330SOL     OW 1161   0.594   2.584   0.267
  330SOL    HW1 1162   0.604   2.662   0.212
  330SOL    HW2 1163   0.528   2.608   0.331
  331SOL     OW 1164   0.799   2.477   1.455
  331SOL    HW1 1165   0.767   2.459   1.544
  331SOL    HW2 1166   0.751   2.415   1.400
  332SOL     OW 1167   0.968   2.757   1.584
  332SOL    HW1 1168   1.016   2.684   1.547
  332SOL    HW2 1169   0.912   2.789   1.512
  333SOL     OW 1170   0.969   2.294   1.234
  333SOL    HW1 1171   0.887   2.307   1.281
  333SOL    HW2 1172   0.950   2.226   1.170
  334SOL     OW 1173   1.047   2.565   0.424
  334SOL    HW1 1174   1.060   2.556   0.518
  334SOL    HW2 1175   0.966   2.516   0.406
  335SOL     OW 1176   0.098   2.670   0.770
  335SOL    HW1 1177   0.179   2.673   0.821
  335SOL    HW2 1178   0.050   2.749   0.796
  336SOL     OW 1179   0.926   2.195   0.220
  336SOL    HW1 1180   0.930   2.260   0.149
  336SOL    HW2 1181   0.891   2.116   0.178
  337SOL     OW 1182   0.546   2.049   0.891
  337SOL    HW1 1183   0.550   2.074   0.984
  337SOL    HW2 1184   0.551   2.133   0.844
  338SOL     OW 1185   1.797   2.919   0.862
  338SOL    HW1 1186   1.741   2.889   0.790
  338SOL    HW2 1187   1.740   2.921   0.938
  339SOL     OW 1188   1.474   2.598   0.728
  339SOL    HW1 1189   1.459   2.546   0.806
  339SOL    HW2 1190   1.552   2.651   0.750
  340SOL     OW 1191   0.231   2.165   1.508
  340SOL    HW1 1192   0.149   2.209   1.484
  340SOL    HW2 1193   0.203   2.091   1.563
  341SOL     OW 1194   1.401   1.970   0.428
  341SOL    HW1 1195   1.389   1.946   0.337
  341SOL    HW2 1196   1.496   1.978   0.439
  342SOL     OW 1197   0.387   2.557   0.478
  342SOL    HW1 1198   0.415   2.466   0.482
  342SOL    HW2 1199   0.294   2.556   0.501
  343SOL     OW 1200   0.625   1.986   0.116
  343SOL    HW1 1201   0.717   1.961   0.119
  343SOL    HW2 1202   0.591   1.944   0.037
  344SOL     OW 1203   0.769   2.128   1.747
  344SOL    HW1 1204   0.846   2.082   1.780
  344SOL    HW2 1205   0.714   2.140   1.825
  345SOL     OW 1206   0.926   2.374   0.899
  345SOL    HW1 1207   0.900   2.364   0.808
  345SOL    HW2 1208   0.965   2.290   0.922
  346SOL     OW 1209   0.547   1.924   0.508
  346SOL    HW1 1210   0.465   1.927   0.557
  346SOL    HW2 1211   0.544   2.001   0.452
  347SOL     OW 1212   0.936   2.104   0.473
  347SOL    HW1 1213   0.909   2.142   0.389
  347SOL    HW2 1214   1.032   2.110   0.472
  348SOL     OW 1215   1.080   2.536   1.465
  348SOL    HW1 1216   0.999   2.485   1.464
  348SOL    HW2 1217   1.148   2.474   1.439
  349SOL     OW 1218   1.047   2.367   0.024
  349SOL    HW1 1219   0.995   2.444   0.002
  349SOL    HW2 1220   1.106   2.395   0.094
  350SOL     OW 1221   0.084   2.416   1.397
  350SOL    HW1 1222   0.170   2.422   1.355
  350SOL    HW2 1223   0.084   2.488   1.460
  351SOL     OW 1224   0.564   2.088   1.163
  351SOL    HW1 1225   0.595   2.001   1.188
  351SOL    HW2 1226   0.472   2.089   1.189
  352SOL     OW 1227   0.871   2.323   0.639
  352SOL    HW1 1228   0.823   2.376   0.576
  352SOL    HW2 1229   0.889   2.241   0.592
  353SOL     OW 1230   1.026   1.904   0.745
  353SOL    HW1 1231   0.956   1.908   0.680
  353SOL    HW2 1232   0.997   1.838   0.808
  354SOL     OW 1233   1.432   0.038   0.870
  354SOL    HW1 1234   1.374   2.961   0.864
  354SOL    HW2 1235   1.448   0.063   0.780
  355SOL     OW 1236   1.470   2.465   0.986
  355SOL    HW1 1237   1.441   2.374   0.991
  355SOL    HW2 1238   1.537   2.472   1.054
  356SOL     OW 1239   1.835   2.672   0.391
  356SOL    HW1 1240   1.899   2.620   0.439
  356SOL    HW2 1241   1.818   2.621   0.311
  357SOL     OW 1242   1.411   2.441   0.098
  357SOL    HW1 1243   1.338   2.426   0.158
  357SOL    HW2 1244   1.465   2.362   0.105
  358SOL     OW 1245   0.523   2.124   0.327
  358SOL    HW1 1246   0.556   2.071   0.254
  358SOL    HW2 1247   0.509   2.210   0.290
  359SOL     OW 1248   1.784   0.069   1.586
  359SOL    HW1 1249   1.874   0.036   1.581
  359SOL    HW2 1250   1.792   0.153   1.631
  360SOL     OW 1251   1.633   2.962   1.071
  360SOL    HW1 1252   1.634   0.015   1.151
  360SOL    HW2 1253   1.542   2.966   1.041
  361SOL     OW 1254   0.414   2.677   1.253
  361SOL    HW1 1255   0.485   2.684   1.316
  361SOL    HW2 1256   0.378   2.589   1.266
  362SOL     OW 1257   0.559   2.399   0.862
  362SOL    HW1 1258   0.574   2.455   0.786
  362SOL    HW2 1259   0.617   2.435   0.930
  363SOL     OW 1260   1.584   2.490   0.476
  363SOL    HW1 1261   1.541   2.552   0.536
  363SOL    HW2 1262   1.632   2.546   0.415
  364SOL     OW 1263   0.410   2.601   1.600
  364SOL    HW1 1264   0.468   2.651   1.544
  364SOL    HW2 1265   0.458   2.521   1.620
  365SOL     OW 1266   1.589   2.662   1.686
  365SOL    HW1 1267   1.500   2.675   1.652
  365SOL    HW2 1268   1.646   2.692   1.615
  366SOL     OW 1269   0.501   1.907   1.743
  366SOL    HW1 1270   0.459   1.851   1.677
  366SOL    HW2 1271   0.438   1.977   1.759
  367SOL     OW 1272   0.593   2.730   1.041
  367SOL    HW1 1273   0.596   2.820   1.010
  367SOL    HW2 1274   0.522   2.729   1.105
  368SOL     OW 1275   1.353   2.723   1.041
  368SOL    HW1 1276   1.284   2.712   0.975
  368SOL    HW2 1277   1.396   2.637   1.044
  369SOL     OW 1278   1.210   2.394   0.274
  369SOL    HW1 1279   1.213   2.310   0.320
  369SOL    HW2 1280   1.164   2.453   0.335
  370SOL     OW 1281   0.302   2.066   1.241
  370SOL    HW1 1282   0.281   2.097   1.329
  370SOL    HW2 1283   0.283   1.972   1.243
  371SOL     OW 1284   0.055   0.170   1.273
  371SOL    HW1 1285   0.087   0.136   1.356
  371SOL    HW2 1286   0.026   0.259   1.292
  372SOL     OW 1287   0.732   2.495   1.065
  372SOL    HW1 1288   0.796   2.476   0.997
  372SOL    HW2 1289   0.698   2.582   1.043
  373SOL     OW 1290   1.738   2.819   1.847
  373SOL    HW1 1291   1.686   2.763   1.789
  373SOL    HW2 1292   1.683   2.830   1.925
  374SOL     OW 1293   0.301   1.931   0.622
  374SOL    HW1 1294   0.286   2.021   0.651
  374SOL    HW2 1295   0.307   1.881   0.703
  375SOL     OW 1296   1.616   2.232   0.370
  375SOL    HW1 1297   1.639   2.167   0.436
  375SOL    HW2 1298   1.587   2.308   0.421
  376SOL     OW 1299   1.027   2.620   0.969
  376SOL    HW1 1300   1.028   2.634   1.064
  376SOL    HW2 1301   0.997   2.530   0.958
  377SOL     OW 1302   0.355   2.786   1.796
  377SOL    HW1 1303   0.419   2.787   1.867
  377SOL    HW2 1304   0.382   2.713   1.741
  378SOL     OW 1305   1.513   2.158   0.125
  378SOL    HW1 1306   1.472   2.073   0.142
  378SOL    HW2 1307   1.563   2.176   0.205
  379SOL     OW 1308   1.298   2.690   0.038
  379SOL    HW1 1309   1.337   2.603   0.048
  379SOL    HW2 1310   1.320   2.716   2.949
  380SOL     OW 1311   0.314   2.679   0.955
  380SOL    HW1 1312   0.407   2.690   0.936
  380SOL    HW2 1313   0.306   2.589   0.988
  381SOL     OW 1314   0.339   2.377   1.013
  381SOL    HW1 1315   0.296   2.294   0.990
  381SOL    HW2 1316   0.412   2.384   0.951
  382SOL     OW 1317   1.114   2.223   1.687
  382SOL    HW1 1318   1.090   2.297   1.743
  382SOL    HW2 1319   1.208   2.234   1.671
  383SOL     OW 1320   0.991   2.666   1.236
  383SOL    HW1 1321   1.040   2.633   1.311
  383SOL    HW2 1322   0.907   2.621   1.239
  384SOL     OW 1323   0.048   2.435   1.113
  384SOL    HW1 1324   0.122   2.386   1.077
  384SOL    HW2 1325   0.037   2.400   1.201
  385SOL     OW 1326   0.196   2.379   1.719
  385SOL    HW1 1327   0.265   2.356   1.657
  385SOL    HW2 1328   0.156   2.458   1.683
  386SOL     OW 1329   1.358   2.820   1.653
  386SOL    HW1 1330   1.420   2.892   1.664
  386SOL    HW2 1331   1.372   2.790   1.563
  387SOL     OW 1332   0.818   2.435   0.348
  387SOL    HW1 1333   0.819   2.359   0.290
  387SOL    HW2 1334   0.738   2.483   0.325
  388SOL     OW 1335   1.647   2.483   1.186
  388SOL    HW1 1336   1.633   2.434   1.266
  388SOL    HW2 1337   1.732   2.452   1.154
  389SOL     OW 1338   0.691   2.316   1.265
  389SOL    HW1 1339   0.639   2.243   1.232
  389SOL    HW2 1340   0.693   2.378   1.193
  390SOL     OW 1341   0.439   2.359   0.209
  390SOL    HW1 1342   0.513   2.420   0.215
  390SOL    HW2 1343   0.364   2.415   0.190
  391SOL     OW 1344   0.163   0.005   1.468
  391SOL    HW1 1345   0.155   2.952   1.547
  391SOL    HW2 1346   0.173   2.942   1.397
  392SOL     OW 1347   1.354   2.934   1.206
  392SOL    HW1 1348   1.362   2.857   1.150
  392SOL    HW2 1349   1.259   2.943   1.221
  393SOL     OW 1350   1.302   2.719   0.314
  393SOL    HW1 1351   1.224   2.682   0.353
  393SOL    HW2 1352   1.292   2.705   0.220
  394SOL     OW 1353   0.897   1.938   0.125
  394SOL    HW1 1354   0.958   1.934   0.051
  394SOL    HW2 1355   0.946   1.899   0.198
  395SOL     OW 1356   1.716   2.002   0.515
  395SOL    HW1 1357   1.794   1.989   0.461
  395SOL    HW2 1358   1.701   1.916   0.556
  396SOL     OW 1359   1.295   2.798   0.684
  396SOL    HW1 1360   1.355   2.724   0.678
  396SOL    HW2 1361   1.302   2.843   0.600
  397SOL     OW 1362   0.269   2.180   0.722
  397SOL    HW1 1363   0.187   2.220   0.692
  397SOL    HW2 1364   0.256   2.170   0.817
  398SOL     OW 1365   0.814   2.864   1.374
  398SOL    HW1 1366   0.865   2.851   1.293
  398SOL    HW2 1367   0.835   2.953   1.401
  399SOL     OW 1368   0.904   2.784   0.293
  399SOL    HW1 1369   0.975   2.814   0.236
  399SOL    HW2 1370   0.946   2.723   0.353
  400SOL     OW 1371   0.116   2.866   1.698
  400SOL    HW1 1372   0.045   2.843   1.759
  400SOL    HW2 1373   0.196   2.853   1.749
  401SOL     OW 1374   0.673   2.056   1.498
  401SOL    HW1 1375   0.756   2.067   1.452
  401SOL    HW2 1376   0.692   2.078   1.589
  402SOL     OW 1377   0.058   2.180   0.046
  402SOL    HW1 1378   2.968   2.197   0.017
  402SOL    HW2 1379   0.109   2.253   0.010
  403SOL     OW 1380   1.434   2.740   1.411
  403SOL    HW1 1381   1.394   2.781   1.334
  403SOL    HW2 1382   1.523   2.718   1.382
  404SOL     OW 1383   0.065   2.054   0.322
  404SOL    HW1 1384   0.054   2.101   0.240
  404SOL    HW2 1385   0.133   1.989   0.305
  405SOL     OW 1386   1.186   0.253   0.127
  405SOL    HW1 1387   1.095   0.237   0.101
  405SOL    HW2 1388   1.191   0.220   0.217
  406SOL     OW 1389   0.614   2.693   1.433
  406SOL    HW1 1390   0.670   2.769   1.418
  406SOL    HW2 1391   0.675   2.620   1.442
  407SOL     OW 1392   0.717   2.428   1.706
  407SOL    HW1 1393   0.745   2.494   1.768
  407SOL    HW2 1394   0.760   2.347   1.735
  408SOL     OW 1395   1.670   2.748   1.253
  408SOL    HW1 1396   1.668   2.657   1.223
  408SOL    HW2 1397   1.670   2.800   1.172
  409SOL     OW 1398   1.222   2.182   0.457
  409SOL    HW1 1399   1.285   2.111   0.447
  409SOL    HW2 1400   1.251   2.229   0.535
  410SOL     OW 1401   0.593   2.591   0.662
  410SOL    HW1 1402   0.622   2.682   0.664
  410SOL    HW2 1403   0.520   2.591   0.599
  411SOL     OW 1404   1.740   2.794   1.512
  411SOL    HW1 1405   1.755   2.887   1.530
  411SOL    HW2 1406   1.726   2.791   1.417
  412SOL     OW 1407   0.888   2.833   0.865
  412SOL    HW1 1408   0.917   2.749   0.902
  412SOL    HW2 1409   0.826   2.867   0.929
  413SOL     OW 1410   1.109   2.891   0.093
  413SOL    HW1 1411   1.068   2.914   0.009
  413SOL    HW2 1412   1.161   2.813   0.073
  414SOL     OW 1413   0.430   2.294   0.526
  414SOL    HW1 1414   0.458   2.224   0.467
  414SOL    HW2 1415   0.385   2.248   0.597
  415SOL     OW 1416   0.330   2.415   1.289
  415SOL    HW1 1417   0.386   2.358   1.342
  415SOL    HW2 1418   0.348   2.388   1.198
  416SOL     OW 1419   1.354   1.913   0.165
  416SOL    HW1 1420   1.378   1.866   0.084
  416SOL    HW2 1421   1.268   1.878   0.188
  417SOL     OW 1422   1.301   2.323   0.685
  417SOL    HW1 1423   1.241   2.397   0.697
  417SOL    HW2 1424   1.301   2.279   0.770
  418SOL     OW 1425   1.514   2.079   0.851
  418SOL    HW1 1426   1.544   2.077   0.942
  418SOL    HW2 1427   1.576   2.137   0.807
  419SOL     OW 1428   0.004   2.897   0.291
  419SOL    HW1 1429   0.092   2.922   0.261
  419SOL    HW2 1430   0.020   2.843   0.369
  420SOL     OW 1431   0.225   2.507   1.964
  420SOL    HW1 1432   0.165   2.461   2.023
  420SOL    HW2 1433   0.223   2.456   1.883
  421SOL     OW 1434   0.235   2.124   2.838
  421SOL    HW1 1435   0.268   2.106   2.926
  421SOL    HW2 1436   0.146   2.087   2.839
  422SOL     OW 1437   0.015   2.246   2.504
  422SOL    HW1 1438   2.931   2.278   2.537
  422SOL    HW2 1439   2.996   2.160   2.468
  423SOL     OW 1440   1.146   2.560   2.580
  423SOL    HW1 1441   1.183   2.645   2.556
  423SOL    HW2 1442   1.082   2.579   2.648
  424SOL     OW 1443   1.767   2.463   2.087
  424SOL    HW1 1444   1.734   2.451   1.998
  424SOL    HW2 1445   1.728   2.393   2.138
  425SOL     OW 1446   0.761   2.996   2.886
  425SOL    HW1 1447   0.679   0.043   2.902
  425SOL    HW2 1448   0.822   0.063   2.856
  426SOL     OW 1449   0.660   2.849   2.545
  426SOL    HW1 1450   0.743   2.849   2.593
  426SOL    HW2 1451   0.629   2.940   2.552
  427SOL     OW 1452   1.617   2.313   2.593
  427SOL    HW1 1453   1.536   2.338   2.549
  427SOL    HW2 1454   1.630   2.380   2.660
  428SOL     OW 1455   0.199   0.311   2.326
  428SOL    HW1 1456   0.224   0.381   2.386
  428SOL    HW2 1457   0.196   0.233   2.380
  429SOL     OW 1458   0.220   2.943   2.743
  429SOL    HW1 1459   0.253   2.870   2.794
  429SOL    HW2 1460   0.222   0.018   2.803
  430SOL     OW 1461   0.614   2.825   1.988
  430SOL    HW1 1462   0.597   2.911   1.949
  430SOL    HW2 1463   0.659   2.844   2.070
  431SOL     OW 1464   0.120   2.494   2.428
  431SOL    HW1 1465   0.092   2.412   2.467
  431SOL    HW2 1466   0.118   2.557   2.501
  432SOL     OW 1467   1.697   2.806   2.483
  432SOL    HW1 1468   1.775   2.751   2.489
  432SOL    HW2 1469   1.687   2.823   2.390
  433SOL     OW 1470   0.649   0.226   2.531
  433SOL    HW1 1471   0.601   0.175   2.597
  433SOL    HW2 1472   0.588   0.295   2.505
  434SOL     OW 1473   0.808   1.858   2.362
  434SOL    HW1 1474   0.852   1.943   2.352
  434SOL    HW2 1475   0.716   1.880   2.377
  435SOL     OW 1476   0.207   2.808   0.110
  435SOL    HW1 1477   0.282   2.750   0.100
  435SOL    HW2 1478   0.131   2.752   0.093
  436SOL     OW 1479   1.554   2.831   2.051
  436SOL    HW1 1480   1.470   2.794   2.078
  436SOL    HW2 1481   1.584   2.881   2.128
  437SOL     OW 1482   0.593   2.582   2.124
  437SOL    HW1 1483   0.608   2.661   2.073
  437SOL    HW2 1484   0.532   2.609   2.192
  438SOL     OW 1485   1.296   2.194   2.804
  438SOL    HW1 1486   1.201   2.179   2.800
  438SOL    HW2 1487   1.322   2.158   2.889
  439SOL     OW 1488   0.101   2.671   2.631
  439SOL    HW1 1489   0.182   2.672   2.682
  439SOL    HW2 1490   0.054   2.750   2.659
  440SOL     OW 1491   0.865   2.203   2.038
  440SOL    HW1 1492   0.934   2.268   2.024
  440SOL    HW2 1493   0.911   2.119   2.039
  441SOL     OW 1494   0.553   2.050   2.762
  441SOL    HW1 1495   0.524   2.079   2.848
  441SOL    HW2 1496   0.559   2.130   2.710
  442SOL     OW 1497   1.798   2.914   2.729
  442SOL    HW1 1498   1.736   2.898   2.658
  442SOL    HW2 1499   1.743   2.919   2.807
  443SOL     OW 1500   1.482   2.595   2.581
  443SOL    HW1 1501   1.459   2.545   2.660
  443SOL    HW2 1502   1.547   2.658   2.612
  444SOL     OW 1503   1.404   1.966   2.285
  444SOL    HW1 1504   1.388   1.929   2.198
  444SOL    HW2 1505   1.498   1.982   2.288
  445SOL     OW 1506   0.394   2.555   2.338
  445SOL    HW1 1507   0.412   2.462   2.352
  445SOL    HW2 1508   0.300   2.564   2.355
  446SOL     OW 1509   0.621   1.988   1.971
  446SOL    HW1 1510   0.701   1.938   1.984
  446SOL    HW2 1511   0.583   1.954   1.890
  447SOL     OW 1512   0.921   2.378   2.760
  447SOL    HW1 1513   0.900   2.358   2.669
  447SOL    HW2 1514   0.959   2.298   2.794
  448SOL     OW 1515   0.547   1.924   2.370
  448SOL    HW1 1516   0.466   1.926   2.421
  448SOL    HW2 1517   0.543   2.003   2.316
  449SOL     OW 1518   0.293   1.904   2.040
  449SOL    HW1 1519   0.352   1.976   2.015
  449SOL    HW2 1520   0.350   1.841   2.083
  450SOL     OW 1521   0.935   2.098   2.328
  450SOL    HW1 1522   0.904   2.156   2.259
  450SOL    HW2 1523   1.029   2.112   2.331
  451SOL     OW 1524   0.865   2.315   2.503
  451SOL    HW1 1525   0.835   2.381   2.442
  451SOL    HW2 1526   0.888   2.240   2.448
  452SOL     OW 1527   1.014   1.910   2.616
  452SOL    HW1 1528   0.956   1.906   2.541
  452SOL    HW2 1529   0.992   1.832   2.668
  453SOL     OW 1530   1.430   2.999   2.732
  453SOL    HW1 1531   1.350   2.952   2.710
  453SOL    HW2 1532   1.444   0.059   2.659
  454SOL     OW 1533   1.492   2.444   2.823
  454SOL    HW1 1534   1.424   2.378   2.836
  454SOL    HW2 1535   1.515   2.472   2.912
  455SOL     OW 1536   1.841   2.671   2.251
  455SOL    HW1 1537   1.900   2.618   2.305
  455SOL    HW2 1538   1.819   2.616   2.177
  456SOL     OW 1539   0.526   2.123   2.185
  456SOL    HW1 1540   0.562   2.073   2.112
  456SOL    HW2 1541   0.514   2.212   2.151
  457SOL     OW 1542   1.629   2.965   2.937
  457SOL    HW1 1543   1.630   0.043   2.994
  457SOL    HW2 1544   1.554   2.979   2.879
  458SOL     OW 1545   0.557   2.398   2.726
  458SOL    HW1 1546   0.572   2.455   2.650
  458SOL    HW2 1547   0.614   2.433   2.794
  459SOL     OW 1548   1.581   2.494   2.332
  459SOL    HW1 1549   1.543   2.545   2.404
  459SOL    HW2 1550   1.629   2.558   2.280
  460SOL     OW 1551   0.572   2.729   2.883
  460SOL    HW1 1552   0.621   2.807   2.857
  460SOL    HW2 1553   0.550   2.743   2.975
  461SOL     OW 1554   0.322   2.063   0.084
  461SOL    HW1 1555   0.306   2.106   0.168
  461SOL    HW2 1556   0.297   1.972   0.099
  462SOL     OW 1557   0.731   2.502   2.918
  462SOL    HW1 1558   0.795   2.479   2.851
  462SOL    HW2 1559   0.699   2.588   2.891
  463SOL     OW 1560   0.301   1.931   2.483
  463SOL    HW1 1561   0.286   2.021   2.511
  463SOL    HW2 1562   0.305   1.881   2.564
  464SOL     OW 1563   1.624   2.240   2.239
  464SOL    HW1 1564   1.638   2.173   2.305
  464SOL    HW2 1565   1.595   2.317   2.288
  465SOL     OW 1566   1.025   2.625   2.826
  465SOL    HW1 1567   1.027   2.632   2.921
  465SOL    HW2 1568   0.998   2.535   2.808
  466SOL     OW 1569   1.552   2.055   2.044
  466SOL    HW1 1570   1.468   2.075   2.002
  466SOL    HW2 1571   1.580   2.138   2.083
  467SOL     OW 1572   1.323   2.728   1.901
  467SOL    HW1 1573   1.343   2.635   1.904
  467SOL    HW2 1574   1.339   2.754   1.810
  468SOL     OW 1575   0.312   2.673   2.814
  468SOL    HW1 1576   0.405   2.694   2.810
  468SOL    HW2 1577   0.309   2.584   2.849
  469SOL     OW 1578   0.325   2.382   2.868
  469SOL    HW1 1579   0.294   2.292   2.851
  469SOL    HW2 1580   0.404   2.390   2.814
  470SOL     OW 1581   0.988   2.622   0.090
  470SOL    HW1 1582   1.027   2.612   0.178
  470SOL    HW2 1583   0.895   2.638   0.107
  471SOL     OW 1584   0.811   2.424   2.206
  471SOL    HW1 1585   0.801   2.351   2.144
  471SOL    HW2 1586   0.739   2.483   2.185
  472SOL     OW 1587   0.702   2.312   0.106
  472SOL    HW1 1588   0.622   2.262   0.088
  472SOL    HW2 1589   0.702   2.382   0.041
  473SOL     OW 1590   0.467   2.357   2.046
  473SOL    HW1 1591   0.528   2.428   2.067
  473SOL    HW2 1592   0.381   2.397   2.051
  474SOL     OW 1593   1.312   2.743   2.175
  474SOL    HW1 1594   1.248   2.692   2.223
  474SOL    HW2 1595   1.297   2.721   2.083
  475SOL     OW 1596   1.720   2.002   2.381
  475SOL    HW1 1597   1.790   1.985   2.317
  475SOL    HW2 1598   1.702   1.916   2.419
  476SOL     OW 1599   1.293   2.790   2.543
  476SOL    HW1 1600   1.359   2.722   2.533
  476SOL    HW2 1601   1.307   2.848   2.467
  477SOL     OW 1602   1.840   2.039   2.823
  477SOL    HW1 1603   1.869   1.952   2.797
  477SOL    HW2 1604   1.750   2.045   2.790
  478SOL     OW 1605   0.270   2.180   2.578
  478SOL    HW1 1606   0.188   2.222   2.554
  478SOL    HW2 1607   0.263   2.168   2.673
  479SOL     OW 1608   0.896   2.763   2.120
  479SOL    HW1 1609   0.974   2.811   2.091
  479SOL    HW2 1610   0.923   2.719   2.200
  480SOL     OW 1611   1.030   2.101   2.814
  480SOL    HW1 1612   1.017   2.054   2.732
  480SOL    HW2 1613   1.008   2.038   2.882
  481SOL     OW 1614   0.091   2.188   1.916
  481SOL    HW1 1615   0.007   2.161   1.878
  481SOL    HW2 1616   0.110   2.272   1.876
  482SOL     OW 1617   0.064   2.052   2.177
  482SOL    HW1 1618   0.072   2.108   2.100
  482SOL    HW2 1619   0.135   1.989   2.168
  483SOL     OW 1620   1.140   0.217   1.990
  483SOL    HW1 1621   1.080   0.147   2.016
  483SOL    HW2 1622   1.203   0.223   2.061
  484SOL     OW 1623   1.728   2.710   0.057
  484SOL    HW1 1624   1.651   2.662   0.089
  484SOL    HW2 1625   1.699   2.801   0.052
  485SOL     OW 1626   1.204   2.154   2.335
  485SOL    HW1 1627   1.281   2.100   2.315
  485SOL    HW2 1628   1.236   2.220   2.397
  486SOL     OW 1629   0.593   2.591   2.523
  486SOL    HW1 1630   0.628   2.681   2.524
  486SOL    HW2 1631   0.521   2.595   2.461
  487SOL     OW 1632   0.861   2.815   2.721
  487SOL    HW1 1633   0.922   2.755   2.762
  487SOL    HW2 1634   0.835   2.875   2.792
  488SOL     OW 1635   1.094   2.865   1.953
  488SOL    HW1 1636   1.063   2.898   1.868
  488SOL    HW2 1637   1.166   2.806   1.930
  489SOL     OW 1638   1.830   2.053   0.094
  489SOL    HW1 1639   1.801   1.963   0.110
  489SOL    HW2 1640   1.829   2.061   2.999
  490SOL     OW 1641   0.422   2.292   2.379
  490SOL    HW1 1642   0.458   2.218   2.330
  490SOL    HW2 1643   0.385   2.252   2.458
  491SOL     OW 1644   1.300   2.321   2.549
  491SOL    HW1 1645   1.245   2.398   2.558
  491SOL    HW2 1646   1.299   2.280   2.636
  492SOL     OW 1647   1.585   2.076   2.740
  492SOL    HW1 1648   1.504   2.093   2.788
  492SOL    HW2 1649   1.595   2.151   2.682
  493SOL     OW 1650   0.019   2.911   2.146
  493SOL    HW1 1651   0.114   2.927   2.147
  493SOL    HW2 1652   0.001   2.869   2.230
  494SOL     OW 1653   2.091   0.639   0.117
  494SOL    HW1 1654   1.999   0.625   0.138
  494SOL    HW2 1655   2.102   0.598   0.031
  495SOL     OW 1656   2.079   0.281   1.002
  495SOL    HW1 1657   2.113   0.250   1.086
  495SOL    HW2 1658   1.992   0.241   0.994
  496SOL     OW 1659   1.873   0.376   0.647
  496SOL    HW1 1660   1.791   0.413   0.681
  496SOL    HW2 1661   1.844   0.305   0.589
  497SOL     OW 1662   2.426   1.277   1.170
  497SOL    HW1 1663   2.340   1.284   1.129
  497SOL    HW2 1664   2.444   1.365   1.204
  498SOL     OW 1665   2.621   1.145   1.033
  498SOL    HW1 1666   2.553   1.177   1.091
  498SOL    HW2 1667   2.658   1.223   0.992
  499SOL     OW 1668   2.715   0.785   1.818
  499SOL    HW1 1669   2.716   0.855   1.884
  499SOL    HW2 1670   2.740   0.829   1.737
  500SOL     OW 1671   2.548   1.011   0.652
  500SOL    HW1 1672   2.609   0.991   0.723
  500SOL    HW2 1673   2.477   1.059   0.694
  501SOL     OW 1674   2.564   1.153   1.808
  501SOL    HW1 1675   2.613   1.233   1.828
  501SOL    HW2 1676   2.480   1.185   1.773
  502SOL     OW 1677   2.192   1.433   1.069
  502SOL    HW1 1678   2.121   1.400   1.014
  502SOL    HW2 1679   2.248   1.484   1.010
  503SOL     OW 1680   2.309   0.399   1.492
  503SOL    HW1 1681   2.384   0.340   1.497
  503SOL    HW2 1682   2.233   0.343   1.505
  504SOL     OW 1683   2.084   1.713   0.474
  504SOL    HW1 1684   2.109   1.788   0.528
  504SOL    HW2 1685   2.154   1.705   0.410
  505SOL     OW 1686   2.978   1.349   1.691
  505SOL    HW1 1687   0.039   1.344   1.764
  505SOL    HW2 1688   2.939   1.261   1.686
  506SOL     OW 1689   2.087   1.440   0.536
  506SOL    HW1 1690   2.073   1.534   0.543
  506SOL    HW2 1691   2.023   1.401   0.596
  507SOL     OW 1692   2.107   1.087   0.884
  507SOL    HW1 1693   2.115   1.005   0.933
  507SOL    HW2 1694   2.058   1.145   0.942
  508SOL     OW 1695   2.479   1.789   1.436
  508SOL    HW1 1696   2.394   1.778   1.478
  508SOL    HW2 1697   2.504   1.879   1.454
  509SOL     OW 1698   2.458   0.975   0.142
  509SOL    HW1 1699   2.479   1.050   0.085
  509SOL    HW2 1700   2.497   0.998   0.226
  510SOL     OW 1701   1.981   0.645   0.562
  510SOL    HW1 1702   1.940   0.562   0.587
  510SOL    HW2 1703   1.972   0.700   0.640
  511SOL     OW 1704   1.880   1.589   0.120
  511SOL    HW1 1705   1.888   1.499   0.149
  511SOL    HW2 1706   1.877   1.641   0.201
  512SOL     OW 1707   1.989   0.746   1.590
  512SOL    HW1 1708   2.083   0.743   1.611
  512SOL    HW2 1709   1.965   0.838   1.601
  513SOL     OW 1710   2.473   1.379   0.734
  513SOL    HW1 1711   2.427   1.295   0.741
  513SOL    HW2 1712   2.456   1.408   0.644
  514SOL     OW 1713   2.681   0.012   0.513
  514SOL    HW1 1714   2.707   0.103   0.495
  514SOL    HW2 1715   2.586   0.013   0.502
  515SOL     OW 1716   2.050   0.968   1.262
  515SOL    HW1 1717   2.139   0.934   1.253
  515SOL    HW2 1718   1.994   0.899   1.225
  516SOL     OW 1719   2.186   0.255   1.794
  516SOL    HW1 1720   2.240   0.329   1.821
  516SOL    HW2 1721   2.102   0.269   1.839
  517SOL     OW 1722   2.455   0.724   0.265
  517SOL    HW1 1723   2.466   0.804   0.213
  517SOL    HW2 1724   2.390   0.747   0.331
  518SOL     OW 1725   2.654   0.625   1.455
  518SOL    HW1 1726   2.629   0.599   1.544
  518SOL    HW2 1727   2.615   0.558   1.399
  519SOL     OW 1728   2.832   0.885   1.574
  519SOL    HW1 1729   2.865   0.800   1.543
  519SOL    HW2 1730   2.783   0.920   1.500
  520SOL     OW 1731   2.843   0.380   1.259
  520SOL    HW1 1732   2.773   0.437   1.288
  520SOL    HW2 1733   2.832   0.373   1.164
  521SOL     OW 1734   2.890   0.715   0.416
  521SOL    HW1 1735   2.926   0.699   0.503
  521SOL    HW2 1736   2.818   0.653   0.408
  522SOL     OW 1737   1.951   0.816   0.776
  522SOL    HW1 1738   2.035   0.809   0.821
  522SOL    HW2 1739   1.913   0.897   0.809
  523SOL     OW 1740   2.780   0.339   0.220
  523SOL    HW1 1741   2.784   0.399   0.145
  523SOL    HW2 1742   2.766   0.253   0.181
  524SOL     OW 1743   2.373   0.193   0.913
  524SOL    HW1 1744   2.398   0.212   1.004
  524SOL    HW2 1745   2.407   0.268   0.863
  525SOL     OW 1746   2.865   1.445   0.472
  525SOL    HW1 1747   2.829   1.520   0.425
  525SOL    HW2 1748   2.865   1.472   0.564
  526SOL     OW 1749   2.221   1.806   0.850
  526SOL    HW1 1750   2.263   1.721   0.865
  526SOL    HW2 1751   2.290   1.870   0.865
  527SOL     OW 1752   2.181   0.951   0.241
  527SOL    HW1 1753   2.265   0.970   0.199
  527SOL    HW2 1754   2.155   0.866   0.206
  528SOL     OW 1755   2.325   1.266   1.738
  528SOL    HW1 1756   2.297   1.269   1.647
  528SOL    HW2 1757   2.244   1.265   1.788
  529SOL     OW 1758   2.062   0.292   1.496
  529SOL    HW1 1759   1.979   0.340   1.493
  529SOL    HW2 1760   2.051   0.231   1.569
  530SOL     OW 1761   2.328   1.730   0.331
  530SOL    HW1 1762   2.362   1.794   0.393
  530SOL    HW2 1763   2.396   1.723   0.263
  531SOL     OW 1764   2.124   1.791   1.234
  531SOL    HW1 1765   2.162   1.715   1.279
  531SOL    HW2 1766   2.088   1.755   1.153
  532SOL     OW 1767   2.801   1.695   0.901
  532SOL    HW1 1768   2.868   1.630   0.924
  532SOL    HW2 1769   2.751   1.654   0.831
  533SOL     OW 1770   2.252   0.695   0.477
  533SOL    HW1 1771   2.285   0.606   0.487
  533SOL    HW2 1772   2.159   0.689   0.500
  534SOL     OW 1773   2.474   0.111   0.112
  534SOL    HW1 1774   2.569   0.111   0.122
  534SOL    HW2 1775   2.459   0.129   0.020
  535SOL     OW 1776   2.633   0.271   1.750
  535SOL    HW1 1777   2.702   0.208   1.774
  535SOL    HW2 1778   2.580   0.279   1.829
  536SOL     OW 1779   2.743   1.517   1.194
  536SOL    HW1 1780   2.724   1.484   1.106
  536SOL    HW2 1781   2.804   1.453   1.231
  537SOL     OW 1782   2.667   1.405   0.934
  537SOL    HW1 1783   2.752   1.393   0.891
  537SOL    HW2 1784   2.603   1.397   0.863
  538SOL     OW 1785   2.783   0.505   0.904
  538SOL    HW1 1786   2.757   0.493   0.813
  538SOL    HW2 1787   2.825   0.422   0.928
  539SOL     OW 1788   2.402   0.054   0.501
  539SOL    HW1 1789   2.314   0.044   0.539
  539SOL    HW2 1790   2.395   0.131   0.445
  540SOL     OW 1791   0.315   1.160   0.045
  540SOL    HW1 1792   0.313   1.099   0.119
  540SOL    HW2 1793   0.242   1.220   0.062
  541SOL     OW 1794   2.163   0.080   0.188
  541SOL    HW1 1795   2.242   0.133   0.179
  541SOL    HW2 1796   2.195   2.992   0.209
  542SOL     OW 1797   2.817   0.248   0.469
  542SOL    HW1 1798   2.773   0.290   0.396
  542SOL    HW2 1799   2.896   0.210   0.432
  543SOL     OW 1800   0.083   1.582   0.799
  543SOL    HW1 1801   0.112   1.621   0.716
  543SOL    HW2 1802   0.164   1.554   0.842
  544SOL     OW 1803   2.326   1.146   0.739
  544SOL    HW1 1804   2.253   1.128   0.798
  544SOL    HW2 1805   2.291   1.129   0.652
  545SOL     OW 1806   2.883   0.516   0.025
  545SOL    HW1 1807   2.845   0.600   0.002
  545SOL    HW2 1808   2.945   0.536   0.095
  546SOL     OW 1809   1.943   0.560   1.378
  546SOL    HW1 1810   2.036   0.559   1.354
  546SOL    HW2 1811   1.938   0.621   1.452
  547SOL     OW 1812   2.430   0.219   1.174
  547SOL    HW1 1813   2.460   0.156   1.239
  547SOL    HW2 1814   2.337   0.233   1.196
  548SOL     OW 1815   2.745   0.466   0.635
  548SOL    HW1 1816   2.683   0.518   0.584
  548SOL    HW2 1817   2.741   0.379   0.595
  549SOL     OW 1818   2.863   0.052   0.763
  549SOL    HW1 1819   2.824   0.055   0.676
  549SOL    HW2 1820   2.840   2.965   0.797
  550SOL     OW 1821   2.353   1.399   0.155
  550SOL    HW1 1822   2.284   1.373   0.216
  550SOL    HW2 1823   2.309   1.408   0.071
  551SOL     OW 1824   2.393   0.263   0.328
  551SOL    HW1 1825   2.429   0.210   0.256
  551SOL    HW2 1826   2.371   0.347   0.287
  552SOL     OW 1827   2.780   0.109   1.402
  552SOL    HW1 1828   2.808   0.095   1.311
  552SOL    HW2 1829   2.847   0.166   1.439
  553SOL     OW 1830   2.840   1.111   1.726
  553SOL    HW1 1831   2.746   1.128   1.734
  553SOL    HW2 1832   2.846   1.042   1.660
  554SOL     OW 1833   2.563   1.060   0.377
  554SOL    HW1 1834   2.551   1.050   0.471
  554SOL    HW2 1835   2.646   1.015   0.358
  555SOL     OW 1836   2.275   0.815   1.254
  555SOL    HW1 1837   2.348   0.824   1.315
  555SOL    HW2 1838   2.244   0.726   1.267
  556SOL     OW 1839   2.219   1.105   0.493
  556SOL    HW1 1840   2.219   1.180   0.434
  556SOL    HW2 1841   2.219   1.028   0.436
  557SOL     OW 1842   2.418   0.544   0.865
  557SOL    HW1 1843   2.438   0.597   0.788
  557SOL    HW2 1844   2.483   0.571   0.930
  558SOL     OW 1845   2.218   1.521   1.326
  558SOL    HW1 1846   2.194   1.483   1.241
  558SOL    HW2 1847   2.313   1.533   1.320
  559SOL     OW 1848   2.273   0.744   1.601
  559SOL    HW1 1849   2.332   0.791   1.544
  559SOL    HW2 1850   2.316   0.660   1.617
  560SOL     OW 1851   2.867   0.112   1.761
  560SOL    HW1 1852   2.897   0.189   1.713
  560SOL    HW2 1853   2.907   0.038   1.716
  561SOL     OW 1854   2.363   0.052   1.748
  561SOL    HW1 1855   2.330   2.994   1.679
  561SOL    HW2 1856   2.293   0.117   1.760
  562SOL     OW 1857   2.440   0.873   1.030
  562SOL    HW1 1858   2.478   0.961   1.026
  562SOL    HW2 1859   2.386   0.873   1.109
  563SOL     OW 1860   0.061   0.535   0.274
  563SOL    HW1 1861   0.085   0.451   0.314
  563SOL    HW2 1862   0.039   0.592   0.347
  564SOL     OW 1863   2.161   0.202   1.246
  564SOL    HW1 1864   2.134   0.241   1.329
  564SOL    HW2 1865   2.141   0.109   1.256
  565SOL     OW 1866   2.591   0.633   1.062
  565SOL    HW1 1867   2.664   0.614   1.003
  565SOL    HW2 1868   2.565   0.723   1.039
  566SOL     OW 1869   2.166   0.058   0.638
  566SOL    HW1 1870   2.169   0.149   0.666
  566SOL    HW2 1871   2.152   0.008   0.718
  567SOL     OW 1872   2.864   0.769   0.974
  567SOL    HW1 1873   2.900   0.774   1.063
  567SOL    HW2 1874   2.871   0.676   0.952
  568SOL     OW 1875   2.828   1.568   1.704
  568SOL    HW1 1876   2.824   1.608   1.618
  568SOL    HW2 1877   2.886   1.493   1.694
  569SOL     OW 1878   2.215   0.918   1.804
  569SOL    HW1 1879   2.296   0.933   1.852
  569SOL    HW2 1880   2.239   0.855   1.736
  570SOL     OW 1881   2.907   1.344   0.836
  570SOL    HW1 1882   2.911   1.266   0.781
  570SOL    HW2 1883   2.982   1.397   0.808
  571SOL     OW 1884   2.174   0.811   0.952
  571SOL    HW1 1885   2.266   0.834   0.945
  571SOL    HW2 1886   2.174   0.722   0.985
  572SOL     OW 1887   2.197   0.521   1.011
  572SOL    HW1 1888   2.159   0.435   0.993
  572SOL    HW2 1889   2.272   0.528   0.952
  573SOL     OW 1890   2.969   0.371   1.663
  573SOL    HW1 1891   2.918   0.435   1.713
  573SOL    HW2 1892   0.059   0.405   1.665
  574SOL     OW 1893   1.870   1.322   0.190
  574SOL    HW1 1894   1.779   1.334   0.162
  574SOL    HW2 1895   1.871   1.234   0.228
  575SOL     OW 1896   1.965   1.768   0.937
  575SOL    HW1 1897   1.923   1.695   0.891
  575SOL    HW2 1898   2.048   1.781   0.890
  576SOL     OW 1899   2.363   1.572   0.907
  576SOL    HW1 1900   2.433   1.634   0.929
  576SOL    HW2 1901   2.407   1.505   0.855
  577SOL     OW 1902   2.862   0.799   1.253
  577SOL    HW1 1903   2.906   0.737   1.311
  577SOL    HW2 1904   2.775   0.762   1.239
  578SOL     OW 1905   1.890   0.532   1.112
  578SOL    HW1 1906   1.977   0.526   1.072
  578SOL    HW2 1907   1.906   0.545   1.205
  579SOL     OW 1908   2.048   0.517   1.723
  579SOL    HW1 1909   2.108   0.481   1.658
  579SOL    HW2 1910   2.002   0.587   1.676
  580SOL     OW 1911   2.674   0.571   0.349
  580SOL    HW1 1912   2.681   0.494   0.292
  580SOL    HW2 1913   2.593   0.613   0.321
  581SOL     OW 1914   2.549   0.461   1.267
  581SOL    HW1 1915   2.508   0.381   1.233
  581SOL    HW2 1916   2.554   0.519   1.191
  582SOL     OW 1917   2.797   1.687   1.464
  582SOL    HW1 1918   2.772   1.645   1.382
  582SOL    HW2 1919   2.783   1.780   1.448
  583SOL     OW 1920   2.305   0.493   0.207
  583SOL    HW1 1921   2.374   0.559   0.215
  583SOL    HW2 1922   2.226   0.544   0.190
  584SOL     OW 1923   2.017   1.142   1.464
  584SOL    HW1 1924   2.015   1.087   1.543
  584SOL    HW2 1925   2.030   1.081   1.392
  585SOL     OW 1926   1.955   1.257   1.025
  585SOL    HW1 1927   1.935   1.255   1.118
  585SOL    HW2 1928   1.874   1.226   0.982
  586SOL     OW 1929   2.534   1.665   1.723
  586SOL    HW1 1930   2.500   1.754   1.711
  586SOL    HW2 1931   2.605   1.658   1.659
  587SOL     OW 1932   2.763   0.083   0.137
  587SOL    HW1 1933   2.816   0.060   0.061
  587SOL    HW2 1934   2.810   0.048   0.212
  588SOL     OW 1935   2.684   1.267   1.425
  588SOL    HW1 1936   2.677   1.312   1.509
  588SOL    HW2 1937   2.608   1.298   1.375
  589SOL     OW 1938   2.532   1.610   0.158
  589SOL    HW1 1939   2.536   1.624   0.064
  589SOL    HW2 1940   2.481   1.530   0.168
  590SOL     OW 1941   2.138   0.347   0.752
  590SOL    HW1 1942   2.049   0.368   0.725
  590SOL    HW2 1943   2.129   0.313   0.841
  591SOL     OW 1944   2.686   1.006   1.374
  591SOL    HW1 1945   2.731   0.999   1.289
  591SOL    HW2 1946   2.690   1.098   1.396
  592SOL     OW 1947   2.784   0.936   0.308
  592SOL    HW1 1948   2.836   0.948   0.228
  592SOL    HW2 1949   2.819   0.856   0.347
  593SOL     OW 1950   2.228   1.303   1.496
  593SOL    HW1 1951   2.220   1.376   1.435
  593SOL    HW2 1952   2.153   1.247   1.476
  594SOL     OW 1953   2.910   1.084   0.720
  594SOL    HW1 1954   2.833   1.040   0.756
  594SOL    HW2 1955   2.935   1.030   0.645
  595SOL     OW 1956   2.876   0.239   0.968
  595SOL    HW1 1957   2.873   0.188   0.887
  595SOL    HW2 1958   2.872   0.173   1.037
  596SOL     OW 1959   2.459   1.488   0.485
  596SOL    HW1 1960   2.500   1.438   0.415
  596SOL    HW2 1961   2.402   1.551   0.439
  597SOL     OW 1962   2.127   1.341   0.294
  597SOL    HW1 1963   2.039   1.344   0.256
  597SOL    HW2 1964   2.118   1.383   0.379
  598SOL     OW 1965   1.969   1.000   1.719
  598SOL    HW1 1966   1.902   0.981   1.784
  598SOL    HW2 1967   2.051   0.979   1.763
  599SOL     OW 1968   2.528   0.205   1.492
  599SOL    HW1 1969   2.612   0.183   1.451
  599SOL    HW2 1970   2.549   0.218   1.585
  600SOL     OW 1971   1.915   0.199   0.331
  600SOL    HW1 1972   1.893   0.235   0.245
  600SOL    HW2 1973   1.997   0.152   0.317
  601SOL     OW 1974   2.478   0.835   1.431
  601SOL    HW1 1975   2.534   0.911   1.417
  601SOL    HW2 1976   2.539   0.761   1.438
  602SOL     OW 1977   2.577   0.564   1.708
  602SOL    HW1 1978   2.609   0.629   1.771
  602SOL    HW2 1979   2.622   0.483   1.731
  603SOL     OW 1980   2.244   1.737   1.571
  603SOL    HW1 1981   2.160   1.763   1.534
  603SOL    HW2 1982   2.244   1.642   1.568
  604SOL     OW 1983   2.455   0.743   0.664
  604SOL    HW1 1984   2.495   0.828   0.647
  604SOL    HW2 1985   2.383   0.737   0.602
  605SOL     OW 1986   2.759   1.375   0.059
  605SOL    HW1 1987   2.687   1.388   0.120
  605SOL    HW2 1988   2.742   1.435   2.987
  606SOL     OW 1989   2.520   1.797   0.954
  606SOL    HW1 1990   2.497   1.886   0.926
  606SOL    HW2 1991   2.615   1.791   0.939
  607SOL     OW 1992   2.717   0.959   0.858
  607SOL    HW1 1993   2.767   0.889   0.899
  607SOL    HW2 1994   2.691   1.016   0.930
  608SOL     OW 1995   2.965   1.022   0.072
  608SOL    HW1 1996   2.922   1.041   2.989
  608SOL    HW2 1997   0.013   0.940   0.057
  609SOL     OW 1998   2.090   1.302   1.857
  609SOL    HW1 1999   2.018   1.247   1.826
  609SOL    HW2 2000   2.068   1.322   1.948
  610SOL     OW 2001   1.944   1.234   0.660
  610SOL    HW1 2002   1.953   1.186   0.742
  610SOL    HW2 2003   2.016   1.202   0.606
  611SOL     OW 2004   2.536   1.400   1.618
  611SOL    HW1 2005   2.461   1.353   1.654
  611SOL    HW2 2006   2.535   1.485   1.663
  612SOL     OW 2007   2.331   0.434   0.543
  612SOL    HW1 2008   2.322   0.376   0.468
  612SOL    HW2 2009   2.266   0.402   0.606
  613SOL     OW 2010   2.194   0.552   1.288
  613SOL    HW1 2011   2.247   0.496   1.345
  613SOL    HW2 2012   2.216   0.525   1.199
  614SOL     OW 2013   2.681   1.583   0.683
  614SOL    HW1 2014   2.688   1.612   0.591
  614SOL    HW2 2015   2.604   1.526   0.684
  615SOL     OW 2016   2.855   0.019   1.151
  615SOL    HW1 2017   2.817   2.948   1.099
  615SOL    HW2 2018   2.947   2.995   1.162
  616SOL     OW 2019   2.628   1.330   0.312
  616SOL    HW1 2020   2.598   1.240   0.326
  616SOL    HW2 2021   2.714   1.334   0.353
  617SOL     OW 2022   2.483   1.562   1.283
  617SOL    HW1 2023   2.489   1.643   1.334
  617SOL    HW2 2024   2.569   1.553   1.244
  618SOL     OW 2025   1.903   1.076   0.303
  618SOL    HW1 2026   1.997   1.067   0.288
  618SOL    HW2 2027   1.873   0.988   0.325
  619SOL     OW 2028   2.736   1.647   0.349
  619SOL    HW1 2029   2.668   1.630   0.284
  619SOL    HW2 2030   2.707   1.726   0.394
  620SOL     OW 2031   2.091   0.632   1.980
  620SOL    HW1 2032   2.004   0.618   2.017
  620SOL    HW2 2033   2.086   0.594   1.892
  621SOL     OW 2034   2.086   0.276   2.873
  621SOL    HW1 2035   2.105   0.242   2.961
  621SOL    HW2 2036   1.999   0.241   2.852
  622SOL     OW 2037   1.867   0.378   2.507
  622SOL    HW1 2038   1.786   0.408   2.547
  622SOL    HW2 2039   1.840   0.305   2.451
  623SOL     OW 2040   2.616   1.147   2.891
  623SOL    HW1 2041   2.554   1.188   2.952
  623SOL    HW2 2042   2.665   1.221   2.854
  624SOL     OW 2043   2.548   1.013   2.512
  624SOL    HW1 2044   2.609   0.991   2.582
  624SOL    HW2 2045   2.476   1.059   2.555
  625SOL     OW 2046   2.203   1.433   2.930
  625SOL    HW1 2047   2.125   1.401   2.884
  625SOL    HW2 2048   2.249   1.486   2.865
  626SOL     OW 2049   2.084   1.714   2.344
  626SOL    HW1 2050   2.109   1.788   2.399
  626SOL    HW2 2051   2.146   1.716   2.271
  627SOL     OW 2052   2.087   1.439   2.394
  627SOL    HW1 2053   2.071   1.532   2.411
  627SOL    HW2 2054   2.029   1.394   2.455
  628SOL     OW 2055   2.112   1.091   2.751
  628SOL    HW1 2056   2.110   1.005   2.794
  628SOL    HW2 2057   2.054   1.146   2.805
  629SOL     OW 2058   2.453   0.978   1.993
  629SOL    HW1 2059   2.492   1.033   1.925
  629SOL    HW2 2060   2.498   1.002   2.073
  630SOL     OW 2061   1.980   0.644   2.425
  630SOL    HW1 2062   1.935   0.563   2.446
  630SOL    HW2 2063   1.971   0.698   2.503
  631SOL     OW 2064   1.858   1.583   1.989
  631SOL    HW1 2065   1.870   1.494   2.022
  631SOL    HW2 2066   1.855   1.638   2.067
  632SOL     OW 2067   2.472   1.376   2.594
  632SOL    HW1 2068   2.425   1.293   2.602
  632SOL    HW2 2069   2.454   1.404   2.504
  633SOL     OW 2070   2.681   0.008   2.358
  633SOL    HW1 2071   2.706   0.101   2.357
  633SOL    HW2 2072   2.585   0.010   2.364
  634SOL     OW 2073   2.457   0.724   2.125
  634SOL    HW1 2074   2.468   0.803   2.071
  634SOL    HW2 2075   2.392   0.749   2.191
  635SOL     OW 2076   2.889   0.715   2.285
  635SOL    HW1 2077   2.936   0.688   2.364
  635SOL    HW2 2078   2.819   0.651   2.276
  636SOL     OW 2079   1.952   0.820   2.635
  636SOL    HW1 2080   2.033   0.809   2.685
  636SOL    HW2 2081   1.910   0.897   2.673
  637SOL     OW 2082   2.731   0.342   2.046
  637SOL    HW1 2083   2.792   0.404   2.006
  637SOL    HW2 2084   2.774   0.257   2.038
  638SOL     OW 2085   2.404   0.193   2.811
  638SOL    HW1 2086   2.381   0.256   2.880
  638SOL    HW2 2087   2.415   0.246   2.732
  639SOL     OW 2088   2.860   1.442   2.333
  639SOL    HW1 2089   2.828   1.521   2.290
  639SOL    HW2 2090   2.872   1.467   2.424
  640SOL     OW 2091   2.217   1.802   2.710
  640SOL    HW1 2092   2.261   1.719   2.727
  640SOL    HW2 2093   2.282   1.869   2.732
  641SOL     OW 2094   2.183   0.955   2.105
  641SOL    HW1 2095   2.267   0.972   2.063
  641SOL    HW2 2096   2.154   0.871   2.069
  642SOL     OW 2097   2.125   1.799   0.100
  642SOL    HW1 2098   2.165   1.730   0.154
  642SOL    HW2 2099   2.083   1.751   0.028
  643SOL     OW 2100   2.797   1.699   2.761
  643SOL    HW1 2101   2.863   1.638   2.794
  643SOL    HW2 2102   2.753   1.650   2.691
  644SOL     OW 2103   2.251   0.695   2.339
  644SOL    HW1 2104   2.284   0.606   2.351
  644SOL    HW2 2105   2.158   0.690   2.363
  645SOL     OW 2106   2.481   0.122   1.975
  645SOL    HW1 2107   2.573   0.093   1.976
  645SOL    HW2 2108   2.450   0.100   1.887
  646SOL     OW 2109   2.661   1.408   2.786
  646SOL    HW1 2110   2.748   1.397   2.747
  646SOL    HW2 2111   2.601   1.395   2.713
  647SOL     OW 2112   2.781   0.516   2.757
  647SOL    HW1 2113   2.754   0.494   2.668
  647SOL    HW2 2114   2.816   0.434   2.793
  648SOL     OW 2115   2.403   0.057   2.363
  648SOL    HW1 2116   2.316   0.045   2.401
  648SOL    HW2 2117   2.393   0.133   2.305
  649SOL     OW 2118   2.157   0.035   2.051
  649SOL    HW1 2119   2.204   0.112   2.018
  649SOL    HW2 2120   2.225   2.976   2.082
  650SOL     OW 2121   2.804   0.249   2.329
  650SOL    HW1 2122   2.759   0.286   2.252
  650SOL    HW2 2123   2.889   0.221   2.295
  651SOL     OW 2124   0.083   1.577   2.660
  651SOL    HW1 2125   0.116   1.627   2.585
  651SOL    HW2 2126   0.162   1.556   2.711
  652SOL     OW 2127   2.326   1.146   2.601
  652SOL    HW1 2128   2.255   1.129   2.663
  652SOL    HW2 2129   2.289   1.127   2.515
  653SOL     OW 2130   2.892   0.553   1.873
  653SOL    HW1 2131   2.845   0.634   1.856
  653SOL    HW2 2132   2.941   0.570   1.954
  654SOL     OW 2133   2.726   0.461   2.500
  654SOL    HW1 2134   2.678   0.517   2.438
  654SOL    HW2 2135   2.735   0.378   2.454
  655SOL     OW 2136   2.859   0.052   2.623
  655SOL    HW1 2137   2.820   0.048   2.536
  655SOL    HW2 2138   2.845   2.965   2.660
  656SOL     OW 2139   2.342   1.426   2.018
  656SOL    HW1 2140   2.277   1.384   2.074
  656SOL    HW2 2141   2.337   1.378   1.935
  657SOL     OW 2142   2.391   0.265   2.186
  657SOL    HW1 2143   2.424   0.209   2.115
  657SOL    HW2 2144   2.376   0.350   2.144
  658SOL     OW 2145   2.568   1.061   2.235
  658SOL    HW1 2146   2.556   1.048   2.329
  658SOL    HW2 2147   2.645   1.008   2.214
  659SOL     OW 2148   2.217   1.104   2.356
  659SOL    HW1 2149   2.224   1.177   2.294
  659SOL    HW2 2150   2.220   1.025   2.302
  660SOL     OW 2151   2.417   0.541   2.728
  660SOL    HW1 2152   2.437   0.593   2.650
  660SOL    HW2 2153   2.480   0.571   2.793
  661SOL     OW 2154   2.434   0.871   2.879
  661SOL    HW1 2155   2.483   0.952   2.863
  661SOL    HW2 2156   2.408   0.877   2.971
  662SOL     OW 2157   0.058   0.527   2.141
  662SOL    HW1 2158   0.090   0.452   2.192
  662SOL    HW2 2159   0.036   0.593   2.206
  663SOL     OW 2160   2.593   0.642   2.917
  663SOL    HW1 2161   2.660   0.615   2.854
  663SOL    HW2 2162   2.565   0.728   2.887
  664SOL     OW 2163   2.172   0.059   2.502
  664SOL    HW1 2164   2.162   0.150   2.530
  664SOL    HW2 2165   2.151   0.007   2.580
  665SOL     OW 2166   2.870   0.776   2.830
  665SOL    HW1 2167   2.891   0.770   2.923
  665SOL    HW2 2168   2.868   0.685   2.800
  666SOL     OW 2169   2.905   1.343   2.696
  666SOL    HW1 2170   2.913   1.267   2.639
  666SOL    HW2 2171   2.979   1.399   2.672
  667SOL     OW 2172   2.172   0.811   2.813
  667SOL    HW1 2173   2.265   0.833   2.809
  667SOL    HW2 2174   2.169   0.721   2.845
  668SOL     OW 2175   2.188   0.529   2.869
  668SOL    HW1 2176   2.152   0.441   2.860
  668SOL    HW2 2177   2.266   0.528   2.812
  669SOL     OW 2178   1.863   1.324   2.073
  669SOL    HW1 2179   1.770   1.341   2.062
  669SOL    HW2 2180   1.868   1.232   2.099
  670SOL     OW 2181   1.953   1.796   2.793
  670SOL    HW1 2182   1.920   1.713   2.758
  670SOL    HW2 2183   2.044   1.800   2.763
  671SOL     OW 2184   2.366   1.576   2.764
  671SOL    HW1 2185   2.436   1.637   2.786
  671SOL    HW2 2186   2.410   1.503   2.719
  672SOL     OW 2187   2.857   0.767   0.102
  672SOL    HW1 2188   2.894   0.743   0.187
  672SOL    HW2 2189   2.762   0.766   0.117
  673SOL     OW 2190   2.673   0.564   2.209
  673SOL    HW1 2191   2.672   0.487   2.151
  673SOL    HW2 2192   2.597   0.615   2.182
  674SOL     OW 2193   2.562   0.452   0.102
  674SOL    HW1 2194   2.477   0.410   0.087
  674SOL    HW2 2195   2.565   0.522   0.037
  675SOL     OW 2196   2.331   0.495   2.048
  675SOL    HW1 2197   2.388   0.570   2.068
  675SOL    HW2 2198   2.243   0.531   2.046
  676SOL     OW 2199   1.943   1.267   2.884
  676SOL    HW1 2200   1.933   1.271   2.980
  676SOL    HW2 2201   1.869   1.214   2.855
  677SOL     OW 2202   2.540   1.613   2.011
  677SOL    HW1 2203   2.561   1.614   1.918
  677SOL    HW2 2204   2.495   1.530   2.025
  678SOL     OW 2205   2.134   0.338   2.613
  678SOL    HW1 2206   2.046   0.368   2.589
  678SOL    HW2 2207   2.125   0.311   2.704
  679SOL     OW 2208   2.777   0.918   2.151
  679SOL    HW1 2209   2.834   0.931   2.075
  679SOL    HW2 2210   2.814   0.842   2.196
  680SOL     OW 2211   2.906   1.083   2.579
  680SOL    HW1 2212   2.830   1.039   2.615
  680SOL    HW2 2213   2.939   1.024   2.511
  681SOL     OW 2214   2.864   0.233   2.831
  681SOL    HW1 2215   2.870   0.198   2.742
  681SOL    HW2 2216   2.895   0.161   2.886
  682SOL     OW 2217   2.458   1.480   2.346
  682SOL    HW1 2218   2.503   1.434   2.276
  682SOL    HW2 2219   2.416   1.555   2.303
  683SOL     OW 2220   2.118   1.354   2.149
  683SOL    HW1 2221   2.025   1.344   2.129
  683SOL    HW2 2222   2.121   1.384   2.239
  684SOL     OW 2223   1.941   0.344   1.903
  684SOL    HW1 2224   1.855   0.313   1.874
  684SOL    HW2 2225   1.964   0.412   1.840
  685SOL     OW 2226   1.906   0.200   2.165
  685SOL    HW1 2227   1.922   0.264   2.096
  685SOL    HW2 2228   1.981   0.140   2.160
  686SOL     OW 2229   2.455   0.743   2.525
  686SOL    HW1 2230   2.496   0.828   2.507
  686SOL    HW2 2231   2.381   0.738   2.464
  687SOL     OW 2232   2.713   1.371   1.886
  687SOL    HW1 2233   2.689   1.401   1.974
  687SOL    HW2 2234   2.753   1.448   1.845
  688SOL     OW 2235   2.523   1.799   2.822
  688SOL    HW1 2236   2.501   1.885   2.787
  688SOL    HW2 2237   2.616   1.789   2.806
  689SOL     OW 2238   2.713   0.959   2.718
  689SOL    HW1 2239   2.767   0.891   2.758
  689SOL    HW2 2240   2.690   1.017   2.791
  690SOL     OW 2241   2.932   0.953   1.931
  690SOL    HW1 2242   2.913   1.031   1.879
  690SOL    HW2 2243   0.026   0.958   1.948
  691SOL     OW 2244   1.948   1.238   2.524
  691SOL    HW1 2245   1.941   1.186   2.604
  691SOL    HW2 2246   2.017   1.196   2.474
  692SOL     OW 2247   2.324   0.433   2.401
  692SOL    HW1 2248   2.318   0.371   2.328
  692SOL    HW2 2249   2.262   0.400   2.466
  693SOL     OW 2250   2.680   1.585   2.542
  693SOL    HW1 2251   2.688   1.608   2.450
  693SOL    HW2 2252   2.603   1.527   2.546
  694SOL     OW 2253   2.632   1.332   2.168
  694SOL    HW1 2254   2.601   1.243   2.179
  694SOL    HW2 2255   2.713   1.337   2.220
  695SOL     OW 2256   1.906   1.073   2.162
  695SOL    HW1 2257   2.000   1.062   2.150
  695SOL    HW2 2258   1.874   0.987   2.188
  696SOL     OW 2259   2.734   1.645   2.210
  696SOL    HW1 2260   2.666   1.634   2.144
  696SOL    HW2 2261   2.711   1.726   2.255
  697SOL     OW 2262   2.088   2.500   0.112
  697SOL    HW1 2263   1.998   2.479   0.137
  697SOL    HW2 2264   2.101   2.456   0.028
  698SOL     OW 2265   1.871   2.241   0.642
  698SOL    HW1 2266   1.787   2.265   0.682
  698SOL    HW2 2267   1.851   2.164   0.588
  699SOL     OW 2268   2.606   0.002   1.023
  699SOL    HW1 2269   2.536   0.044   1.072
  699SOL    HW2 2270   2.650   0.075   0.978
  700SOL     OW 2271   2.714   2.645   1.816
  700SOL    HW1 2272   2.718   2.705   1.890
  700SOL    HW2 2273   2.747   2.696   1.741
  701SOL     OW 2274   2.517   2.848   0.703
  701SOL    HW1 2275   2.610   2.855   0.724
  701SOL    HW2 2276   2.491   2.937   0.679
  702SOL     OW 2277   2.324   2.268   1.497
  702SOL    HW1 2278   2.392   2.200   1.495
  702SOL    HW2 2279   2.242   2.219   1.502
  703SOL     OW 2280   2.105   0.302   0.487
  703SOL    HW1 2281   2.068   0.387   0.510
  703SOL    HW2 2282   2.043   0.239   0.523
  704SOL     OW 2283   2.102   2.949   0.882
  704SOL    HW1 2284   2.123   2.864   0.921
  704SOL    HW2 2285   2.066   3.000   0.955
  705SOL     OW 2286   2.475   2.830   0.144
  705SOL    HW1 2287   2.469   2.920   0.111
  705SOL    HW2 2288   2.532   2.836   0.220
  706SOL     OW 2289   1.979   2.508   0.561
  706SOL    HW1 2290   1.945   2.421   0.582
  706SOL    HW2 2291   1.969   2.557   0.643
  707SOL     OW 2292   1.988   2.607   1.583
  707SOL    HW1 2293   2.078   2.612   1.614
  707SOL    HW2 2294   1.952   2.694   1.601
  708SOL     OW 2295   2.517   0.243   0.687
  708SOL    HW1 2296   2.459   0.173   0.718
  708SOL    HW2 2297   2.465   0.292   0.624
  709SOL     OW 2298   2.673   1.863   0.504
  709SOL    HW1 2299   2.711   1.950   0.493
  709SOL    HW2 2300   2.579   1.879   0.515
  710SOL     OW 2301   2.056   2.839   1.253
  710SOL    HW1 2302   2.139   2.792   1.248
  710SOL    HW2 2303   1.989   2.772   1.240
  711SOL     OW 2304   2.197   2.130   1.799
  711SOL    HW1 2305   2.251   2.207   1.813
  711SOL    HW2 2306   2.109   2.157   1.824
  712SOL     OW 2307   2.455   2.582   0.266
  712SOL    HW1 2308   2.468   2.661   0.213
  712SOL    HW2 2309   2.391   2.609   0.332
  713SOL     OW 2310   2.654   2.485   1.455
  713SOL    HW1 2311   2.626   2.461   1.544
  713SOL    HW2 2312   2.615   2.418   1.399
  714SOL     OW 2313   2.830   2.749   1.578
  714SOL    HW1 2314   2.864   2.665   1.545
  714SOL    HW2 2315   2.778   2.783   1.506
  715SOL     OW 2316   2.845   2.241   1.258
  715SOL    HW1 2317   2.772   2.296   1.287
  715SOL    HW2 2318   2.831   2.231   1.164
  716SOL     OW 2319   2.891   2.577   0.414
  716SOL    HW1 2320   2.925   2.564   0.502
  716SOL    HW2 2321   2.817   2.517   0.408
  717SOL     OW 2322   1.946   2.681   0.777
  717SOL    HW1 2323   2.031   2.668   0.818
  717SOL    HW2 2324   1.917   2.766   0.809
  718SOL     OW 2325   2.788   2.195   0.217
  718SOL    HW1 2326   2.783   2.263   0.151
  718SOL    HW2 2327   2.754   2.117   0.174
  719SOL     OW 2328   2.401   2.051   0.891
  719SOL    HW1 2329   2.413   2.072   0.984
  719SOL    HW2 2330   2.419   2.134   0.846
  720SOL     OW 2331   2.088   2.154   1.485
  720SOL    HW1 2332   2.015   2.213   1.465
  720SOL    HW2 2333   2.061   2.109   1.565
  721SOL     OW 2334   2.247   2.558   0.477
  721SOL    HW1 2335   2.277   2.467   0.482
  721SOL    HW2 2336   2.154   2.554   0.499
  722SOL     OW 2337   2.485   1.985   0.114
  722SOL    HW1 2338   2.578   1.963   0.119
  722SOL    HW2 2339   2.454   1.942   0.035
  723SOL     OW 2340   2.628   2.129   1.748
  723SOL    HW1 2341   2.702   2.073   1.771
  723SOL    HW2 2342   2.584   2.147   1.831
  724SOL     OW 2343   2.784   2.366   0.904
  724SOL    HW1 2344   2.759   2.355   0.812
  724SOL    HW2 2345   2.825   2.283   0.928
  725SOL     OW 2346   2.409   1.924   0.508
  725SOL    HW1 2347   2.327   1.926   0.558
  725SOL    HW2 2348   2.405   2.002   0.452
  726SOL     OW 2349   2.805   2.102   0.468
  726SOL    HW1 2350   2.768   2.147   0.393
  726SOL    HW2 2351   2.893   2.077   0.441
  727SOL     OW 2352   2.886   2.385   0.027
  727SOL    HW1 2353   2.847   2.468   0.002
  727SOL    HW2 2354   2.945   2.407   0.099
  728SOL     OW 2355   1.947   2.420   1.392
  728SOL    HW1 2356   2.036   2.426   1.357
  728SOL    HW2 2357   1.944   2.488   1.459
  729SOL     OW 2358   2.429   2.088   1.158
  729SOL    HW1 2359   2.464   2.006   1.193
  729SOL    HW2 2360   2.338   2.090   1.187
  730SOL     OW 2361   2.741   2.319   0.637
  730SOL    HW1 2362   2.687   2.380   0.585
  730SOL    HW2 2363   2.744   2.239   0.584
  731SOL     OW 2364   2.859   1.922   0.757
  731SOL    HW1 2365   2.812   1.901   0.676
  731SOL    HW2 2366   2.854   1.841   0.809
  732SOL     OW 2367   2.383   2.122   0.326
  732SOL    HW1 2368   2.419   2.071   0.253
  732SOL    HW2 2369   2.371   2.210   0.290
  733SOL     OW 2370   2.760   1.949   1.395
  733SOL    HW1 2371   2.784   1.935   1.303
  733SOL    HW2 2372   2.835   1.995   1.433
  734SOL     OW 2373   2.275   2.678   1.254
  734SOL    HW1 2374   2.347   2.684   1.316
  734SOL    HW2 2375   2.240   2.590   1.266
  735SOL     OW 2376   2.418   2.400   0.864
  735SOL    HW1 2377   2.434   2.456   0.788
  735SOL    HW2 2378   2.480   2.430   0.930
  736SOL     OW 2379   2.278   2.606   1.606
  736SOL    HW1 2380   2.336   2.651   1.545
  736SOL    HW2 2381   2.313   2.517   1.611
  737SOL     OW 2382   2.858   1.985   1.770
  737SOL    HW1 2383   2.896   2.045   1.705
  737SOL    HW2 2384   2.902   1.901   1.754
  738SOL     OW 2385   2.373   1.913   1.735
  738SOL    HW1 2386   2.331   1.859   1.668
  738SOL    HW2 2387   2.317   1.991   1.742
  739SOL     OW 2388   2.447   2.729   1.034
  739SOL    HW1 2389   2.468   2.821   1.017
  739SOL    HW2 2390   2.385   2.732   1.107
  740SOL     OW 2391   0.062   2.396   0.274
  740SOL    HW1 2392   0.083   2.318   0.325
  740SOL    HW2 2393   0.035   2.460   0.339
  741SOL     OW 2394   2.177   2.068   1.242
  741SOL    HW1 2395   2.142   2.104   1.324
  741SOL    HW2 2396   2.152   1.975   1.244
  742SOL     OW 2397   2.589   2.493   1.061
  742SOL    HW1 2398   2.664   2.477   1.003
  742SOL    HW2 2399   2.562   2.583   1.041
  743SOL     OW 2400   2.162   1.928   0.620
  743SOL    HW1 2401   2.147   2.019   0.648
  743SOL    HW2 2402   2.169   1.879   0.702
  744SOL     OW 2403   2.857   2.627   0.982
  744SOL    HW1 2404   2.906   2.627   1.064
  744SOL    HW2 2405   2.867   2.538   0.948
  745SOL     OW 2406   2.215   2.777   1.806
  745SOL    HW1 2407   2.291   2.787   1.863
  745SOL    HW2 2408   2.244   2.715   1.739
  746SOL     OW 2409   2.175   2.677   0.950
  746SOL    HW1 2410   2.269   2.692   0.940
  746SOL    HW2 2411   2.169   2.590   0.990
  747SOL     OW 2412   2.193   2.370   1.010
  747SOL    HW1 2413   2.167   2.279   0.993
  747SOL    HW2 2414   2.270   2.383   0.954
  748SOL     OW 2415   2.972   2.241   1.666
  748SOL    HW1 2416   2.920   2.303   1.717
  748SOL    HW2 2417   0.061   2.276   1.670
  749SOL     OW 2418   2.982   2.060   1.474
  749SOL    HW1 2419   2.970   2.132   1.535
  749SOL    HW2 2420   2.997   2.103   1.389
  750SOL     OW 2421   2.859   2.669   1.260
  750SOL    HW1 2422   2.906   2.603   1.312
  750SOL    HW2 2423   2.777   2.626   1.235
  751SOL     OW 2424   1.909   2.432   1.113
  751SOL    HW1 2425   1.988   2.389   1.078
  751SOL    HW2 2426   1.907   2.406   1.205
  752SOL     OW 2427   2.671   2.427   0.354
  752SOL    HW1 2428   2.676   2.358   0.288
  752SOL    HW2 2429   2.597   2.481   0.327
  753SOL     OW 2430   2.552   2.320   1.266
  753SOL    HW1 2431   2.506   2.242   1.232
  753SOL    HW2 2432   2.555   2.380   1.191
  754SOL     OW 2433   2.304   2.357   0.210
  754SOL    HW1 2434   2.374   2.422   0.217
  754SOL    HW2 2435   2.226   2.408   0.189
  755SOL     OW 2436   2.023   2.996   1.469
  755SOL    HW1 2437   2.028   2.940   1.546
  755SOL    HW2 2438   2.035   2.937   1.395
  756SOL     OW 2439   2.761   1.936   0.125
  756SOL    HW1 2440   2.821   1.921   0.052
  756SOL    HW2 2441   2.807   1.902   0.202
  757SOL     OW 2442   2.126   2.178   0.719
  757SOL    HW1 2443   2.045   2.217   0.685
  757SOL    HW2 2444   2.117   2.183   0.814
  758SOL     OW 2445   2.672   2.865   1.372
  758SOL    HW1 2446   2.728   2.847   1.296
  758SOL    HW2 2447   2.698   2.953   1.400
  759SOL     OW 2448   2.751   2.779   0.289
  759SOL    HW1 2449   2.827   2.830   0.260
  759SOL    HW2 2450   2.787   2.717   0.353
  760SOL     OW 2451   2.878   2.102   0.966
  760SOL    HW1 2452   2.875   2.053   0.884
  760SOL    HW2 2453   2.869   2.035   1.035
  761SOL     OW 2454   1.973   2.866   1.711
  761SOL    HW1 2455   1.897   2.857   1.767
  761SOL    HW2 2456   2.048   2.846   1.768
  762SOL     OW 2457   2.528   2.057   1.499
  762SOL    HW1 2458   2.610   2.043   1.451
  762SOL    HW2 2459   2.556   2.085   1.586
  763SOL     OW 2460   1.941   2.022   0.339
  763SOL    HW1 2461   1.904   2.075   0.268
  763SOL    HW2 2462   2.027   1.995   0.308
  764SOL     OW 2463   2.475   2.694   1.432
  764SOL    HW1 2464   2.532   2.769   1.417
  764SOL    HW2 2465   2.535   2.620   1.440
  765SOL     OW 2466   2.576   2.426   1.709
  765SOL    HW1 2467   2.607   2.495   1.767
  765SOL    HW2 2468   2.628   2.349   1.732
  766SOL     OW 2469   2.455   2.589   0.659
  766SOL    HW1 2470   2.487   2.679   0.664
  766SOL    HW2 2471   2.382   2.593   0.598
  767SOL     OW 2472   2.746   2.834   0.860
  767SOL    HW1 2473   2.776   2.751   0.898
  767SOL    HW2 2474   2.685   2.869   0.924
  768SOL     OW 2475   2.292   2.294   0.526
  768SOL    HW1 2476   2.320   2.225   0.466
  768SOL    HW2 2477   2.247   2.247   0.597
  769SOL     OW 2478   2.195   2.416   1.288
  769SOL    HW1 2479   2.246   2.359   1.345
  769SOL    HW2 2480   2.213   2.384   1.200
  770SOL     OW 2481   2.866   1.882   1.150
  770SOL    HW1 2482   2.812   1.815   1.107
  770SOL    HW2 2483   2.956   1.858   1.128
  771SOL     OW 2484   1.879   2.922   0.312
  771SOL    HW1 2485   1.963   2.925   0.266
  771SOL    HW2 2486   1.869   2.830   0.337
  772SOL     OW 2487   2.082   2.449   1.976
  772SOL    HW1 2488   2.007   2.492   2.017
  772SOL    HW2 2489   2.084   2.484   1.886
  773SOL     OW 2490   2.090   2.139   2.845
  773SOL    HW1 2491   2.118   2.115   2.934
  773SOL    HW2 2492   2.000   2.107   2.840
  774SOL     OW 2493   1.869   2.242   2.498
  774SOL    HW1 2494   1.789   2.271   2.541
  774SOL    HW2 2495   1.845   2.160   2.455
  775SOL     OW 2496   2.637   0.010   2.882
  775SOL    HW1 2497   2.552   0.031   2.920
  775SOL    HW2 2498   2.660   0.087   2.831
  776SOL     OW 2499   2.518   2.846   2.553
  776SOL    HW1 2500   2.605   2.850   2.592
  776SOL    HW2 2501   2.490   2.937   2.548
  777SOL     OW 2502   2.094   0.298   2.342
  777SOL    HW1 2503   2.064   0.384   2.371
  777SOL    HW2 2504   2.038   0.236   2.390
  778SOL     OW 2505   2.110   2.953   2.748
  778SOL    HW1 2506   2.120   2.866   2.786
  778SOL    HW2 2507   2.054   0.000   2.810
  779SOL     OW 2508   2.468   2.826   1.992
  779SOL    HW1 2509   2.466   2.908   1.944
  779SOL    HW2 2510   2.524   2.843   2.067
  780SOL     OW 2511   1.979   2.508   2.423
  780SOL    HW1 2512   1.945   2.421   2.446
  780SOL    HW2 2513   1.970   2.559   2.504
  781SOL     OW 2514   2.507   0.241   2.559
  781SOL    HW1 2515   2.452   0.163   2.570
  781SOL    HW2 2516   2.464   0.291   2.489
  782SOL     OW 2517   2.670   1.861   2.359
  782SOL    HW1 2518   2.710   1.948   2.356
  782SOL    HW2 2519   2.577   1.878   2.374
  783SOL     OW 2520   2.060   2.810   0.116
  783SOL    HW1 2521   2.133   2.750   0.105
  783SOL    HW2 2522   1.983   2.758   0.094
  784SOL     OW 2523   2.457   2.582   2.125
  784SOL    HW1 2524   2.471   2.659   2.071
  784SOL    HW2 2525   2.395   2.610   2.192
  785SOL     OW 2526   2.896   2.577   2.278
  785SOL    HW1 2527   2.927   2.567   2.368
  785SOL    HW2 2528   2.818   2.522   2.273
  786SOL     OW 2529   1.948   2.681   2.637
  786SOL    HW1 2530   2.031   2.671   2.684
  786SOL    HW2 2531   1.910   2.760   2.673
  787SOL     OW 2532   2.734   2.201   2.049
  787SOL    HW1 2533   2.788   2.268   2.006
  787SOL    HW2 2534   2.773   2.118   2.023
  788SOL     OW 2535   2.413   2.051   2.760
  788SOL    HW1 2536   2.388   2.078   2.849
  788SOL    HW2 2537   2.419   2.133   2.711
  789SOL     OW 2538   2.246   2.557   2.336
  789SOL    HW1 2539   2.276   2.466   2.347
  789SOL    HW2 2540   2.155   2.556   2.363
  790SOL     OW 2541   2.483   1.970   1.978
  790SOL    HW1 2542   2.576   1.949   1.981
  790SOL    HW2 2543   2.458   1.959   1.886
  791SOL     OW 2544   2.784   2.373   2.758
  791SOL    HW1 2545   2.760   2.352   2.668
  791SOL    HW2 2546   2.816   2.290   2.794
  792SOL     OW 2547   2.407   1.920   2.365
  792SOL    HW1 2548   2.328   1.924   2.420
  792SOL    HW2 2549   2.403   2.001   2.313
  793SOL     OW 2550   2.800   2.102   2.325
  793SOL    HW1 2551   2.762   2.149   2.251
  793SOL    HW2 2552   2.889   2.080   2.297
  794SOL     OW 2553   2.889   2.414   1.875
  794SOL    HW1 2554   2.844   2.496   1.854
  794SOL    HW2 2555   2.939   2.434   1.954
  795SOL     OW 2556   2.741   2.318   2.497
  795SOL    HW1 2557   2.686   2.379   2.448
  795SOL    HW2 2558   2.741   2.238   2.444
  796SOL     OW 2559   2.858   1.923   2.614
  796SOL    HW1 2560   2.808   1.895   2.537
  796SOL    HW2 2561   2.858   1.847   2.672
  797SOL     OW 2562   2.384   2.122   2.184
  797SOL    HW1 2563   2.422   2.071   2.113
  797SOL    HW2 2564   2.373   2.210   2.149
  798SOL     OW 2565   2.421   2.396   2.723
  798SOL    HW1 2566   2.436   2.456   2.650
  798SOL    HW2 2567   2.477   2.430   2.793
  799SOL     OW 2568   2.431   2.730   2.882
  799SOL    HW1 2569   2.483   2.807   2.861
  799SOL    HW2 2570   2.412   2.739   2.976
  800SOL     OW 2571   0.055   2.388   2.138
  800SOL    HW1 2572   0.094   2.319   2.192
  800SOL    HW2 2573   0.028   2.456   2.201
  801SOL     OW 2574   2.161   2.070   0.091
  801SOL    HW1 2575   2.176   2.104   0.178
  801SOL    HW2 2576   2.152   1.975   0.103
  802SOL     OW 2577   2.589   2.499   2.915
  802SOL    HW1 2578   2.662   2.479   2.856
  802SOL    HW2 2579   2.564   2.588   2.893
  803SOL     OW 2580   2.161   1.931   2.483
  803SOL    HW1 2581   2.146   2.021   2.511
  803SOL    HW2 2582   2.167   1.880   2.564
  804SOL     OW 2583   2.862   2.632   2.828
  804SOL    HW1 2584   2.897   2.638   2.917
  804SOL    HW2 2585   2.870   2.539   2.805
  805SOL     OW 2586   2.171   2.673   2.812
  805SOL    HW1 2587   2.264   2.696   2.810
  805SOL    HW2 2588   2.170   2.582   2.844
  806SOL     OW 2589   2.188   2.391   2.865
  806SOL    HW1 2590   2.152   2.302   2.858
  806SOL    HW2 2591   2.268   2.389   2.812
  807SOL     OW 2592   2.877   2.641   0.095
  807SOL    HW1 2593   2.912   2.633   0.184
  807SOL    HW2 2594   2.784   2.660   0.108
  808SOL     OW 2595   2.673   2.424   2.213
  808SOL    HW1 2596   2.670   2.352   2.150
  808SOL    HW2 2597   2.601   2.482   2.187
  809SOL     OW 2598   2.565   2.311   0.105
  809SOL    HW1 2599   2.484   2.263   0.089
  809SOL    HW2 2600   2.565   2.381   0.040
  810SOL     OW 2601   2.334   2.353   2.049
  810SOL    HW1 2602   2.387   2.430   2.070
  810SOL    HW2 2603   2.244   2.387   2.043
  811SOL     OW 2604   0.176   2.695   2.179
  811SOL    HW1 2605   0.093   2.659   2.210
  811SOL    HW2 2606   0.181   2.667   2.087
  812SOL     OW 2607   2.128   2.180   2.579
  812SOL    HW1 2608   2.045   2.220   2.554
  812SOL    HW2 2609   2.122   2.171   2.674
  813SOL     OW 2610   2.765   2.758   2.117
  813SOL    HW1 2611   2.836   2.818   2.096
  813SOL    HW2 2612   2.799   2.703   2.188
  814SOL     OW 2613   2.875   2.098   2.823
  814SOL    HW1 2614   2.873   2.057   2.737
  814SOL    HW2 2615   2.890   2.026   2.885
  815SOL     OW 2616   1.935   2.014   2.172
  815SOL    HW1 2617   1.898   2.096   2.137
  815SOL    HW2 2618   2.029   2.030   2.176
  816SOL     OW 2619   2.457   2.589   2.517
  816SOL    HW1 2620   2.489   2.678   2.525
  816SOL    HW2 2621   2.380   2.595   2.460
  817SOL     OW 2622   2.734   2.828   2.715
  817SOL    HW1 2623   2.779   2.753   2.754
  817SOL    HW2 2624   2.702   2.879   2.790
  818SOL     OW 2625   2.946   2.827   1.895
  818SOL    HW1 2626   2.912   2.916   1.902
  818SOL    HW2 2627   0.007   2.819   1.968
  819SOL     OW 2628   2.289   2.294   2.383
  819SOL    HW1 2629   2.320   2.219   2.331
  819SOL    HW2 2630   2.247   2.254   2.459
  820SOL     OW 2631   1.887   2.919   2.166
  820SOL    HW1 2632   1.978   2.927   2.137
  820SOL    HW2 2633   1.879   2.827   2.193
  821CL      CL 2634   0.309   0.341   2.621
  822CL      CL 2635   0.991   0.204   2.857
   3.00000   3.00000   3.00000
