POLYPHEMUSIN I in water
 2628
    1ARG      N    1   1.964   1.164   1.547
    1ARG     H1    2   1.867   1.151   1.525
    1ARG     H2    3   1.976   1.154   1.647
    1ARG     H3    4   1.991   1.259   1.522
    1ARG     CA    5   2.048   1.065   1.477
    1ARG     HA    6   2.032   1.068   1.369
    1ARG     CB    7   2.195   1.099   1.508
    1ARG    HB1    8   2.218   1.070   1.610
    1ARG    HB2    9   2.208   1.207   1.499
    1ARG     CG   10   2.294   1.030   1.416
    1ARG    HG1   11   2.269   1.054   1.312
    1ARG    HG2   12   2.285   0.923   1.432
    1ARG     CD   13   2.438   1.073   1.443
    1ARG    HD1   14   2.439   1.155   1.515
    1ARG    HD2   15   2.482   1.110   1.350
    1ARG     NE   16   2.523   0.964   1.497
    1ARG     HE   17   2.520   0.962   1.598
    1ARG     CZ   18   2.644   0.951   1.449
    1ARG    NH1   19   2.741   1.022   1.497
    1ARG   HH11   20   2.708   1.114   1.527
    1ARG   HH12   21   2.826   1.026   1.444
    1ARG    NH2   22   2.672   0.873   1.349
    1ARG   HH21   23   2.606   0.801   1.324
    1ARG   HH22   24   2.766   0.861   1.318
    1ARG      C   25   2.010   0.927   1.531
    1ARG      O   26   2.031   0.910   1.649
    2ARG      N   27   1.953   0.834   1.452
    2ARG      H   28   1.945   0.852   1.353
    2ARG     CA   29   1.900   0.702   1.500
    2ARG     HA   30   1.857   0.648   1.415
    2ARG     CB   31   2.020   0.625   1.559
    2ARG    HB1   32   2.017   0.630   1.668
    2ARG    HB2   33   2.112   0.675   1.531
    2ARG     CG   34   2.037   0.480   1.515
    2ARG    HG1   35   1.947   0.422   1.532
    2ARG    HG2   36   2.120   0.436   1.571
    2ARG     CD   37   2.073   0.483   1.367
    2ARG    HD1   38   2.102   0.583   1.336
    2ARG    HD2   39   1.982   0.457   1.313
    2ARG     NE   40   2.181   0.391   1.333
    2ARG     HE   41   2.277   0.425   1.336
    2ARG     CZ   42   2.161   0.282   1.264
    2ARG    NH1   43   2.048   0.219   1.267
    2ARG   HH11   44   1.975   0.255   1.327
    2ARG   HH12   45   2.021   0.163   1.188
    2ARG    NH2   46   2.253   0.238   1.187
    2ARG   HH21   47   2.329   0.301   1.166
    2ARG   HH22   48   2.234   0.173   1.112
    2ARG      C   49   1.787   0.713   1.606
    2ARG      O   50   1.808   0.780   1.706
    3TRP      N   51   1.672   0.648   1.590
    3TRP      H   52   1.660   0.588   1.509
    3TRP     CA   53   1.563   0.648   1.691
    3TRP     HA   54   1.474   0.605   1.646
    3TRP     CB   55   1.603   0.559   1.808
    3TRP    HB1   56   1.517   0.544   1.874
    3TRP    HB2   57   1.680   0.611   1.866
    3TRP     CG   58   1.661   0.430   1.770
    3TRP    CD1   59   1.592   0.326   1.718
    3TRP    HD1   60   1.485   0.324   1.704
    3TRP    NE1   61   1.678   0.222   1.700
    3TRP    HE1   62   1.644   0.130   1.672
    3TRP    CE2   63   1.808   0.254   1.737
    3TRP    CZ2   64   1.928   0.185   1.742
    3TRP    HZ2   65   1.932   0.080   1.725
    3TRP    CH2   66   2.047   0.250   1.780
    3TRP    HH2   67   2.140   0.197   1.782
    3TRP    CZ3   68   2.041   0.384   1.821
    3TRP    HZ3   69   2.133   0.433   1.853
    3TRP    CE3   70   1.918   0.452   1.824
    3TRP    HE3   71   1.911   0.554   1.858
    3TRP    CD2   72   1.799   0.389   1.780
    3TRP      C   73   1.525   0.786   1.747
    3TRP      O   74   1.566   0.822   1.856
    4CYS      N   75   1.441   0.860   1.674
    4CYS      H   76   1.418   0.825   1.582
    4CYS     CA   77   1.417   1.002   1.697
    4CYS     HA   78   1.342   1.033   1.626
    4CYS     CB   79   1.355   1.029   1.836
    4CYS    HB1   80   1.398   1.121   1.875
    4CYS    HB2   81   1.386   0.951   1.904
    4CYS     SG   82   1.176   1.039   1.859
    4CYS      C   83   1.542   1.086   1.666
    4CYS      O   84   1.657   1.053   1.695
    5PHE      N   85   1.523   1.194   1.590
    5PHE      H   86   1.432   1.211   1.552
    5PHE     CA   87   1.634   1.283   1.556
    5PHE     HA   88   1.725   1.225   1.556
    5PHE     CB   89   1.621   1.340   1.415
    5PHE    HB1   90   1.712   1.395   1.391
    5PHE    HB2   91   1.537   1.409   1.409
    5PHE     CG   92   1.603   1.228   1.314
    5PHE    CD1   93   1.475   1.175   1.293
    5PHE    HD1   94   1.389   1.218   1.343
    5PHE    CE1   95   1.456   1.065   1.208
    5PHE    HE1   96   1.356   1.027   1.191
    5PHE     CZ   97   1.567   1.005   1.146
    5PHE     HZ   98   1.553   0.919   1.082
    5PHE    CE2   99   1.696   1.057   1.168
    5PHE    HE2  100   1.781   1.010   1.120
    5PHE    CD2  101   1.714   1.169   1.251
    5PHE    HD2  102   1.813   1.209   1.266
    5PHE      C  103   1.653   1.383   1.668
    5PHE      O  104   1.749   1.371   1.745
    6ARG      N  105   1.552   1.468   1.685
    6ARG      H  106   1.475   1.461   1.621
    6ARG     CA  107   1.548   1.575   1.785
    6ARG     HA  108   1.451   1.619   1.782
    6ARG     CB  109   1.562   1.513   1.924
    6ARG    HB1  110   1.667   1.503   1.951
    6ARG    HB2  111   1.516   1.414   1.925
    6ARG     CG  112   1.490   1.599   2.026
    6ARG    HG1  113   1.385   1.606   1.999
    6ARG    HG2  114   1.535   1.698   2.027
    6ARG     CD  115   1.500   1.537   2.165
    6ARG    HD1  116   1.506   1.428   2.155
    6ARG    HD2  117   1.411   1.562   2.221
    6ARG     NE  118   1.619   1.585   2.235
    6ARG     HE  119   1.691   1.634   2.184
    6ARG     CZ  120   1.655   1.537   2.351
    6ARG    NH1  121   1.573   1.543   2.452
    6ARG   HH11  122   1.488   1.596   2.443
    6ARG   HH12  123   1.597   1.499   2.539
    6ARG    NH2  124   1.772   1.482   2.363
    6ARG   HH21  125   1.831   1.472   2.283
    6ARG   HH22  126   1.792   1.426   2.445
    6ARG      C  127   1.650   1.685   1.753
    6ARG      O  128   1.768   1.668   1.778
    7VAL      N  129   1.605   1.793   1.688
    7VAL      H  130   1.506   1.802   1.673
    7VAL     CA  131   1.695   1.898   1.636
    7VAL     HA  132   1.784   1.904   1.699
    7VAL     CB  133   1.740   1.867   1.492
    7VAL     HB  134   1.653   1.844   1.430
    7VAL    CG1  135   1.816   1.984   1.428
    7VAL   HG11  136   1.851   1.957   1.328
    7VAL   HG12  137   1.753   2.072   1.417
    7VAL   HG13  138   1.900   2.005   1.491
    7VAL    CG2  139   1.837   1.750   1.491
    7VAL   HG21  140   1.885   1.744   1.394
    7VAL   HG22  141   1.914   1.764   1.567
    7VAL   HG23  142   1.783   1.658   1.510
    7VAL      C  143   1.627   2.034   1.639
    7VAL      O  144   1.533   2.055   1.563
    8CYS      N  145   1.677   2.127   1.721
    8CYS      H  146   1.754   2.100   1.781
    8CYS     CA  147   1.620   2.262   1.732
    8CYS     HA  148   1.516   2.259   1.703
    8CYS     CB  149   1.622   2.311   1.877
    8CYS    HB1  150   1.628   2.420   1.876
    8CYS    HB2  151   1.710   2.273   1.927
    8CYS     SG  152   1.478   2.268   1.976
    8CYS      C  153   1.686   2.364   1.640
    8CYS      O  154   1.797   2.410   1.664
    9TYR      N  155   1.608   2.410   1.543
    9TYR      H  156   1.517   2.368   1.533
    9TYR     CA  157   1.647   2.506   1.441
    9TYR     HA  158   1.754   2.495   1.426
    9TYR     CB  159   1.578   2.468   1.310
    9TYR    HB1  160   1.502   2.541   1.281
    9TYR    HB2  161   1.527   2.373   1.319
    9TYR     CG  162   1.679   2.453   1.201
    9TYR    CD1  163   1.753   2.334   1.195
    9TYR    HD1  164   1.739   2.257   1.269
    9TYR    CE1  165   1.847   2.316   1.094
    9TYR    HE1  166   1.905   2.226   1.092
    9TYR     CZ  167   1.865   2.415   0.995
    9TYR     OH  168   1.949   2.394   0.891
    9TYR     HH  169   1.959   2.471   0.835
    9TYR    CE2  170   1.793   2.536   1.004
    9TYR    HE2  171   1.808   2.613   0.931
    9TYR    CD2  172   1.703   2.557   1.109
    9TYR    HD2  173   1.650   2.651   1.118
    9TYR      C  174   1.627   2.651   1.483
    9TYR      O  175   1.580   2.734   1.405
   10ARG      N  176   1.660   2.683   1.609
   10ARG      H  177   1.703   2.612   1.666
   10ARG     CA  178   1.655   2.822   1.660
   10ARG     HA  179   1.676   2.820   1.767
   10ARG     CB  180   1.767   2.902   1.591
   10ARG    HB1  181   1.767   0.000   1.634
   10ARG    HB2  182   1.744   2.914   1.485
   10ARG     CG  183   1.907   2.838   1.606
   10ARG    HG1  184   1.905   2.741   1.557
   10ARG    HG2  185   1.928   2.822   1.712
   10ARG     CD  186   2.020   2.921   1.544
   10ARG    HD1  187   2.075   2.972   1.624
   10ARG    HD2  188   1.977   2.997   1.479
   10ARG     NE  189   2.114   2.834   1.470
   10ARG     HE  190   2.156   2.758   1.523
   10ARG     CZ  191   2.138   2.835   1.341
   10ARG    NH1  192   2.115   2.940   1.268
   10ARG   HH11  193   2.103   0.027   1.318
   10ARG   HH12  194   2.136   2.938   1.169
   10ARG    NH2  195   2.182   2.730   1.278
   10ARG   HH21  196   2.207   2.646   1.329
   10ARG   HH22  197   2.187   2.728   1.178
   10ARG      C  198   1.516   2.885   1.646
   10ARG      O  199   1.502   0.004   1.615
   11GLY      N  200   1.413   2.803   1.662
   11GLY      H  201   1.435   2.707   1.687
   11GLY     CA  202   1.272   2.838   1.643
   11GLY    HA1  203   1.262   2.898   1.554
   11GLY    HA2  204   1.237   2.895   1.729
   11GLY      C  205   1.181   2.719   1.621
   11GLY      O  206   1.064   2.724   1.659
   12PHE      N  207   1.236   2.612   1.563
   12PHE      H  208   1.329   2.620   1.525
   12PHE     CA  209   1.161   2.491   1.532
   12PHE     HA  210   1.073   2.489   1.597
   12PHE     CB  211   1.119   2.496   1.385
   12PHE    HB1  212   1.143   2.403   1.336
   12PHE    HB2  213   1.173   2.575   1.332
   12PHE     CG  214   0.971   2.515   1.371
   12PHE    CD1  215   0.884   2.431   1.443
   12PHE    HD1  216   0.922   2.352   1.506
   12PHE    CE1  217   0.747   2.451   1.433
   12PHE    HE1  218   0.679   2.387   1.488
   12PHE     CZ  219   0.696   2.548   1.347
   12PHE     HZ  220   0.590   2.555   1.335
   12PHE    CE2  221   0.783   2.630   1.273
   12PHE    HE2  222   0.744   2.705   1.207
   12PHE    CD2  223   0.922   2.615   1.286
   12PHE    HD2  224   0.989   2.679   1.232
   12PHE      C  225   1.238   2.364   1.559
   12PHE      O  226   1.343   2.342   1.498
   13CYS      N  227   1.185   2.276   1.643
   13CYS      H  228   1.100   2.302   1.693
   13CYS     CA  229   1.250   2.151   1.679
   13CYS     HA  230   1.352   2.158   1.647
   13CYS     CB  231   1.251   2.139   1.831
   13CYS    HB1  232   1.176   2.067   1.863
   13CYS    HB2  233   1.226   2.235   1.876
   13CYS     SG  234   1.410   2.092   1.901
   13CYS      C  235   1.189   2.031   1.606
   13CYS      O  236   1.066   2.018   1.602
   14TYR      N  237   1.272   1.942   1.551
   14TYR      H  238   1.370   1.965   1.550
   14TYR     CA  239   1.231   1.810   1.499
   14TYR     HA  240   1.132   1.821   1.455
   14TYR     CB  241   1.326   1.763   1.389
   14TYR    HB1  242   1.360   1.661   1.409
   14TYR    HB2  243   1.415   1.826   1.386
   14TYR     CG  244   1.258   1.766   1.254
   14TYR    CD1  245   1.253   1.887   1.184
   14TYR    HD1  246   1.293   1.976   1.230
   14TYR    CE1  247   1.198   1.891   1.055
   14TYR    HE1  248   1.203   1.981   0.997
   14TYR     CZ  249   1.142   1.775   0.998
   14TYR     OH  250   1.086   1.783   0.875
   14TYR     HH  251   1.060   1.697   0.841
   14TYR    CE2  252   1.140   1.655   1.072
   14TYR    HE2  253   1.094   1.568   1.029
   14TYR    CD2  254   1.195   1.652   1.202
   14TYR    HD2  255   1.186   1.565   1.264
   14TYR      C  256   1.218   1.705   1.609
   14TYR      O  257   1.273   1.726   1.716
   15ARG      N  258   1.144   1.595   1.584
   15ARG      H  259   1.097   1.591   1.494
   15ARG     CA  260   1.106   1.497   1.688
   15ARG     HA  261   1.196   1.461   1.737
   15ARG     CB  262   1.020   1.567   1.796
   15ARG    HB1  263   1.083   1.637   1.850
   15ARG    HB2  264   0.989   1.492   1.869
   15ARG     CG  265   0.894   1.639   1.748
   15ARG    HG1  266   0.835   1.657   1.837
   15ARG    HG2  267   0.839   1.574   1.680
   15ARG     CD  268   0.915   1.774   1.680
   15ARG    HD1  269   0.957   1.760   1.581
   15ARG    HD2  270   0.987   1.830   1.740
   15ARG     NE  271   0.793   1.855   1.667
   15ARG     HE  272   0.778   1.926   1.738
   15ARG     CZ  273   0.731   1.882   1.553
   15ARG    NH1  274   0.712   1.791   1.462
   15ARG   HH11  275   0.742   1.697   1.478
   15ARG   HH12  276   0.667   1.820   1.377
   15ARG    NH2  277   0.690   2.003   1.530
   15ARG   HH21  278   0.712   2.072   1.600
   15ARG   HH22  279   0.657   2.030   1.439
   15ARG      C  280   1.034   1.370   1.638
   15ARG      O  281   0.928   1.333   1.687
   16LYS      N  282   1.089   1.301   1.537
   16LYS      H  283   1.182   1.327   1.507
   16LYS     CA  284   1.023   1.189   1.470
   16LYS     HA  285   0.922   1.176   1.513
   16LYS     CB  286   1.007   1.221   1.320
   16LYS    HB1  287   1.067   1.153   1.259
   16LYS    HB2  288   1.043   1.322   1.300
   16LYS     CG  289   0.860   1.213   1.277
   16LYS    HG1  290   0.844   1.282   1.194
   16LYS    HG2  291   0.794   1.244   1.358
   16LYS     CD  292   0.823   1.074   1.226
   16LYS    HD1  293   0.890   0.998   1.266
   16LYS    HD2  294   0.835   1.078   1.118
   16LYS     CE  295   0.679   1.036   1.259
   16LYS    HE1  296   0.615   1.125   1.251
   16LYS    HE2  297   0.674   1.002   1.362
   16LYS     NZ  298   0.632   0.932   1.165
   16LYS    HZ1  299   0.534   0.910   1.184
   16LYS    HZ2  300   0.639   0.964   1.069
   16LYS    HZ3  301   0.684   0.847   1.177
   16LYS      C  302   1.095   1.058   1.498
   16LYS      O  303   1.200   1.032   1.440
   17CYS      N  304   1.040   0.979   1.590
   17CYS      H  305   0.954   1.007   1.634
   17CYS     CA  306   1.089   0.844   1.617
   17CYS     HA  307   1.196   0.845   1.627
   17CYS     CB  308   1.029   0.792   1.747
   17CYS    HB1  309   1.029   0.682   1.747
   17CYS    HB2  310   0.925   0.824   1.756
   17CYS     SG  311   1.119   0.846   1.895
   17CYS      C  312   1.054   0.756   1.497
   17CYS      O  313   0.947   0.777   1.440
   18ARG      N  314   1.148   0.669   1.457
   18ARG      H  315   1.236   0.670   1.506
   18ARG     CA  316   1.132   0.566   1.353
   18ARG     HA  317   1.047   0.503   1.382
   18ARG     CB  318   1.101   0.635   1.220
   18ARG    HB1  319   1.189   0.687   1.184
   18ARG    HB2  320   1.023   0.709   1.234
   18ARG     CG  321   1.048   0.536   1.118
   18ARG    HG1  322   0.973   0.471   1.163
   18ARG    HG2  323   1.130   0.475   1.079
   18ARG     CD  324   0.982   0.615   1.006
   18ARG    HD1  325   0.927   0.700   1.048
   18ARG    HD2  326   0.907   0.552   0.958
   18ARG     NE  327   1.079   0.664   0.907
   18ARG     HE  328   1.140   0.742   0.932
   18ARG     CZ  329   1.079   0.620   0.784
   18ARG    NH1  330   1.048   0.496   0.760
   18ARG   HH11  331   1.032   0.433   0.837
   18ARG   HH12  332   1.001   0.474   0.672
   18ARG    NH2  333   1.107   0.696   0.682
   18ARG   HH21  334   1.141   0.791   0.695
   18ARG   HH22  335   1.084   0.664   0.590
   18ARG      C  336   1.255   0.475   1.337
   18ARG      O  337   1.346   0.498   1.259
   19NH2      N  338   1.257   0.365   1.409
   19NH2     H1  339   1.183   0.346   1.474
   19NH2     H2  340   1.333   0.300   1.398
   20SOL     OW  341   0.243   0.658   0.107
   20SOL    HW1  342   0.172   0.614   0.154
   20SOL    HW2  343   0.252   0.609   0.025
   21SOL     OW  344   0.200   0.281   1.008
   21SOL    HW1  345   0.243   0.248   1.086
   21SOL    HW2  346   0.111   0.244   1.012
   22SOL     OW  347   0.009   0.384   0.653
   22SOL    HW1  348   2.927   0.423   0.681
   22SOL    HW2  349   2.982   0.310   0.598
   23SOL     OW  350   0.558   1.303   1.148
   23SOL    HW1  351   0.471   1.322   1.112
   23SOL    HW2  352   0.581   1.383   1.196
   24SOL     OW  353   1.557   1.507   0.702
   24SOL    HW1  354   1.509   1.501   0.784
   24SOL    HW2  355   1.489   1.518   0.635
   25SOL     OW  356   1.746   0.594   0.239
   25SOL    HW1  357   1.755   0.582   0.144
   25SOL    HW2  358   1.724   0.507   0.271
   26SOL     OW  359   0.699   1.013   0.656
   26SOL    HW1  360   0.734   0.985   0.741
   26SOL    HW2  361   0.619   1.060   0.678
   27SOL     OW  362   0.699   1.147   1.803
   27SOL    HW1  363   0.755   1.225   1.807
   27SOL    HW2  364   0.613   1.181   1.779
   28SOL     OW  365   0.328   1.430   1.066
   28SOL    HW1  366   0.258   1.390   1.015
   28SOL    HW2  367   0.378   1.481   1.002
   29SOL     OW  368   0.452   0.402   1.493
   29SOL    HW1  369   0.525   0.340   1.496
   29SOL    HW2  370   0.374   0.349   1.508
   30SOL     OW  371   1.608   0.455   0.741
   30SOL    HW1  372   1.534   0.476   0.683
   30SOL    HW2  373   1.636   0.539   0.776
   31SOL     OW  374   0.219   1.713   0.483
   31SOL    HW1  375   0.238   1.798   0.523
   31SOL    HW2  376   0.286   1.704   0.415
   32SOL     OW  377   0.249   1.449   0.534
   32SOL    HW1  378   0.218   1.539   0.525
   32SOL    HW2  379   0.183   1.406   0.589
   33SOL     OW  380   0.262   1.078   0.898
   33SOL    HW1  381   0.252   0.995   0.944
   33SOL    HW2  382   0.198   1.136   0.939
   34SOL     OW  383   0.590   0.979   0.144
   34SOL    HW1  384   0.593   1.057   0.089
   34SOL    HW2  385   0.629   1.006   0.227
   35SOL     OW  386   0.125   0.626   0.573
   35SOL    HW1  387   0.083   0.549   0.612
   35SOL    HW2  388   0.117   0.694   0.640
   36SOL     OW  389   1.845   1.761   0.342
   36SOL    HW1  390   1.909   1.727   0.404
   36SOL    HW2  391   1.874   1.851   0.324
   37SOL     OW  392   0.017   1.595   0.112
   37SOL    HW1  393   0.017   1.502   0.135
   37SOL    HW2  394   2.993   1.640   0.193
   38SOL     OW  395   1.687   0.913   0.635
   38SOL    HW1  396   1.769   0.871   0.607
   38SOL    HW2  397   1.664   0.971   0.563
   39SOL     OW  398   1.647   1.106   0.436
   39SOL    HW1  399   1.731   1.111   0.390
   39SOL    HW2  400   1.655   1.171   0.507
   40SOL     OW  401   0.131   0.745   1.584
   40SOL    HW1  402   0.226   0.751   1.593
   40SOL    HW2  403   0.098   0.832   1.607
   41SOL     OW  404   0.609   1.381   0.736
   41SOL    HW1  405   0.560   1.299   0.741
   41SOL    HW2  406   0.595   1.412   0.647
   42SOL     OW  407   0.820   0.018   0.537
   42SOL    HW1  408   0.855   0.099   0.502
   42SOL    HW2  409   0.729   0.015   0.505
   43SOL     OW  410   0.187   0.951   1.277
   43SOL    HW1  411   0.273   0.912   1.257
   43SOL    HW2  412   0.130   0.917   1.208
   44SOL     OW  413   1.492   1.018   0.216
   44SOL    HW1  414   1.456   0.933   0.241
   44SOL    HW2  415   1.560   1.035   0.281
   45SOL     OW  416   0.331   0.261   1.783
   45SOL    HW1  417   0.389   0.321   1.830
   45SOL    HW2  418   0.250   0.260   1.834
   46SOL     OW  419   1.474   1.407   0.963
   46SOL    HW1  420   1.407   1.397   1.031
   46SOL    HW2  421   1.472   1.324   0.914
   47SOL     OW  422   1.659   1.734   0.581
   47SOL    HW1  423   1.644   1.711   0.490
   47SOL    HW2  424   1.631   1.657   0.631
   48SOL     OW  425   0.596   0.729   0.271
   48SOL    HW1  426   0.596   0.807   0.215
   48SOL    HW2  427   0.525   0.744   0.333
   49SOL     OW  428   1.289   0.337   0.926
   49SOL    HW1  429   1.200   0.302   0.930
   49SOL    HW2  430   1.337   0.289   0.993
   50SOL     OW  431   1.585   1.666   0.310
   50SOL    HW1  432   1.674   1.699   0.303
   50SOL    HW2  433   1.559   1.647   0.220
   51SOL     OW  434   0.794   0.540   1.457
   51SOL    HW1  435   0.757   0.560   1.544
   51SOL    HW2  436   0.718   0.516   1.404
   52SOL     OW  437   0.095   0.810   0.772
   52SOL    HW1  438   0.174   0.818   0.826
   52SOL    HW2  439   0.047   0.891   0.786
   53SOL     OW  440   0.139   1.831   1.568
   53SOL    HW1  441   0.127   1.813   1.661
   53SOL    HW2  442   0.056   1.869   1.539
   54SOL     OW  443   0.922   0.343   0.228
   54SOL    HW1  444   0.943   0.399   0.154
   54SOL    HW2  445   0.886   0.263   0.189
   55SOL     OW  446   1.371   1.136   0.538
   55SOL    HW1  447   1.452   1.126   0.488
   55SOL    HW2  448   1.322   1.204   0.492
   56SOL     OW  449   0.507   0.183   0.926
   56SOL    HW1  450   0.538   0.216   1.010
   56SOL    HW2  451   0.545   0.242   0.861
   57SOL     OW  452   1.015   1.447   0.486
   57SOL    HW1  453   0.974   1.509   0.426
   57SOL    HW2  454   0.979   1.469   0.572
   58SOL     OW  455   0.353   1.804   0.853
   58SOL    HW1  456   0.401   1.723   0.865
   58SOL    HW2  457   0.419   1.873   0.862
   59SOL     OW  458   1.779   1.064   0.870
   59SOL    HW1  459   1.748   1.053   0.780
   59SOL    HW2  460   1.699   1.079   0.921
   60SOL     OW  461   0.331   0.936   0.253
   60SOL    HW1  462   0.409   0.958   0.203
   60SOL    HW2  463   0.291   0.864   0.205
   61SOL     OW  464   1.465   0.751   0.745
   61SOL    HW1  465   1.475   0.691   0.819
   61SOL    HW2  466   1.552   0.790   0.733
   62SOL     OW  467   0.460   1.248   1.729
   62SOL    HW1  468   0.426   1.260   1.641
   62SOL    HW2  469   0.385   1.263   1.787
   63SOL     OW  470   1.114   1.771   0.230
   63SOL    HW1  471   1.048   1.726   0.282
   63SOL    HW2  472   1.140   1.707   0.163
   64SOL     OW  473   0.200   0.296   1.493
   64SOL    HW1  474   0.115   0.340   1.499
   64SOL    HW2  475   0.195   0.225   1.556
   65SOL     OW  476   1.626   1.357   0.084
   65SOL    HW1  477   1.605   1.450   0.077
   65SOL    HW2  478   1.542   1.312   0.074
   66SOL     OW  479   0.462   1.722   0.337
   66SOL    HW1  480   0.503   1.794   0.386
   66SOL    HW2  481   0.521   1.706   0.264
   67SOL     OW  482   1.408   0.111   0.433
   67SOL    HW1  483   1.384   0.078   0.347
   67SOL    HW2  484   1.503   0.125   0.428
   68SOL     OW  485   0.279   1.795   1.228
   68SOL    HW1  486   0.295   1.715   1.277
   68SOL    HW2  487   0.222   1.769   1.156
   69SOL     OW  488   0.398   0.690   0.484
   69SOL    HW1  489   0.423   0.598   0.489
   69SOL    HW2  490   0.303   0.690   0.497
   70SOL     OW  491   0.608   0.115   0.107
   70SOL    HW1  492   0.704   0.115   0.115
   70SOL    HW2  493   0.592   0.137   0.015
   71SOL     OW  494   0.774   0.288   1.758
   71SOL    HW1  495   0.839   0.218   1.757
   71SOL    HW2  496   0.714   0.265   1.829
   72SOL     OW  497   0.876   1.531   1.184
   72SOL    HW1  498   0.850   1.508   1.094
   72SOL    HW2  499   0.910   1.450   1.221
   73SOL     OW  500   0.816   1.413   0.941
   73SOL    HW1  501   0.895   1.401   0.890
   73SOL    HW2  502   0.744   1.400   0.878
   74SOL     OW  503   0.545   0.055   0.507
   74SOL    HW1  504   0.456   0.041   0.539
   74SOL    HW2  505   0.537   0.126   0.444
   75SOL     OW  506   1.405   1.207   0.041
   75SOL    HW1  507   1.426   1.138   0.104
   75SOL    HW2  508   1.319   1.239   0.070
   76SOL     OW  509   0.297   0.077   0.205
   76SOL    HW1  510   0.377   0.120   0.173
   76SOL    HW2  511   0.315   2.983   0.195
   77SOL     OW  512   0.947   0.249   0.473
   77SOL    HW1  513   0.921   0.286   0.388
   77SOL    HW2  514   1.042   0.254   0.473
   78SOL     OW  515   1.248   1.557   0.782
   78SOL    HW1  516   1.251   1.621   0.711
   78SOL    HW2  517   1.309   1.591   0.848
   79SOL     OW  518   0.470   1.139   0.736
   79SOL    HW1  519   0.396   1.127   0.796
   79SOL    HW2  520   0.431   1.132   0.649
   80SOL     OW  521   1.276   1.790   0.603
   80SOL    HW1  522   1.321   1.851   0.544
   80SOL    HW2  523   1.210   1.844   0.647
   81SOL     OW  524   1.025   0.502   0.039
   81SOL    HW1  525   1.001   0.589   0.007
   81SOL    HW2  526   1.108   0.515   0.086
   82SOL     OW  527   0.078   0.558   1.388
   82SOL    HW1  528   0.169   0.554   1.359
   82SOL    HW2  529   0.077   0.626   1.456
   83SOL     OW  530   0.580   0.215   1.185
   83SOL    HW1  531   0.612   0.157   1.255
   83SOL    HW2  532   0.486   0.222   1.200
   84SOL     OW  533   0.833   0.472   0.597
   84SOL    HW1  534   0.797   0.515   0.520
   84SOL    HW2  535   0.834   0.379   0.574
   85SOL     OW  536   0.997   0.058   0.761
   85SOL    HW1  537   0.957   0.063   0.674
   85SOL    HW2  538   0.975   2.971   0.793
   86SOL     OW  539   1.439   1.164   0.845
   86SOL    HW1  540   1.362   1.108   0.836
   86SOL    HW2  541   1.468   1.181   0.756
   87SOL     OW  542   1.472   0.606   0.985
   87SOL    HW1  543   1.426   0.522   0.993
   87SOL    HW2  544   1.529   0.610   1.061
   88SOL     OW  545   1.842   0.819   0.390
   88SOL    HW1  546   1.904   0.758   0.430
   88SOL    HW2  547   1.814   0.776   0.309
   89SOL     OW  548   0.492   1.334   0.158
   89SOL    HW1  549   0.412   1.344   0.210
   89SOL    HW2  550   0.490   1.408   0.097
   90SOL     OW  551   1.668   1.262   0.658
   90SOL    HW1  552   1.763   1.269   0.662
   90SOL    HW2  553   1.637   1.352   0.669
   91SOL     OW  554   1.416   0.575   0.097
   91SOL    HW1  555   1.342   0.565   0.157
   91SOL    HW2  556   1.460   0.490   0.099
   92SOL     OW  557   0.538   0.265   0.328
   92SOL    HW1  558   0.566   0.212   0.253
   92SOL    HW2  559   0.502   0.345   0.288
   93SOL     OW  560   0.928   0.127   1.402
   93SOL    HW1  561   0.961   0.100   1.316
   93SOL    HW2  562   1.006   0.161   1.447
   94SOL     OW  563   0.712   1.050   0.373
   94SOL    HW1  564   0.690   1.049   0.466
   94SOL    HW2  565   0.799   1.011   0.368
   95SOL     OW  566   0.420   0.798   1.276
   95SOL    HW1  567   0.452   0.786   1.366
   95SOL    HW2  568   0.371   0.717   1.258
   96SOL     OW  569   0.066   1.572   1.307
   96SOL    HW1  570   0.013   1.646   1.334
   96SOL    HW2  571   0.148   1.581   1.357
   97SOL     OW  572   0.368   1.107   0.487
   97SOL    HW1  573   0.352   1.185   0.435
   97SOL    HW2  574   0.352   1.034   0.427
   98SOL     OW  575   0.563   0.558   0.874
   98SOL    HW1  576   0.561   0.585   0.783
   98SOL    HW2  577   0.651   0.580   0.904
   99SOL     OW  578   1.248   1.344   0.402
   99SOL    HW1  579   1.305   1.418   0.422
   99SOL    HW2  580   1.161   1.372   0.431
  100SOL     OW  581   1.291   1.375   1.165
  100SOL    HW1  582   1.302   1.470   1.168
  100SOL    HW2  583   1.215   1.362   1.108
  101SOL     OW  584   1.585   0.626   0.485
  101SOL    HW1  585   1.544   0.703   0.525
  101SOL    HW2  586   1.635   0.661   0.412
  102SOL     OW  587   0.349   1.522   1.321
  102SOL    HW1  588   0.325   1.485   1.236
  102SOL    HW2  589   0.444   1.523   1.321
  103SOL     OW  590   0.415   0.735   1.599
  103SOL    HW1  591   0.489   0.793   1.581
  103SOL    HW2  592   0.455   0.650   1.618
  104SOL     OW  593   0.990   0.110   1.748
  104SOL    HW1  594   1.047   0.187   1.742
  104SOL    HW2  595   1.037   0.042   1.699
  105SOL     OW  596   0.505   0.056   1.740
  105SOL    HW1  597   0.461   2.975   1.712
  105SOL    HW2  598   0.433   0.118   1.755
  106SOL     OW  599   1.297   0.829   1.007
  106SOL    HW1  600   1.335   0.874   0.932
  106SOL    HW2  601   1.362   0.762   1.029
  107SOL     OW  602   1.204   0.533   0.266
  107SOL    HW1  603   1.202   0.448   0.310
  107SOL    HW2  604   1.207   0.596   0.338
  108SOL     OW  605   0.322   0.205   1.248
  108SOL    HW1  606   0.289   0.247   1.328
  108SOL    HW2  607   0.278   0.120   1.246
  109SOL     OW  608   0.028   1.305   1.282
  109SOL    HW1  609   0.066   1.263   1.359
  109SOL    HW2  610   0.042   1.399   1.296
  110SOL     OW  611   0.310   0.063   0.644
  110SOL    HW1  612   0.305   0.153   0.676
  110SOL    HW2  613   0.286   0.009   0.719
  111SOL     OW  614   1.614   0.370   0.372
  111SOL    HW1  615   1.649   0.309   0.437
  111SOL    HW2  616   1.592   0.448   0.423
  112SOL     OW  617   1.940   1.442   1.555
  112SOL    HW1  618   1.930   1.507   1.485
  112SOL    HW2  619   1.952   1.494   1.634
  113SOL     OW  620   0.358   0.926   1.799
  113SOL    HW1  621   0.433   0.939   1.857
  113SOL    HW2  622   0.379   0.847   1.750
  114SOL     OW  623   1.504   0.306   0.126
  114SOL    HW1  624   1.462   0.221   0.137
  114SOL    HW2  625   1.559   0.316   0.204
  115SOL     OW  626   1.300   0.825   0.037
  115SOL    HW1  627   1.339   0.738   0.048
  115SOL    HW2  628   1.321   0.849   2.947
  116SOL     OW  629   1.079   1.341   0.860
  116SOL    HW1  630   1.074   1.264   0.804
  116SOL    HW2  631   1.134   1.403   0.812
  117SOL     OW  632   0.315   0.809   0.968
  117SOL    HW1  633   0.392   0.816   0.911
  117SOL    HW2  634   0.308   0.716   0.988
  118SOL     OW  635   0.336   0.520   1.013
  118SOL    HW1  636   0.294   0.436   0.992
  118SOL    HW2  637   0.413   0.524   0.956
  119SOL     OW  638   1.141   0.386   1.674
  119SOL    HW1  639   1.086   0.414   1.748
  119SOL    HW2  640   1.231   0.389   1.709
  120SOL     OW  641   0.004   1.317   0.174
  120SOL    HW1  642   2.913   1.334   0.147
  120SOL    HW2  643   2.998   1.240   0.230
  121SOL     OW  644   0.103   1.799   0.982
  121SOL    HW1  645   0.036   1.760   0.925
  121SOL    HW2  646   0.179   1.810   0.924
  122SOL     OW  647   0.501   1.574   0.905
  122SOL    HW1  648   0.574   1.631   0.930
  122SOL    HW2  649   0.540   1.510   0.846
  123SOL     OW  650   0.042   0.577   1.114
  123SOL    HW1  651   0.117   0.530   1.077
  123SOL    HW2  652   0.043   0.555   1.207
  124SOL     OW  653   0.189   0.518   1.719
  124SOL    HW1  654   0.262   0.489   1.664
  124SOL    HW2  655   0.156   0.597   1.676
  125SOL     OW  656   0.823   0.590   0.342
  125SOL    HW1  657   0.829   0.508   0.292
  125SOL    HW2  658   0.738   0.626   0.317
  126SOL     OW  659   1.651   0.609   1.191
  126SOL    HW1  660   1.624   0.544   1.255
  126SOL    HW2  661   1.729   0.572   1.150
  127SOL     OW  662   0.281   1.561   1.741
  127SOL    HW1  663   0.227   1.623   1.790
  127SOL    HW2  664   0.252   1.475   1.772
  128SOL     OW  665   0.640   0.477   1.238
  128SOL    HW1  666   0.621   0.384   1.241
  128SOL    HW2  667   0.700   0.487   1.164
  129SOL     OW  668   0.440   0.496   0.215
  129SOL    HW1  669   0.513   0.557   0.218
  129SOL    HW2  670   0.365   0.549   0.188
  130SOL     OW  671   0.152   1.138   1.466
  130SOL    HW1  672   0.144   1.089   1.548
  130SOL    HW2  673   0.167   1.071   1.399
  131SOL     OW  674   1.286   0.825   0.316
  131SOL    HW1  675   1.215   0.883   0.342
  131SOL    HW2  676   1.289   0.833   0.220
  132SOL     OW  677   1.744   1.743   1.137
  132SOL    HW1  678   1.817   1.783   1.090
  132SOL    HW2  679   1.744   1.651   1.109
  133SOL     OW  680   0.088   1.232   1.030
  133SOL    HW1  681   0.067   1.255   1.121
  133SOL    HW2  682   0.015   1.268   0.979
  134SOL     OW  683   0.598   1.643   1.748
  134SOL    HW1  684   0.538   1.717   1.754
  134SOL    HW2  685   0.670   1.674   1.693
  135SOL     OW  686   0.896   0.086   0.146
  135SOL    HW1  687   0.908   0.054   0.057
  135SOL    HW2  688   0.927   0.015   0.202
  136SOL     OW  689   1.727   0.143   0.510
  136SOL    HW1  690   1.795   0.138   0.443
  136SOL    HW2  691   1.727   0.055   0.549
  137SOL     OW  692   1.393   1.567   0.482
  137SOL    HW1  693   1.454   1.598   0.415
  137SOL    HW2  694   1.344   1.645   0.508
  138SOL     OW  695   0.125   1.794   1.838
  138SOL    HW1  696   0.078   1.731   1.892
  138SOL    HW2  697   0.184   1.838   1.900
  139SOL     OW  698   1.272   0.926   0.676
  139SOL    HW1  699   1.343   0.863   0.682
  139SOL    HW2  700   1.306   0.997   0.621
  140SOL     OW  701   1.858   0.165   0.976
  140SOL    HW1  702   1.860   0.085   0.925
  140SOL    HW2  703   1.781   0.212   0.946
  141SOL     OW  704   0.271   0.344   0.753
  141SOL    HW1  705   0.181   0.367   0.729
  141SOL    HW2  706   0.263   0.307   0.842
  142SOL     OW  707   1.206   1.603   0.030
  142SOL    HW1  708   1.199   1.512   0.061
  142SOL    HW2  709   1.137   1.611   2.964
  143SOL     OW  710   0.954   0.924   0.333
  143SOL    HW1  711   0.985   0.957   0.248
  143SOL    HW2  712   0.919   0.837   0.314
  144SOL     OW  713   1.486   1.600   0.050
  144SOL    HW1  714   1.391   1.613   0.050
  144SOL    HW2  715   1.515   1.638   2.967
  145SOL     OW  716   0.371   1.293   1.484
  145SOL    HW1  717   0.356   1.378   1.442
  145SOL    HW2  718   0.288   1.247   1.474
  146SOL     OW  719   1.037   1.088   0.733
  146SOL    HW1  720   0.954   1.064   0.693
  146SOL    HW2  721   1.104   1.061   0.669
  147SOL     OW  722   1.031   0.245   0.952
  147SOL    HW1  723   1.016   0.187   0.877
  147SOL    HW2  724   1.010   0.191   1.029
  148SOL     OW  725   0.599   1.492   0.488
  148SOL    HW1  726   0.646   1.443   0.421
  148SOL    HW2  727   0.540   1.550   0.440
  149SOL     OW  728   1.699   0.402   1.369
  149SOL    HW1  729   1.789   0.422   1.398
  149SOL    HW2  730   1.706   0.317   1.327
  150SOL     OW  731   0.258   1.327   0.298
  150SOL    HW1  732   0.172   1.342   0.259
  150SOL    HW2  733   0.258   1.379   0.378
  151SOL     OW  734   0.115   0.992   1.701
  151SOL    HW1  735   0.052   0.976   1.771
  151SOL    HW2  736   0.201   0.980   1.742
  152SOL     OW  737   0.668   0.218   1.488
  152SOL    HW1  738   0.753   0.189   1.456
  152SOL    HW2  739   0.676   0.217   1.583
  153SOL     OW  740   0.069   0.311   0.051
  153SOL    HW1  741   2.978   0.329   0.029
  153SOL    HW2  742   0.117   0.388   0.023
  154SOL     OW  743   1.424   0.819   1.395
  154SOL    HW1  744   1.378   0.882   1.339
  154SOL    HW2  745   1.515   0.850   1.395
  155SOL     OW  746   0.044   0.204   0.302
  155SOL    HW1  747   0.047   0.247   0.216
  155SOL    HW2  748   0.121   0.147   0.302
  156SOL     OW  749   1.180   1.348   0.124
  156SOL    HW1  750   1.086   1.338   0.112
  156SOL    HW2  751   1.194   1.337   0.218
  157SOL     OW  752   1.503   1.764   0.962
  157SOL    HW1  753   1.521   1.831   0.896
  157SOL    HW2  754   1.576   1.770   1.023
  158SOL     OW  755   0.720   0.570   1.721
  158SOL    HW1  756   0.716   0.603   1.810
  158SOL    HW2  757   0.741   0.477   1.730
  159SOL     OW  758   0.391   1.739   1.554
  159SOL    HW1  759   0.304   1.776   1.541
  159SOL    HW2  760   0.376   1.658   1.603
  160SOL     OW  761   1.228   0.319   0.461
  160SOL    HW1  762   1.284   0.243   0.444
  160SOL    HW2  763   1.269   0.363   0.535
  161SOL     OW  764   0.586   0.753   0.674
  161SOL    HW1  765   0.628   0.833   0.641
  161SOL    HW2  766   0.521   0.731   0.607
  162SOL     OW  767   1.670   0.926   1.446
  162SOL    HW1  768   1.694   0.960   1.532
  162SOL    HW2  769   1.718   0.983   1.385
  163SOL     OW  770   0.898   1.385   0.065
  163SOL    HW1  771   0.826   1.411   0.123
  163SOL    HW2  772   0.872   1.416   2.979
  164SOL     OW  773   0.666   1.804   0.965
  164SOL    HW1  774   0.629   1.884   0.927
  164SOL    HW2  775   0.749   1.792   0.918
  165SOL     OW  776   0.837   0.954   0.905
  165SOL    HW1  777   0.920   0.907   0.897
  165SOL    HW2  778   0.861   1.046   0.905
  166SOL     OW  779   1.104   1.024   0.104
  166SOL    HW1  780   1.064   1.062   0.026
  166SOL    HW2  781   1.163   0.957   0.070
  167SOL     OW  782   1.858   1.547   0.842
  167SOL    HW1  783   1.785   1.556   0.781
  167SOL    HW2  784   1.821   1.501   0.917
  168SOL     OW  785   0.230   1.307   1.860
  168SOL    HW1  786   0.167   1.238   1.841
  168SOL    HW2  787   0.223   1.320   1.955
  169SOL     OW  788   0.126   1.244   0.667
  169SOL    HW1  789   0.075   1.174   0.707
  169SOL    HW2  790   0.164   1.204   0.589
  170SOL     OW  791   0.644   1.418   1.600
  170SOL    HW1  792   0.590   1.343   1.625
  170SOL    HW2  793   0.617   1.487   1.660
  171SOL     OW  794   1.773   0.169   1.236
  171SOL    HW1  795   1.771   0.074   1.245
  171SOL    HW2  796   1.793   0.184   1.144
  172SOL     OW  797   0.474   0.429   0.552
  172SOL    HW1  798   0.465   0.378   0.472
  172SOL    HW2  799   0.403   0.399   0.609
  173SOL     OW  800   1.713   1.470   1.082
  173SOL    HW1  801   1.626   1.456   1.045
  173SOL    HW2  802   1.704   1.443   1.174
  174SOL     OW  803   0.328   0.545   1.289
  174SOL    HW1  804   0.386   0.493   1.344
  174SOL    HW2  805   0.349   0.518   1.200
  175SOL     OW  806   0.834   1.572   0.673
  175SOL    HW1  807   0.828   1.634   0.601
  175SOL    HW2  808   0.751   1.524   0.671
  176SOL     OW  809   1.422   0.220   1.130
  176SOL    HW1  810   1.428   0.139   1.180
  176SOL    HW2  811   1.401   0.287   1.194
  177SOL     OW  812   1.016   0.018   1.159
  177SOL    HW1  813   0.929   0.005   1.120
  177SOL    HW2  814   1.076   2.973   1.099
  178SOL     OW  815   0.766   1.330   0.340
  178SOL    HW1  816   0.729   1.243   0.323
  178SOL    HW2  817   0.860   1.316   0.342
  179SOL     OW  818   0.619   1.549   1.277
  179SOL    HW1  819   0.605   1.632   1.323
  179SOL    HW2  820   0.707   1.557   1.239
  180SOL     OW  821   1.340   0.057   0.171
  180SOL    HW1  822   1.409   2.993   0.154
  180SOL    HW2  823   1.259   0.012   0.149
  181SOL     OW  824   1.332   0.449   0.681
  181SOL    HW1  825   1.268   0.520   0.686
  181SOL    HW2  826   1.324   0.404   0.765
  182SOL     OW  827   1.613   0.235   0.896
  182SOL    HW1  828   1.525   0.218   0.930
  182SOL    HW2  829   1.601   0.308   0.835
  183SOL     OW  830   0.068   1.076   0.358
  183SOL    HW1  831   0.144   1.059   0.302
  183SOL    HW2  832   2.998   1.024   0.318
  184SOL     OW  833   0.895   1.651   0.356
  184SOL    HW1  834   0.832   1.636   0.286
  184SOL    HW2  835   0.859   1.725   0.405
  185SOL     OW  836   0.223   0.664   1.968
  185SOL    HW1  837   0.166   0.618   2.030
  185SOL    HW2  838   0.226   0.606   1.891
  186SOL     OW  839   0.239   0.251   2.848
  186SOL    HW1  840   0.242   0.235   2.943
  186SOL    HW2  841   0.147   0.236   2.825
  187SOL     OW  842   0.006   0.393   2.535
  187SOL    HW1  843   2.915   0.424   2.541
  187SOL    HW2  844   0.002   0.320   2.473
  188SOL     OW  845   1.133   0.698   2.564
  188SOL    HW1  846   1.182   0.779   2.550
  188SOL    HW2  847   1.083   0.713   2.644
  189SOL     OW  848   1.777   0.595   2.100
  189SOL    HW1  849   1.726   0.601   2.019
  189SOL    HW2  850   1.736   0.524   2.149
  190SOL     OW  851   0.749   1.146   2.896
  190SOL    HW1  852   0.683   1.190   2.950
  190SOL    HW2  853   0.797   1.218   2.855
  191SOL     OW  854   0.685   1.008   2.509
  191SOL    HW1  855   0.750   0.995   2.578
  191SOL    HW2  856   0.614   1.058   2.551
  192SOL     OW  857   0.325   1.443   2.934
  192SOL    HW1  858   0.268   1.399   2.871
  192SOL    HW2  859   0.386   1.493   2.880
  193SOL     OW  860   1.613   0.457   2.591
  193SOL    HW1  861   1.534   0.476   2.542
  193SOL    HW2  862   1.612   0.521   2.663
  194SOL     OW  863   0.268   1.433   2.393
  194SOL    HW1  864   0.231   1.520   2.381
  194SOL    HW2  865   0.204   1.387   2.449
  195SOL     OW  866   0.239   1.086   2.748
  195SOL    HW1  867   0.257   1.005   2.796
  195SOL    HW2  868   0.188   1.139   2.810
  196SOL     OW  869   0.587   0.979   1.994
  196SOL    HW1  870   0.629   1.032   1.926
  196SOL    HW2  871   0.627   1.008   2.076
  197SOL     OW  872   0.117   0.631   2.431
  197SOL    HW1  873   0.092   0.550   2.474
  197SOL    HW2  874   0.118   0.696   2.501
  198SOL     OW  875   1.846   1.756   2.209
  198SOL    HW1  876   1.919   1.734   2.266
  198SOL    HW2  877   1.861   1.848   2.185
  199SOL     OW  878   0.022   1.599   1.996
  199SOL    HW1  879   0.017   1.506   2.016
  199SOL    HW2  880   0.020   1.642   2.082
  200SOL     OW  881   1.690   0.920   2.505
  200SOL    HW1  882   1.775   0.878   2.495
  200SOL    HW2  883   1.675   0.965   2.421
  201SOL     OW  884   1.655   1.111   2.304
  201SOL    HW1  885   1.739   1.118   2.260
  201SOL    HW2  886   1.661   1.174   2.376
  202SOL     OW  887   0.615   1.378   2.591
  202SOL    HW1  888   0.562   1.298   2.601
  202SOL    HW2  889   0.593   1.410   2.504
  203SOL     OW  890   0.843   0.005   2.378
  203SOL    HW1  891   0.864   0.097   2.361
  203SOL    HW2  892   0.751   2.996   2.354
  204SOL     OW  893   1.526   1.027   2.084
  204SOL    HW1  894   1.471   0.949   2.099
  204SOL    HW2  895   1.575   1.037   2.166
  205SOL     OW  896   1.461   1.417   2.797
  205SOL    HW1  897   1.428   1.428   2.886
  205SOL    HW2  898   1.447   1.325   2.777
  206SOL     OW  899   0.593   0.724   2.126
  206SOL    HW1  900   0.602   0.809   2.083
  206SOL    HW2  901   0.532   0.740   2.198
  207SOL     OW  902   1.291   0.344   2.807
  207SOL    HW1  903   1.197   0.325   2.801
  207SOL    HW2  904   1.320   0.295   2.885
  208SOL     OW  905   1.048   0.702   2.292
  208SOL    HW1  906   1.063   0.691   2.386
  208SOL    HW2  907   0.969   0.652   2.274
  209SOL     OW  908   0.105   0.822   2.623
  209SOL    HW1  909   0.184   0.816   2.678
  209SOL    HW2  910   0.042   0.869   2.677
  210SOL     OW  911   0.878   0.355   2.061
  210SOL    HW1  912   0.964   0.382   2.029
  210SOL    HW2  913   0.867   0.266   2.028
  211SOL     OW  914   1.382   1.147   2.408
  211SOL    HW1  915   1.454   1.124   2.349
  211SOL    HW2  916   1.321   1.198   2.355
  212SOL     OW  917   0.560   0.197   2.839
  212SOL    HW1  918   0.511   0.275   2.866
  212SOL    HW2  919   0.570   0.207   2.745
  213SOL     OW  920   1.009   1.450   2.339
  213SOL    HW1  921   0.967   1.519   2.287
  213SOL    HW2  922   0.981   1.466   2.429
  214SOL     OW  923   0.346   1.790   2.730
  214SOL    HW1  924   0.403   1.713   2.737
  214SOL    HW2  925   0.405   1.862   2.708
  215SOL     OW  926   1.789   1.075   2.715
  215SOL    HW1  927   1.737   1.028   2.650
  215SOL    HW2  928   1.740   1.066   2.796
  216SOL     OW  929   0.317   0.951   2.108
  216SOL    HW1  930   0.401   0.973   2.066
  216SOL    HW2  931   0.295   0.865   2.072
  217SOL     OW  932   1.473   0.748   2.588
  217SOL    HW1  933   1.467   0.690   2.664
  217SOL    HW2  934   1.557   0.793   2.599
  218SOL     OW  935   1.095   1.772   2.071
  218SOL    HW1  936   1.029   1.747   2.136
  218SOL    HW2  937   1.119   1.690   2.029
  219SOL     OW  938   0.482   1.753   2.158
  219SOL    HW1  939   0.491   1.790   2.246
  219SOL    HW2  940   0.567   1.712   2.140
  220SOL     OW  941   1.418   0.144   2.280
  220SOL    HW1  942   1.390   0.077   2.217
  220SOL    HW2  943   1.501   0.112   2.314
  221SOL     OW  944   0.258   1.803   0.106
  221SOL    HW1  945   0.311   1.732   0.142
  221SOL    HW2  946   0.206   1.761   0.038
  222SOL     OW  947   0.955   1.693   2.757
  222SOL    HW1  948   1.011   1.616   2.768
  222SOL    HW2  949   0.883   1.662   2.702
  223SOL     OW  950   0.390   0.695   2.333
  223SOL    HW1  951   0.419   0.605   2.352
  223SOL    HW2  952   0.298   0.695   2.359
  224SOL     OW  953   0.647   0.147   1.953
  224SOL    HW1  954   0.680   0.073   2.004
  224SOL    HW2  955   0.593   0.108   1.885
  225SOL     OW  956   0.811   1.390   2.786
  225SOL    HW1  957   0.896   1.387   2.743
  225SOL    HW2  958   0.748   1.390   2.715
  226SOL     OW  959   0.923   0.519   2.760
  226SOL    HW1  960   0.905   0.501   2.668
  226SOL    HW2  961   0.952   0.435   2.796
  227SOL     OW  962   0.336   0.028   2.027
  227SOL    HW1  963   0.350   0.118   2.057
  227SOL    HW2  964   0.349   2.975   2.106
  228SOL     OW  965   0.937   0.256   2.328
  228SOL    HW1  966   0.910   0.297   2.246
  228SOL    HW2  967   1.032   0.265   2.329
  229SOL     OW  968   1.238   1.564   2.646
  229SOL    HW1  969   1.244   1.644   2.593
  229SOL    HW2  970   1.308   1.572   2.710
  230SOL     OW  971   0.463   1.143   2.601
  230SOL    HW1  972   0.391   1.130   2.663
  230SOL    HW2  973   0.424   1.128   2.515
  231SOL     OW  974   1.278   1.792   2.476
  231SOL    HW1  975   1.319   1.854   2.416
  231SOL    HW2  976   1.205   1.841   2.514
  232SOL     OW  977   0.875   0.470   2.500
  232SOL    HW1  978   0.815   0.514   2.439
  232SOL    HW2  979   0.890   0.384   2.461
  233SOL     OW  980   0.988   0.060   2.624
  233SOL    HW1  981   0.962   0.056   2.532
  233SOL    HW2  982   0.988   2.969   2.653
  234SOL     OW  983   1.439   1.159   2.701
  234SOL    HW1  984   1.364   1.103   2.722
  234SOL    HW2  985   1.438   1.167   2.606
  235SOL     OW  986   1.486   0.586   2.818
  235SOL    HW1  987   1.424   0.512   2.818
  235SOL    HW2  988   1.506   0.599   2.911
  236SOL     OW  989   1.846   0.820   2.243
  236SOL    HW1  990   1.903   0.770   2.302
  236SOL    HW2  991   1.819   0.756   2.177
  237SOL     OW  992   0.493   1.402   2.027
  237SOL    HW1  993   0.415   1.380   2.078
  237SOL    HW2  994   0.461   1.414   1.938
  238SOL     OW  995   1.671   1.274   2.530
  238SOL    HW1  996   1.756   1.239   2.555
  238SOL    HW2  997   1.621   1.278   2.611
  239SOL     OW  998   0.516   0.305   2.173
  239SOL    HW1  999   0.556   0.223   2.142
  239SOL    HW2 1000   0.522   0.364   2.098
  240SOL     OW 1001   1.645   1.097   2.938
  240SOL    HW1 1002   1.655   1.168   0.001
  240SOL    HW2 1003   1.557   1.109   2.901
  241SOL     OW 1004   0.705   1.056   2.233
  241SOL    HW1 1005   0.693   1.045   2.327
  241SOL    HW2 1006   0.784   1.004   2.213
  242SOL     OW 1007   0.348   1.107   2.355
  242SOL    HW1 1008   0.354   1.184   2.299
  242SOL    HW2 1009   0.355   1.033   2.294
  243SOL     OW 1010   0.547   0.551   2.734
  243SOL    HW1 1011   0.567   0.594   2.651
  243SOL    HW2 1012   0.622   0.573   2.791
  244SOL     OW 1013   1.245   1.348   2.256
  244SOL    HW1 1014   1.293   1.413   2.306
  244SOL    HW2 1015   1.153   1.361   2.281
  245SOL     OW 1016   1.580   0.633   2.338
  245SOL    HW1 1017   1.536   0.685   2.405
  245SOL    HW2 1018   1.627   0.697   2.284
  246SOL     OW 1019   0.580   0.871   2.878
  246SOL    HW1 1020   0.615   0.956   2.851
  246SOL    HW2 1021   0.550   0.884   2.968
  247SOL     OW 1022   1.202   0.535   2.129
  247SOL    HW1 1023   1.220   0.457   2.180
  247SOL    HW2 1024   1.157   0.594   2.190
  248SOL     OW 1025   0.739   0.647   2.921
  248SOL    HW1 1026   0.799   0.618   2.852
  248SOL    HW2 1027   0.698   0.726   2.885
  249SOL     OW 1028   0.246   0.094   2.504
  249SOL    HW1 1029   0.337   0.105   2.475
  249SOL    HW2 1030   0.248   0.018   2.561
  250SOL     OW 1031   1.627   0.382   2.229
  250SOL    HW1 1032   1.640   0.310   2.290
  250SOL    HW2 1033   1.590   0.452   2.282
  251SOL     OW 1034   1.023   0.764   2.818
  251SOL    HW1 1035   1.019   0.775   2.913
  251SOL    HW2 1036   0.995   0.674   2.803
  252SOL     OW 1037   1.514   0.270   2.002
  252SOL    HW1 1038   1.460   0.199   2.038
  252SOL    HW2 1039   1.557   0.308   2.078
  253SOL     OW 1040   1.063   1.346   2.699
  253SOL    HW1 1041   1.070   1.267   2.647
  253SOL    HW2 1042   1.133   1.403   2.667
  254SOL     OW 1043   0.312   0.809   2.809
  254SOL    HW1 1044   0.406   0.828   2.808
  254SOL    HW2 1045   0.306   0.719   2.843
  255SOL     OW 1046   0.322   0.519   2.875
  255SOL    HW1 1047   0.287   0.435   2.845
  255SOL    HW2 1048   0.399   0.533   2.821
  256SOL     OW 1049   2.994   1.313   2.039
  256SOL    HW1 1050   2.901   1.334   2.051
  256SOL    HW2 1051   0.006   1.230   2.086
  257SOL     OW 1052   0.093   1.819   2.812
  257SOL    HW1 1053   0.053   1.745   2.766
  257SOL    HW2 1054   0.184   1.818   2.784
  258SOL     OW 1055   0.501   1.568   2.766
  258SOL    HW1 1056   0.567   1.633   2.791
  258SOL    HW2 1057   0.551   1.502   2.718
  259SOL     OW 1058   0.972   0.765   0.087
  259SOL    HW1 1059   1.017   0.727   0.162
  259SOL    HW2 1060   0.880   0.744   0.100
  260SOL     OW 1061   0.817   0.576   2.211
  260SOL    HW1 1062   0.817   0.497   2.157
  260SOL    HW2 1063   0.737   0.622   2.186
  261SOL     OW 1064   0.696   0.456   0.104
  261SOL    HW1 1065   0.612   0.415   0.081
  261SOL    HW2 1066   0.709   0.523   0.037
  262SOL     OW 1067   0.471   0.514   2.007
  262SOL    HW1 1068   0.526   0.581   2.047
  262SOL    HW2 1069   0.385   0.526   2.047
  263SOL     OW 1070   1.298   0.859   2.166
  263SOL    HW1 1071   1.236   0.821   2.229
  263SOL    HW2 1072   1.286   0.807   2.086
  264SOL     OW 1073   1.735   1.761   2.963
  264SOL    HW1 1074   1.815   1.791   2.921
  264SOL    HW2 1075   1.762   1.691   0.022
  265SOL     OW 1076   0.064   1.241   2.901
  265SOL    HW1 1077   0.046   1.281   2.986
  265SOL    HW2 1078   2.999   1.280   2.842
  266SOL     OW 1079   1.719   0.140   2.373
  266SOL    HW1 1080   1.779   0.134   2.299
  266SOL    HW2 1081   1.729   0.057   2.419
  267SOL     OW 1082   1.276   0.927   2.530
  267SOL    HW1 1083   1.349   0.865   2.541
  267SOL    HW2 1084   1.314   0.999   2.480
  268SOL     OW 1085   0.675   1.606   2.019
  268SOL    HW1 1086   0.650   1.620   1.927
  268SOL    HW2 1087   0.631   1.525   2.044
  269SOL     OW 1088   1.844   0.161   2.824
  269SOL    HW1 1089   1.844   0.076   2.779
  269SOL    HW2 1090   1.761   0.201   2.801
  270SOL     OW 1091   0.271   0.372   2.603
  270SOL    HW1 1092   0.177   0.375   2.588
  270SOL    HW2 1093   0.282   0.307   2.673
  271SOL     OW 1094   0.920   0.912   2.152
  271SOL    HW1 1095   0.992   0.936   2.094
  271SOL    HW2 1096   0.954   0.837   2.202
  272SOL     OW 1097   1.053   1.104   2.565
  272SOL    HW1 1098   0.978   1.059   2.604
  272SOL    HW2 1099   1.111   1.034   2.536
  273SOL     OW 1100   1.020   0.252   2.808
  273SOL    HW1 1101   1.009   0.189   2.738
  273SOL    HW2 1102   1.043   0.199   2.885
  274SOL     OW 1103   0.603   1.497   2.340
  274SOL    HW1 1104   0.626   1.443   2.264
  274SOL    HW2 1105   0.521   1.540   2.316
  275SOL     OW 1106   0.251   1.345   2.143
  275SOL    HW1 1107   0.157   1.353   2.130
  275SOL    HW2 1108   0.267   1.384   2.229
  276SOL     OW 1109   0.101   0.326   1.910
  276SOL    HW1 1110   0.012   0.299   1.889
  276SOL    HW2 1111   0.110   0.413   1.870
  277SOL     OW 1112   0.010   0.212   2.138
  277SOL    HW1 1113   0.069   0.256   2.077
  277SOL    HW2 1114   0.065   0.145   2.179
  278SOL     OW 1115   1.186   1.353   1.981
  278SOL    HW1 1116   1.096   1.320   1.987
  278SOL    HW2 1117   1.221   1.341   2.070
  279SOL     OW 1118   1.509   1.775   2.819
  279SOL    HW1 1119   1.513   1.851   2.761
  279SOL    HW2 1120   1.589   1.780   2.871
  280SOL     OW 1121   1.717   0.862   0.092
  280SOL    HW1 1122   1.641   0.806   0.077
  280SOL    HW2 1123   1.696   0.944   0.048
  281SOL     OW 1124   1.218   0.323   2.317
  281SOL    HW1 1125   1.285   0.255   2.307
  281SOL    HW2 1126   1.244   0.370   2.397
  282SOL     OW 1127   0.596   0.740   2.525
  282SOL    HW1 1128   0.630   0.829   2.512
  282SOL    HW2 1129   0.522   0.734   2.465
  283SOL     OW 1130   0.665   1.795   2.771
  283SOL    HW1 1131   0.635   1.886   2.775
  283SOL    HW2 1132   0.733   1.788   2.838
  284SOL     OW 1133   0.864   0.969   2.715
  284SOL    HW1 1134   0.913   0.898   2.755
  284SOL    HW2 1135   0.832   1.020   2.789
  285SOL     OW 1136   1.867   1.544   2.702
  285SOL    HW1 1137   1.772   1.553   2.696
  285SOL    HW2 1138   1.881   1.481   2.773
  286SOL     OW 1139   0.127   1.242   2.520
  286SOL    HW1 1140   0.094   1.183   2.588
  286SOL    HW2 1141   0.192   1.190   2.473
  287SOL     OW 1142   1.817   0.184   0.095
  287SOL    HW1 1143   1.832   0.093   0.120
  287SOL    HW2 1144   1.826   0.185   3.000
  288SOL     OW 1145   0.451   0.444   2.396
  288SOL    HW1 1146   0.463   0.375   2.330
  288SOL    HW2 1147   0.415   0.398   2.472
  289SOL     OW 1148   0.830   1.572   2.532
  289SOL    HW1 1149   0.809   1.632   2.460
  289SOL    HW2 1150   0.748   1.525   2.549
  290SOL     OW 1151   0.779   1.325   2.166
  290SOL    HW1 1152   0.740   1.239   2.178
  290SOL    HW2 1153   0.850   1.328   2.230
  291SOL     OW 1154   1.340   0.043   2.029
  291SOL    HW1 1155   1.407   2.987   1.988
  291SOL    HW2 1156   1.263   2.987   2.035
  292SOL     OW 1157   1.303   0.461   2.551
  292SOL    HW1 1158   1.242   0.535   2.557
  292SOL    HW2 1159   1.295   0.417   2.635
  293SOL     OW 1160   1.601   0.246   2.763
  293SOL    HW1 1161   1.512   0.210   2.770
  293SOL    HW2 1162   1.595   0.311   2.694
  294SOL     OW 1163   0.056   1.061   2.144
  294SOL    HW1 1164   0.149   1.046   2.156
  294SOL    HW2 1165   0.015   1.022   2.222
  295SOL     OW 1166   0.886   1.651   2.200
  295SOL    HW1 1167   0.811   1.624   2.147
  295SOL    HW2 1168   0.851   1.720   2.256
  296SOL     OW 1169   0.239   2.516   0.099
  296SOL    HW1 1170   0.172   2.470   0.150
  296SOL    HW2 1171   0.251   2.461   0.021
  297SOL     OW 1172   0.208   2.138   0.992
  297SOL    HW1 1173   0.239   2.107   1.077
  297SOL    HW2 1174   0.121   2.099   0.982
  298SOL     OW 1175   0.015   2.248   0.646
  298SOL    HW1 1176   2.927   2.281   0.666
  298SOL    HW2 1177   2.999   2.169   0.594
  299SOL     OW 1178   1.138   2.568   0.705
  299SOL    HW1 1179   1.181   2.653   0.694
  299SOL    HW2 1180   1.079   2.581   0.780
  300SOL     OW 1181   1.747   2.456   0.232
  300SOL    HW1 1182   1.751   2.436   0.138
  300SOL    HW2 1183   1.725   2.373   0.273
  301SOL     OW 1184   0.769   0.022   1.037
  301SOL    HW1 1185   0.680   0.037   1.070
  301SOL    HW2 1186   0.774   0.076   0.958
  302SOL     OW 1187   0.853   2.631   1.829
  302SOL    HW1 1188   0.828   2.690   1.900
  302SOL    HW2 1189   0.889   2.689   1.762
  303SOL     OW 1190   0.652   2.859   0.719
  303SOL    HW1 1191   0.747   2.863   0.712
  303SOL    HW2 1192   0.620   2.927   0.659
  304SOL     OW 1193   0.469   2.260   1.476
  304SOL    HW1 1194   0.526   2.216   1.539
  304SOL    HW2 1195   0.382   2.224   1.492
  305SOL     OW 1196   1.604   2.310   0.749
  305SOL    HW1 1197   1.539   2.335   0.683
  305SOL    HW2 1198   1.651   2.391   0.768
  306SOL     OW 1199   0.235   0.314   0.475
  306SOL    HW1 1200   0.195   0.385   0.524
  306SOL    HW2 1201   0.188   0.235   0.503
  307SOL     OW 1202   0.233   2.944   0.882
  307SOL    HW1 1203   0.261   2.860   0.919
  307SOL    HW2 1204   0.194   2.991   0.955
  308SOL     OW 1205   0.611   2.835   0.146
  308SOL    HW1 1206   0.602   2.926   0.119
  308SOL    HW2 1207   0.670   2.838   0.222
  309SOL     OW 1208   0.114   2.496   0.564
  309SOL    HW1 1209   0.094   2.410   0.599
  309SOL    HW2 1210   0.112   2.555   0.639
  310SOL     OW 1211   1.711   2.808   0.626
  310SOL    HW1 1212   1.783   2.747   0.616
  310SOL    HW2 1213   1.679   2.823   0.537
  311SOL     OW 1214   0.126   2.611   1.585
  311SOL    HW1 1215   0.220   2.621   1.596
  311SOL    HW2 1216   0.090   2.696   1.610
  312SOL     OW 1217   0.646   0.249   0.701
  312SOL    HW1 1218   0.602   0.165   0.687
  312SOL    HW2 1219   0.613   0.306   0.631
  313SOL     OW 1220   1.311   0.092   1.433
  313SOL    HW1 1221   1.333   0.025   1.368
  313SOL    HW2 1222   1.370   0.074   1.506
  314SOL     OW 1223   0.812   1.859   0.510
  314SOL    HW1 1224   0.854   1.944   0.499
  314SOL    HW2 1225   0.718   1.879   0.513
  315SOL     OW 1226   0.183   2.839   1.251
  315SOL    HW1 1227   0.268   2.795   1.246
  315SOL    HW2 1228   0.119   2.771   1.232
  316SOL     OW 1229   1.521   2.866   0.221
  316SOL    HW1 1230   1.459   2.799   0.249
  316SOL    HW2 1231   1.605   2.837   0.257
  317SOL     OW 1232   0.342   2.123   1.795
  317SOL    HW1 1233   0.384   2.198   1.837
  317SOL    HW2 1234   0.255   2.118   1.835
  318SOL     OW 1235   0.599   2.589   0.276
  318SOL    HW1 1236   0.592   2.663   0.215
  318SOL    HW2 1237   0.524   2.599   0.334
  319SOL     OW 1238   1.281   2.225   0.934
  319SOL    HW1 1239   1.193   2.187   0.941
  319SOL    HW2 1240   1.337   2.168   0.986
  320SOL     OW 1241   0.989   2.229   1.226
  320SOL    HW1 1242   0.915   2.271   1.269
  320SOL    HW2 1243   0.959   2.211   1.137
  321SOL     OW 1244   1.047   2.566   0.423
  321SOL    HW1 1245   1.061   2.556   0.517
  321SOL    HW2 1246   0.966   2.518   0.404
  322SOL     OW 1247   0.100   2.668   0.771
  322SOL    HW1 1248   0.178   2.673   0.826
  322SOL    HW2 1249   0.050   2.746   0.792
  323SOL     OW 1250   0.924   2.201   0.225
  323SOL    HW1 1251   0.937   2.258   0.149
  323SOL    HW2 1252   0.906   2.114   0.187
  324SOL     OW 1253   0.549   2.041   0.883
  324SOL    HW1 1254   0.547   2.072   0.973
  324SOL    HW2 1255   0.545   2.120   0.829
  325SOL     OW 1256   1.815   2.912   0.868
  325SOL    HW1 1257   1.762   2.895   0.790
  325SOL    HW2 1258   1.751   2.920   0.939
  326SOL     OW 1259   1.474   2.607   0.731
  326SOL    HW1 1260   1.458   2.545   0.803
  326SOL    HW2 1261   1.557   2.649   0.756
  327SOL     OW 1262   0.231   2.163   1.504
  327SOL    HW1 1263   0.150   2.212   1.484
  327SOL    HW2 1264   0.203   2.094   1.563
  328SOL     OW 1265   1.403   1.968   0.431
  328SOL    HW1 1266   1.391   1.947   0.339
  328SOL    HW2 1267   1.498   1.978   0.441
  329SOL     OW 1268   0.390   2.556   0.479
  329SOL    HW1 1269   0.414   2.463   0.483
  329SOL    HW2 1270   0.296   2.557   0.495
  330SOL     OW 1271   0.631   2.003   0.101
  330SOL    HW1 1272   0.713   1.957   0.118
  330SOL    HW2 1273   0.574   1.936   0.061
  331SOL     OW 1274   0.782   2.143   1.760
  331SOL    HW1 1275   0.863   2.120   1.806
  331SOL    HW2 1276   0.716   2.149   1.829
  332SOL     OW 1277   0.935   2.375   0.896
  332SOL    HW1 1278   0.909   2.365   0.804
  332SOL    HW2 1279   0.957   2.286   0.923
  333SOL     OW 1280   0.550   1.930   0.509
  333SOL    HW1 1281   0.464   1.928   0.551
  333SOL    HW2 1282   0.545   2.003   0.448
  334SOL     OW 1283   0.943   2.108   0.476
  334SOL    HW1 1284   0.911   2.140   0.392
  334SOL    HW2 1285   1.038   2.117   0.471
  335SOL     OW 1286   1.048   2.359   0.028
  335SOL    HW1 1287   0.996   2.437   0.008
  335SOL    HW2 1288   1.109   2.388   0.096
  336SOL     OW 1289   0.093   2.411   1.405
  336SOL    HW1 1290   0.174   2.424   1.355
  336SOL    HW2 1291   0.089   2.485   1.465
  337SOL     OW 1292   0.547   2.060   1.156
  337SOL    HW1 1293   0.562   1.965   1.157
  337SOL    HW2 1294   0.456   2.070   1.185
  338SOL     OW 1295   0.872   2.323   0.638
  338SOL    HW1 1296   0.816   2.375   0.580
  338SOL    HW2 1297   0.891   2.244   0.588
  339SOL     OW 1298   1.423   3.000   0.868
  339SOL    HW1 1299   1.361   2.937   0.830
  339SOL    HW2 1300   1.449   0.055   0.794
  340SOL     OW 1301   1.452   2.464   0.987
  340SOL    HW1 1302   1.409   2.379   0.975
  340SOL    HW2 1303   1.535   2.443   1.031
  341SOL     OW 1304   1.828   2.672   0.389
  341SOL    HW1 1305   1.891   2.618   0.437
  341SOL    HW2 1306   1.809   2.622   0.310
  342SOL     OW 1307   1.416   2.438   0.104
  342SOL    HW1 1308   1.342   2.428   0.164
  342SOL    HW2 1309   1.460   2.353   0.106
  343SOL     OW 1310   0.524   2.125   0.324
  343SOL    HW1 1311   0.558   2.076   0.249
  343SOL    HW2 1312   0.498   2.209   0.288
  344SOL     OW 1313   1.630   2.965   1.066
  344SOL    HW1 1314   1.619   0.043   1.121
  344SOL    HW2 1315   1.551   2.962   1.013
  345SOL     OW 1316   0.952   1.944   1.354
  345SOL    HW1 1317   0.983   1.989   1.275
  345SOL    HW2 1318   0.980   2.000   1.426
  346SOL     OW 1319   0.407   2.690   1.251
  346SOL    HW1 1320   0.482   2.694   1.310
  346SOL    HW2 1321   0.374   2.601   1.261
  347SOL     OW 1322   1.282   2.223   1.251
  347SOL    HW1 1323   1.304   2.277   1.327
  347SOL    HW2 1324   1.188   2.239   1.237
  348SOL     OW 1325   0.544   2.387   0.846
  348SOL    HW1 1326   0.560   2.444   0.771
  348SOL    HW2 1327   0.608   2.416   0.912
  349SOL     OW 1328   1.589   2.483   0.490
  349SOL    HW1 1329   1.534   2.550   0.530
  349SOL    HW2 1330   1.633   2.528   0.419
  350SOL     OW 1331   0.414   2.591   1.600
  350SOL    HW1 1332   0.478   2.653   1.566
  350SOL    HW2 1333   0.466   2.515   1.626
  351SOL     OW 1334   0.488   1.901   1.748
  351SOL    HW1 1335   0.445   1.855   1.676
  351SOL    HW2 1336   0.428   1.972   1.770
  352SOL     OW 1337   0.584   2.734   1.030
  352SOL    HW1 1338   0.577   2.820   0.989
  352SOL    HW2 1339   0.513   2.731   1.094
  353SOL     OW 1340   1.340   2.711   1.048
  353SOL    HW1 1341   1.292   2.720   0.966
  353SOL    HW2 1342   1.386   2.628   1.040
  354SOL     OW 1343   1.206   2.396   0.273
  354SOL    HW1 1344   1.209   2.310   0.314
  354SOL    HW2 1345   1.157   2.450   0.335
  355SOL     OW 1346   0.295   2.064   1.245
  355SOL    HW1 1347   0.270   2.095   1.333
  355SOL    HW2 1348   0.279   1.970   1.247
  356SOL     OW 1349   0.046   0.163   1.270
  356SOL    HW1 1350   0.084   0.129   1.350
  356SOL    HW2 1351   0.019   0.252   1.292
  357SOL     OW 1352   0.711   2.476   1.031
  357SOL    HW1 1353   0.793   2.464   0.982
  357SOL    HW2 1354   0.693   2.569   1.025
  358SOL     OW 1355   0.301   1.933   0.620
  358SOL    HW1 1356   0.284   2.023   0.647
  358SOL    HW2 1357   0.304   1.883   0.702
  359SOL     OW 1358   1.619   2.234   0.370
  359SOL    HW1 1359   1.647   2.166   0.432
  359SOL    HW2 1360   1.594   2.308   0.424
  360SOL     OW 1361   1.018   2.614   0.970
  360SOL    HW1 1362   1.050   2.604   1.060
  360SOL    HW2 1363   0.991   2.526   0.944
  361SOL     OW 1364   0.372   2.797   1.783
  361SOL    HW1 1365   0.396   2.788   1.875
  361SOL    HW2 1366   0.382   2.709   1.746
  362SOL     OW 1367   1.498   2.168   0.126
  362SOL    HW1 1368   1.465   2.079   0.137
  362SOL    HW2 1369   1.561   2.180   0.198
  363SOL     OW 1370   1.302   2.688   0.039
  363SOL    HW1 1371   1.339   2.600   0.047
  363SOL    HW2 1372   1.316   2.712   2.948
  364SOL     OW 1373   0.312   2.678   0.951
  364SOL    HW1 1374   0.404   2.679   0.925
  364SOL    HW2 1375   0.298   2.590   0.986
  365SOL     OW 1376   0.338   2.377   1.015
  365SOL    HW1 1377   0.293   2.295   0.995
  365SOL    HW2 1378   0.408   2.383   0.950
  366SOL     OW 1379   0.052   2.451   1.122
  366SOL    HW1 1380   0.109   2.393   1.072
  366SOL    HW2 1381   0.023   2.399   1.197
  367SOL     OW 1382   0.196   2.382   1.719
  367SOL    HW1 1383   0.262   2.356   1.655
  367SOL    HW2 1384   0.156   2.461   1.680
  368SOL     OW 1385   0.821   2.441   0.349
  368SOL    HW1 1386   0.820   2.361   0.296
  368SOL    HW2 1387   0.739   2.485   0.326
  369SOL     OW 1388   0.712   2.264   1.211
  369SOL    HW1 1389   0.641   2.206   1.185
  369SOL    HW2 1390   0.693   2.346   1.164
  370SOL     OW 1391   0.432   2.360   0.223
  370SOL    HW1 1392   0.513   2.409   0.214
  370SOL    HW2 1393   0.365   2.418   0.187
  371SOL     OW 1394   0.160   0.008   1.466
  371SOL    HW1 1395   0.149   2.958   1.547
  371SOL    HW2 1396   0.171   2.942   1.398
  372SOL     OW 1397   1.354   2.932   1.222
  372SOL    HW1 1398   1.378   2.853   1.174
  372SOL    HW2 1399   1.263   2.948   1.197
  373SOL     OW 1400   1.299   2.716   0.316
  373SOL    HW1 1401   1.222   2.675   0.354
  373SOL    HW2 1402   1.291   2.701   0.222
  374SOL     OW 1403   0.918   1.951   0.125
  374SOL    HW1 1404   0.930   1.898   0.046
  374SOL    HW2 1405   0.954   1.897   0.195
  375SOL     OW 1406   1.715   2.005   0.512
  375SOL    HW1 1407   1.793   1.995   0.457
  375SOL    HW2 1408   1.703   1.919   0.552
  376SOL     OW 1409   1.295   2.804   0.688
  376SOL    HW1 1410   1.359   2.733   0.685
  376SOL    HW2 1411   1.296   2.842   0.600
  377SOL     OW 1412   1.839   2.026   0.966
  377SOL    HW1 1413   1.871   1.940   0.940
  377SOL    HW2 1414   1.754   2.034   0.922
  378SOL     OW 1415   0.266   2.180   0.724
  378SOL    HW1 1416   0.183   2.215   0.693
  378SOL    HW2 1417   0.254   2.168   0.818
  379SOL     OW 1418   0.779   2.903   1.377
  379SOL    HW1 1419   0.845   2.857   1.324
  379SOL    HW2 1420   0.826   2.978   1.413
  380SOL     OW 1421   0.913   2.811   0.294
  380SOL    HW1 1422   0.978   2.802   0.224
  380SOL    HW2 1423   0.935   2.741   0.355
  381SOL     OW 1424   0.998   2.110   0.956
  381SOL    HW1 1425   0.977   2.079   0.868
  381SOL    HW2 1426   0.995   2.032   1.011
  382SOL     OW 1427   0.121   2.867   1.692
  382SOL    HW1 1428   0.053   2.850   1.757
  382SOL    HW2 1429   0.203   2.858   1.741
  383SOL     OW 1430   0.058   2.182   0.064
  383SOL    HW1 1431   2.971   2.184   0.024
  383SOL    HW2 1432   0.112   2.235   0.004
  384SOL     OW 1433   0.070   2.066   0.322
  384SOL    HW1 1434   0.048   2.098   0.235
  384SOL    HW2 1435   0.121   1.987   0.306
  385SOL     OW 1436   1.152   0.234   0.088
  385SOL    HW1 1437   1.072   0.229   0.140
  385SOL    HW2 1438   1.221   0.202   0.147
  386SOL     OW 1439   0.695   2.425   1.738
  386SOL    HW1 1440   0.739   2.500   1.778
  386SOL    HW2 1441   0.756   2.352   1.748
  387SOL     OW 1442   1.221   2.179   0.461
  387SOL    HW1 1443   1.285   2.110   0.447
  387SOL    HW2 1444   1.255   2.229   0.535
  388SOL     OW 1445   0.593   2.590   0.666
  388SOL    HW1 1446   0.614   2.683   0.673
  388SOL    HW2 1447   0.526   2.585   0.599
  389SOL     OW 1448   0.898   2.835   0.870
  389SOL    HW1 1449   0.923   2.748   0.900
  389SOL    HW2 1450   0.823   2.859   0.925
  390SOL     OW 1451   1.116   2.891   0.080
  390SOL    HW1 1452   1.070   2.892   2.996
  390SOL    HW2 1453   1.173   2.814   0.075
  391SOL     OW 1454   0.438   2.295   0.533
  391SOL    HW1 1455   0.460   2.228   0.468
  391SOL    HW2 1456   0.385   2.248   0.598
  392SOL     OW 1457   0.341   2.426   1.287
  392SOL    HW1 1458   0.392   2.362   1.338
  392SOL    HW2 1459   0.346   2.394   1.197
  393SOL     OW 1460   1.464   2.102   1.101
  393SOL    HW1 1461   1.496   2.024   1.147
  393SOL    HW2 1462   1.407   2.145   1.165
  394SOL     OW 1463   1.353   1.913   0.166
  394SOL    HW1 1464   1.377   1.865   0.087
  394SOL    HW2 1465   1.266   1.879   0.189
  395SOL     OW 1466   1.299   2.327   0.682
  395SOL    HW1 1467   1.242   2.404   0.688
  395SOL    HW2 1468   1.297   2.288   0.769
  396SOL     OW 1469   1.586   2.059   0.866
  396SOL    HW1 1470   1.540   2.083   0.946
  396SOL    HW2 1471   1.590   2.141   0.816
  397SOL     OW 1472   0.007   2.904   0.292
  397SOL    HW1 1473   0.092   2.909   0.250
  397SOL    HW2 1474   0.018   2.840   0.363
  398SOL     OW 1475   0.222   2.514   1.963
  398SOL    HW1 1476   0.167   2.465   2.024
  398SOL    HW2 1477   0.220   2.462   1.882
  399SOL     OW 1478   0.229   2.130   2.842
  399SOL    HW1 1479   0.267   2.101   2.924
  399SOL    HW2 1480   0.148   2.078   2.833
  400SOL     OW 1481   0.009   2.237   2.501
  400SOL    HW1 1482   2.929   2.283   2.524
  400SOL    HW2 1483   2.980   2.149   2.478
  401SOL     OW 1484   1.138   2.554   2.565
  401SOL    HW1 1485   1.192   2.632   2.550
  401SOL    HW2 1486   1.085   2.577   2.641
  402SOL     OW 1487   1.784   2.458   2.090
  402SOL    HW1 1488   1.717   2.454   2.022
  402SOL    HW2 1489   1.748   2.405   2.162
  403SOL     OW 1490   0.777   0.021   2.887
  403SOL    HW1 1491   0.683   0.035   2.877
  403SOL    HW2 1492   0.817   0.078   2.821
  404SOL     OW 1493   0.650   2.853   2.589
  404SOL    HW1 1494   0.745   2.858   2.591
  404SOL    HW2 1495   0.624   2.899   2.509
  405SOL     OW 1496   1.617   2.306   2.596
  405SOL    HW1 1497   1.539   2.332   2.547
  405SOL    HW2 1498   1.632   2.377   2.658
  406SOL     OW 1499   0.193   0.309   2.335
  406SOL    HW1 1500   0.237   0.375   2.389
  406SOL    HW2 1501   0.203   0.228   2.384
  407SOL     OW 1502   0.245   2.937   2.753
  407SOL    HW1 1503   0.264   2.854   2.796
  407SOL    HW2 1504   0.199   2.988   2.819
  408SOL     OW 1505   0.628   2.833   1.990
  408SOL    HW1 1506   0.567   2.900   1.959
  408SOL    HW2 1507   0.640   2.853   2.083
  409SOL     OW 1508   0.168   2.482   2.463
  409SOL    HW1 1509   0.093   2.425   2.446
  409SOL    HW2 1510   0.131   2.553   2.516
  410SOL     OW 1511   1.720   2.833   2.480
  410SOL    HW1 1512   1.777   2.757   2.492
  410SOL    HW2 1513   1.670   2.813   2.401
  411SOL     OW 1514   0.608   0.231   2.567
  411SOL    HW1 1515   0.600   0.140   2.539
  411SOL    HW2 1516   0.611   0.282   2.486
  412SOL     OW 1517   0.816   1.855   2.362
  412SOL    HW1 1518   0.856   1.941   2.351
  412SOL    HW2 1519   0.723   1.873   2.375
  413SOL     OW 1520   0.209   2.805   0.116
  413SOL    HW1 1521   0.276   2.739   0.098
  413SOL    HW2 1522   0.127   2.761   0.096
  414SOL     OW 1523   1.523   2.825   2.030
  414SOL    HW1 1524   1.460   2.789   2.093
  414SOL    HW2 1525   1.592   2.863   2.085
  415SOL     OW 1526   0.597   2.580   2.126
  415SOL    HW1 1527   0.607   2.662   2.078
  415SOL    HW2 1528   0.532   2.599   2.193
  416SOL     OW 1529   1.299   2.197   2.812
  416SOL    HW1 1530   1.206   2.179   2.800
  416SOL    HW2 1531   1.319   2.166   2.900
  417SOL     OW 1532   1.052   2.559   2.289
  417SOL    HW1 1533   1.067   2.560   2.383
  417SOL    HW2 1534   0.968   2.514   2.279
  418SOL     OW 1535   0.096   2.672   2.646
  418SOL    HW1 1536   0.180   2.679   2.691
  418SOL    HW2 1537   0.062   2.761   2.646
  419SOL     OW 1538   0.874   2.208   2.043
  419SOL    HW1 1539   0.939   2.269   2.008
  419SOL    HW2 1540   0.920   2.124   2.048
  420SOL     OW 1541   0.564   2.054   2.771
  420SOL    HW1 1542   0.518   2.078   2.852
  420SOL    HW2 1543   0.553   2.130   2.714
  421SOL     OW 1544   1.799   2.911   2.731
  421SOL    HW1 1545   1.749   2.890   2.652
  421SOL    HW2 1546   1.734   2.909   2.802
  422SOL     OW 1547   1.518   2.578   2.582
  422SOL    HW1 1548   1.483   2.541   2.663
  422SOL    HW2 1549   1.474   2.663   2.573
  423SOL     OW 1550   1.407   1.972   2.300
  423SOL    HW1 1551   1.393   1.933   2.213
  423SOL    HW2 1552   1.500   1.993   2.302
  424SOL     OW 1553   0.403   2.548   2.330
  424SOL    HW1 1554   0.420   2.456   2.348
  424SOL    HW2 1555   0.314   2.562   2.362
  425SOL     OW 1556   0.647   1.988   1.955
  425SOL    HW1 1557   0.671   1.916   2.013
  425SOL    HW2 1558   0.578   1.953   1.899
  426SOL     OW 1559   0.924   2.379   2.758
  426SOL    HW1 1560   0.906   2.359   2.666
  426SOL    HW2 1561   0.959   2.298   2.794
  427SOL     OW 1562   0.559   1.923   2.360
  427SOL    HW1 1563   0.484   1.923   2.420
  427SOL    HW2 1564   0.546   2.000   2.305
  428SOL     OW 1565   0.302   1.905   2.019
  428SOL    HW1 1566   0.346   1.983   2.053
  428SOL    HW2 1567   0.334   1.834   2.074
  429SOL     OW 1568   0.939   2.100   2.321
  429SOL    HW1 1569   0.904   2.163   2.258
  429SOL    HW2 1570   1.032   2.123   2.328
  430SOL     OW 1571   1.034   2.411   1.872
  430SOL    HW1 1572   0.980   2.490   1.864
  430SOL    HW2 1573   1.087   2.427   1.950
  431SOL     OW 1574   0.874   2.321   2.500
  431SOL    HW1 1575   0.817   2.375   2.446
  431SOL    HW2 1576   0.878   2.237   2.453
  432SOL     OW 1577   1.020   1.907   2.606
  432SOL    HW1 1578   0.951   1.908   2.541
  432SOL    HW2 1579   0.999   1.834   2.664
  433SOL     OW 1580   1.428   0.022   2.743
  433SOL    HW1 1581   1.369   2.951   2.715
  433SOL    HW2 1582   1.459   0.061   2.661
  434SOL     OW 1583   1.483   2.441   2.828
  434SOL    HW1 1584   1.418   2.371   2.832
  434SOL    HW2 1585   1.501   2.462   2.920
  435SOL     OW 1586   1.833   2.666   2.259
  435SOL    HW1 1587   1.894   2.622   2.318
  435SOL    HW2 1588   1.824   2.606   2.185
  436SOL     OW 1589   0.527   2.121   2.172
  436SOL    HW1 1590   0.574   2.084   2.098
  436SOL    HW2 1591   0.508   2.211   2.146
  437SOL     OW 1592   1.620   2.961   2.937
  437SOL    HW1 1593   1.630   0.043   2.985
  437SOL    HW2 1594   1.549   2.977   2.876
  438SOL     OW 1595   0.555   2.398   2.727
  438SOL    HW1 1596   0.569   2.451   2.648
  438SOL    HW2 1597   0.617   2.434   2.790
  439SOL     OW 1598   1.578   2.497   2.324
  439SOL    HW1 1599   1.544   2.524   2.409
  439SOL    HW2 1600   1.635   2.570   2.297
  440SOL     OW 1601   0.585   2.720   2.880
  440SOL    HW1 1602   0.599   2.801   2.832
  440SOL    HW2 1603   0.560   2.748   2.968
  441SOL     OW 1604   1.189   2.391   2.119
  441SOL    HW1 1605   1.216   2.318   2.175
  441SOL    HW2 1606   1.154   2.456   2.179
  442SOL     OW 1607   0.328   2.061   0.081
  442SOL    HW1 1608   0.299   2.105   0.161
  442SOL    HW2 1609   0.301   1.970   0.094
  443SOL     OW 1610   0.742   2.504   2.921
  443SOL    HW1 1611   0.798   2.479   2.848
  443SOL    HW2 1612   0.698   2.584   2.892
  444SOL     OW 1613   0.339   1.952   2.498
  444SOL    HW1 1614   0.298   2.033   2.527
  444SOL    HW2 1615   0.274   1.884   2.518
  445SOL     OW 1616   1.647   2.243   2.240
  445SOL    HW1 1617   1.650   2.173   2.305
  445SOL    HW2 1618   1.601   2.314   2.285
  446SOL     OW 1619   1.026   2.619   2.827
  446SOL    HW1 1620   1.027   2.623   2.923
  446SOL    HW2 1621   0.997   2.530   2.807
  447SOL     OW 1622   1.288   2.651   1.890
  447SOL    HW1 1623   1.332   2.591   1.950
  447SOL    HW2 1624   1.347   2.725   1.882
  448SOL     OW 1625   0.313   2.675   2.824
  448SOL    HW1 1626   0.406   2.684   2.807
  448SOL    HW2 1627   0.301   2.583   2.845
  449SOL     OW 1628   0.323   2.387   2.868
  449SOL    HW1 1629   0.288   2.299   2.853
  449SOL    HW2 1630   0.402   2.391   2.813
  450SOL     OW 1631   0.984   2.621   0.097
  450SOL    HW1 1632   1.014   2.591   0.183
  450SOL    HW2 1633   0.889   2.619   0.102
  451SOL     OW 1634   0.815   2.428   2.212
  451SOL    HW1 1635   0.804   2.355   2.151
  451SOL    HW2 1636   0.742   2.486   2.192
  452SOL     OW 1637   0.692   2.323   0.114
  452SOL    HW1 1638   0.642   2.248   0.082
  452SOL    HW2 1639   0.700   2.381   0.038
  453SOL     OW 1640   0.465   2.356   2.042
  453SOL    HW1 1641   0.526   2.426   2.063
  453SOL    HW2 1642   0.379   2.393   2.060
  454SOL     OW 1643   1.310   2.724   2.163
  454SOL    HW1 1644   1.269   2.713   2.249
  454SOL    HW2 1645   1.246   2.689   2.101
  455SOL     OW 1646   1.712   2.002   2.368
  455SOL    HW1 1647   1.789   1.994   2.312
  455SOL    HW2 1648   1.718   1.928   2.429
  456SOL     OW 1649   1.838   2.039   2.824
  456SOL    HW1 1650   1.870   1.953   2.797
  456SOL    HW2 1651   1.748   2.043   2.790
  457SOL     OW 1652   0.268   2.198   2.582
  457SOL    HW1 1653   0.184   2.235   2.554
  457SOL    HW2 1654   0.257   2.180   2.675
  458SOL     OW 1655   0.922   2.748   2.104
  458SOL    HW1 1656   0.981   2.824   2.108
  458SOL    HW2 1657   0.933   2.705   2.188
  459SOL     OW 1658   1.037   2.104   2.807
  459SOL    HW1 1659   1.023   2.046   2.732
  459SOL    HW2 1660   0.994   2.060   2.880
  460SOL     OW 1661   0.097   2.173   1.910
  460SOL    HW1 1662   0.007   2.150   1.887
  460SOL    HW2 1663   0.103   2.267   1.894
  461SOL     OW 1664   0.048   2.063   2.175
  461SOL    HW1 1665   0.088   2.095   2.093
  461SOL    HW2 1666   0.098   1.984   2.196
  462SOL     OW 1667   1.129   0.244   1.978
  462SOL    HW1 1668   1.098   0.154   1.981
  462SOL    HW2 1669   1.210   0.244   2.029
  463SOL     OW 1670   1.731   2.727   0.077
  463SOL    HW1 1671   1.658   2.664   0.077
  463SOL    HW2 1672   1.693   2.806   0.039
  464SOL     OW 1673   1.219   2.182   2.314
  464SOL    HW1 1674   1.284   2.111   2.312
  464SOL    HW2 1675   1.241   2.232   2.393
  465SOL     OW 1676   0.598   2.585   2.525
  465SOL    HW1 1677   0.616   2.678   2.540
  465SOL    HW2 1678   0.528   2.585   2.459
  466SOL     OW 1679   0.893   2.829   2.727
  466SOL    HW1 1680   0.935   2.750   2.761
  466SOL    HW2 1681   0.844   2.864   2.802
  467SOL     OW 1682   1.119   2.883   1.943
  467SOL    HW1 1683   1.038   2.891   1.893
  467SOL    HW2 1684   1.142   2.790   1.937
  468SOL     OW 1685   1.803   2.058   0.097
  468SOL    HW1 1686   1.818   1.965   0.111
  468SOL    HW2 1687   1.819   2.070   0.003
  469SOL     OW 1688   0.438   2.288   2.384
  469SOL    HW1 1689   0.454   2.206   2.338
  469SOL    HW2 1690   0.382   2.264   2.458
  470SOL     OW 1691   1.345   1.857   2.066
  470SOL    HW1 1692   1.355   1.890   1.976
  470SOL    HW2 1693   1.252   1.840   2.075
  471SOL     OW 1694   1.294   2.316   2.545
  471SOL    HW1 1695   1.243   2.397   2.552
  471SOL    HW2 1696   1.296   2.281   2.634
  472SOL     OW 1697   1.579   2.068   2.734
  472SOL    HW1 1698   1.503   2.095   2.786
  472SOL    HW2 1699   1.597   2.144   2.678
  473SOL     OW 1700   0.013   2.922   2.159
  473SOL    HW1 1701   0.106   2.897   2.153
  473SOL    HW2 1702   2.977   2.863   2.225
  474SOL     OW 1703   2.084   0.613   0.124
  474SOL    HW1 1704   1.996   0.648   0.117
  474SOL    HW2 1705   2.122   0.626   0.038
  475SOL     OW 1706   1.848   0.387   0.643
  475SOL    HW1 1707   1.763   0.404   0.683
  475SOL    HW2 1708   1.836   0.307   0.592
  476SOL     OW 1709   2.415   1.281   1.174
  476SOL    HW1 1710   2.339   1.306   1.120
  476SOL    HW2 1711   2.449   1.364   1.207
  477SOL     OW 1712   2.612   1.144   1.036
  477SOL    HW1 1713   2.545   1.180   1.094
  477SOL    HW2 1714   2.651   1.220   0.994
  478SOL     OW 1715   2.707   0.786   1.817
  478SOL    HW1 1716   2.708   0.836   1.899
  478SOL    HW2 1717   2.756   0.840   1.755
  479SOL     OW 1718   2.550   1.005   0.651
  479SOL    HW1 1719   2.609   0.991   0.725
  479SOL    HW2 1720   2.479   1.059   0.687
  480SOL     OW 1721   2.570   1.154   1.793
  480SOL    HW1 1722   2.614   1.230   1.830
  480SOL    HW2 1723   2.481   1.184   1.774
  481SOL     OW 1724   2.194   1.422   1.064
  481SOL    HW1 1725   2.123   1.400   1.003
  481SOL    HW2 1726   2.253   1.478   1.014
  482SOL     OW 1727   2.085   1.710   0.475
  482SOL    HW1 1728   2.104   1.788   0.527
  482SOL    HW2 1729   2.157   1.705   0.412
  483SOL     OW 1730   2.990   1.345   1.688
  483SOL    HW1 1731   0.028   1.366   1.773
  483SOL    HW2 1732   2.938   1.266   1.704
  484SOL     OW 1733   2.083   1.441   0.537
  484SOL    HW1 1734   2.082   1.537   0.535
  484SOL    HW2 1735   2.019   1.418   0.604
  485SOL     OW 1736   2.103   1.085   0.883
  485SOL    HW1 1737   2.116   1.000   0.925
  485SOL    HW2 1738   2.056   1.137   0.948
  486SOL     OW 1739   2.482   1.782   1.446
  486SOL    HW1 1740   2.393   1.776   1.482
  486SOL    HW2 1741   2.502   1.875   1.446
  487SOL     OW 1742   2.439   0.984   0.165
  487SOL    HW1 1743   2.482   1.013   0.085
  487SOL    HW2 1744   2.489   1.026   0.235
  488SOL     OW 1745   1.980   0.639   0.565
  488SOL    HW1 1746   1.935   0.557   0.588
  488SOL    HW2 1747   1.969   0.695   0.642
  489SOL     OW 1748   1.854   1.586   0.123
  489SOL    HW1 1749   1.883   1.498   0.148
  489SOL    HW2 1750   1.886   1.643   0.192
  490SOL     OW 1751   2.471   1.380   0.732
  490SOL    HW1 1752   2.425   1.297   0.736
  490SOL    HW2 1753   2.457   1.410   0.642
  491SOL     OW 1754   2.682   0.025   0.542
  491SOL    HW1 1755   2.720   0.100   0.497
  491SOL    HW2 1756   2.597   0.013   0.501
  492SOL     OW 1757   2.458   0.727   0.269
  492SOL    HW1 1758   2.460   0.803   0.211
  492SOL    HW2 1759   2.389   0.746   0.331
  493SOL     OW 1760   2.637   0.609   1.448
  493SOL    HW1 1761   2.627   0.592   1.542
  493SOL    HW2 1762   2.594   0.535   1.406
  494SOL     OW 1763   2.829   0.371   1.253
  494SOL    HW1 1764   2.807   0.458   1.286
  494SOL    HW2 1765   2.840   0.383   1.159
  495SOL     OW 1766   2.890   0.711   0.408
  495SOL    HW1 1767   2.922   0.700   0.497
  495SOL    HW2 1768   2.813   0.653   0.403
  496SOL     OW 1769   1.947   0.812   0.781
  496SOL    HW1 1770   2.035   0.814   0.820
  496SOL    HW2 1771   1.909   0.896   0.806
  497SOL     OW 1772   2.780   0.343   0.222
  497SOL    HW1 1773   2.778   0.398   0.144
  497SOL    HW2 1774   2.771   0.254   0.188
  498SOL     OW 1775   2.374   0.219   0.948
  498SOL    HW1 1776   2.453   0.171   0.970
  498SOL    HW2 1777   2.390   0.253   0.860
  499SOL     OW 1778   2.866   1.443   0.476
  499SOL    HW1 1779   2.832   1.514   0.421
  499SOL    HW2 1780   2.848   1.472   0.566
  500SOL     OW 1781   2.217   1.807   0.860
  500SOL    HW1 1782   2.266   1.725   0.867
  500SOL    HW2 1783   2.282   1.875   0.879
  501SOL     OW 1784   2.179   0.947   0.244
  501SOL    HW1 1785   2.264   0.972   0.208
  501SOL    HW2 1786   2.151   0.874   0.190
  502SOL     OW 1787   2.324   1.268   1.737
  502SOL    HW1 1788   2.280   1.316   1.666
  502SOL    HW2 1789   2.255   1.251   1.801
  503SOL     OW 1790   2.331   1.725   0.332
  503SOL    HW1 1791   2.361   1.793   0.394
  503SOL    HW2 1792   2.389   1.735   0.257
  504SOL     OW 1793   2.106   1.782   1.242
  504SOL    HW1 1794   2.179   1.730   1.275
  504SOL    HW2 1795   2.111   1.773   1.147
  505SOL     OW 1796   2.844   1.689   0.897
  505SOL    HW1 1797   2.886   1.603   0.893
  505SOL    HW2 1798   2.756   1.674   0.861
  506SOL     OW 1799   2.256   0.695   0.486
  506SOL    HW1 1800   2.286   0.604   0.485
  506SOL    HW2 1801   2.161   0.688   0.496
  507SOL     OW 1802   2.476   0.112   0.110
  507SOL    HW1 1803   2.571   0.113   0.120
  507SOL    HW2 1804   2.461   0.146   0.021
  508SOL     OW 1805   2.630   0.281   1.753
  508SOL    HW1 1806   2.702   0.218   1.761
  508SOL    HW2 1807   2.585   0.276   1.838
  509SOL     OW 1808   2.738   1.498   1.203
  509SOL    HW1 1809   2.723   1.493   1.109
  509SOL    HW2 1810   2.820   1.451   1.217
  510SOL     OW 1811   2.668   1.393   0.935
  510SOL    HW1 1812   2.753   1.390   0.892
  510SOL    HW2 1813   2.605   1.402   0.864
  511SOL     OW 1814   2.783   0.504   0.903
  511SOL    HW1 1815   2.755   0.495   0.812
  511SOL    HW2 1816   2.821   0.419   0.926
  512SOL     OW 1817   2.405   0.064   0.516
  512SOL    HW1 1818   2.316   0.035   0.534
  512SOL    HW2 1819   2.397   0.129   0.447
  513SOL     OW 1820   0.296   1.131   0.046
  513SOL    HW1 1821   0.327   1.136   0.137
  513SOL    HW2 1822   0.260   1.218   0.028
  514SOL     OW 1823   2.159   0.080   0.209
  514SOL    HW1 1824   2.239   0.123   0.178
  514SOL    HW2 1825   2.176   2.987   0.195
  515SOL     OW 1826   2.824   0.249   0.465
  515SOL    HW1 1827   2.783   0.297   0.393
  515SOL    HW2 1828   2.902   0.209   0.427
  516SOL     OW 1829   0.089   1.563   0.792
  516SOL    HW1 1830   0.099   1.614   0.712
  516SOL    HW2 1831   0.173   1.572   0.837
  517SOL     OW 1832   2.327   1.141   0.735
  517SOL    HW1 1833   2.251   1.128   0.792
  517SOL    HW2 1834   2.293   1.130   0.647
  518SOL     OW 1835   2.888   0.503   0.027
  518SOL    HW1 1836   2.838   0.580   0.000
  518SOL    HW2 1837   2.942   0.534   0.100
  519SOL     OW 1838   2.741   0.464   0.635
  519SOL    HW1 1839   2.685   0.519   0.579
  519SOL    HW2 1840   2.746   0.381   0.589
  520SOL     OW 1841   2.861   0.060   0.760
  520SOL    HW1 1842   2.820   0.060   0.674
  520SOL    HW2 1843   2.839   2.974   0.797
  521SOL     OW 1844   2.352   1.402   0.151
  521SOL    HW1 1845   2.287   1.371   0.214
  521SOL    HW2 1846   2.303   1.410   0.068
  522SOL     OW 1847   2.393   0.261   0.327
  522SOL    HW1 1848   2.432   0.211   0.255
  522SOL    HW2 1849   2.367   0.344   0.287
  523SOL     OW 1850   2.780   0.108   1.399
  523SOL    HW1 1851   2.810   0.105   1.309
  523SOL    HW2 1852   2.843   0.164   1.444
  524SOL     OW 1853   2.843   1.120   1.747
  524SOL    HW1 1854   2.752   1.143   1.765
  524SOL    HW2 1855   2.839   1.066   1.667
  525SOL     OW 1856   2.572   1.069   0.384
  525SOL    HW1 1857   2.557   1.049   0.476
  525SOL    HW2 1858   2.652   1.021   0.362
  526SOL     OW 1859   2.253   0.772   1.250
  526SOL    HW1 1860   2.345   0.798   1.256
  526SOL    HW2 1861   2.256   0.677   1.238
  527SOL     OW 1862   1.931   1.525   1.290
  527SOL    HW1 1863   1.907   1.613   1.261
  527SOL    HW2 1864   2.025   1.530   1.305
  528SOL     OW 1865   2.215   1.107   0.490
  528SOL    HW1 1866   2.217   1.183   0.431
  528SOL    HW2 1867   2.215   1.032   0.431
  529SOL     OW 1868   2.407   0.563   0.877
  529SOL    HW1 1869   2.426   0.602   0.792
  529SOL    HW2 1870   2.488   0.573   0.927
  530SOL     OW 1871   2.208   1.508   1.320
  530SOL    HW1 1872   2.204   1.474   1.230
  530SOL    HW2 1873   2.301   1.527   1.334
  531SOL     OW 1874   2.329   0.748   1.620
  531SOL    HW1 1875   2.396   0.766   1.555
  531SOL    HW2 1876   2.356   0.666   1.661
  532SOL     OW 1877   2.861   0.120   1.756
  532SOL    HW1 1878   2.906   0.191   1.710
  532SOL    HW2 1879   2.903   0.041   1.723
  533SOL     OW 1880   2.360   0.057   1.734
  533SOL    HW1 1881   2.336   2.968   1.710
  533SOL    HW2 1882   2.290   0.085   1.793
  534SOL     OW 1883   2.458   0.876   1.060
  534SOL    HW1 1884   2.490   0.956   1.018
  534SOL    HW2 1885   2.366   0.895   1.078
  535SOL     OW 1886   0.062   0.534   0.265
  535SOL    HW1 1887   0.078   0.449   0.306
  535SOL    HW2 1888   0.033   0.590   0.337
  536SOL     OW 1889   2.595   0.630   1.072
  536SOL    HW1 1890   2.670   0.612   1.016
  536SOL    HW2 1891   2.569   0.720   1.050
  537SOL     OW 1892   2.158   0.043   0.644
  537SOL    HW1 1893   2.156   0.138   0.637
  537SOL    HW2 1894   2.176   0.026   0.736
  538SOL     OW 1895   2.859   0.762   0.996
  538SOL    HW1 1896   2.933   0.744   1.054
  538SOL    HW2 1897   2.850   0.682   0.944
  539SOL     OW 1898   2.824   1.560   1.696
  539SOL    HW1 1899   2.824   1.608   1.613
  539SOL    HW2 1900   2.889   1.491   1.684
  540SOL     OW 1901   2.251   0.933   1.828
  540SOL    HW1 1902   2.333   0.915   1.874
  540SOL    HW2 1903   2.242   0.862   1.765
  541SOL     OW 1904   2.916   1.345   0.842
  541SOL    HW1 1905   2.920   1.272   0.780
  541SOL    HW2 1906   2.981   1.407   0.810
  542SOL     OW 1907   2.180   0.817   0.951
  542SOL    HW1 1908   2.266   0.825   0.910
  542SOL    HW2 1909   2.176   0.725   0.979
  543SOL     OW 1910   2.186   0.511   1.015
  543SOL    HW1 1911   2.148   0.451   0.951
  543SOL    HW2 1912   2.273   0.531   0.980
  544SOL     OW 1913   2.967   0.368   1.661
  544SOL    HW1 1914   2.908   0.428   1.708
  544SOL    HW2 1915   0.054   0.406   1.674
  545SOL     OW 1916   1.873   1.318   0.188
  545SOL    HW1 1917   1.782   1.332   0.161
  545SOL    HW2 1918   1.872   1.233   0.230
  546SOL     OW 1919   1.956   1.783   0.940
  546SOL    HW1 1920   1.929   1.706   0.891
  546SOL    HW2 1921   2.044   1.802   0.908
  547SOL     OW 1922   2.357   1.564   0.908
  547SOL    HW1 1923   2.422   1.626   0.941
  547SOL    HW2 1924   2.405   1.509   0.845
  548SOL     OW 1925   1.902   0.536   1.106
  548SOL    HW1 1926   1.966   0.516   1.038
  548SOL    HW2 1927   1.943   0.604   1.159
  549SOL     OW 1928   2.668   0.567   0.359
  549SOL    HW1 1929   2.675   0.494   0.296
  549SOL    HW2 1930   2.593   0.618   0.327
  550SOL     OW 1931   2.127   1.555   1.746
  550SOL    HW1 1932   2.092   1.628   1.797
  550SOL    HW2 1933   2.100   1.477   1.793
  551SOL     OW 1934   2.485   0.459   1.254
  551SOL    HW1 1935   2.542   0.382   1.260
  551SOL    HW2 1936   2.527   0.516   1.190
  552SOL     OW 1937   2.806   1.686   1.453
  552SOL    HW1 1938   2.766   1.641   1.379
  552SOL    HW2 1939   2.776   1.777   1.445
  553SOL     OW 1940   2.307   0.493   0.226
  553SOL    HW1 1941   2.370   0.565   0.220
  553SOL    HW2 1942   2.226   0.528   0.188
  554SOL     OW 1943   1.946   1.237   1.048
  554SOL    HW1 1944   1.922   1.319   1.090
  554SOL    HW2 1945   1.877   1.223   0.982
  555SOL     OW 1946   2.535   1.662   1.725
  555SOL    HW1 1947   2.488   1.745   1.726
  555SOL    HW2 1948   2.603   1.673   1.658
  556SOL     OW 1949   2.767   0.084   0.147
  556SOL    HW1 1950   2.790   0.041   0.065
  556SOL    HW2 1951   2.821   0.041   0.213
  557SOL     OW 1952   2.010   1.807   1.839
  557SOL    HW1 1953   1.953   1.742   1.881
  557SOL    HW2 1954   2.058   1.846   1.912
  558SOL     OW 1955   2.678   1.281   1.435
  558SOL    HW1 1956   2.653   1.339   1.507
  558SOL    HW2 1957   2.647   1.327   1.356
  559SOL     OW 1958   2.545   1.598   0.159
  559SOL    HW1 1959   2.528   1.641   0.075
  559SOL    HW2 1960   2.483   1.525   0.160
  560SOL     OW 1961   2.097   0.359   0.815
  560SOL    HW1 1962   2.070   0.368   0.723
  560SOL    HW2 1963   2.081   0.267   0.835
  561SOL     OW 1964   2.794   0.943   0.310
  561SOL    HW1 1965   2.836   0.954   0.225
  561SOL    HW2 1966   2.829   0.862   0.345
  562SOL     OW 1967   2.927   1.064   0.723
  562SOL    HW1 1968   2.844   1.035   0.759
  562SOL    HW2 1969   2.922   1.046   0.629
  563SOL     OW 1970   2.872   0.240   0.968
  563SOL    HW1 1971   2.872   0.190   0.887
  563SOL    HW2 1972   2.869   0.173   1.037
  564SOL     OW 1973   2.455   1.486   0.482
  564SOL    HW1 1974   2.505   1.440   0.415
  564SOL    HW2 1975   2.408   1.554   0.435
  565SOL     OW 1976   2.131   1.330   0.299
  565SOL    HW1 1977   2.046   1.339   0.255
  565SOL    HW2 1978   2.121   1.378   0.381
  566SOL     OW 1979   2.535   0.220   1.474
  566SOL    HW1 1980   2.617   0.176   1.451
  566SOL    HW2 1981   2.536   0.224   1.570
  567SOL     OW 1982   1.941   0.210   0.337
  567SOL    HW1 1983   1.893   0.234   0.258
  567SOL    HW2 1984   2.011   0.152   0.306
  568SOL     OW 1985   2.573   0.564   1.705
  568SOL    HW1 1986   2.609   0.624   1.770
  568SOL    HW2 1987   2.602   0.478   1.734
  569SOL     OW 1988   2.237   1.743   1.563
  569SOL    HW1 1989   2.148   1.778   1.556
  569SOL    HW2 1990   2.227   1.661   1.611
  570SOL     OW 1991   2.451   0.744   0.672
  570SOL    HW1 1992   2.493   0.828   0.650
  570SOL    HW2 1993   2.385   0.732   0.604
  571SOL     OW 1994   2.762   1.377   0.066
  571SOL    HW1 1995   2.689   1.396   0.126
  571SOL    HW2 1996   2.738   1.423   2.986
  572SOL     OW 1997   2.716   0.959   0.863
  572SOL    HW1 1998   2.765   0.890   0.909
  572SOL    HW2 1999   2.689   1.019   0.933
  573SOL     OW 2000   2.957   1.015   0.087
  573SOL    HW1 2001   2.933   1.069   0.012
  573SOL    HW2 2002   0.019   0.951   0.052
  574SOL     OW 2003   2.076   1.300   1.857
  574SOL    HW1 2004   1.995   1.249   1.864
  574SOL    HW2 2005   2.097   1.322   1.948
  575SOL     OW 2006   1.942   1.229   0.666
  575SOL    HW1 2007   1.972   1.175   0.739
  575SOL    HW2 2008   2.007   1.214   0.597
  576SOL     OW 2009   2.529   1.406   1.620
  576SOL    HW1 2010   2.465   1.363   1.677
  576SOL    HW2 2011   2.540   1.494   1.657
  577SOL     OW 2012   2.338   0.431   0.544
  577SOL    HW1 2013   2.349   0.381   0.463
  577SOL    HW2 2014   2.261   0.393   0.586
  578SOL     OW 2015   2.692   1.572   0.675
  578SOL    HW1 2016   2.691   1.629   0.599
  578SOL    HW2 2017   2.606   1.528   0.674
  579SOL     OW 2018   2.850   0.014   1.135
  579SOL    HW1 2019   2.836   2.926   1.100
  579SOL    HW2 2020   2.939   0.012   1.171
  580SOL     OW 2021   2.626   1.332   0.321
  580SOL    HW1 2022   2.601   1.240   0.334
  580SOL    HW2 2023   2.714   1.338   0.358
  581SOL     OW 2024   2.480   1.553   1.292
  581SOL    HW1 2025   2.481   1.636   1.339
  581SOL    HW2 2026   2.558   1.554   1.238
  582SOL     OW 2027   1.901   1.074   0.308
  582SOL    HW1 2028   1.994   1.070   0.286
  582SOL    HW2 2029   1.876   0.984   0.327
  583SOL     OW 2030   2.738   1.647   0.350
  583SOL    HW1 2031   2.672   1.629   0.284
  583SOL    HW2 2032   2.708   1.726   0.393
  584SOL     OW 2033   2.101   0.648   2.005
  584SOL    HW1 2034   2.015   0.639   2.045
  584SOL    HW2 2035   2.087   0.629   1.913
  585SOL     OW 2036   2.086   0.258   2.862
  585SOL    HW1 2037   2.098   0.255   2.957
  585SOL    HW2 2038   1.997   0.227   2.848
  586SOL     OW 2039   1.865   0.382   2.506
  586SOL    HW1 2040   1.783   0.412   2.545
  586SOL    HW2 2041   1.840   0.307   2.453
  587SOL     OW 2042   2.615   1.148   2.893
  587SOL    HW1 2043   2.554   1.185   2.956
  587SOL    HW2 2044   2.657   1.224   2.853
  588SOL     OW 2045   2.546   1.006   2.509
  588SOL    HW1 2046   2.608   0.991   2.580
  588SOL    HW2 2047   2.476   1.057   2.550
  589SOL     OW 2048   2.197   1.435   2.931
  589SOL    HW1 2049   2.125   1.402   2.878
  589SOL    HW2 2050   2.251   1.485   2.870
  590SOL     OW 2051   2.083   1.716   2.333
  590SOL    HW1 2052   2.105   1.790   2.390
  590SOL    HW2 2053   2.158   1.708   2.275
  591SOL     OW 2054   2.075   1.440   2.383
  591SOL    HW1 2055   2.083   1.534   2.402
  591SOL    HW2 2056   2.047   1.401   2.466
  592SOL     OW 2057   2.100   1.109   2.737
  592SOL    HW1 2058   2.117   1.022   2.774
  592SOL    HW2 2059   2.060   1.157   2.809
  593SOL     OW 2060   2.468   0.976   1.994
  593SOL    HW1 2061   2.502   1.039   1.931
  593SOL    HW2 2062   2.498   1.008   2.079
  594SOL     OW 2063   1.979   0.644   2.422
  594SOL    HW1 2064   1.935   0.563   2.447
  594SOL    HW2 2065   1.971   0.701   2.498
  595SOL     OW 2066   1.929   1.593   2.004
  595SOL    HW1 2067   1.888   1.508   2.015
  595SOL    HW2 2068   1.892   1.647   2.075
  596SOL     OW 2069   2.470   1.381   2.591
  596SOL    HW1 2070   2.426   1.297   2.601
  596SOL    HW2 2071   2.453   1.406   2.500
  597SOL     OW 2072   2.678   0.016   2.337
  597SOL    HW1 2073   2.696   0.106   2.363
  597SOL    HW2 2074   2.585   0.003   2.358
  598SOL     OW 2075   2.457   0.723   2.126
  598SOL    HW1 2076   2.466   0.807   2.080
  598SOL    HW2 2077   2.393   0.740   2.195
  599SOL     OW 2078   2.888   0.716   2.283
  599SOL    HW1 2079   2.932   0.691   2.364
  599SOL    HW2 2080   2.816   0.653   2.274
  600SOL     OW 2081   1.939   0.825   2.625
  600SOL    HW1 2082   2.012   0.801   2.681
  600SOL    HW2 2083   1.906   0.906   2.663
  601SOL     OW 2084   2.734   0.338   2.044
  601SOL    HW1 2085   2.795   0.402   2.007
  601SOL    HW2 2086   2.784   0.256   2.048
  602SOL     OW 2087   2.417   0.205   2.832
  602SOL    HW1 2088   2.356   0.269   2.869
  602SOL    HW2 2089   2.439   0.241   2.746
  603SOL     OW 2090   2.847   1.430   2.327
  603SOL    HW1 2091   2.826   1.513   2.284
  603SOL    HW2 2092   2.888   1.455   2.409
  604SOL     OW 2093   2.219   1.807   2.719
  604SOL    HW1 2094   2.267   1.726   2.731
  604SOL    HW2 2095   2.282   1.876   2.741
  605SOL     OW 2096   2.180   0.957   2.114
  605SOL    HW1 2097   2.255   0.980   2.059
  605SOL    HW2 2098   2.148   0.874   2.078
  606SOL     OW 2099   2.328   1.732   2.187
  606SOL    HW1 2100   2.365   1.795   2.250
  606SOL    HW2 2101   2.401   1.713   2.128
  607SOL     OW 2102   2.102   1.782   0.114
  607SOL    HW1 2103   2.181   1.747   0.153
  607SOL    HW2 2104   2.103   1.750   0.024
  608SOL     OW 2105   2.799   1.698   2.762
  608SOL    HW1 2106   2.866   1.636   2.793
  608SOL    HW2 2107   2.756   1.652   2.690
  609SOL     OW 2108   2.254   0.691   2.335
  609SOL    HW1 2109   2.285   0.603   2.355
  609SOL    HW2 2110   2.161   0.690   2.359
  610SOL     OW 2111   2.489   0.132   1.965
  610SOL    HW1 2112   2.572   0.088   1.985
  610SOL    HW2 2113   2.467   0.104   1.876
  611SOL     OW 2114   2.663   1.397   2.790
  611SOL    HW1 2115   2.750   1.394   2.750
  611SOL    HW2 2116   2.603   1.398   2.716
  612SOL     OW 2117   2.788   0.521   2.756
  612SOL    HW1 2118   2.760   0.498   2.667
  612SOL    HW2 2119   2.817   0.438   2.794
  613SOL     OW 2120   2.399   0.063   2.367
  613SOL    HW1 2121   2.311   0.046   2.400
  613SOL    HW2 2122   2.387   0.132   2.302
  614SOL     OW 2123   2.180   0.045   2.026
  614SOL    HW1 2124   2.223   0.125   2.058
  614SOL    HW2 2125   2.224   2.975   2.073
  615SOL     OW 2126   2.814   0.257   2.329
  615SOL    HW1 2127   2.759   0.285   2.255
  615SOL    HW2 2128   2.892   0.220   2.289
  616SOL     OW 2129   0.085   1.572   2.653
  616SOL    HW1 2130   0.099   1.618   2.570
  616SOL    HW2 2131   0.170   1.576   2.697
  617SOL     OW 2132   2.328   1.146   2.596
  617SOL    HW1 2133   2.258   1.133   2.660
  617SOL    HW2 2134   2.286   1.127   2.512
  618SOL     OW 2135   2.893   0.551   1.878
  618SOL    HW1 2136   2.845   0.633   1.863
  618SOL    HW2 2137   2.943   0.566   1.958
  619SOL     OW 2138   2.742   0.468   2.495
  619SOL    HW1 2139   2.673   0.517   2.452
  619SOL    HW2 2140   2.744   0.383   2.450
  620SOL     OW 2141   2.855   0.053   2.623
  620SOL    HW1 2142   2.837   0.052   2.529
  620SOL    HW2 2143   2.832   2.965   2.653
  621SOL     OW 2144   2.361   1.399   2.018
  621SOL    HW1 2145   2.286   1.377   2.074
  621SOL    HW2 2146   2.321   1.425   1.935
  622SOL     OW 2147   2.381   0.261   2.177
  622SOL    HW1 2148   2.429   0.214   2.109
  622SOL    HW2 2149   2.367   0.348   2.140
  623SOL     OW 2150   2.567   1.059   2.236
  623SOL    HW1 2151   2.554   1.046   2.329
  623SOL    HW2 2152   2.645   1.007   2.214
  624SOL     OW 2153   2.207   1.108   2.354
  624SOL    HW1 2154   2.231   1.178   2.293
  624SOL    HW2 2155   2.209   1.029   2.301
  625SOL     OW 2156   2.424   0.538   2.715
  625SOL    HW1 2157   2.440   0.602   2.645
  625SOL    HW2 2158   2.470   0.575   2.791
  626SOL     OW 2159   2.474   0.872   2.894
  626SOL    HW1 2160   2.479   0.956   2.848
  626SOL    HW2 2161   2.381   0.850   2.894
  627SOL     OW 2162   0.059   0.529   2.138
  627SOL    HW1 2163   0.086   0.452   2.187
  627SOL    HW2 2164   0.031   0.592   2.204
  628SOL     OW 2165   2.603   0.639   2.924
  628SOL    HW1 2166   2.659   0.620   2.850
  628SOL    HW2 2167   2.566   0.726   2.906
  629SOL     OW 2168   2.164   0.070   2.503
  629SOL    HW1 2169   2.162   0.156   2.545
  629SOL    HW2 2170   2.148   0.008   2.575
  630SOL     OW 2171   2.880   0.776   2.828
  630SOL    HW1 2172   2.881   0.770   2.924
  630SOL    HW2 2173   2.867   0.686   2.798
  631SOL     OW 2174   2.911   1.346   2.697
  631SOL    HW1 2175   2.916   1.275   2.633
  631SOL    HW2 2176   2.976   1.410   2.667
  632SOL     OW 2177   2.232   0.480   2.905
  632SOL    HW1 2178   2.167   0.424   2.864
  632SOL    HW2 2179   2.270   0.531   2.833
  633SOL     OW 2180   1.843   1.325   2.070
  633SOL    HW1 2181   1.773   1.314   2.005
  633SOL    HW2 2182   1.860   1.237   2.102
  634SOL     OW 2183   1.951   1.796   2.783
  634SOL    HW1 2184   1.931   1.708   2.751
  634SOL    HW2 2185   2.044   1.807   2.765
  635SOL     OW 2186   2.362   1.571   2.764
  635SOL    HW1 2187   2.428   1.639   2.779
  635SOL    HW2 2188   2.408   1.504   2.713
  636SOL     OW 2189   2.845   0.755   0.101
  636SOL    HW1 2190   2.879   0.741   0.189
  636SOL    HW2 2191   2.751   0.771   0.114
  637SOL     OW 2192   2.674   0.564   2.206
  637SOL    HW1 2193   2.666   0.485   2.151
  637SOL    HW2 2194   2.597   0.617   2.184
  638SOL     OW 2195   2.554   0.443   0.096
  638SOL    HW1 2196   2.460   0.427   0.085
  638SOL    HW2 2197   2.573   0.516   0.037
  639SOL     OW 2198   2.332   0.496   2.048
  639SOL    HW1 2199   2.390   0.569   2.070
  639SOL    HW2 2200   2.244   0.535   2.049
  640SOL     OW 2201   1.931   1.283   2.882
  640SOL    HW1 2202   1.931   1.279   2.978
  640SOL    HW2 2203   1.872   1.212   2.856
  641SOL     OW 2204   2.527   1.618   2.015
  641SOL    HW1 2205   2.542   1.627   1.921
  641SOL    HW2 2206   2.487   1.532   2.025
  642SOL     OW 2207   2.129   0.329   2.604
  642SOL    HW1 2208   2.041   0.365   2.590
  642SOL    HW2 2209   2.130   0.303   2.696
  643SOL     OW 2210   2.776   0.913   2.139
  643SOL    HW1 2211   2.844   0.926   2.073
  643SOL    HW2 2212   2.809   0.843   2.195
  644SOL     OW 2213   2.901   1.081   2.575
  644SOL    HW1 2214   2.828   1.041   2.621
  644SOL    HW2 2215   2.933   1.013   2.515
  645SOL     OW 2216   2.877   0.237   2.824
  645SOL    HW1 2217   2.874   0.193   2.738
  645SOL    HW2 2218   2.882   0.165   2.887
  646SOL     OW 2219   2.447   1.475   2.337
  646SOL    HW1 2220   2.504   1.441   2.268
  646SOL    HW2 2221   2.410   1.556   2.300
  647SOL     OW 2222   2.114   1.351   2.133
  647SOL    HW1 2223   2.019   1.347   2.121
  647SOL    HW2 2224   2.125   1.384   2.222
  648SOL     OW 2225   1.894   0.185   2.159
  648SOL    HW1 2226   1.906   0.272   2.120
  648SOL    HW2 2227   1.981   0.147   2.162
  649SOL     OW 2228   2.465   0.737   2.518
  649SOL    HW1 2229   2.497   0.827   2.513
  649SOL    HW2 2230   2.385   0.737   2.465
  650SOL     OW 2231   2.708   1.367   1.884
  650SOL    HW1 2232   2.687   1.391   1.974
  650SOL    HW2 2233   2.743   1.447   1.845
  651SOL     OW 2234   2.524   1.780   2.793
  651SOL    HW1 2235   2.499   1.865   2.828
  651SOL    HW2 2236   2.620   1.779   2.798
  652SOL     OW 2237   2.713   0.959   2.719
  652SOL    HW1 2238   2.765   0.891   2.760
  652SOL    HW2 2239   2.683   1.014   2.792
  653SOL     OW 2240   2.952   0.943   1.919
  653SOL    HW1 2241   2.915   1.027   1.892
  653SOL    HW2 2242   0.015   0.966   1.988
  654SOL     OW 2243   1.946   1.233   2.525
  654SOL    HW1 2244   1.959   1.190   2.610
  654SOL    HW2 2245   2.014   1.196   2.469
  655SOL     OW 2246   2.324   0.431   2.403
  655SOL    HW1 2247   2.310   0.368   2.333
  655SOL    HW2 2248   2.267   0.402   2.475
  656SOL     OW 2249   2.684   1.581   2.544
  656SOL    HW1 2250   2.693   1.615   2.455
  656SOL    HW2 2251   2.604   1.529   2.541
  657SOL     OW 2252   2.646   1.328   2.163
  657SOL    HW1 2253   2.612   1.242   2.189
  657SOL    HW2 2254   2.712   1.349   2.229
  658SOL     OW 2255   1.909   1.077   2.165
  658SOL    HW1 2256   2.003   1.064   2.155
  658SOL    HW2 2257   1.875   0.990   2.185
  659SOL     OW 2258   2.726   1.640   2.209
  659SOL    HW1 2259   2.662   1.643   2.139
  659SOL    HW2 2260   2.717   1.725   2.254
  660SOL     OW 2261   2.086   2.510   0.103
  660SOL    HW1 2262   2.008   2.465   0.135
  660SOL    HW2 2263   2.110   2.464   0.023
  661SOL     OW 2264   2.095   2.131   0.982
  661SOL    HW1 2265   2.128   2.102   1.066
  661SOL    HW2 2266   2.006   2.097   0.977
  662SOL     OW 2267   1.864   2.252   0.631
  662SOL    HW1 2268   1.783   2.250   0.682
  662SOL    HW2 2269   1.861   2.171   0.580
  663SOL     OW 2270   2.577   0.009   1.025
  663SOL    HW1 2271   2.582   0.033   1.117
  663SOL    HW2 2272   2.651   0.056   0.984
  664SOL     OW 2273   2.720   2.644   1.821
  664SOL    HW1 2274   2.724   2.696   1.901
  664SOL    HW2 2275   2.755   2.701   1.752
  665SOL     OW 2276   2.513   2.858   0.715
  665SOL    HW1 2277   2.609   2.853   0.718
  665SOL    HW2 2278   2.495   2.933   0.658
  666SOL     OW 2279   2.321   2.272   1.496
  666SOL    HW1 2280   2.397   2.213   1.493
  666SOL    HW2 2281   2.246   2.214   1.499
  667SOL     OW 2282   2.096   0.300   0.539
  667SOL    HW1 2283   2.081   0.383   0.492
  667SOL    HW2 2284   2.045   0.235   0.491
  668SOL     OW 2285   2.102   2.959   0.961
  668SOL    HW1 2286   2.135   2.874   0.933
  668SOL    HW2 2287   2.018   2.968   0.917
  669SOL     OW 2288   2.476   2.832   0.145
  669SOL    HW1 2289   2.470   2.926   0.124
  669SOL    HW2 2290   2.545   2.827   0.212
  670SOL     OW 2291   1.973   2.508   0.549
  670SOL    HW1 2292   1.951   2.418   0.572
  670SOL    HW2 2293   1.975   2.555   0.633
  671SOL     OW 2294   2.485   0.244   0.709
  671SOL    HW1 2295   2.472   0.163   0.659
  671SOL    HW2 2296   2.470   0.314   0.645
  672SOL     OW 2297   2.675   1.863   0.511
  672SOL    HW1 2298   2.712   1.949   0.491
  672SOL    HW2 2299   2.580   1.878   0.518
  673SOL     OW 2300   2.196   2.115   1.790
  673SOL    HW1 2301   2.252   2.186   1.822
  673SOL    HW2 2302   2.114   2.126   1.838
  674SOL     OW 2303   2.462   2.590   0.280
  674SOL    HW1 2304   2.457   2.662   0.217
  674SOL    HW2 2305   2.384   2.600   0.334
  675SOL     OW 2306   2.647   2.495   1.452
  675SOL    HW1 2307   2.628   2.466   1.541
  675SOL    HW2 2308   2.616   2.424   1.396
  676SOL     OW 2309   2.832   2.751   1.576
  676SOL    HW1 2310   2.857   2.661   1.556
  676SOL    HW2 2311   2.771   2.774   1.506
  677SOL     OW 2312   2.851   2.251   1.252
  677SOL    HW1 2313   2.767   2.283   1.285
  677SOL    HW2 2314   2.831   2.219   1.164
  678SOL     OW 2315   2.885   2.587   0.413
  678SOL    HW1 2316   2.930   2.561   0.493
  678SOL    HW2 2317   2.814   2.523   0.403
  679SOL     OW 2318   1.969   2.679   0.766
  679SOL    HW1 2319   2.055   2.680   0.807
  679SOL    HW2 2320   1.928   2.761   0.795
  680SOL     OW 2321   2.771   2.202   0.221
  680SOL    HW1 2322   2.791   2.263   0.150
  680SOL    HW2 2323   2.773   2.116   0.180
  681SOL     OW 2324   2.374   2.072   0.873
  681SOL    HW1 2325   2.431   2.036   0.941
  681SOL    HW2 2326   2.409   2.159   0.856
  682SOL     OW 2327   2.085   2.151   1.498
  682SOL    HW1 2328   2.021   2.221   1.483
  682SOL    HW2 2329   2.068   2.121   1.587
  683SOL     OW 2330   2.249   2.559   0.479
  683SOL    HW1 2331   2.278   2.468   0.482
  683SOL    HW2 2332   2.154   2.554   0.488
  684SOL     OW 2333   2.625   2.135   1.752
  684SOL    HW1 2334   2.702   2.080   1.764
  684SOL    HW2 2335   2.587   2.142   1.839
  685SOL     OW 2336   2.786   2.367   0.902
  685SOL    HW1 2337   2.759   2.355   0.811
  685SOL    HW2 2338   2.822   2.282   0.928
  686SOL     OW 2339   2.408   1.922   0.506
  686SOL    HW1 2340   2.330   1.928   0.560
  686SOL    HW2 2341   2.405   2.000   0.451
  687SOL     OW 2342   2.812   2.102   0.465
  687SOL    HW1 2343   2.772   2.146   0.390
  687SOL    HW2 2344   2.897   2.071   0.433
  688SOL     OW 2345   2.868   2.381   0.043
  688SOL    HW1 2346   2.844   2.460   2.995
  688SOL    HW2 2347   2.940   2.407   0.100
  689SOL     OW 2348   1.976   2.395   1.426
  689SOL    HW1 2349   2.046   2.393   1.361
  689SOL    HW2 2350   1.959   2.488   1.440
  690SOL     OW 2351   2.434   2.093   1.177
  690SOL    HW1 2352   2.467   2.007   1.152
  690SOL    HW2 2353   2.340   2.081   1.188
  691SOL     OW 2354   2.742   2.321   0.633
  691SOL    HW1 2355   2.687   2.377   0.579
  691SOL    HW2 2356   2.745   2.238   0.586
  692SOL     OW 2357   2.863   1.924   0.757
  692SOL    HW1 2358   2.809   1.910   0.680
  692SOL    HW2 2359   2.853   1.845   0.809
  693SOL     OW 2360   2.385   2.127   0.333
  693SOL    HW1 2361   2.415   2.075   0.259
  693SOL    HW2 2362   2.366   2.213   0.295
  694SOL     OW 2363   2.751   1.948   1.394
  694SOL    HW1 2364   2.772   1.931   1.302
  694SOL    HW2 2365   2.830   1.990   1.429
  695SOL     OW 2366   2.424   2.396   0.859
  695SOL    HW1 2367   2.437   2.453   0.784
  695SOL    HW2 2368   2.490   2.425   0.923
  696SOL     OW 2369   2.267   2.608   1.580
  696SOL    HW1 2370   2.342   2.644   1.533
  696SOL    HW2 2371   2.296   2.522   1.610
  697SOL     OW 2372   2.856   1.989   1.769
  697SOL    HW1 2373   2.902   2.043   1.705
  697SOL    HW2 2374   2.902   1.905   1.767
  698SOL     OW 2375   2.362   1.901   1.746
  698SOL    HW1 2376   2.323   1.851   1.675
  698SOL    HW2 2377   2.305   1.977   1.756
  699SOL     OW 2378   2.435   2.746   1.037
  699SOL    HW1 2379   2.479   2.828   1.017
  699SOL    HW2 2380   2.439   2.738   1.132
  700SOL     OW 2381   0.062   2.404   0.271
  700SOL    HW1 2382   0.073   2.316   0.305
  700SOL    HW2 2383   0.042   2.457   0.348
  701SOL     OW 2384   2.158   2.060   1.241
  701SOL    HW1 2385   2.138   2.095   1.328
  701SOL    HW2 2386   2.139   1.966   1.248
  702SOL     OW 2387   2.591   2.497   1.058
  702SOL    HW1 2388   2.668   2.470   1.007
  702SOL    HW2 2389   2.569   2.583   1.023
  703SOL     OW 2390   2.159   1.926   0.625
  703SOL    HW1 2391   2.148   2.019   0.647
  703SOL    HW2 2392   2.175   1.883   0.708
  704SOL     OW 2393   2.857   2.623   0.985
  704SOL    HW1 2394   2.918   2.611   1.058
  704SOL    HW2 2395   2.857   2.538   0.940
  705SOL     OW 2396   2.241   2.806   1.776
  705SOL    HW1 2397   2.271   2.791   1.866
  705SOL    HW2 2398   2.246   2.721   1.734
  706SOL     OW 2399   2.175   2.674   0.969
  706SOL    HW1 2400   2.268   2.690   0.956
  706SOL    HW2 2401   2.168   2.580   0.985
  707SOL     OW 2402   2.210   2.387   1.018
  707SOL    HW1 2403   2.158   2.309   0.997
  707SOL    HW2 2404   2.285   2.382   0.958
  708SOL     OW 2405   2.967   2.244   1.664
  708SOL    HW1 2406   2.910   2.301   1.715
  708SOL    HW2 2407   0.055   2.279   1.679
  709SOL     OW 2408   2.976   2.064   1.469
  709SOL    HW1 2409   2.962   2.134   1.532
  709SOL    HW2 2410   2.978   2.108   1.384
  710SOL     OW 2411   2.850   2.672   1.270
  710SOL    HW1 2412   2.909   2.608   1.309
  710SOL    HW2 2413   2.777   2.621   1.236
  711SOL     OW 2414   2.064   2.389   1.724
  711SOL    HW1 2415   2.130   2.360   1.661
  711SOL    HW2 2416   1.989   2.414   1.670
  712SOL     OW 2417   2.673   2.429   0.360
  712SOL    HW1 2418   2.681   2.355   0.300
  712SOL    HW2 2419   2.596   2.477   0.328
  713SOL     OW 2420   2.562   2.318   1.265
  713SOL    HW1 2421   2.515   2.239   1.240
  713SOL    HW2 2422   2.556   2.375   1.189
  714SOL     OW 2423   2.284   2.359   0.228
  714SOL    HW1 2424   2.371   2.389   0.202
  714SOL    HW2 2425   2.224   2.423   0.190
  715SOL     OW 2426   2.825   1.948   0.128
  715SOL    HW1 2427   2.795   1.902   0.050
  715SOL    HW2 2428   2.820   1.883   0.198
  716SOL     OW 2429   2.123   2.180   0.712
  716SOL    HW1 2430   2.036   2.218   0.703
  716SOL    HW2 2431   2.132   2.166   0.807
  717SOL     OW 2432   2.665   2.868   1.360
  717SOL    HW1 2433   2.738   2.828   1.313
  717SOL    HW2 2434   2.699   2.953   1.389
  718SOL     OW 2435   2.740   2.795   0.296
  718SOL    HW1 2436   2.821   2.825   0.254
  718SOL    HW2 2437   2.768   2.726   0.356
  719SOL     OW 2438   2.883   2.103   0.969
  719SOL    HW1 2439   2.875   2.056   0.886
  719SOL    HW2 2440   2.864   2.037   1.035
  720SOL     OW 2441   2.523   2.064   1.503
  720SOL    HW1 2442   2.602   2.041   1.453
  720SOL    HW2 2443   2.556   2.087   1.590
  721SOL     OW 2444   1.935   2.019   0.336
  721SOL    HW1 2445   1.899   2.072   0.264
  721SOL    HW2 2446   2.027   2.007   0.312
  722SOL     OW 2447   2.469   2.698   1.428
  722SOL    HW1 2448   2.528   2.771   1.411
  722SOL    HW2 2449   2.526   2.621   1.435
  723SOL     OW 2450   2.581   2.428   1.703
  723SOL    HW1 2451   2.613   2.492   1.766
  723SOL    HW2 2452   2.609   2.343   1.738
  724SOL     OW 2453   2.452   2.591   0.669
  724SOL    HW1 2454   2.476   2.683   0.671
  724SOL    HW2 2455   2.388   2.583   0.599
  725SOL     OW 2456   2.756   2.840   0.869
  725SOL    HW1 2457   2.785   2.754   0.899
  725SOL    HW2 2458   2.675   2.857   0.917
  726SOL     OW 2459   2.295   2.299   0.535
  726SOL    HW1 2460   2.322   2.234   0.471
  726SOL    HW2 2461   2.246   2.250   0.601
  727SOL     OW 2462   2.202   2.431   1.287
  727SOL    HW1 2463   2.261   2.374   1.337
  727SOL    HW2 2464   2.214   2.404   1.196
  728SOL     OW 2465   2.864   1.882   1.145
  728SOL    HW1 2466   2.791   1.836   1.105
  728SOL    HW2 2467   2.942   1.842   1.107
  729SOL     OW 2468   1.883   2.926   0.315
  729SOL    HW1 2469   1.961   2.922   0.260
  729SOL    HW2 2470   1.866   2.835   0.341
  730SOL     OW 2471   2.093   2.482   1.984
  730SOL    HW1 2472   2.004   2.486   2.017
  730SOL    HW2 2473   2.083   2.461   1.891
  731SOL     OW 2474   2.086   2.145   2.853
  731SOL    HW1 2475   2.113   2.116   2.940
  731SOL    HW2 2476   1.997   2.111   2.843
  732SOL     OW 2477   1.869   2.250   2.499
  732SOL    HW1 2478   1.786   2.275   2.540
  732SOL    HW2 2479   1.850   2.169   2.452
  733SOL     OW 2480   2.635   0.022   2.883
  733SOL    HW1 2481   2.540   0.036   2.889
  733SOL    HW2 2482   2.665   0.089   2.822
  734SOL     OW 2483   2.521   2.845   2.546
  734SOL    HW1 2484   2.607   2.842   2.589
  734SOL    HW2 2485   2.494   2.937   2.554
  735SOL     OW 2486   2.087   0.302   2.322
  735SOL    HW1 2487   2.068   0.384   2.367
  735SOL    HW2 2488   2.064   0.233   2.385
  736SOL     OW 2489   2.115   2.950   2.745
  736SOL    HW1 2490   2.127   2.861   2.778
  736SOL    HW2 2491   2.058   2.992   2.810
  737SOL     OW 2492   2.461   2.831   2.007
  737SOL    HW1 2493   2.476   2.903   1.945
  737SOL    HW2 2494   2.539   2.829   2.062
  738SOL     OW 2495   1.976   2.510   2.424
  738SOL    HW1 2496   1.951   2.421   2.448
  738SOL    HW2 2497   1.970   2.559   2.506
  739SOL     OW 2498   2.506   0.243   2.563
  739SOL    HW1 2499   2.458   0.161   2.547
  739SOL    HW2 2500   2.470   0.305   2.500
  740SOL     OW 2501   2.670   1.860   2.356
  740SOL    HW1 2502   2.714   1.945   2.351
  740SOL    HW2 2503   2.579   1.881   2.378
  741SOL     OW 2504   2.061   2.809   0.121
  741SOL    HW1 2505   2.130   2.746   0.104
  741SOL    HW2 2506   1.981   2.765   0.095
  742SOL     OW 2507   2.453   2.580   2.121
  742SOL    HW1 2508   2.461   2.663   2.074
  742SOL    HW2 2509   2.395   2.600   2.195
  743SOL     OW 2510   1.951   2.682   2.637
  743SOL    HW1 2511   2.031   2.671   2.687
  743SOL    HW2 2512   1.911   2.762   2.672
  744SOL     OW 2513   2.732   2.197   2.025
  744SOL    HW1 2514   2.798   2.265   2.010
  744SOL    HW2 2515   2.783   2.116   2.033
  745SOL     OW 2516   2.390   2.049   2.755
  745SOL    HW1 2517   2.404   2.048   2.850
  745SOL    HW2 2518   2.414   2.138   2.728
  746SOL     OW 2519   2.247   2.558   2.334
  746SOL    HW1 2520   2.274   2.466   2.344
  746SOL    HW2 2521   2.155   2.559   2.360
  747SOL     OW 2522   2.481   1.981   1.976
  747SOL    HW1 2523   2.568   1.942   1.984
  747SOL    HW2 2524   2.448   1.949   1.892
  748SOL     OW 2525   2.785   2.371   2.759
  748SOL    HW1 2526   2.762   2.355   2.667
  748SOL    HW2 2527   2.817   2.287   2.791
  749SOL     OW 2528   2.404   1.921   2.365
  749SOL    HW1 2529   2.330   1.929   2.426
  749SOL    HW2 2530   2.402   2.003   2.314
  750SOL     OW 2531   2.161   1.910   2.048
  750SOL    HW1 2532   2.224   1.976   2.020
  750SOL    HW2 2533   2.214   1.843   2.090
  751SOL     OW 2534   2.801   2.098   2.318
  751SOL    HW1 2535   2.766   2.164   2.259
  751SOL    HW2 2536   2.889   2.081   2.285
  752SOL     OW 2537   2.896   2.417   1.879
  752SOL    HW1 2538   2.843   2.495   1.860
  752SOL    HW2 2539   2.939   2.437   1.962
  753SOL     OW 2540   2.740   2.317   2.498
  753SOL    HW1 2541   2.714   2.388   2.439
  753SOL    HW2 2542   2.734   2.238   2.445
  754SOL     OW 2543   2.853   1.929   2.618
  754SOL    HW1 2544   2.817   1.897   2.534
  754SOL    HW2 2545   2.852   1.852   2.674
  755SOL     OW 2546   2.384   2.124   2.184
  755SOL    HW1 2547   2.428   2.075   2.114
  755SOL    HW2 2548   2.371   2.211   2.148
  756SOL     OW 2549   2.414   2.396   2.725
  756SOL    HW1 2550   2.430   2.453   2.650
  756SOL    HW2 2551   2.479   2.423   2.789
  757SOL     OW 2552   2.429   2.735   2.884
  757SOL    HW1 2553   2.490   2.803   2.856
  757SOL    HW2 2554   2.426   2.744   2.980
  758SOL     OW 2555   0.066   2.376   2.131
  758SOL    HW1 2556   0.088   2.309   2.196
  758SOL    HW2 2557   0.019   2.443   2.182
  759SOL     OW 2558   2.126   2.073   0.119
  759SOL    HW1 2559   2.200   2.121   0.159
  759SOL    HW2 2560   2.160   1.985   0.104
  760SOL     OW 2561   2.592   2.497   2.910
  760SOL    HW1 2562   2.666   2.473   2.854
  760SOL    HW2 2563   2.566   2.584   2.880
  761SOL     OW 2564   2.154   1.926   2.487
  761SOL    HW1 2565   2.145   2.018   2.511
  761SOL    HW2 2566   2.173   1.881   2.570
  762SOL     OW 2567   2.850   2.633   2.836
  762SOL    HW1 2568   2.909   2.634   2.912
  762SOL    HW2 2569   2.871   2.551   2.792
  763SOL     OW 2570   2.168   2.674   2.811
  763SOL    HW1 2571   2.262   2.695   2.814
  763SOL    HW2 2572   2.164   2.582   2.837
  764SOL     OW 2573   2.182   2.398   2.866
  764SOL    HW1 2574   2.150   2.308   2.861
  764SOL    HW2 2575   2.264   2.396   2.817
  765SOL     OW 2576   2.892   2.650   0.109
  765SOL    HW1 2577   2.912   2.617   0.196
  765SOL    HW2 2578   2.796   2.652   0.106
  766SOL     OW 2579   2.629   2.378   2.215
  766SOL    HW1 2580   2.643   2.333   2.132
  766SOL    HW2 2581   2.589   2.462   2.191
  767SOL     OW 2582   2.530   2.326   0.113
  767SOL    HW1 2583   2.523   2.237   0.079
  767SOL    HW2 2584   2.558   2.379   0.038
  768SOL     OW 2585   2.328   2.351   2.042
  768SOL    HW1 2586   2.388   2.421   2.068
  768SOL    HW2 2587   2.242   2.394   2.039
  769SOL     OW 2588   0.189   2.715   2.152
  769SOL    HW1 2589   0.124   2.678   2.212
  769SOL    HW2 2590   0.202   2.647   2.086
  770SOL     OW 2591   2.126   2.177   2.579
  770SOL    HW1 2592   2.043   2.219   2.561
  770SOL    HW2 2593   2.130   2.170   2.675
  771SOL     OW 2594   2.735   2.783   2.090
  771SOL    HW1 2595   2.815   2.836   2.091
  771SOL    HW2 2596   2.748   2.719   2.160
  772SOL     OW 2597   2.884   2.106   2.825
  772SOL    HW1 2598   2.878   2.059   2.742
  772SOL    HW2 2599   2.880   2.037   2.891
  773SOL     OW 2600   1.949   2.193   1.877
  773SOL    HW1 2601   1.858   2.217   1.893
  773SOL    HW2 2602   1.988   2.272   1.840
  774SOL     OW 2603   1.928   2.014   2.173
  774SOL    HW1 2604   1.924   2.105   2.145
  774SOL    HW2 2605   2.015   1.985   2.147
  775SOL     OW 2606   2.446   2.588   2.529
  775SOL    HW1 2607   2.484   2.676   2.528
  775SOL    HW2 2608   2.379   2.590   2.460
  776SOL     OW 2609   2.731   2.833   2.717
  776SOL    HW1 2610   2.773   2.753   2.747
  776SOL    HW2 2611   2.706   2.879   2.797
  777SOL     OW 2612   2.953   2.838   1.894
  777SOL    HW1 2613   2.917   2.923   1.920
  777SOL    HW2 2614   2.998   2.807   1.973
  778SOL     OW 2615   2.278   2.296   2.378
  778SOL    HW1 2616   2.324   2.226   2.332
  778SOL    HW2 2617   2.246   2.254   2.458
  779SOL     OW 2618   1.884   2.892   2.123
  779SOL    HW1 2619   1.973   2.924   2.137
  779SOL    HW2 2620   1.875   2.820   2.185
  780CL      CL 2621   0.691   1.667   0.117
  781CL      CL 2622   0.128   1.704   2.326
  782CL      CL 2623   0.538   0.004   2.315
  783CL      CL 2624   1.309   2.815   2.538
  784CL      CL 2625   2.525   1.807   1.035
  785CL      CL 2626   2.156   0.823   2.859
  786CL      CL 2627   2.443   1.971   0.064
  787CL      CL 2628   2.915   2.606   2.274
   3.00000   3.00000   3.00000
