;
;	File 'graphene.top' was generated
;	By user: msz208502 (93529)
;	On host: login04
;	At date: Sun Jun 27 16:14:06 2021

;
;	This is a include topology file
;
;	Created by:
;	                  :-) GROMACS - gmx x2top, VERSION 5.1.4 (-:
;	
;	Executable:   /home/apps/GROMACS/5.1.4/intel/bin/gmx_mpi
;	Data prefix:  /home/apps/GROMACS/5.1.4/intel
;	Command line:
;	  gmx_mpi x2top -f grasheet.gro -o graphene.top -name GRA -nexcl 3 -ff charmm27 -kb 255224 -kt 334.72 -kp 12.9704 -alldih
;	Force field was read from current directory or a relative path - path added.
;

; Include forcefield parameters
#include "./charmm36-mar2019.ff/forcefield.itp"

;#include "graphene.itp"
[ moleculetype ]
; Name            nrexcl
GRA                 3

[ atoms ]
;   nr       type  resnr residue  atom   cgnr     charge       mass  typeB    chargeB      massB
     1     CG2R61      1    GRA     C1      1          0     12.011   ; qtot 0
     2     CG2R61      1    GRA     C2      2          0     12.011   ; qtot 0
     3     CG2R61      1    GRA     C3      3          0     12.011   ; qtot 0
     4     CG2R61      1    GRA     C4      4          0     12.011   ; qtot 0
     5     CG2R61      2    GRA     C1      5          0     12.011   ; qtot 0
     6     CG2R61      2    GRA     C2      6          0     12.011   ; qtot 0
     7     CG2R61      2    GRA     C3      7          0     12.011   ; qtot 0
     8     CG2R61      2    GRA     C4      8          0     12.011   ; qtot 0
     9     CG2R61      3    GRA     C1      9          0     12.011   ; qtot 0
    10     CG2R61      3    GRA     C2     10          0     12.011   ; qtot 0
    11     CG2R61      3    GRA     C3     11          0     12.011   ; qtot 0
    12     CG2R61      3    GRA     C4     12          0     12.011   ; qtot 0
    13     CG2R61      4    GRA     C1     13          0     12.011   ; qtot 0
    14     CG2R61      4    GRA     C2     14          0     12.011   ; qtot 0
    15     CG2R61      4    GRA     C3     15          0     12.011   ; qtot 0
    16     CG2R61      4    GRA     C4     16          0     12.011   ; qtot 0
    17     CG2R61      5    GRA     C1     17          0     12.011   ; qtot 0
    18     CG2R61      5    GRA     C2     18          0     12.011   ; qtot 0
    19     CG2R61      5    GRA     C3     19          0     12.011   ; qtot 0
    20     CG2R61      5    GRA     C4     20          0     12.011   ; qtot 0
    21     CG2R61      6    GRA     C1     21          0     12.011   ; qtot 0
    22     CG2R61      6    GRA     C2     22          0     12.011   ; qtot 0
    23     CG2R61      6    GRA     C3     23          0     12.011   ; qtot 0
    24     CG2R61      6    GRA     C4     24          0     12.011   ; qtot 0
    25     CG2R61      7    GRA     C1     25          0     12.011   ; qtot 0
    26     CG2R61      7    GRA     C2     26          0     12.011   ; qtot 0
    27     CG2R61      7    GRA     C3     27          0     12.011   ; qtot 0
    28     CG2R61      7    GRA     C4     28          0     12.011   ; qtot 0
    29     CG2R61      8    GRA     C1     29          0     12.011   ; qtot 0
    30     CG2R61      8    GRA     C2     30          0     12.011   ; qtot 0
    31     CG2R61      8    GRA     C3     31          0     12.011   ; qtot 0
    32     CG2R61      8    GRA     C4     32          0     12.011   ; qtot 0
    33     CG2R61      9    GRA     C1     33          0     12.011   ; qtot 0
    34     CG2R61      9    GRA     C2     34          0     12.011   ; qtot 0
    35     CG2R61      9    GRA     C3     35          0     12.011   ; qtot 0
    36     CG2R61      9    GRA     C4     36          0     12.011   ; qtot 0
    37     CG2R61     10    GRA     C1     37          0     12.011   ; qtot 0
    38     CG2R61     10    GRA     C2     38          0     12.011   ; qtot 0
    39     CG2R61     10    GRA     C3     39          0     12.011   ; qtot 0
    40     CG2R61     10    GRA     C4     40          0     12.011   ; qtot 0
    41     CG2R61     11    GRA     C1     41          0     12.011   ; qtot 0
    42     CG2R61     11    GRA     C2     42          0     12.011   ; qtot 0
    43     CG2R61     11    GRA     C3     43          0     12.011   ; qtot 0
    44     CG2R61     11    GRA     C4     44          0     12.011   ; qtot 0
    45     CG2R61     12    GRA     C1     45          0     12.011   ; qtot 0
    46     CG2R61     12    GRA     C2     46          0     12.011   ; qtot 0
    47     CG2R61     12    GRA     C3     47          0     12.011   ; qtot 0
    48     CG2R61     12    GRA     C4     48          0     12.011   ; qtot 0
    49     CG2R61     13    GRA     C1     49          0     12.011   ; qtot 0
    50     CG2R61     13    GRA     C2     50          0     12.011   ; qtot 0
    51     CG2R61     13    GRA     C3     51          0     12.011   ; qtot 0
    52     CG2R61     13    GRA     C4     52          0     12.011   ; qtot 0
    53     CG2R61     14    GRA     C1     53          0     12.011   ; qtot 0
    54     CG2R61     14    GRA     C2     54          0     12.011   ; qtot 0
    55     CG2R61     14    GRA     C3     55          0     12.011   ; qtot 0
    56     CG2R61     14    GRA     C4     56          0     12.011   ; qtot 0
    57     CG2R61     15    GRA     C1     57          0     12.011   ; qtot 0
    58     CG2R61     15    GRA     C2     58          0     12.011   ; qtot 0
    59     CG2R61     15    GRA     C3     59          0     12.011   ; qtot 0
    60     CG2R61     15    GRA     C4     60          0     12.011   ; qtot 0
    61     CG2R61     16    GRA     C1     61          0     12.011   ; qtot 0
    62     CG2R61     16    GRA     C2     62          0     12.011   ; qtot 0
    63     CG2R61     16    GRA     C3     63          0     12.011   ; qtot 0
    64     CG2R61     16    GRA     C4     64          0     12.011   ; qtot 0
    65     CG2R61     17    GRA     C1     65          0     12.011   ; qtot 0
    66     CG2R61     17    GRA     C2     66          0     12.011   ; qtot 0
    67     CG2R61     17    GRA     C3     67          0     12.011   ; qtot 0
    68     CG2R61     17    GRA     C4     68          0     12.011   ; qtot 0
    69     CG2R61     18    GRA     C1     69          0     12.011   ; qtot 0
    70     CG2R61     18    GRA     C2     70          0     12.011   ; qtot 0
    71     CG2R61     18    GRA     C3     71          0     12.011   ; qtot 0
    72     CG2R61     18    GRA     C4     72          0     12.011   ; qtot 0
    73     CG2R61     19    GRA     C1     73          0     12.011   ; qtot 0
    74     CG2R61     19    GRA     C2     74          0     12.011   ; qtot 0
    75     CG2R61     19    GRA     C3     75          0     12.011   ; qtot 0
    76     CG2R61     19    GRA     C4     76          0     12.011   ; qtot 0
    77     CG2R61     20    GRA     C1     77          0     12.011   ; qtot 0
    78     CG2R61     20    GRA     C2     78          0     12.011   ; qtot 0
    79     CG2R61     20    GRA     C3     79          0     12.011   ; qtot 0
    80     CG2R61     20    GRA     C4     80          0     12.011   ; qtot 0
    81     CG2R61     21    GRA     C1     81          0     12.011   ; qtot 0
    82     CG2R61     21    GRA     C2     82          0     12.011   ; qtot 0
    83     CG2R61     21    GRA     C3     83          0     12.011   ; qtot 0
    84     CG2R61     21    GRA     C4     84          0     12.011   ; qtot 0
    85     CG2R61     22    GRA     C1     85          0     12.011   ; qtot 0
    86     CG2R61     22    GRA     C2     86          0     12.011   ; qtot 0
    87     CG2R61     22    GRA     C3     87          0     12.011   ; qtot 0
    88     CG2R61     22    GRA     C4     88          0     12.011   ; qtot 0
    89     CG2R61     23    GRA     C1     89          0     12.011   ; qtot 0
    90     CG2R61     23    GRA     C2     90          0     12.011   ; qtot 0
    91     CG2R61     23    GRA     C3     91          0     12.011   ; qtot 0
    92     CG2R61     23    GRA     C4     92          0     12.011   ; qtot 0
    93     CG2R61     24    GRA     C1     93          0     12.011   ; qtot 0
    94     CG2R61     24    GRA     C2     94          0     12.011   ; qtot 0
    95     CG2R61     24    GRA     C3     95          0     12.011   ; qtot 0
    96     CG2R61     24    GRA     C4     96          0     12.011   ; qtot 0
    97     CG2R61     25    GRA     C1     97          0     12.011   ; qtot 0
    98     CG2R61     25    GRA     C2     98          0     12.011   ; qtot 0
    99     CG2R61     25    GRA     C3     99          0     12.011   ; qtot 0
   100     CG2R61     25    GRA     C4    100          0     12.011   ; qtot 0
   101     CG2R61     26    GRA     C1    101          0     12.011   ; qtot 0
   102     CG2R61     26    GRA     C2    102          0     12.011   ; qtot 0
   103     CG2R61     26    GRA     C3    103          0     12.011   ; qtot 0
   104     CG2R61     26    GRA     C4    104          0     12.011   ; qtot 0
   105     CG2R61     27    GRA     C1    105          0     12.011   ; qtot 0
   106     CG2R61     27    GRA     C2    106          0     12.011   ; qtot 0
   107     CG2R61     27    GRA     C3    107          0     12.011   ; qtot 0
   108     CG2R61     27    GRA     C4    108          0     12.011   ; qtot 0
   109     CG2R61     28    GRA     C1    109          0     12.011   ; qtot 0
   110     CG2R61     28    GRA     C2    110          0     12.011   ; qtot 0
   111     CG2R61     28    GRA     C3    111          0     12.011   ; qtot 0
   112     CG2R61     28    GRA     C4    112          0     12.011   ; qtot 0
   113     CG2R61     29    GRA     C1    113          0     12.011   ; qtot 0
   114     CG2R61     29    GRA     C2    114          0     12.011   ; qtot 0
   115     CG2R61     29    GRA     C3    115          0     12.011   ; qtot 0
   116     CG2R61     29    GRA     C4    116          0     12.011   ; qtot 0
   117     CG2R61     30    GRA     C1    117          0     12.011   ; qtot 0
   118     CG2R61     30    GRA     C2    118          0     12.011   ; qtot 0
   119     CG2R61     30    GRA     C3    119          0     12.011   ; qtot 0
   120     CG2R61     30    GRA     C4    120          0     12.011   ; qtot 0
   121     CG2R61     31    GRA     C1    121          0     12.011   ; qtot 0
   122     CG2R61     31    GRA     C2    122          0     12.011   ; qtot 0
   123     CG2R61     31    GRA     C3    123          0     12.011   ; qtot 0
   124     CG2R61     31    GRA     C4    124          0     12.011   ; qtot 0
   125     CG2R61     32    GRA     C1    125          0     12.011   ; qtot 0
   126     CG2R61     32    GRA     C2    126          0     12.011   ; qtot 0
   127     CG2R61     32    GRA     C3    127          0     12.011   ; qtot 0
   128     CG2R61     32    GRA     C4    128          0     12.011   ; qtot 0
   129     CG2R61     33    GRA     C1    129          0     12.011   ; qtot 0
   130     CG2R61     33    GRA     C2    130          0     12.011   ; qtot 0
   131     CG2R61     33    GRA     C3    131          0     12.011   ; qtot 0
   132     CG2R61     33    GRA     C4    132          0     12.011   ; qtot 0
   133     CG2R61     34    GRA     C1    133          0     12.011   ; qtot 0
   134     CG2R61     34    GRA     C2    134          0     12.011   ; qtot 0
   135     CG2R61     34    GRA     C3    135          0     12.011   ; qtot 0
   136     CG2R61     34    GRA     C4    136          0     12.011   ; qtot 0
   137     CG2R61     35    GRA     C1    137          0     12.011   ; qtot 0
   138     CG2R61     35    GRA     C2    138          0     12.011   ; qtot 0
   139     CG2R61     35    GRA     C3    139          0     12.011   ; qtot 0
   140     CG2R61     35    GRA     C4    140          0     12.011   ; qtot 0
   141     CG2R61     36    GRA     C1    141          0     12.011   ; qtot 0
   142     CG2R61     36    GRA     C2    142          0     12.011   ; qtot 0
   143     CG2R61     36    GRA     C3    143          0     12.011   ; qtot 0
   144     CG2R61     36    GRA     C4    144          0     12.011   ; qtot 0
   145     CG2R61     37    GRA     C1    145          0     12.011   ; qtot 0
   146     CG2R61     37    GRA     C2    146          0     12.011   ; qtot 0
   147     CG2R61     37    GRA     C3    147          0     12.011   ; qtot 0
   148     CG2R61     37    GRA     C4    148          0     12.011   ; qtot 0
   149     CG2R61     38    GRA     C1    149          0     12.011   ; qtot 0
   150     CG2R61     38    GRA     C2    150          0     12.011   ; qtot 0
   151     CG2R61     38    GRA     C3    151          0     12.011   ; qtot 0
   152     CG2R61     38    GRA     C4    152          0     12.011   ; qtot 0
   153     CG2R61     39    GRA     C1    153          0     12.011   ; qtot 0
   154     CG2R61     39    GRA     C2    154          0     12.011   ; qtot 0
   155     CG2R61     39    GRA     C3    155          0     12.011   ; qtot 0
   156     CG2R61     39    GRA     C4    156          0     12.011   ; qtot 0
   157     CG2R61     40    GRA     C1    157          0     12.011   ; qtot 0
   158     CG2R61     40    GRA     C2    158          0     12.011   ; qtot 0
   159     CG2R61     40    GRA     C3    159          0     12.011   ; qtot 0
   160     CG2R61     40    GRA     C4    160          0     12.011   ; qtot 0
   161     CG2R61     41    GRA     C1    161          0     12.011   ; qtot 0
   162     CG2R61     41    GRA     C2    162          0     12.011   ; qtot 0
   163     CG2R61     41    GRA     C3    163          0     12.011   ; qtot 0
   164     CG2R61     41    GRA     C4    164          0     12.011   ; qtot 0
   165     CG2R61     42    GRA     C1    165          0     12.011   ; qtot 0
   166     CG2R61     42    GRA     C2    166          0     12.011   ; qtot 0
   167     CG2R61     42    GRA     C3    167          0     12.011   ; qtot 0
   168     CG2R61     42    GRA     C4    168          0     12.011   ; qtot 0
   169     CG2R61     43    GRA     C1    169          0     12.011   ; qtot 0
   170     CG2R61     43    GRA     C2    170          0     12.011   ; qtot 0
   171     CG2R61     43    GRA     C3    171          0     12.011   ; qtot 0
   172     CG2R61     43    GRA     C4    172          0     12.011   ; qtot 0
   173     CG2R61     44    GRA     C1    173          0     12.011   ; qtot 0
   174     CG2R61     44    GRA     C2    174          0     12.011   ; qtot 0
   175     CG2R61     44    GRA     C3    175          0     12.011   ; qtot 0
   176     CG2R61     44    GRA     C4    176          0     12.011   ; qtot 0
   177     CG2R61     45    GRA     C1    177          0     12.011   ; qtot 0
   178     CG2R61     45    GRA     C2    178          0     12.011   ; qtot 0
   179     CG2R61     45    GRA     C3    179          0     12.011   ; qtot 0
   180     CG2R61     45    GRA     C4    180          0     12.011   ; qtot 0
   181     CG2R61     46    GRA     C1    181          0     12.011   ; qtot 0
   182     CG2R61     46    GRA     C2    182          0     12.011   ; qtot 0
   183     CG2R61     46    GRA     C3    183          0     12.011   ; qtot 0
   184     CG2R61     46    GRA     C4    184          0     12.011   ; qtot 0
   185     CG2R61     47    GRA     C1    185          0     12.011   ; qtot 0
   186     CG2R61     47    GRA     C2    186          0     12.011   ; qtot 0
   187     CG2R61     47    GRA     C3    187          0     12.011   ; qtot 0
   188     CG2R61     47    GRA     C4    188          0     12.011   ; qtot 0
   189     CG2R61     48    GRA     C1    189          0     12.011   ; qtot 0
   190     CG2R61     48    GRA     C2    190          0     12.011   ; qtot 0
   191     CG2R61     48    GRA     C3    191          0     12.011   ; qtot 0
   192     CG2R61     48    GRA     C4    192          0     12.011   ; qtot 0
   193     CG2R61     49    GRA     C1    193          0     12.011   ; qtot 0
   194     CG2R61     49    GRA     C2    194          0     12.011   ; qtot 0
   195     CG2R61     49    GRA     C3    195          0     12.011   ; qtot 0
   196     CG2R61     49    GRA     C4    196          0     12.011   ; qtot 0
   197     CG2R61     50    GRA     C1    197          0     12.011   ; qtot 0
   198     CG2R61     50    GRA     C2    198          0     12.011   ; qtot 0
   199     CG2R61     50    GRA     C3    199          0     12.011   ; qtot 0
   200     CG2R61     50    GRA     C4    200          0     12.011   ; qtot 0
   201     CG2R61     51    GRA     C1    201          0     12.011   ; qtot 0
   202     CG2R61     51    GRA     C2    202          0     12.011   ; qtot 0
   203     CG2R61     51    GRA     C3    203          0     12.011   ; qtot 0
   204     CG2R61     51    GRA     C4    204          0     12.011   ; qtot 0
   205     CG2R61     52    GRA     C1    205          0     12.011   ; qtot 0
   206     CG2R61     52    GRA     C2    206          0     12.011   ; qtot 0
   207     CG2R61     52    GRA     C3    207          0     12.011   ; qtot 0
   208     CG2R61     52    GRA     C4    208          0     12.011   ; qtot 0
   209     CG2R61     53    GRA     C1    209          0     12.011   ; qtot 0
   210     CG2R61     53    GRA     C2    210          0     12.011   ; qtot 0
   211     CG2R61     53    GRA     C3    211          0     12.011   ; qtot 0
   212     CG2R61     53    GRA     C4    212          0     12.011   ; qtot 0
   213     CG2R61     54    GRA     C1    213          0     12.011   ; qtot 0
   214     CG2R61     54    GRA     C2    214          0     12.011   ; qtot 0
   215     CG2R61     54    GRA     C3    215          0     12.011   ; qtot 0
   216     CG2R61     54    GRA     C4    216          0     12.011   ; qtot 0
   217     CG2R61     55    GRA     C1    217          0     12.011   ; qtot 0
   218     CG2R61     55    GRA     C2    218          0     12.011   ; qtot 0
   219     CG2R61     55    GRA     C3    219          0     12.011   ; qtot 0
   220     CG2R61     55    GRA     C4    220          0     12.011   ; qtot 0
   221     CG2R61     56    GRA     C1    221          0     12.011   ; qtot 0
   222     CG2R61     56    GRA     C2    222          0     12.011   ; qtot 0
   223     CG2R61     56    GRA     C3    223          0     12.011   ; qtot 0
   224     CG2R61     56    GRA     C4    224          0     12.011   ; qtot 0
   225     CG2R61     57    GRA     C1    225          0     12.011   ; qtot 0
   226     CG2R61     57    GRA     C2    226          0     12.011   ; qtot 0
   227     CG2R61     57    GRA     C3    227          0     12.011   ; qtot 0
   228     CG2R61     57    GRA     C4    228          0     12.011   ; qtot 0
   229     CG2R61     58    GRA     C1    229          0     12.011   ; qtot 0
   230     CG2R61     58    GRA     C2    230          0     12.011   ; qtot 0
   231     CG2R61     58    GRA     C3    231          0     12.011   ; qtot 0
   232     CG2R61     58    GRA     C4    232          0     12.011   ; qtot 0
   233     CG2R61     59    GRA     C1    233          0     12.011   ; qtot 0
   234     CG2R61     59    GRA     C2    234          0     12.011   ; qtot 0
   235     CG2R61     59    GRA     C3    235          0     12.011   ; qtot 0
   236     CG2R61     59    GRA     C4    236          0     12.011   ; qtot 0
   237     CG2R61     60    GRA     C1    237          0     12.011   ; qtot 0
   238     CG2R61     60    GRA     C2    238          0     12.011   ; qtot 0
   239     CG2R61     60    GRA     C3    239          0     12.011   ; qtot 0
   240     CG2R61     60    GRA     C4    240          0     12.011   ; qtot 0
   241     CG2R61     61    GRA     C1    241          0     12.011   ; qtot 0
   242     CG2R61     61    GRA     C2    242          0     12.011   ; qtot 0
   243     CG2R61     61    GRA     C3    243          0     12.011   ; qtot 0
   244     CG2R61     61    GRA     C4    244          0     12.011   ; qtot 0
   245     CG2R61     62    GRA     C1    245          0     12.011   ; qtot 0
   246     CG2R61     62    GRA     C2    246          0     12.011   ; qtot 0
   247     CG2R61     62    GRA     C3    247          0     12.011   ; qtot 0
   248     CG2R61     62    GRA     C4    248          0     12.011   ; qtot 0
   249     CG2R61     63    GRA     C1    249          0     12.011   ; qtot 0
   250     CG2R61     63    GRA     C2    250          0     12.011   ; qtot 0
   251     CG2R61     63    GRA     C3    251          0     12.011   ; qtot 0
   252     CG2R61     63    GRA     C4    252          0     12.011   ; qtot 0
   253     CG2R61     64    GRA     C1    253          0     12.011   ; qtot 0
   254     CG2R61     64    GRA     C2    254          0     12.011   ; qtot 0
   255     CG2R61     64    GRA     C3    255          0     12.011   ; qtot 0
   256     CG2R61     64    GRA     C4    256          0     12.011   ; qtot 0
   257     CG2R61     65    GRA     C1    257          0     12.011   ; qtot 0
   258     CG2R61     65    GRA     C2    258          0     12.011   ; qtot 0
   259     CG2R61     65    GRA     C3    259          0     12.011   ; qtot 0
   260     CG2R61     65    GRA     C4    260          0     12.011   ; qtot 0
   261     CG2R61     66    GRA     C1    261          0     12.011   ; qtot 0
   262     CG2R61     66    GRA     C2    262          0     12.011   ; qtot 0
   263     CG2R61     66    GRA     C3    263          0     12.011   ; qtot 0
   264     CG2R61     66    GRA     C4    264          0     12.011   ; qtot 0
   265     CG2R61     67    GRA     C1    265          0     12.011   ; qtot 0
   266     CG2R61     67    GRA     C2    266          0     12.011   ; qtot 0
   267     CG2R61     67    GRA     C3    267          0     12.011   ; qtot 0
   268     CG2R61     67    GRA     C4    268          0     12.011   ; qtot 0
   269     CG2R61     68    GRA     C1    269          0     12.011   ; qtot 0
   270     CG2R61     68    GRA     C2    270          0     12.011   ; qtot 0
   271     CG2R61     68    GRA     C3    271          0     12.011   ; qtot 0
   272     CG2R61     68    GRA     C4    272          0     12.011   ; qtot 0
   273     CG2R61     69    GRA     C1    273          0     12.011   ; qtot 0
   274     CG2R61     69    GRA     C2    274          0     12.011   ; qtot 0
   275     CG2R61     69    GRA     C3    275          0     12.011   ; qtot 0
   276     CG2R61     69    GRA     C4    276          0     12.011   ; qtot 0
   277     CG2R61     70    GRA     C1    277          0     12.011   ; qtot 0
   278     CG2R61     70    GRA     C2    278          0     12.011   ; qtot 0
   279     CG2R61     70    GRA     C3    279          0     12.011   ; qtot 0
   280     CG2R61     70    GRA     C4    280          0     12.011   ; qtot 0
   281     CG2R61     71    GRA     C1    281          0     12.011   ; qtot 0
   282     CG2R61     71    GRA     C2    282          0     12.011   ; qtot 0
   283     CG2R61     71    GRA     C3    283          0     12.011   ; qtot 0
   284     CG2R61     71    GRA     C4    284          0     12.011   ; qtot 0
   285     CG2R61     72    GRA     C1    285          0     12.011   ; qtot 0
   286     CG2R61     72    GRA     C2    286          0     12.011   ; qtot 0
   287     CG2R61     72    GRA     C3    287          0     12.011   ; qtot 0
   288     CG2R61     72    GRA     C4    288          0     12.011   ; qtot 0
   289     CG2R61     73    GRA     C1    289          0     12.011   ; qtot 0
   290     CG2R61     73    GRA     C2    290          0     12.011   ; qtot 0
   291     CG2R61     73    GRA     C3    291          0     12.011   ; qtot 0
   292     CG2R61     73    GRA     C4    292          0     12.011   ; qtot 0
   293     CG2R61     74    GRA     C1    293          0     12.011   ; qtot 0
   294     CG2R61     74    GRA     C2    294          0     12.011   ; qtot 0
   295     CG2R61     74    GRA     C3    295          0     12.011   ; qtot 0
   296     CG2R61     74    GRA     C4    296          0     12.011   ; qtot 0
   297     CG2R61     75    GRA     C1    297          0     12.011   ; qtot 0
   298     CG2R61     75    GRA     C2    298          0     12.011   ; qtot 0
   299     CG2R61     75    GRA     C3    299          0     12.011   ; qtot 0
   300     CG2R61     75    GRA     C4    300          0     12.011   ; qtot 0
   301     CG2R61     76    GRA     C1    301          0     12.011   ; qtot 0
   302     CG2R61     76    GRA     C2    302          0     12.011   ; qtot 0
   303     CG2R61     76    GRA     C3    303          0     12.011   ; qtot 0
   304     CG2R61     76    GRA     C4    304          0     12.011   ; qtot 0
   305     CG2R61     77    GRA     C1    305          0     12.011   ; qtot 0
   306     CG2R61     77    GRA     C2    306          0     12.011   ; qtot 0
   307     CG2R61     77    GRA     C3    307          0     12.011   ; qtot 0
   308     CG2R61     77    GRA     C4    308          0     12.011   ; qtot 0
   309     CG2R61     78    GRA     C1    309          0     12.011   ; qtot 0
   310     CG2R61     78    GRA     C2    310          0     12.011   ; qtot 0
   311     CG2R61     78    GRA     C3    311          0     12.011   ; qtot 0
   312     CG2R61     78    GRA     C4    312          0     12.011   ; qtot 0
   313     CG2R61     79    GRA     C1    313          0     12.011   ; qtot 0
   314     CG2R61     79    GRA     C2    314          0     12.011   ; qtot 0
   315     CG2R61     79    GRA     C3    315          0     12.011   ; qtot 0
   316     CG2R61     79    GRA     C4    316          0     12.011   ; qtot 0
   317     CG2R61     80    GRA     C1    317          0     12.011   ; qtot 0
   318     CG2R61     80    GRA     C2    318          0     12.011   ; qtot 0
   319     CG2R61     80    GRA     C3    319          0     12.011   ; qtot 0
   320     CG2R61     80    GRA     C4    320          0     12.011   ; qtot 0
   321     CG2R61     81    GRA     C1    321          0     12.011   ; qtot 0
   322     CG2R61     81    GRA     C2    322          0     12.011   ; qtot 0
   323     CG2R61     81    GRA     C3    323          0     12.011   ; qtot 0
   324     CG2R61     81    GRA     C4    324          0     12.011   ; qtot 0
   325     CG2R61     82    GRA     C1    325          0     12.011   ; qtot 0
   326     CG2R61     82    GRA     C2    326          0     12.011   ; qtot 0
   327     CG2R61     82    GRA     C3    327          0     12.011   ; qtot 0
   328     CG2R61     82    GRA     C4    328          0     12.011   ; qtot 0
   329     CG2R61     83    GRA     C1    329          0     12.011   ; qtot 0
   330     CG2R61     83    GRA     C2    330          0     12.011   ; qtot 0
   331     CG2R61     83    GRA     C3    331          0     12.011   ; qtot 0
   332     CG2R61     83    GRA     C4    332          0     12.011   ; qtot 0
   333     CG2R61     84    GRA     C1    333          0     12.011   ; qtot 0
   334     CG2R61     84    GRA     C2    334          0     12.011   ; qtot 0
   335     CG2R61     84    GRA     C3    335          0     12.011   ; qtot 0
   336     CG2R61     84    GRA     C4    336          0     12.011   ; qtot 0
   337     CG2R61     85    GRA     C1    337          0     12.011   ; qtot 0
   338     CG2R61     85    GRA     C2    338          0     12.011   ; qtot 0
   339     CG2R61     85    GRA     C3    339          0     12.011   ; qtot 0
   340     CG2R61     85    GRA     C4    340          0     12.011   ; qtot 0
   341     CG2R61     86    GRA     C1    341          0     12.011   ; qtot 0
   342     CG2R61     86    GRA     C2    342          0     12.011   ; qtot 0
   343     CG2R61     86    GRA     C3    343          0     12.011   ; qtot 0
   344     CG2R61     86    GRA     C4    344          0     12.011   ; qtot 0
   345     CG2R61     87    GRA     C1    345          0     12.011   ; qtot 0
   346     CG2R61     87    GRA     C2    346          0     12.011   ; qtot 0
   347     CG2R61     87    GRA     C3    347          0     12.011   ; qtot 0
   348     CG2R61     87    GRA     C4    348          0     12.011   ; qtot 0
   349     CG2R61     88    GRA     C1    349          0     12.011   ; qtot 0
   350     CG2R61     88    GRA     C2    350          0     12.011   ; qtot 0
   351     CG2R61     88    GRA     C3    351          0     12.011   ; qtot 0
   352     CG2R61     88    GRA     C4    352          0     12.011   ; qtot 0
   353     CG2R61     89    GRA     C1    353          0     12.011   ; qtot 0
   354     CG2R61     89    GRA     C2    354          0     12.011   ; qtot 0
   355     CG2R61     89    GRA     C3    355          0     12.011   ; qtot 0
   356     CG2R61     89    GRA     C4    356          0     12.011   ; qtot 0
   357     CG2R61     90    GRA     C1    357          0     12.011   ; qtot 0
   358     CG2R61     90    GRA     C2    358          0     12.011   ; qtot 0
   359     CG2R61     90    GRA     C3    359          0     12.011   ; qtot 0
   360     CG2R61     90    GRA     C4    360          0     12.011   ; qtot 0
   361     CG2R61     91    GRA     C1    361          0     12.011   ; qtot 0
   362     CG2R61     91    GRA     C2    362          0     12.011   ; qtot 0
   363     CG2R61     91    GRA     C3    363          0     12.011   ; qtot 0
   364     CG2R61     91    GRA     C4    364          0     12.011   ; qtot 0
   365     CG2R61     92    GRA     C1    365          0     12.011   ; qtot 0
   366     CG2R61     92    GRA     C2    366          0     12.011   ; qtot 0
   367     CG2R61     92    GRA     C3    367          0     12.011   ; qtot 0
   368     CG2R61     92    GRA     C4    368          0     12.011   ; qtot 0
   369     CG2R61     93    GRA     C1    369          0     12.011   ; qtot 0
   370     CG2R61     93    GRA     C2    370          0     12.011   ; qtot 0
   371     CG2R61     93    GRA     C3    371          0     12.011   ; qtot 0
   372     CG2R61     93    GRA     C4    372          0     12.011   ; qtot 0
   373     CG2R61     94    GRA     C1    373          0     12.011   ; qtot 0
   374     CG2R61     94    GRA     C2    374          0     12.011   ; qtot 0
   375     CG2R61     94    GRA     C3    375          0     12.011   ; qtot 0
   376     CG2R61     94    GRA     C4    376          0     12.011   ; qtot 0
   377     CG2R61     95    GRA     C1    377          0     12.011   ; qtot 0
   378     CG2R61     95    GRA     C2    378          0     12.011   ; qtot 0
   379     CG2R61     95    GRA     C3    379          0     12.011   ; qtot 0
   380     CG2R61     95    GRA     C4    380          0     12.011   ; qtot 0
   381     CG2R61     96    GRA     C1    381          0     12.011   ; qtot 0
   382     CG2R61     96    GRA     C2    382          0     12.011   ; qtot 0
   383     CG2R61     96    GRA     C3    383          0     12.011   ; qtot 0
   384     CG2R61     96    GRA     C4    384          0     12.011   ; qtot 0
   385     CG2R61     97    GRA     C1    385          0     12.011   ; qtot 0
   386     CG2R61     97    GRA     C2    386          0     12.011   ; qtot 0
   387     CG2R61     97    GRA     C3    387          0     12.011   ; qtot 0
   388     CG2R61     97    GRA     C4    388          0     12.011   ; qtot 0
   389     CG2R61     98    GRA     C1    389          0     12.011   ; qtot 0
   390     CG2R61     98    GRA     C2    390          0     12.011   ; qtot 0
   391     CG2R61     98    GRA     C3    391          0     12.011   ; qtot 0
   392     CG2R61     98    GRA     C4    392          0     12.011   ; qtot 0
   393     CG2R61     99    GRA     C1    393          0     12.011   ; qtot 0
   394     CG2R61     99    GRA     C2    394          0     12.011   ; qtot 0
   395     CG2R61     99    GRA     C3    395          0     12.011   ; qtot 0
   396     CG2R61     99    GRA     C4    396          0     12.011   ; qtot 0
   397     CG2R61    100    GRA     C1    397          0     12.011   ; qtot 0
   398     CG2R61    100    GRA     C2    398          0     12.011   ; qtot 0
   399     CG2R61    100    GRA     C3    399          0     12.011   ; qtot 0
   400     CG2R61    100    GRA     C4    400          0     12.011   ; qtot 0
   401     CG2R61    101    GRA     C1    401          0     12.011   ; qtot 0
   402     CG2R61    101    GRA     C2    402          0     12.011   ; qtot 0
   403     CG2R61    101    GRA     C3    403          0     12.011   ; qtot 0
   404     CG2R61    101    GRA     C4    404          0     12.011   ; qtot 0
   405     CG2R61    102    GRA     C1    405          0     12.011   ; qtot 0
   406     CG2R61    102    GRA     C2    406          0     12.011   ; qtot 0
   407     CG2R61    102    GRA     C3    407          0     12.011   ; qtot 0
   408     CG2R61    102    GRA     C4    408          0     12.011   ; qtot 0
   409     CG2R61    103    GRA     C1    409          0     12.011   ; qtot 0
   410     CG2R61    103    GRA     C2    410          0     12.011   ; qtot 0
   411     CG2R61    103    GRA     C3    411          0     12.011   ; qtot 0
   412     CG2R61    103    GRA     C4    412          0     12.011   ; qtot 0
   413     CG2R61    104    GRA     C1    413          0     12.011   ; qtot 0
   414     CG2R61    104    GRA     C2    414          0     12.011   ; qtot 0
   415     CG2R61    104    GRA     C3    415          0     12.011   ; qtot 0
   416     CG2R61    104    GRA     C4    416          0     12.011   ; qtot 0
   417     CG2R61    105    GRA     C1    417          0     12.011   ; qtot 0
   418     CG2R61    105    GRA     C2    418          0     12.011   ; qtot 0
   419     CG2R61    105    GRA     C3    419          0     12.011   ; qtot 0
   420     CG2R61    105    GRA     C4    420          0     12.011   ; qtot 0
   421     CG2R61    106    GRA     C1    421          0     12.011   ; qtot 0
   422     CG2R61    106    GRA     C2    422          0     12.011   ; qtot 0
   423     CG2R61    106    GRA     C3    423          0     12.011   ; qtot 0
   424     CG2R61    106    GRA     C4    424          0     12.011   ; qtot 0
   425     CG2R61    107    GRA     C1    425          0     12.011   ; qtot 0
   426     CG2R61    107    GRA     C2    426          0     12.011   ; qtot 0
   427     CG2R61    107    GRA     C3    427          0     12.011   ; qtot 0
   428     CG2R61    107    GRA     C4    428          0     12.011   ; qtot 0
   429     CG2R61    108    GRA     C1    429          0     12.011   ; qtot 0
   430     CG2R61    108    GRA     C2    430          0     12.011   ; qtot 0
   431     CG2R61    108    GRA     C3    431          0     12.011   ; qtot 0
   432     CG2R61    108    GRA     C4    432          0     12.011   ; qtot 0
   433     CG2R61    109    GRA     C1    433          0     12.011   ; qtot 0
   434     CG2R61    109    GRA     C2    434          0     12.011   ; qtot 0
   435     CG2R61    109    GRA     C3    435          0     12.011   ; qtot 0
   436     CG2R61    109    GRA     C4    436          0     12.011   ; qtot 0
   437     CG2R61    110    GRA     C1    437          0     12.011   ; qtot 0
   438     CG2R61    110    GRA     C2    438          0     12.011   ; qtot 0
   439     CG2R61    110    GRA     C3    439          0     12.011   ; qtot 0
   440     CG2R61    110    GRA     C4    440          0     12.011   ; qtot 0
   441     CG2R61    111    GRA     C1    441          0     12.011   ; qtot 0
   442     CG2R61    111    GRA     C2    442          0     12.011   ; qtot 0
   443     CG2R61    111    GRA     C3    443          0     12.011   ; qtot 0
   444     CG2R61    111    GRA     C4    444          0     12.011   ; qtot 0
   445     CG2R61    112    GRA     C1    445          0     12.011   ; qtot 0
   446     CG2R61    112    GRA     C2    446          0     12.011   ; qtot 0
   447     CG2R61    112    GRA     C3    447          0     12.011   ; qtot 0
   448     CG2R61    112    GRA     C4    448          0     12.011   ; qtot 0
   449     CG2R61    113    GRA     C1    449          0     12.011   ; qtot 0
   450     CG2R61    113    GRA     C2    450          0     12.011   ; qtot 0
   451     CG2R61    113    GRA     C3    451          0     12.011   ; qtot 0
   452     CG2R61    113    GRA     C4    452          0     12.011   ; qtot 0
   453     CG2R61    114    GRA     C1    453          0     12.011   ; qtot 0
   454     CG2R61    114    GRA     C2    454          0     12.011   ; qtot 0
   455     CG2R61    114    GRA     C3    455          0     12.011   ; qtot 0
   456     CG2R61    114    GRA     C4    456          0     12.011   ; qtot 0
   457     CG2R61    115    GRA     C1    457          0     12.011   ; qtot 0
   458     CG2R61    115    GRA     C2    458          0     12.011   ; qtot 0
   459     CG2R61    115    GRA     C3    459          0     12.011   ; qtot 0
   460     CG2R61    115    GRA     C4    460          0     12.011   ; qtot 0
   461     CG2R61    116    GRA     C1    461          0     12.011   ; qtot 0
   462     CG2R61    116    GRA     C2    462          0     12.011   ; qtot 0
   463     CG2R61    116    GRA     C3    463          0     12.011   ; qtot 0
   464     CG2R61    116    GRA     C4    464          0     12.011   ; qtot 0
   465     CG2R61    117    GRA     C1    465          0     12.011   ; qtot 0
   466     CG2R61    117    GRA     C2    466          0     12.011   ; qtot 0
   467     CG2R61    117    GRA     C3    467          0     12.011   ; qtot 0
   468     CG2R61    117    GRA     C4    468          0     12.011   ; qtot 0
   469     CG2R61    118    GRA     C1    469          0     12.011   ; qtot 0
   470     CG2R61    118    GRA     C2    470          0     12.011   ; qtot 0
   471     CG2R61    118    GRA     C3    471          0     12.011   ; qtot 0
   472     CG2R61    118    GRA     C4    472          0     12.011   ; qtot 0
   473     CG2R61    119    GRA     C1    473          0     12.011   ; qtot 0
   474     CG2R61    119    GRA     C2    474          0     12.011   ; qtot 0
   475     CG2R61    119    GRA     C3    475          0     12.011   ; qtot 0
   476     CG2R61    119    GRA     C4    476          0     12.011   ; qtot 0
   477     CG2R61    120    GRA     C1    477          0     12.011   ; qtot 0
   478     CG2R61    120    GRA     C2    478          0     12.011   ; qtot 0
   479     CG2R61    120    GRA     C3    479          0     12.011   ; qtot 0
   480     CG2R61    120    GRA     C4    480          0     12.011   ; qtot 0
   481     CG2R61    121    GRA     C1    481          0     12.011   ; qtot 0
   482     CG2R61    121    GRA     C2    482          0     12.011   ; qtot 0
   483     CG2R61    121    GRA     C3    483          0     12.011   ; qtot 0
   484     CG2R61    121    GRA     C4    484          0     12.011   ; qtot 0
   485     CG2R61    122    GRA     C1    485          0     12.011   ; qtot 0
   486     CG2R61    122    GRA     C2    486          0     12.011   ; qtot 0
   487     CG2R61    122    GRA     C3    487          0     12.011   ; qtot 0
   488     CG2R61    122    GRA     C4    488          0     12.011   ; qtot 0
   489     CG2R61    123    GRA     C1    489          0     12.011   ; qtot 0
   490     CG2R61    123    GRA     C2    490          0     12.011   ; qtot 0
   491     CG2R61    123    GRA     C3    491          0     12.011   ; qtot 0
   492     CG2R61    123    GRA     C4    492          0     12.011   ; qtot 0
   493     CG2R61    124    GRA     C1    493          0     12.011   ; qtot 0
   494     CG2R61    124    GRA     C2    494          0     12.011   ; qtot 0
   495     CG2R61    124    GRA     C3    495          0     12.011   ; qtot 0
   496     CG2R61    124    GRA     C4    496          0     12.011   ; qtot 0
   497     CG2R61    125    GRA     C1    497          0     12.011   ; qtot 0
   498     CG2R61    125    GRA     C2    498          0     12.011   ; qtot 0
   499     CG2R61    125    GRA     C3    499          0     12.011   ; qtot 0
   500     CG2R61    125    GRA     C4    500          0     12.011   ; qtot 0
   501     CG2R61    126    GRA     C1    501          0     12.011   ; qtot 0
   502     CG2R61    126    GRA     C2    502          0     12.011   ; qtot 0
   503     CG2R61    126    GRA     C3    503          0     12.011   ; qtot 0
   504     CG2R61    126    GRA     C4    504          0     12.011   ; qtot 0
   505     CG2R61    127    GRA     C1    505          0     12.011   ; qtot 0
   506     CG2R61    127    GRA     C2    506          0     12.011   ; qtot 0
   507     CG2R61    127    GRA     C3    507          0     12.011   ; qtot 0
   508     CG2R61    127    GRA     C4    508          0     12.011   ; qtot 0
   509     CG2R61    128    GRA     C1    509          0     12.011   ; qtot 0
   510     CG2R61    128    GRA     C2    510          0     12.011   ; qtot 0
   511     CG2R61    128    GRA     C3    511          0     12.011   ; qtot 0
   512     CG2R61    128    GRA     C4    512          0     12.011   ; qtot 0
   513     CG2R61    129    GRA     C1    513          0     12.011   ; qtot 0
   514     CG2R61    129    GRA     C2    514          0     12.011   ; qtot 0
   515     CG2R61    129    GRA     C3    515          0     12.011   ; qtot 0
   516     CG2R61    129    GRA     C4    516          0     12.011   ; qtot 0
   517     CG2R61    130    GRA     C1    517          0     12.011   ; qtot 0
   518     CG2R61    130    GRA     C2    518          0     12.011   ; qtot 0
   519     CG2R61    130    GRA     C3    519          0     12.011   ; qtot 0
   520     CG2R61    130    GRA     C4    520          0     12.011   ; qtot 0
   521     CG2R61    131    GRA     C1    521          0     12.011   ; qtot 0
   522     CG2R61    131    GRA     C2    522          0     12.011   ; qtot 0
   523     CG2R61    131    GRA     C3    523          0     12.011   ; qtot 0
   524     CG2R61    131    GRA     C4    524          0     12.011   ; qtot 0
   525     CG2R61    132    GRA     C1    525          0     12.011   ; qtot 0
   526     CG2R61    132    GRA     C2    526          0     12.011   ; qtot 0
   527     CG2R61    132    GRA     C3    527          0     12.011   ; qtot 0
   528     CG2R61    132    GRA     C4    528          0     12.011   ; qtot 0
   529     CG2R61    133    GRA     C1    529          0     12.011   ; qtot 0
   530     CG2R61    133    GRA     C2    530          0     12.011   ; qtot 0
   531     CG2R61    133    GRA     C3    531          0     12.011   ; qtot 0
   532     CG2R61    133    GRA     C4    532          0     12.011   ; qtot 0
   533     CG2R61    134    GRA     C1    533          0     12.011   ; qtot 0
   534     CG2R61    134    GRA     C2    534          0     12.011   ; qtot 0
   535     CG2R61    134    GRA     C3    535          0     12.011   ; qtot 0
   536     CG2R61    134    GRA     C4    536          0     12.011   ; qtot 0
   537     CG2R61    135    GRA     C1    537          0     12.011   ; qtot 0
   538     CG2R61    135    GRA     C2    538          0     12.011   ; qtot 0
   539     CG2R61    135    GRA     C3    539          0     12.011   ; qtot 0
   540     CG2R61    135    GRA     C4    540          0     12.011   ; qtot 0
   541     CG2R61    136    GRA     C1    541          0     12.011   ; qtot 0
   542     CG2R61    136    GRA     C2    542          0     12.011   ; qtot 0
   543     CG2R61    136    GRA     C3    543          0     12.011   ; qtot 0
   544     CG2R61    136    GRA     C4    544          0     12.011   ; qtot 0
   545     CG2R61    137    GRA     C1    545          0     12.011   ; qtot 0
   546     CG2R61    137    GRA     C2    546          0     12.011   ; qtot 0
   547     CG2R61    137    GRA     C3    547          0     12.011   ; qtot 0
   548     CG2R61    137    GRA     C4    548          0     12.011   ; qtot 0
   549     CG2R61    138    GRA     C1    549          0     12.011   ; qtot 0
   550     CG2R61    138    GRA     C2    550          0     12.011   ; qtot 0
   551     CG2R61    138    GRA     C3    551          0     12.011   ; qtot 0
   552     CG2R61    138    GRA     C4    552          0     12.011   ; qtot 0
   553     CG2R61    139    GRA     C1    553          0     12.011   ; qtot 0
   554     CG2R61    139    GRA     C2    554          0     12.011   ; qtot 0
   555     CG2R61    139    GRA     C3    555          0     12.011   ; qtot 0
   556     CG2R61    139    GRA     C4    556          0     12.011   ; qtot 0
   557     CG2R61    140    GRA     C1    557          0     12.011   ; qtot 0
   558     CG2R61    140    GRA     C2    558          0     12.011   ; qtot 0
   559     CG2R61    140    GRA     C3    559          0     12.011   ; qtot 0
   560     CG2R61    140    GRA     C4    560          0     12.011   ; qtot 0
   561     CG2R61    141    GRA     C1    561          0     12.011   ; qtot 0
   562     CG2R61    141    GRA     C2    562          0     12.011   ; qtot 0
   563     CG2R61    141    GRA     C3    563          0     12.011   ; qtot 0
   564     CG2R61    141    GRA     C4    564          0     12.011   ; qtot 0
   565     CG2R61    142    GRA     C1    565          0     12.011   ; qtot 0
   566     CG2R61    142    GRA     C2    566          0     12.011   ; qtot 0
   567     CG2R61    142    GRA     C3    567          0     12.011   ; qtot 0
   568     CG2R61    142    GRA     C4    568          0     12.011   ; qtot 0
   569     CG2R61    143    GRA     C1    569          0     12.011   ; qtot 0
   570     CG2R61    143    GRA     C2    570          0     12.011   ; qtot 0
   571     CG2R61    143    GRA     C3    571          0     12.011   ; qtot 0
   572     CG2R61    143    GRA     C4    572          0     12.011   ; qtot 0
   573     CG2R61    144    GRA     C1    573          0     12.011   ; qtot 0
   574     CG2R61    144    GRA     C2    574          0     12.011   ; qtot 0
   575     CG2R61    144    GRA     C3    575          0     12.011   ; qtot 0
   576     CG2R61    144    GRA     C4    576          0     12.011   ; qtot 0
   577     CG2R61    145    GRA     C1    577          0     12.011   ; qtot 0
   578     CG2R61    145    GRA     C2    578          0     12.011   ; qtot 0
   579     CG2R61    145    GRA     C3    579          0     12.011   ; qtot 0
   580     CG2R61    145    GRA     C4    580          0     12.011   ; qtot 0
   581     CG2R61    146    GRA     C1    581          0     12.011   ; qtot 0
   582     CG2R61    146    GRA     C2    582          0     12.011   ; qtot 0
   583     CG2R61    146    GRA     C3    583          0     12.011   ; qtot 0
   584     CG2R61    146    GRA     C4    584          0     12.011   ; qtot 0
   585     CG2R61    147    GRA     C1    585          0     12.011   ; qtot 0
   586     CG2R61    147    GRA     C2    586          0     12.011   ; qtot 0
   587     CG2R61    147    GRA     C3    587          0     12.011   ; qtot 0
   588     CG2R61    147    GRA     C4    588          0     12.011   ; qtot 0
   589     CG2R61    148    GRA     C1    589          0     12.011   ; qtot 0
   590     CG2R61    148    GRA     C2    590          0     12.011   ; qtot 0
   591     CG2R61    148    GRA     C3    591          0     12.011   ; qtot 0
   592     CG2R61    148    GRA     C4    592          0     12.011   ; qtot 0
   593     CG2R61    149    GRA     C1    593          0     12.011   ; qtot 0
   594     CG2R61    149    GRA     C2    594          0     12.011   ; qtot 0
   595     CG2R61    149    GRA     C3    595          0     12.011   ; qtot 0
   596     CG2R61    149    GRA     C4    596          0     12.011   ; qtot 0
   597     CG2R61    150    GRA     C1    597          0     12.011   ; qtot 0
   598     CG2R61    150    GRA     C2    598          0     12.011   ; qtot 0
   599     CG2R61    150    GRA     C3    599          0     12.011   ; qtot 0
   600     CG2R61    150    GRA     C4    600          0     12.011   ; qtot 0

[ bonds ]
;  ai    aj funct            c0            c1            c2            c3
    1     2     1  1.420000e-01  2.552240e+05  1.420000e-01  2.552240e+05 
    1    40     1  1.420000e-01  2.552240e+05  1.420000e-01  2.552240e+05 
    1   562     1  1.420000e-01  2.552240e+05  1.420000e-01  2.552240e+05 
    2     3     1  1.420000e-01  2.552240e+05  1.420000e-01  2.552240e+05 
    2    41     1  1.420000e-01  2.552240e+05  1.420000e-01  2.552240e+05 
    3     4     1  1.420000e-01  2.552240e+05  1.420000e-01  2.552240e+05 
    3    44     1  1.420000e-01  2.552240e+05  1.420000e-01  2.552240e+05 
    4     5     1  1.420000e-01  2.552240e+05  1.420000e-01  2.552240e+05 
    4   563     1  1.420000e-01  2.552240e+05  1.420000e-01  2.552240e+05 
    5     6     1  1.420000e-01  2.552240e+05  1.420000e-01  2.552240e+05 
    5   566     1  1.420000e-01  2.552240e+05  1.420000e-01  2.552240e+05 
    6     7     1  1.420000e-01  2.552240e+05  1.420000e-01  2.552240e+05 
    6    45     1  1.420000e-01  2.552240e+05  1.420000e-01  2.552240e+05 
    7     8     1  1.420000e-01  2.552240e+05  1.420000e-01  2.552240e+05 
    7    48     1  1.420000e-01  2.552240e+05  1.420000e-01  2.552240e+05 
    8     9     1  1.420000e-01  2.552240e+05  1.420000e-01  2.552240e+05 
    8   567     1  1.420000e-01  2.552240e+05  1.420000e-01  2.552240e+05 
    9    10     1  1.420000e-01  2.552240e+05  1.420000e-01  2.552240e+05 
    9   570     1  1.420000e-01  2.552240e+05  1.420000e-01  2.552240e+05 
   10    11     1  1.420000e-01  2.552240e+05  1.420000e-01  2.552240e+05 
   10    49     1  1.420000e-01  2.552240e+05  1.420000e-01  2.552240e+05 
   11    12     1  1.420000e-01  2.552240e+05  1.420000e-01  2.552240e+05 
   11    52     1  1.420000e-01  2.552240e+05  1.420000e-01  2.552240e+05 
   12    13     1  1.420000e-01  2.552240e+05  1.420000e-01  2.552240e+05 
   12   571     1  1.420000e-01  2.552240e+05  1.420000e-01  2.552240e+05 
   13    14     1  1.420000e-01  2.552240e+05  1.420000e-01  2.552240e+05 
   13   574     1  1.420000e-01  2.552240e+05  1.420000e-01  2.552240e+05 
   14    15     1  1.420000e-01  2.552240e+05  1.420000e-01  2.552240e+05 
   14    53     1  1.420000e-01  2.552240e+05  1.420000e-01  2.552240e+05 
   15    16     1  1.420000e-01  2.552240e+05  1.420000e-01  2.552240e+05 
   15    56     1  1.420000e-01  2.552240e+05  1.420000e-01  2.552240e+05 
   16    17     1  1.420000e-01  2.552240e+05  1.420000e-01  2.552240e+05 
   16   575     1  1.420000e-01  2.552240e+05  1.420000e-01  2.552240e+05 
   17    18     1  1.420000e-01  2.552240e+05  1.420000e-01  2.552240e+05 
   17   578     1  1.420000e-01  2.552240e+05  1.420000e-01  2.552240e+05 
   18    19     1  1.420000e-01  2.552240e+05  1.420000e-01  2.552240e+05 
   18    57     1  1.420000e-01  2.552240e+05  1.420000e-01  2.552240e+05 
   19    20     1  1.420000e-01  2.552240e+05  1.420000e-01  2.552240e+05 
   19    60     1  1.420000e-01  2.552240e+05  1.420000e-01  2.552240e+05 
   20    21     1  1.420000e-01  2.552240e+05  1.420000e-01  2.552240e+05 
   20   579     1  1.420000e-01  2.552240e+05  1.420000e-01  2.552240e+05 
   21    22     1  1.420000e-01  2.552240e+05  1.420000e-01  2.552240e+05 
   21   582     1  1.420000e-01  2.552240e+05  1.420000e-01  2.552240e+05 
   22    23     1  1.420000e-01  2.552240e+05  1.420000e-01  2.552240e+05 
   22    61     1  1.420000e-01  2.552240e+05  1.420000e-01  2.552240e+05 
   23    24     1  1.420000e-01  2.552240e+05  1.420000e-01  2.552240e+05 
   23    64     1  1.420000e-01  2.552240e+05  1.420000e-01  2.552240e+05 
   24    25     1  1.420000e-01  2.552240e+05  1.420000e-01  2.552240e+05 
   24   583     1  1.420000e-01  2.552240e+05  1.420000e-01  2.552240e+05 
   25    26     1  1.420000e-01  2.552240e+05  1.420000e-01  2.552240e+05 
   25   586     1  1.420000e-01  2.552240e+05  1.420000e-01  2.552240e+05 
   26    27     1  1.420000e-01  2.552240e+05  1.420000e-01  2.552240e+05 
   26    65     1  1.420000e-01  2.552240e+05  1.420000e-01  2.552240e+05 
   27    28     1  1.420000e-01  2.552240e+05  1.420000e-01  2.552240e+05 
   27    68     1  1.420000e-01  2.552240e+05  1.420000e-01  2.552240e+05 
   28    29     1  1.420000e-01  2.552240e+05  1.420000e-01  2.552240e+05 
   28   587     1  1.420000e-01  2.552240e+05  1.420000e-01  2.552240e+05 
   29    30     1  1.420000e-01  2.552240e+05  1.420000e-01  2.552240e+05 
   29   590     1  1.420000e-01  2.552240e+05  1.420000e-01  2.552240e+05 
   30    31     1  1.420000e-01  2.552240e+05  1.420000e-01  2.552240e+05 
   30    69     1  1.420000e-01  2.552240e+05  1.420000e-01  2.552240e+05 
   31    32     1  1.420000e-01  2.552240e+05  1.420000e-01  2.552240e+05 
   31    72     1  1.420000e-01  2.552240e+05  1.420000e-01  2.552240e+05 
   32    33     1  1.420000e-01  2.552240e+05  1.420000e-01  2.552240e+05 
   32   591     1  1.420000e-01  2.552240e+05  1.420000e-01  2.552240e+05 
   33    34     1  1.420000e-01  2.552240e+05  1.420000e-01  2.552240e+05 
   33   594     1  1.420000e-01  2.552240e+05  1.420000e-01  2.552240e+05 
   34    35     1  1.420000e-01  2.552240e+05  1.420000e-01  2.552240e+05 
   34    73     1  1.420000e-01  2.552240e+05  1.420000e-01  2.552240e+05 
   35    36     1  1.420000e-01  2.552240e+05  1.420000e-01  2.552240e+05 
   35    76     1  1.420000e-01  2.552240e+05  1.420000e-01  2.552240e+05 
   36    37     1  1.420000e-01  2.552240e+05  1.420000e-01  2.552240e+05 
   36   595     1  1.420000e-01  2.552240e+05  1.420000e-01  2.552240e+05 
   37    38     1  1.420000e-01  2.552240e+05  1.420000e-01  2.552240e+05 
   37   598     1  1.420000e-01  2.552240e+05  1.420000e-01  2.552240e+05 
   38    39     1  1.420000e-01  2.552240e+05  1.420000e-01  2.552240e+05 
   38    77     1  1.420000e-01  2.552240e+05  1.420000e-01  2.552240e+05 
   39    40     1  1.420000e-01  2.552240e+05  1.420000e-01  2.552240e+05 
   39    80     1  1.420000e-01  2.552240e+05  1.420000e-01  2.552240e+05 
   40   599     1  1.420000e-01  2.552240e+05  1.420000e-01  2.552240e+05 
   41    42     1  1.420000e-01  2.552240e+05  1.420000e-01  2.552240e+05 
   41    80     1  1.420000e-01  2.552240e+05  1.420000e-01  2.552240e+05 
   42    43     1  1.420000e-01  2.552240e+05  1.420000e-01  2.552240e+05 
   42    81     1  1.420000e-01  2.552240e+05  1.420000e-01  2.552240e+05 
   43    44     1  1.420000e-01  2.552240e+05  1.420000e-01  2.552240e+05 
   43    84     1  1.420000e-01  2.552240e+05  1.420000e-01  2.552240e+05 
   44    45     1  1.420000e-01  2.552240e+05  1.420000e-01  2.552240e+05 
   45    46     1  1.420000e-01  2.552240e+05  1.420000e-01  2.552240e+05 
   46    47     1  1.420000e-01  2.552240e+05  1.420000e-01  2.552240e+05 
   46    85     1  1.420000e-01  2.552240e+05  1.420000e-01  2.552240e+05 
   47    48     1  1.420000e-01  2.552240e+05  1.420000e-01  2.552240e+05 
   47    88     1  1.420000e-01  2.552240e+05  1.420000e-01  2.552240e+05 
   48    49     1  1.420000e-01  2.552240e+05  1.420000e-01  2.552240e+05 
   49    50     1  1.420000e-01  2.552240e+05  1.420000e-01  2.552240e+05 
   50    51     1  1.420000e-01  2.552240e+05  1.420000e-01  2.552240e+05 
   50    89     1  1.420000e-01  2.552240e+05  1.420000e-01  2.552240e+05 
   51    52     1  1.420000e-01  2.552240e+05  1.420000e-01  2.552240e+05 
   51    92     1  1.420000e-01  2.552240e+05  1.420000e-01  2.552240e+05 
   52    53     1  1.420000e-01  2.552240e+05  1.420000e-01  2.552240e+05 
   53    54     1  1.420000e-01  2.552240e+05  1.420000e-01  2.552240e+05 
   54    55     1  1.420000e-01  2.552240e+05  1.420000e-01  2.552240e+05 
   54    93     1  1.420000e-01  2.552240e+05  1.420000e-01  2.552240e+05 
   55    56     1  1.420000e-01  2.552240e+05  1.420000e-01  2.552240e+05 
   55    96     1  1.420000e-01  2.552240e+05  1.420000e-01  2.552240e+05 
   56    57     1  1.420000e-01  2.552240e+05  1.420000e-01  2.552240e+05 
   57    58     1  1.420000e-01  2.552240e+05  1.420000e-01  2.552240e+05 
   58    59     1  1.420000e-01  2.552240e+05  1.420000e-01  2.552240e+05 
   58    97     1  1.420000e-01  2.552240e+05  1.420000e-01  2.552240e+05 
   59    60     1  1.420000e-01  2.552240e+05  1.420000e-01  2.552240e+05 
   59   100     1  1.420000e-01  2.552240e+05  1.420000e-01  2.552240e+05 
   60    61     1  1.420000e-01  2.552240e+05  1.420000e-01  2.552240e+05 
   61    62     1  1.420000e-01  2.552240e+05  1.420000e-01  2.552240e+05 
   62    63     1  1.420000e-01  2.552240e+05  1.420000e-01  2.552240e+05 
   62   101     1  1.420000e-01  2.552240e+05  1.420000e-01  2.552240e+05 
   63    64     1  1.420000e-01  2.552240e+05  1.420000e-01  2.552240e+05 
   63   104     1  1.420000e-01  2.552240e+05  1.420000e-01  2.552240e+05 
   64    65     1  1.420000e-01  2.552240e+05  1.420000e-01  2.552240e+05 
   65    66     1  1.420000e-01  2.552240e+05  1.420000e-01  2.552240e+05 
   66    67     1  1.420000e-01  2.552240e+05  1.420000e-01  2.552240e+05 
   66   105     1  1.420000e-01  2.552240e+05  1.420000e-01  2.552240e+05 
   67    68     1  1.420000e-01  2.552240e+05  1.420000e-01  2.552240e+05 
   67   108     1  1.420000e-01  2.552240e+05  1.420000e-01  2.552240e+05 
   68    69     1  1.420000e-01  2.552240e+05  1.420000e-01  2.552240e+05 
   69    70     1  1.420000e-01  2.552240e+05  1.420000e-01  2.552240e+05 
   70    71     1  1.420000e-01  2.552240e+05  1.420000e-01  2.552240e+05 
   70   109     1  1.420000e-01  2.552240e+05  1.420000e-01  2.552240e+05 
   71    72     1  1.420000e-01  2.552240e+05  1.420000e-01  2.552240e+05 
   71   112     1  1.420000e-01  2.552240e+05  1.420000e-01  2.552240e+05 
   72    73     1  1.420000e-01  2.552240e+05  1.420000e-01  2.552240e+05 
   73    74     1  1.420000e-01  2.552240e+05  1.420000e-01  2.552240e+05 
   74    75     1  1.420000e-01  2.552240e+05  1.420000e-01  2.552240e+05 
   74   113     1  1.420000e-01  2.552240e+05  1.420000e-01  2.552240e+05 
   75    76     1  1.420000e-01  2.552240e+05  1.420000e-01  2.552240e+05 
   75   116     1  1.420000e-01  2.552240e+05  1.420000e-01  2.552240e+05 
   76    77     1  1.420000e-01  2.552240e+05  1.420000e-01  2.552240e+05 
   77    78     1  1.420000e-01  2.552240e+05  1.420000e-01  2.552240e+05 
   78    79     1  1.420000e-01  2.552240e+05  1.420000e-01  2.552240e+05 
   78   117     1  1.420000e-01  2.552240e+05  1.420000e-01  2.552240e+05 
   79    80     1  1.420000e-01  2.552240e+05  1.420000e-01  2.552240e+05 
   79   120     1  1.420000e-01  2.552240e+05  1.420000e-01  2.552240e+05 
   81    82     1  1.420000e-01  2.552240e+05  1.420000e-01  2.552240e+05 
   81   120     1  1.420000e-01  2.552240e+05  1.420000e-01  2.552240e+05 
   82    83     1  1.420000e-01  2.552240e+05  1.420000e-01  2.552240e+05 
   82   121     1  1.420000e-01  2.552240e+05  1.420000e-01  2.552240e+05 
   83    84     1  1.420000e-01  2.552240e+05  1.420000e-01  2.552240e+05 
   83   124     1  1.420000e-01  2.552240e+05  1.420000e-01  2.552240e+05 
   84    85     1  1.420000e-01  2.552240e+05  1.420000e-01  2.552240e+05 
   85    86     1  1.420000e-01  2.552240e+05  1.420000e-01  2.552240e+05 
   86    87     1  1.420000e-01  2.552240e+05  1.420000e-01  2.552240e+05 
   86   125     1  1.420000e-01  2.552240e+05  1.420000e-01  2.552240e+05 
   87    88     1  1.420000e-01  2.552240e+05  1.420000e-01  2.552240e+05 
   87   128     1  1.420000e-01  2.552240e+05  1.420000e-01  2.552240e+05 
   88    89     1  1.420000e-01  2.552240e+05  1.420000e-01  2.552240e+05 
   89    90     1  1.420000e-01  2.552240e+05  1.420000e-01  2.552240e+05 
   90    91     1  1.420000e-01  2.552240e+05  1.420000e-01  2.552240e+05 
   90   129     1  1.420000e-01  2.552240e+05  1.420000e-01  2.552240e+05 
   91    92     1  1.420000e-01  2.552240e+05  1.420000e-01  2.552240e+05 
   91   132     1  1.420000e-01  2.552240e+05  1.420000e-01  2.552240e+05 
   92    93     1  1.420000e-01  2.552240e+05  1.420000e-01  2.552240e+05 
   93    94     1  1.420000e-01  2.552240e+05  1.420000e-01  2.552240e+05 
   94    95     1  1.420000e-01  2.552240e+05  1.420000e-01  2.552240e+05 
   94   133     1  1.420000e-01  2.552240e+05  1.420000e-01  2.552240e+05 
   95    96     1  1.420000e-01  2.552240e+05  1.420000e-01  2.552240e+05 
   95   136     1  1.420000e-01  2.552240e+05  1.420000e-01  2.552240e+05 
   96    97     1  1.420000e-01  2.552240e+05  1.420000e-01  2.552240e+05 
   97    98     1  1.420000e-01  2.552240e+05  1.420000e-01  2.552240e+05 
   98    99     1  1.420000e-01  2.552240e+05  1.420000e-01  2.552240e+05 
   98   137     1  1.420000e-01  2.552240e+05  1.420000e-01  2.552240e+05 
   99   100     1  1.420000e-01  2.552240e+05  1.420000e-01  2.552240e+05 
   99   140     1  1.420000e-01  2.552240e+05  1.420000e-01  2.552240e+05 
  100   101     1  1.420000e-01  2.552240e+05  1.420000e-01  2.552240e+05 
  101   102     1  1.420000e-01  2.552240e+05  1.420000e-01  2.552240e+05 
  102   103     1  1.420000e-01  2.552240e+05  1.420000e-01  2.552240e+05 
  102   141     1  1.420000e-01  2.552240e+05  1.420000e-01  2.552240e+05 
  103   104     1  1.420000e-01  2.552240e+05  1.420000e-01  2.552240e+05 
  103   144     1  1.420000e-01  2.552240e+05  1.420000e-01  2.552240e+05 
  104   105     1  1.420000e-01  2.552240e+05  1.420000e-01  2.552240e+05 
  105   106     1  1.420000e-01  2.552240e+05  1.420000e-01  2.552240e+05 
  106   107     1  1.420000e-01  2.552240e+05  1.420000e-01  2.552240e+05 
  106   145     1  1.420000e-01  2.552240e+05  1.420000e-01  2.552240e+05 
  107   108     1  1.420000e-01  2.552240e+05  1.420000e-01  2.552240e+05 
  107   148     1  1.420000e-01  2.552240e+05  1.420000e-01  2.552240e+05 
  108   109     1  1.420000e-01  2.552240e+05  1.420000e-01  2.552240e+05 
  109   110     1  1.420000e-01  2.552240e+05  1.420000e-01  2.552240e+05 
  110   111     1  1.420000e-01  2.552240e+05  1.420000e-01  2.552240e+05 
  110   149     1  1.420000e-01  2.552240e+05  1.420000e-01  2.552240e+05 
  111   112     1  1.420000e-01  2.552240e+05  1.420000e-01  2.552240e+05 
  111   152     1  1.420000e-01  2.552240e+05  1.420000e-01  2.552240e+05 
  112   113     1  1.420000e-01  2.552240e+05  1.420000e-01  2.552240e+05 
  113   114     1  1.420000e-01  2.552240e+05  1.420000e-01  2.552240e+05 
  114   115     1  1.420000e-01  2.552240e+05  1.420000e-01  2.552240e+05 
  114   153     1  1.420000e-01  2.552240e+05  1.420000e-01  2.552240e+05 
  115   116     1  1.420000e-01  2.552240e+05  1.420000e-01  2.552240e+05 
  115   156     1  1.420000e-01  2.552240e+05  1.420000e-01  2.552240e+05 
  116   117     1  1.420000e-01  2.552240e+05  1.420000e-01  2.552240e+05 
  117   118     1  1.420000e-01  2.552240e+05  1.420000e-01  2.552240e+05 
  118   119     1  1.420000e-01  2.552240e+05  1.420000e-01  2.552240e+05 
  118   157     1  1.420000e-01  2.552240e+05  1.420000e-01  2.552240e+05 
  119   120     1  1.420000e-01  2.552240e+05  1.420000e-01  2.552240e+05 
  119   160     1  1.420000e-01  2.552240e+05  1.420000e-01  2.552240e+05 
  121   122     1  1.420000e-01  2.552240e+05  1.420000e-01  2.552240e+05 
  121   160     1  1.420000e-01  2.552240e+05  1.420000e-01  2.552240e+05 
  122   123     1  1.420000e-01  2.552240e+05  1.420000e-01  2.552240e+05 
  122   161     1  1.420000e-01  2.552240e+05  1.420000e-01  2.552240e+05 
  123   124     1  1.420000e-01  2.552240e+05  1.420000e-01  2.552240e+05 
  123   164     1  1.420000e-01  2.552240e+05  1.420000e-01  2.552240e+05 
  124   125     1  1.420000e-01  2.552240e+05  1.420000e-01  2.552240e+05 
  125   126     1  1.420000e-01  2.552240e+05  1.420000e-01  2.552240e+05 
  126   127     1  1.420000e-01  2.552240e+05  1.420000e-01  2.552240e+05 
  126   165     1  1.420000e-01  2.552240e+05  1.420000e-01  2.552240e+05 
  127   128     1  1.420000e-01  2.552240e+05  1.420000e-01  2.552240e+05 
  127   168     1  1.420000e-01  2.552240e+05  1.420000e-01  2.552240e+05 
  128   129     1  1.420000e-01  2.552240e+05  1.420000e-01  2.552240e+05 
  129   130     1  1.420000e-01  2.552240e+05  1.420000e-01  2.552240e+05 
  130   131     1  1.420000e-01  2.552240e+05  1.420000e-01  2.552240e+05 
  130   169     1  1.420000e-01  2.552240e+05  1.420000e-01  2.552240e+05 
  131   132     1  1.420000e-01  2.552240e+05  1.420000e-01  2.552240e+05 
  131   172     1  1.420000e-01  2.552240e+05  1.420000e-01  2.552240e+05 
  132   133     1  1.420000e-01  2.552240e+05  1.420000e-01  2.552240e+05 
  133   134     1  1.420000e-01  2.552240e+05  1.420000e-01  2.552240e+05 
  134   135     1  1.420000e-01  2.552240e+05  1.420000e-01  2.552240e+05 
  134   173     1  1.420000e-01  2.552240e+05  1.420000e-01  2.552240e+05 
  135   136     1  1.420000e-01  2.552240e+05  1.420000e-01  2.552240e+05 
  135   176     1  1.420000e-01  2.552240e+05  1.420000e-01  2.552240e+05 
  136   137     1  1.420000e-01  2.552240e+05  1.420000e-01  2.552240e+05 
  137   138     1  1.420000e-01  2.552240e+05  1.420000e-01  2.552240e+05 
  138   139     1  1.420000e-01  2.552240e+05  1.420000e-01  2.552240e+05 
  138   177     1  1.420000e-01  2.552240e+05  1.420000e-01  2.552240e+05 
  139   140     1  1.420000e-01  2.552240e+05  1.420000e-01  2.552240e+05 
  139   180     1  1.420000e-01  2.552240e+05  1.420000e-01  2.552240e+05 
  140   141     1  1.420000e-01  2.552240e+05  1.420000e-01  2.552240e+05 
  141   142     1  1.420000e-01  2.552240e+05  1.420000e-01  2.552240e+05 
  142   143     1  1.420000e-01  2.552240e+05  1.420000e-01  2.552240e+05 
  142   181     1  1.420000e-01  2.552240e+05  1.420000e-01  2.552240e+05 
  143   144     1  1.420000e-01  2.552240e+05  1.420000e-01  2.552240e+05 
  143   184     1  1.420000e-01  2.552240e+05  1.420000e-01  2.552240e+05 
  144   145     1  1.420000e-01  2.552240e+05  1.420000e-01  2.552240e+05 
  145   146     1  1.420000e-01  2.552240e+05  1.420000e-01  2.552240e+05 
  146   147     1  1.420000e-01  2.552240e+05  1.420000e-01  2.552240e+05 
  146   185     1  1.420000e-01  2.552240e+05  1.420000e-01  2.552240e+05 
  147   148     1  1.420000e-01  2.552240e+05  1.420000e-01  2.552240e+05 
  147   188     1  1.420000e-01  2.552240e+05  1.420000e-01  2.552240e+05 
  148   149     1  1.420000e-01  2.552240e+05  1.420000e-01  2.552240e+05 
  149   150     1  1.420000e-01  2.552240e+05  1.420000e-01  2.552240e+05 
  150   151     1  1.420000e-01  2.552240e+05  1.420000e-01  2.552240e+05 
  150   189     1  1.420000e-01  2.552240e+05  1.420000e-01  2.552240e+05 
  151   152     1  1.420000e-01  2.552240e+05  1.420000e-01  2.552240e+05 
  151   192     1  1.420000e-01  2.552240e+05  1.420000e-01  2.552240e+05 
  152   153     1  1.420000e-01  2.552240e+05  1.420000e-01  2.552240e+05 
  153   154     1  1.420000e-01  2.552240e+05  1.420000e-01  2.552240e+05 
  154   155     1  1.420000e-01  2.552240e+05  1.420000e-01  2.552240e+05 
  154   193     1  1.420000e-01  2.552240e+05  1.420000e-01  2.552240e+05 
  155   156     1  1.420000e-01  2.552240e+05  1.420000e-01  2.552240e+05 
  155   196     1  1.420000e-01  2.552240e+05  1.420000e-01  2.552240e+05 
  156   157     1  1.420000e-01  2.552240e+05  1.420000e-01  2.552240e+05 
  157   158     1  1.420000e-01  2.552240e+05  1.420000e-01  2.552240e+05 
  158   159     1  1.420000e-01  2.552240e+05  1.420000e-01  2.552240e+05 
  158   197     1  1.420000e-01  2.552240e+05  1.420000e-01  2.552240e+05 
  159   160     1  1.420000e-01  2.552240e+05  1.420000e-01  2.552240e+05 
  159   200     1  1.420000e-01  2.552240e+05  1.420000e-01  2.552240e+05 
  161   162     1  1.420000e-01  2.552240e+05  1.420000e-01  2.552240e+05 
  161   200     1  1.420000e-01  2.552240e+05  1.420000e-01  2.552240e+05 
  162   163     1  1.420000e-01  2.552240e+05  1.420000e-01  2.552240e+05 
  162   201     1  1.420000e-01  2.552240e+05  1.420000e-01  2.552240e+05 
  163   164     1  1.420000e-01  2.552240e+05  1.420000e-01  2.552240e+05 
  163   204     1  1.420000e-01  2.552240e+05  1.420000e-01  2.552240e+05 
  164   165     1  1.420000e-01  2.552240e+05  1.420000e-01  2.552240e+05 
  165   166     1  1.420000e-01  2.552240e+05  1.420000e-01  2.552240e+05 
  166   167     1  1.420000e-01  2.552240e+05  1.420000e-01  2.552240e+05 
  166   205     1  1.420000e-01  2.552240e+05  1.420000e-01  2.552240e+05 
  167   168     1  1.420000e-01  2.552240e+05  1.420000e-01  2.552240e+05 
  167   208     1  1.420000e-01  2.552240e+05  1.420000e-01  2.552240e+05 
  168   169     1  1.420000e-01  2.552240e+05  1.420000e-01  2.552240e+05 
  169   170     1  1.420000e-01  2.552240e+05  1.420000e-01  2.552240e+05 
  170   171     1  1.420000e-01  2.552240e+05  1.420000e-01  2.552240e+05 
  170   209     1  1.420000e-01  2.552240e+05  1.420000e-01  2.552240e+05 
  171   172     1  1.420000e-01  2.552240e+05  1.420000e-01  2.552240e+05 
  171   212     1  1.420000e-01  2.552240e+05  1.420000e-01  2.552240e+05 
  172   173     1  1.420000e-01  2.552240e+05  1.420000e-01  2.552240e+05 
  173   174     1  1.420000e-01  2.552240e+05  1.420000e-01  2.552240e+05 
  174   175     1  1.420000e-01  2.552240e+05  1.420000e-01  2.552240e+05 
  174   213     1  1.420000e-01  2.552240e+05  1.420000e-01  2.552240e+05 
  175   176     1  1.420000e-01  2.552240e+05  1.420000e-01  2.552240e+05 
  175   216     1  1.420000e-01  2.552240e+05  1.420000e-01  2.552240e+05 
  176   177     1  1.420000e-01  2.552240e+05  1.420000e-01  2.552240e+05 
  177   178     1  1.420000e-01  2.552240e+05  1.420000e-01  2.552240e+05 
  178   179     1  1.420000e-01  2.552240e+05  1.420000e-01  2.552240e+05 
  178   217     1  1.420000e-01  2.552240e+05  1.420000e-01  2.552240e+05 
  179   180     1  1.420000e-01  2.552240e+05  1.420000e-01  2.552240e+05 
  179   220     1  1.420000e-01  2.552240e+05  1.420000e-01  2.552240e+05 
  180   181     1  1.420000e-01  2.552240e+05  1.420000e-01  2.552240e+05 
  181   182     1  1.420000e-01  2.552240e+05  1.420000e-01  2.552240e+05 
  182   183     1  1.420000e-01  2.552240e+05  1.420000e-01  2.552240e+05 
  182   221     1  1.420000e-01  2.552240e+05  1.420000e-01  2.552240e+05 
  183   184     1  1.420000e-01  2.552240e+05  1.420000e-01  2.552240e+05 
  183   224     1  1.420000e-01  2.552240e+05  1.420000e-01  2.552240e+05 
  184   185     1  1.420000e-01  2.552240e+05  1.420000e-01  2.552240e+05 
  185   186     1  1.420000e-01  2.552240e+05  1.420000e-01  2.552240e+05 
  186   187     1  1.420000e-01  2.552240e+05  1.420000e-01  2.552240e+05 
  186   225     1  1.420000e-01  2.552240e+05  1.420000e-01  2.552240e+05 
  187   188     1  1.420000e-01  2.552240e+05  1.420000e-01  2.552240e+05 
  187   228     1  1.420000e-01  2.552240e+05  1.420000e-01  2.552240e+05 
  188   189     1  1.420000e-01  2.552240e+05  1.420000e-01  2.552240e+05 
  189   190     1  1.420000e-01  2.552240e+05  1.420000e-01  2.552240e+05 
  190   191     1  1.420000e-01  2.552240e+05  1.420000e-01  2.552240e+05 
  190   229     1  1.420000e-01  2.552240e+05  1.420000e-01  2.552240e+05 
  191   192     1  1.420000e-01  2.552240e+05  1.420000e-01  2.552240e+05 
  191   232     1  1.420000e-01  2.552240e+05  1.420000e-01  2.552240e+05 
  192   193     1  1.420000e-01  2.552240e+05  1.420000e-01  2.552240e+05 
  193   194     1  1.420000e-01  2.552240e+05  1.420000e-01  2.552240e+05 
  194   195     1  1.420000e-01  2.552240e+05  1.420000e-01  2.552240e+05 
  194   233     1  1.420000e-01  2.552240e+05  1.420000e-01  2.552240e+05 
  195   196     1  1.420000e-01  2.552240e+05  1.420000e-01  2.552240e+05 
  195   236     1  1.420000e-01  2.552240e+05  1.420000e-01  2.552240e+05 
  196   197     1  1.420000e-01  2.552240e+05  1.420000e-01  2.552240e+05 
  197   198     1  1.420000e-01  2.552240e+05  1.420000e-01  2.552240e+05 
  198   199     1  1.420000e-01  2.552240e+05  1.420000e-01  2.552240e+05 
  198   237     1  1.420000e-01  2.552240e+05  1.420000e-01  2.552240e+05 
  199   200     1  1.420000e-01  2.552240e+05  1.420000e-01  2.552240e+05 
  199   240     1  1.420000e-01  2.552240e+05  1.420000e-01  2.552240e+05 
  201   202     1  1.420000e-01  2.552240e+05  1.420000e-01  2.552240e+05 
  201   240     1  1.420000e-01  2.552240e+05  1.420000e-01  2.552240e+05 
  202   203     1  1.420000e-01  2.552240e+05  1.420000e-01  2.552240e+05 
  202   241     1  1.420000e-01  2.552240e+05  1.420000e-01  2.552240e+05 
  203   204     1  1.420000e-01  2.552240e+05  1.420000e-01  2.552240e+05 
  203   244     1  1.420000e-01  2.552240e+05  1.420000e-01  2.552240e+05 
  204   205     1  1.420000e-01  2.552240e+05  1.420000e-01  2.552240e+05 
  205   206     1  1.420000e-01  2.552240e+05  1.420000e-01  2.552240e+05 
  206   207     1  1.420000e-01  2.552240e+05  1.420000e-01  2.552240e+05 
  206   245     1  1.420000e-01  2.552240e+05  1.420000e-01  2.552240e+05 
  207   208     1  1.420000e-01  2.552240e+05  1.420000e-01  2.552240e+05 
  207   248     1  1.420000e-01  2.552240e+05  1.420000e-01  2.552240e+05 
  208   209     1  1.420000e-01  2.552240e+05  1.420000e-01  2.552240e+05 
  209   210     1  1.420000e-01  2.552240e+05  1.420000e-01  2.552240e+05 
  210   211     1  1.420000e-01  2.552240e+05  1.420000e-01  2.552240e+05 
  210   249     1  1.420000e-01  2.552240e+05  1.420000e-01  2.552240e+05 
  211   212     1  1.420000e-01  2.552240e+05  1.420000e-01  2.552240e+05 
  211   252     1  1.420000e-01  2.552240e+05  1.420000e-01  2.552240e+05 
  212   213     1  1.420000e-01  2.552240e+05  1.420000e-01  2.552240e+05 
  213   214     1  1.420000e-01  2.552240e+05  1.420000e-01  2.552240e+05 
  214   215     1  1.420000e-01  2.552240e+05  1.420000e-01  2.552240e+05 
  214   253     1  1.420000e-01  2.552240e+05  1.420000e-01  2.552240e+05 
  215   216     1  1.420000e-01  2.552240e+05  1.420000e-01  2.552240e+05 
  215   256     1  1.420000e-01  2.552240e+05  1.420000e-01  2.552240e+05 
  216   217     1  1.420000e-01  2.552240e+05  1.420000e-01  2.552240e+05 
  217   218     1  1.420000e-01  2.552240e+05  1.420000e-01  2.552240e+05 
  218   219     1  1.420000e-01  2.552240e+05  1.420000e-01  2.552240e+05 
  218   257     1  1.420000e-01  2.552240e+05  1.420000e-01  2.552240e+05 
  219   220     1  1.420000e-01  2.552240e+05  1.420000e-01  2.552240e+05 
  219   260     1  1.420000e-01  2.552240e+05  1.420000e-01  2.552240e+05 
  220   221     1  1.420000e-01  2.552240e+05  1.420000e-01  2.552240e+05 
  221   222     1  1.420000e-01  2.552240e+05  1.420000e-01  2.552240e+05 
  222   223     1  1.420000e-01  2.552240e+05  1.420000e-01  2.552240e+05 
  222   261     1  1.420000e-01  2.552240e+05  1.420000e-01  2.552240e+05 
  223   224     1  1.420000e-01  2.552240e+05  1.420000e-01  2.552240e+05 
  223   264     1  1.420000e-01  2.552240e+05  1.420000e-01  2.552240e+05 
  224   225     1  1.420000e-01  2.552240e+05  1.420000e-01  2.552240e+05 
  225   226     1  1.420000e-01  2.552240e+05  1.420000e-01  2.552240e+05 
  226   227     1  1.420000e-01  2.552240e+05  1.420000e-01  2.552240e+05 
  226   265     1  1.420000e-01  2.552240e+05  1.420000e-01  2.552240e+05 
  227   228     1  1.420000e-01  2.552240e+05  1.420000e-01  2.552240e+05 
  227   268     1  1.420000e-01  2.552240e+05  1.420000e-01  2.552240e+05 
  228   229     1  1.420000e-01  2.552240e+05  1.420000e-01  2.552240e+05 
  229   230     1  1.420000e-01  2.552240e+05  1.420000e-01  2.552240e+05 
  230   231     1  1.420000e-01  2.552240e+05  1.420000e-01  2.552240e+05 
  230   269     1  1.420000e-01  2.552240e+05  1.420000e-01  2.552240e+05 
  231   232     1  1.420000e-01  2.552240e+05  1.420000e-01  2.552240e+05 
  231   272     1  1.420000e-01  2.552240e+05  1.420000e-01  2.552240e+05 
  232   233     1  1.420000e-01  2.552240e+05  1.420000e-01  2.552240e+05 
  233   234     1  1.420000e-01  2.552240e+05  1.420000e-01  2.552240e+05 
  234   235     1  1.420000e-01  2.552240e+05  1.420000e-01  2.552240e+05 
  234   273     1  1.420000e-01  2.552240e+05  1.420000e-01  2.552240e+05 
  235   236     1  1.420000e-01  2.552240e+05  1.420000e-01  2.552240e+05 
  235   276     1  1.420000e-01  2.552240e+05  1.420000e-01  2.552240e+05 
  236   237     1  1.420000e-01  2.552240e+05  1.420000e-01  2.552240e+05 
  237   238     1  1.420000e-01  2.552240e+05  1.420000e-01  2.552240e+05 
  238   239     1  1.420000e-01  2.552240e+05  1.420000e-01  2.552240e+05 
  238   277     1  1.420000e-01  2.552240e+05  1.420000e-01  2.552240e+05 
  239   240     1  1.420000e-01  2.552240e+05  1.420000e-01  2.552240e+05 
  239   280     1  1.420000e-01  2.552240e+05  1.420000e-01  2.552240e+05 
  241   242     1  1.420000e-01  2.552240e+05  1.420000e-01  2.552240e+05 
  241   280     1  1.420000e-01  2.552240e+05  1.420000e-01  2.552240e+05 
  242   243     1  1.420000e-01  2.552240e+05  1.420000e-01  2.552240e+05 
  242   281     1  1.420000e-01  2.552240e+05  1.420000e-01  2.552240e+05 
  243   244     1  1.420000e-01  2.552240e+05  1.420000e-01  2.552240e+05 
  243   284     1  1.420000e-01  2.552240e+05  1.420000e-01  2.552240e+05 
  244   245     1  1.420000e-01  2.552240e+05  1.420000e-01  2.552240e+05 
  245   246     1  1.420000e-01  2.552240e+05  1.420000e-01  2.552240e+05 
  246   247     1  1.420000e-01  2.552240e+05  1.420000e-01  2.552240e+05 
  246   285     1  1.420000e-01  2.552240e+05  1.420000e-01  2.552240e+05 
  247   248     1  1.420000e-01  2.552240e+05  1.420000e-01  2.552240e+05 
  247   288     1  1.420000e-01  2.552240e+05  1.420000e-01  2.552240e+05 
  248   249     1  1.420000e-01  2.552240e+05  1.420000e-01  2.552240e+05 
  249   250     1  1.420000e-01  2.552240e+05  1.420000e-01  2.552240e+05 
  250   251     1  1.420000e-01  2.552240e+05  1.420000e-01  2.552240e+05 
  250   289     1  1.420000e-01  2.552240e+05  1.420000e-01  2.552240e+05 
  251   252     1  1.420000e-01  2.552240e+05  1.420000e-01  2.552240e+05 
  251   292     1  1.420000e-01  2.552240e+05  1.420000e-01  2.552240e+05 
  252   253     1  1.420000e-01  2.552240e+05  1.420000e-01  2.552240e+05 
  253   254     1  1.420000e-01  2.552240e+05  1.420000e-01  2.552240e+05 
  254   255     1  1.420000e-01  2.552240e+05  1.420000e-01  2.552240e+05 
  254   293     1  1.420000e-01  2.552240e+05  1.420000e-01  2.552240e+05 
  255   256     1  1.420000e-01  2.552240e+05  1.420000e-01  2.552240e+05 
  255   296     1  1.420000e-01  2.552240e+05  1.420000e-01  2.552240e+05 
  256   257     1  1.420000e-01  2.552240e+05  1.420000e-01  2.552240e+05 
  257   258     1  1.420000e-01  2.552240e+05  1.420000e-01  2.552240e+05 
  258   259     1  1.420000e-01  2.552240e+05  1.420000e-01  2.552240e+05 
  258   297     1  1.420000e-01  2.552240e+05  1.420000e-01  2.552240e+05 
  259   260     1  1.420000e-01  2.552240e+05  1.420000e-01  2.552240e+05 
  259   300     1  1.420000e-01  2.552240e+05  1.420000e-01  2.552240e+05 
  260   261     1  1.420000e-01  2.552240e+05  1.420000e-01  2.552240e+05 
  261   262     1  1.420000e-01  2.552240e+05  1.420000e-01  2.552240e+05 
  262   263     1  1.420000e-01  2.552240e+05  1.420000e-01  2.552240e+05 
  262   301     1  1.420000e-01  2.552240e+05  1.420000e-01  2.552240e+05 
  263   264     1  1.420000e-01  2.552240e+05  1.420000e-01  2.552240e+05 
  263   304     1  1.420000e-01  2.552240e+05  1.420000e-01  2.552240e+05 
  264   265     1  1.420000e-01  2.552240e+05  1.420000e-01  2.552240e+05 
  265   266     1  1.420000e-01  2.552240e+05  1.420000e-01  2.552240e+05 
  266   267     1  1.420000e-01  2.552240e+05  1.420000e-01  2.552240e+05 
  266   305     1  1.420000e-01  2.552240e+05  1.420000e-01  2.552240e+05 
  267   268     1  1.420000e-01  2.552240e+05  1.420000e-01  2.552240e+05 
  267   308     1  1.420000e-01  2.552240e+05  1.420000e-01  2.552240e+05 
  268   269     1  1.420000e-01  2.552240e+05  1.420000e-01  2.552240e+05 
  269   270     1  1.420000e-01  2.552240e+05  1.420000e-01  2.552240e+05 
  270   271     1  1.420000e-01  2.552240e+05  1.420000e-01  2.552240e+05 
  270   309     1  1.420000e-01  2.552240e+05  1.420000e-01  2.552240e+05 
  271   272     1  1.420000e-01  2.552240e+05  1.420000e-01  2.552240e+05 
  271   312     1  1.420000e-01  2.552240e+05  1.420000e-01  2.552240e+05 
  272   273     1  1.420000e-01  2.552240e+05  1.420000e-01  2.552240e+05 
  273   274     1  1.420000e-01  2.552240e+05  1.420000e-01  2.552240e+05 
  274   275     1  1.420000e-01  2.552240e+05  1.420000e-01  2.552240e+05 
  274   313     1  1.420000e-01  2.552240e+05  1.420000e-01  2.552240e+05 
  275   276     1  1.420000e-01  2.552240e+05  1.420000e-01  2.552240e+05 
  275   316     1  1.420000e-01  2.552240e+05  1.420000e-01  2.552240e+05 
  276   277     1  1.420000e-01  2.552240e+05  1.420000e-01  2.552240e+05 
  277   278     1  1.420000e-01  2.552240e+05  1.420000e-01  2.552240e+05 
  278   279     1  1.420000e-01  2.552240e+05  1.420000e-01  2.552240e+05 
  278   317     1  1.420000e-01  2.552240e+05  1.420000e-01  2.552240e+05 
  279   280     1  1.420000e-01  2.552240e+05  1.420000e-01  2.552240e+05 
  279   320     1  1.420000e-01  2.552240e+05  1.420000e-01  2.552240e+05 
  281   282     1  1.420000e-01  2.552240e+05  1.420000e-01  2.552240e+05 
  281   320     1  1.420000e-01  2.552240e+05  1.420000e-01  2.552240e+05 
  282   283     1  1.420000e-01  2.552240e+05  1.420000e-01  2.552240e+05 
  282   321     1  1.420000e-01  2.552240e+05  1.420000e-01  2.552240e+05 
  283   284     1  1.420000e-01  2.552240e+05  1.420000e-01  2.552240e+05 
  283   324     1  1.420000e-01  2.552240e+05  1.420000e-01  2.552240e+05 
  284   285     1  1.420000e-01  2.552240e+05  1.420000e-01  2.552240e+05 
  285   286     1  1.420000e-01  2.552240e+05  1.420000e-01  2.552240e+05 
  286   287     1  1.420000e-01  2.552240e+05  1.420000e-01  2.552240e+05 
  286   325     1  1.420000e-01  2.552240e+05  1.420000e-01  2.552240e+05 
  287   288     1  1.420000e-01  2.552240e+05  1.420000e-01  2.552240e+05 
  287   328     1  1.420000e-01  2.552240e+05  1.420000e-01  2.552240e+05 
  288   289     1  1.420000e-01  2.552240e+05  1.420000e-01  2.552240e+05 
  289   290     1  1.420000e-01  2.552240e+05  1.420000e-01  2.552240e+05 
  290   291     1  1.420000e-01  2.552240e+05  1.420000e-01  2.552240e+05 
  290   329     1  1.420000e-01  2.552240e+05  1.420000e-01  2.552240e+05 
  291   292     1  1.420000e-01  2.552240e+05  1.420000e-01  2.552240e+05 
  291   332     1  1.420000e-01  2.552240e+05  1.420000e-01  2.552240e+05 
  292   293     1  1.420000e-01  2.552240e+05  1.420000e-01  2.552240e+05 
  293   294     1  1.420000e-01  2.552240e+05  1.420000e-01  2.552240e+05 
  294   295     1  1.420000e-01  2.552240e+05  1.420000e-01  2.552240e+05 
  294   333     1  1.420000e-01  2.552240e+05  1.420000e-01  2.552240e+05 
  295   296     1  1.420000e-01  2.552240e+05  1.420000e-01  2.552240e+05 
  295   336     1  1.420000e-01  2.552240e+05  1.420000e-01  2.552240e+05 
  296   297     1  1.420000e-01  2.552240e+05  1.420000e-01  2.552240e+05 
  297   298     1  1.420000e-01  2.552240e+05  1.420000e-01  2.552240e+05 
  298   299     1  1.420000e-01  2.552240e+05  1.420000e-01  2.552240e+05 
  298   337     1  1.420000e-01  2.552240e+05  1.420000e-01  2.552240e+05 
  299   300     1  1.420000e-01  2.552240e+05  1.420000e-01  2.552240e+05 
  299   340     1  1.420000e-01  2.552240e+05  1.420000e-01  2.552240e+05 
  300   301     1  1.420000e-01  2.552240e+05  1.420000e-01  2.552240e+05 
  301   302     1  1.420000e-01  2.552240e+05  1.420000e-01  2.552240e+05 
  302   303     1  1.420000e-01  2.552240e+05  1.420000e-01  2.552240e+05 
  302   341     1  1.420000e-01  2.552240e+05  1.420000e-01  2.552240e+05 
  303   304     1  1.420000e-01  2.552240e+05  1.420000e-01  2.552240e+05 
  303   344     1  1.420000e-01  2.552240e+05  1.420000e-01  2.552240e+05 
  304   305     1  1.420000e-01  2.552240e+05  1.420000e-01  2.552240e+05 
  305   306     1  1.420000e-01  2.552240e+05  1.420000e-01  2.552240e+05 
  306   307     1  1.420000e-01  2.552240e+05  1.420000e-01  2.552240e+05 
  306   345     1  1.420000e-01  2.552240e+05  1.420000e-01  2.552240e+05 
  307   308     1  1.420000e-01  2.552240e+05  1.420000e-01  2.552240e+05 
  307   348     1  1.420000e-01  2.552240e+05  1.420000e-01  2.552240e+05 
  308   309     1  1.420000e-01  2.552240e+05  1.420000e-01  2.552240e+05 
  309   310     1  1.420000e-01  2.552240e+05  1.420000e-01  2.552240e+05 
  310   311     1  1.420000e-01  2.552240e+05  1.420000e-01  2.552240e+05 
  310   349     1  1.420000e-01  2.552240e+05  1.420000e-01  2.552240e+05 
  311   312     1  1.420000e-01  2.552240e+05  1.420000e-01  2.552240e+05 
  311   352     1  1.420000e-01  2.552240e+05  1.420000e-01  2.552240e+05 
  312   313     1  1.420000e-01  2.552240e+05  1.420000e-01  2.552240e+05 
  313   314     1  1.420000e-01  2.552240e+05  1.420000e-01  2.552240e+05 
  314   315     1  1.420000e-01  2.552240e+05  1.420000e-01  2.552240e+05 
  314   353     1  1.420000e-01  2.552240e+05  1.420000e-01  2.552240e+05 
  315   316     1  1.420000e-01  2.552240e+05  1.420000e-01  2.552240e+05 
  315   356     1  1.420000e-01  2.552240e+05  1.420000e-01  2.552240e+05 
  316   317     1  1.420000e-01  2.552240e+05  1.420000e-01  2.552240e+05 
  317   318     1  1.420000e-01  2.552240e+05  1.420000e-01  2.552240e+05 
  318   319     1  1.420000e-01  2.552240e+05  1.420000e-01  2.552240e+05 
  318   357     1  1.420000e-01  2.552240e+05  1.420000e-01  2.552240e+05 
  319   320     1  1.420000e-01  2.552240e+05  1.420000e-01  2.552240e+05 
  319   360     1  1.420000e-01  2.552240e+05  1.420000e-01  2.552240e+05 
  321   322     1  1.420000e-01  2.552240e+05  1.420000e-01  2.552240e+05 
  321   360     1  1.420000e-01  2.552240e+05  1.420000e-01  2.552240e+05 
  322   323     1  1.420000e-01  2.552240e+05  1.420000e-01  2.552240e+05 
  322   361     1  1.420000e-01  2.552240e+05  1.420000e-01  2.552240e+05 
  323   324     1  1.420000e-01  2.552240e+05  1.420000e-01  2.552240e+05 
  323   364     1  1.420000e-01  2.552240e+05  1.420000e-01  2.552240e+05 
  324   325     1  1.420000e-01  2.552240e+05  1.420000e-01  2.552240e+05 
  325   326     1  1.420000e-01  2.552240e+05  1.420000e-01  2.552240e+05 
  326   327     1  1.420000e-01  2.552240e+05  1.420000e-01  2.552240e+05 
  326   365     1  1.420000e-01  2.552240e+05  1.420000e-01  2.552240e+05 
  327   328     1  1.420000e-01  2.552240e+05  1.420000e-01  2.552240e+05 
  327   368     1  1.420000e-01  2.552240e+05  1.420000e-01  2.552240e+05 
  328   329     1  1.420000e-01  2.552240e+05  1.420000e-01  2.552240e+05 
  329   330     1  1.420000e-01  2.552240e+05  1.420000e-01  2.552240e+05 
  330   331     1  1.420000e-01  2.552240e+05  1.420000e-01  2.552240e+05 
  330   369     1  1.420000e-01  2.552240e+05  1.420000e-01  2.552240e+05 
  331   332     1  1.420000e-01  2.552240e+05  1.420000e-01  2.552240e+05 
  331   372     1  1.420000e-01  2.552240e+05  1.420000e-01  2.552240e+05 
  332   333     1  1.420000e-01  2.552240e+05  1.420000e-01  2.552240e+05 
  333   334     1  1.420000e-01  2.552240e+05  1.420000e-01  2.552240e+05 
  334   335     1  1.420000e-01  2.552240e+05  1.420000e-01  2.552240e+05 
  334   373     1  1.420000e-01  2.552240e+05  1.420000e-01  2.552240e+05 
  335   336     1  1.420000e-01  2.552240e+05  1.420000e-01  2.552240e+05 
  335   376     1  1.420000e-01  2.552240e+05  1.420000e-01  2.552240e+05 
  336   337     1  1.420000e-01  2.552240e+05  1.420000e-01  2.552240e+05 
  337   338     1  1.420000e-01  2.552240e+05  1.420000e-01  2.552240e+05 
  338   339     1  1.420000e-01  2.552240e+05  1.420000e-01  2.552240e+05 
  338   377     1  1.420000e-01  2.552240e+05  1.420000e-01  2.552240e+05 
  339   340     1  1.420000e-01  2.552240e+05  1.420000e-01  2.552240e+05 
  339   380     1  1.420000e-01  2.552240e+05  1.420000e-01  2.552240e+05 
  340   341     1  1.420000e-01  2.552240e+05  1.420000e-01  2.552240e+05 
  341   342     1  1.420000e-01  2.552240e+05  1.420000e-01  2.552240e+05 
  342   343     1  1.420000e-01  2.552240e+05  1.420000e-01  2.552240e+05 
  342   381     1  1.420000e-01  2.552240e+05  1.420000e-01  2.552240e+05 
  343   344     1  1.420000e-01  2.552240e+05  1.420000e-01  2.552240e+05 
  343   384     1  1.420000e-01  2.552240e+05  1.420000e-01  2.552240e+05 
  344   345     1  1.420000e-01  2.552240e+05  1.420000e-01  2.552240e+05 
  345   346     1  1.420000e-01  2.552240e+05  1.420000e-01  2.552240e+05 
  346   347     1  1.420000e-01  2.552240e+05  1.420000e-01  2.552240e+05 
  346   385     1  1.420000e-01  2.552240e+05  1.420000e-01  2.552240e+05 
  347   348     1  1.420000e-01  2.552240e+05  1.420000e-01  2.552240e+05 
  347   388     1  1.420000e-01  2.552240e+05  1.420000e-01  2.552240e+05 
  348   349     1  1.420000e-01  2.552240e+05  1.420000e-01  2.552240e+05 
  349   350     1  1.420000e-01  2.552240e+05  1.420000e-01  2.552240e+05 
  350   351     1  1.420000e-01  2.552240e+05  1.420000e-01  2.552240e+05 
  350   389     1  1.420000e-01  2.552240e+05  1.420000e-01  2.552240e+05 
  351   352     1  1.420000e-01  2.552240e+05  1.420000e-01  2.552240e+05 
  351   392     1  1.420000e-01  2.552240e+05  1.420000e-01  2.552240e+05 
  352   353     1  1.420000e-01  2.552240e+05  1.420000e-01  2.552240e+05 
  353   354     1  1.420000e-01  2.552240e+05  1.420000e-01  2.552240e+05 
  354   355     1  1.420000e-01  2.552240e+05  1.420000e-01  2.552240e+05 
  354   393     1  1.420000e-01  2.552240e+05  1.420000e-01  2.552240e+05 
  355   356     1  1.420000e-01  2.552240e+05  1.420000e-01  2.552240e+05 
  355   396     1  1.420000e-01  2.552240e+05  1.420000e-01  2.552240e+05 
  356   357     1  1.420000e-01  2.552240e+05  1.420000e-01  2.552240e+05 
  357   358     1  1.420000e-01  2.552240e+05  1.420000e-01  2.552240e+05 
  358   359     1  1.420000e-01  2.552240e+05  1.420000e-01  2.552240e+05 
  358   397     1  1.420000e-01  2.552240e+05  1.420000e-01  2.552240e+05 
  359   360     1  1.420000e-01  2.552240e+05  1.420000e-01  2.552240e+05 
  359   400     1  1.420000e-01  2.552240e+05  1.420000e-01  2.552240e+05 
  361   362     1  1.420000e-01  2.552240e+05  1.420000e-01  2.552240e+05 
  361   400     1  1.420000e-01  2.552240e+05  1.420000e-01  2.552240e+05 
  362   363     1  1.420000e-01  2.552240e+05  1.420000e-01  2.552240e+05 
  362   401     1  1.420000e-01  2.552240e+05  1.420000e-01  2.552240e+05 
  363   364     1  1.420000e-01  2.552240e+05  1.420000e-01  2.552240e+05 
  363   404     1  1.420000e-01  2.552240e+05  1.420000e-01  2.552240e+05 
  364   365     1  1.420000e-01  2.552240e+05  1.420000e-01  2.552240e+05 
  365   366     1  1.420000e-01  2.552240e+05  1.420000e-01  2.552240e+05 
  366   367     1  1.420000e-01  2.552240e+05  1.420000e-01  2.552240e+05 
  366   405     1  1.420000e-01  2.552240e+05  1.420000e-01  2.552240e+05 
  367   368     1  1.420000e-01  2.552240e+05  1.420000e-01  2.552240e+05 
  367   408     1  1.420000e-01  2.552240e+05  1.420000e-01  2.552240e+05 
  368   369     1  1.420000e-01  2.552240e+05  1.420000e-01  2.552240e+05 
  369   370     1  1.420000e-01  2.552240e+05  1.420000e-01  2.552240e+05 
  370   371     1  1.420000e-01  2.552240e+05  1.420000e-01  2.552240e+05 
  370   409     1  1.420000e-01  2.552240e+05  1.420000e-01  2.552240e+05 
  371   372     1  1.420000e-01  2.552240e+05  1.420000e-01  2.552240e+05 
  371   412     1  1.420000e-01  2.552240e+05  1.420000e-01  2.552240e+05 
  372   373     1  1.420000e-01  2.552240e+05  1.420000e-01  2.552240e+05 
  373   374     1  1.420000e-01  2.552240e+05  1.420000e-01  2.552240e+05 
  374   375     1  1.420000e-01  2.552240e+05  1.420000e-01  2.552240e+05 
  374   413     1  1.420000e-01  2.552240e+05  1.420000e-01  2.552240e+05 
  375   376     1  1.420000e-01  2.552240e+05  1.420000e-01  2.552240e+05 
  375   416     1  1.420000e-01  2.552240e+05  1.420000e-01  2.552240e+05 
  376   377     1  1.420000e-01  2.552240e+05  1.420000e-01  2.552240e+05 
  377   378     1  1.420000e-01  2.552240e+05  1.420000e-01  2.552240e+05 
  378   379     1  1.420000e-01  2.552240e+05  1.420000e-01  2.552240e+05 
  378   417     1  1.420000e-01  2.552240e+05  1.420000e-01  2.552240e+05 
  379   380     1  1.420000e-01  2.552240e+05  1.420000e-01  2.552240e+05 
  379   420     1  1.420000e-01  2.552240e+05  1.420000e-01  2.552240e+05 
  380   381     1  1.420000e-01  2.552240e+05  1.420000e-01  2.552240e+05 
  381   382     1  1.420000e-01  2.552240e+05  1.420000e-01  2.552240e+05 
  382   383     1  1.420000e-01  2.552240e+05  1.420000e-01  2.552240e+05 
  382   421     1  1.420000e-01  2.552240e+05  1.420000e-01  2.552240e+05 
  383   384     1  1.420000e-01  2.552240e+05  1.420000e-01  2.552240e+05 
  383   424     1  1.420000e-01  2.552240e+05  1.420000e-01  2.552240e+05 
  384   385     1  1.420000e-01  2.552240e+05  1.420000e-01  2.552240e+05 
  385   386     1  1.420000e-01  2.552240e+05  1.420000e-01  2.552240e+05 
  386   387     1  1.420000e-01  2.552240e+05  1.420000e-01  2.552240e+05 
  386   425     1  1.420000e-01  2.552240e+05  1.420000e-01  2.552240e+05 
  387   388     1  1.420000e-01  2.552240e+05  1.420000e-01  2.552240e+05 
  387   428     1  1.420000e-01  2.552240e+05  1.420000e-01  2.552240e+05 
  388   389     1  1.420000e-01  2.552240e+05  1.420000e-01  2.552240e+05 
  389   390     1  1.420000e-01  2.552240e+05  1.420000e-01  2.552240e+05 
  390   391     1  1.420000e-01  2.552240e+05  1.420000e-01  2.552240e+05 
  390   429     1  1.420000e-01  2.552240e+05  1.420000e-01  2.552240e+05 
  391   392     1  1.420000e-01  2.552240e+05  1.420000e-01  2.552240e+05 
  391   432     1  1.420000e-01  2.552240e+05  1.420000e-01  2.552240e+05 
  392   393     1  1.420000e-01  2.552240e+05  1.420000e-01  2.552240e+05 
  393   394     1  1.420000e-01  2.552240e+05  1.420000e-01  2.552240e+05 
  394   395     1  1.420000e-01  2.552240e+05  1.420000e-01  2.552240e+05 
  394   433     1  1.420000e-01  2.552240e+05  1.420000e-01  2.552240e+05 
  395   396     1  1.420000e-01  2.552240e+05  1.420000e-01  2.552240e+05 
  395   436     1  1.420000e-01  2.552240e+05  1.420000e-01  2.552240e+05 
  396   397     1  1.420000e-01  2.552240e+05  1.420000e-01  2.552240e+05 
  397   398     1  1.420000e-01  2.552240e+05  1.420000e-01  2.552240e+05 
  398   399     1  1.420000e-01  2.552240e+05  1.420000e-01  2.552240e+05 
  398   437     1  1.420000e-01  2.552240e+05  1.420000e-01  2.552240e+05 
  399   400     1  1.420000e-01  2.552240e+05  1.420000e-01  2.552240e+05 
  399   440     1  1.420000e-01  2.552240e+05  1.420000e-01  2.552240e+05 
  401   402     1  1.420000e-01  2.552240e+05  1.420000e-01  2.552240e+05 
  401   440     1  1.420000e-01  2.552240e+05  1.420000e-01  2.552240e+05 
  402   403     1  1.420000e-01  2.552240e+05  1.420000e-01  2.552240e+05 
  402   441     1  1.410000e-01  2.552240e+05  1.410000e-01  2.552240e+05 
  403   404     1  1.420000e-01  2.552240e+05  1.420000e-01  2.552240e+05 
  403   444     1  1.410000e-01  2.552240e+05  1.410000e-01  2.552240e+05 
  404   405     1  1.420000e-01  2.552240e+05  1.420000e-01  2.552240e+05 
  405   406     1  1.420000e-01  2.552240e+05  1.420000e-01  2.552240e+05 
  406   407     1  1.420000e-01  2.552240e+05  1.420000e-01  2.552240e+05 
  406   445     1  1.410000e-01  2.552240e+05  1.410000e-01  2.552240e+05 
  407   408     1  1.420000e-01  2.552240e+05  1.420000e-01  2.552240e+05 
  407   448     1  1.410000e-01  2.552240e+05  1.410000e-01  2.552240e+05 
  408   409     1  1.420000e-01  2.552240e+05  1.420000e-01  2.552240e+05 
  409   410     1  1.420000e-01  2.552240e+05  1.420000e-01  2.552240e+05 
  410   411     1  1.420000e-01  2.552240e+05  1.420000e-01  2.552240e+05 
  410   449     1  1.410000e-01  2.552240e+05  1.410000e-01  2.552240e+05 
  411   412     1  1.420000e-01  2.552240e+05  1.420000e-01  2.552240e+05 
  411   452     1  1.410000e-01  2.552240e+05  1.410000e-01  2.552240e+05 
  412   413     1  1.420000e-01  2.552240e+05  1.420000e-01  2.552240e+05 
  413   414     1  1.420000e-01  2.552240e+05  1.420000e-01  2.552240e+05 
  414   415     1  1.420000e-01  2.552240e+05  1.420000e-01  2.552240e+05 
  414   453     1  1.410000e-01  2.552240e+05  1.410000e-01  2.552240e+05 
  415   416     1  1.420000e-01  2.552240e+05  1.420000e-01  2.552240e+05 
  415   456     1  1.410000e-01  2.552240e+05  1.410000e-01  2.552240e+05 
  416   417     1  1.420000e-01  2.552240e+05  1.420000e-01  2.552240e+05 
  417   418     1  1.420000e-01  2.552240e+05  1.420000e-01  2.552240e+05 
  418   419     1  1.420000e-01  2.552240e+05  1.420000e-01  2.552240e+05 
  418   457     1  1.410000e-01  2.552240e+05  1.410000e-01  2.552240e+05 
  419   420     1  1.420000e-01  2.552240e+05  1.420000e-01  2.552240e+05 
  419   460     1  1.410000e-01  2.552240e+05  1.410000e-01  2.552240e+05 
  420   421     1  1.420000e-01  2.552240e+05  1.420000e-01  2.552240e+05 
  421   422     1  1.420000e-01  2.552240e+05  1.420000e-01  2.552240e+05 
  422   423     1  1.420000e-01  2.552240e+05  1.420000e-01  2.552240e+05 
  422   461     1  1.410000e-01  2.552240e+05  1.410000e-01  2.552240e+05 
  423   424     1  1.420000e-01  2.552240e+05  1.420000e-01  2.552240e+05 
  423   464     1  1.410000e-01  2.552240e+05  1.410000e-01  2.552240e+05 
  424   425     1  1.420000e-01  2.552240e+05  1.420000e-01  2.552240e+05 
  425   426     1  1.420000e-01  2.552240e+05  1.420000e-01  2.552240e+05 
  426   427     1  1.420000e-01  2.552240e+05  1.420000e-01  2.552240e+05 
  426   465     1  1.410000e-01  2.552240e+05  1.410000e-01  2.552240e+05 
  427   428     1  1.420000e-01  2.552240e+05  1.420000e-01  2.552240e+05 
  427   468     1  1.410000e-01  2.552240e+05  1.410000e-01  2.552240e+05 
  428   429     1  1.420000e-01  2.552240e+05  1.420000e-01  2.552240e+05 
  429   430     1  1.420000e-01  2.552240e+05  1.420000e-01  2.552240e+05 
  430   431     1  1.420000e-01  2.552240e+05  1.420000e-01  2.552240e+05 
  430   469     1  1.410000e-01  2.552240e+05  1.410000e-01  2.552240e+05 
  431   432     1  1.420000e-01  2.552240e+05  1.420000e-01  2.552240e+05 
  431   472     1  1.410000e-01  2.552240e+05  1.410000e-01  2.552240e+05 
  432   433     1  1.420000e-01  2.552240e+05  1.420000e-01  2.552240e+05 
  433   434     1  1.420000e-01  2.552240e+05  1.420000e-01  2.552240e+05 
  434   435     1  1.420000e-01  2.552240e+05  1.420000e-01  2.552240e+05 
  434   473     1  1.410000e-01  2.552240e+05  1.410000e-01  2.552240e+05 
  435   436     1  1.420000e-01  2.552240e+05  1.420000e-01  2.552240e+05 
  435   476     1  1.410000e-01  2.552240e+05  1.410000e-01  2.552240e+05 
  436   437     1  1.420000e-01  2.552240e+05  1.420000e-01  2.552240e+05 
  437   438     1  1.420000e-01  2.552240e+05  1.420000e-01  2.552240e+05 
  438   439     1  1.420000e-01  2.552240e+05  1.420000e-01  2.552240e+05 
  438   477     1  1.410000e-01  2.552240e+05  1.410000e-01  2.552240e+05 
  439   440     1  1.420000e-01  2.552240e+05  1.420000e-01  2.552240e+05 
  439   480     1  1.410000e-01  2.552240e+05  1.410000e-01  2.552240e+05 
  441   442     1  1.420000e-01  2.552240e+05  1.420000e-01  2.552240e+05 
  441   480     1  1.420000e-01  2.552240e+05  1.420000e-01  2.552240e+05 
  442   443     1  1.420000e-01  2.552240e+05  1.420000e-01  2.552240e+05 
  442   481     1  1.420000e-01  2.552240e+05  1.420000e-01  2.552240e+05 
  443   444     1  1.420000e-01  2.552240e+05  1.420000e-01  2.552240e+05 
  443   484     1  1.420000e-01  2.552240e+05  1.420000e-01  2.552240e+05 
  444   445     1  1.420000e-01  2.552240e+05  1.420000e-01  2.552240e+05 
  445   446     1  1.420000e-01  2.552240e+05  1.420000e-01  2.552240e+05 
  446   447     1  1.420000e-01  2.552240e+05  1.420000e-01  2.552240e+05 
  446   485     1  1.420000e-01  2.552240e+05  1.420000e-01  2.552240e+05 
  447   448     1  1.420000e-01  2.552240e+05  1.420000e-01  2.552240e+05 
  447   488     1  1.420000e-01  2.552240e+05  1.420000e-01  2.552240e+05 
  448   449     1  1.420000e-01  2.552240e+05  1.420000e-01  2.552240e+05 
  449   450     1  1.420000e-01  2.552240e+05  1.420000e-01  2.552240e+05 
  450   451     1  1.420000e-01  2.552240e+05  1.420000e-01  2.552240e+05 
  450   489     1  1.420000e-01  2.552240e+05  1.420000e-01  2.552240e+05 
  451   452     1  1.420000e-01  2.552240e+05  1.420000e-01  2.552240e+05 
  451   492     1  1.420000e-01  2.552240e+05  1.420000e-01  2.552240e+05 
  452   453     1  1.420000e-01  2.552240e+05  1.420000e-01  2.552240e+05 
  453   454     1  1.420000e-01  2.552240e+05  1.420000e-01  2.552240e+05 
  454   455     1  1.420000e-01  2.552240e+05  1.420000e-01  2.552240e+05 
  454   493     1  1.420000e-01  2.552240e+05  1.420000e-01  2.552240e+05 
  455   456     1  1.420000e-01  2.552240e+05  1.420000e-01  2.552240e+05 
  455   496     1  1.420000e-01  2.552240e+05  1.420000e-01  2.552240e+05 
  456   457     1  1.420000e-01  2.552240e+05  1.420000e-01  2.552240e+05 
  457   458     1  1.420000e-01  2.552240e+05  1.420000e-01  2.552240e+05 
  458   459     1  1.420000e-01  2.552240e+05  1.420000e-01  2.552240e+05 
  458   497     1  1.420000e-01  2.552240e+05  1.420000e-01  2.552240e+05 
  459   460     1  1.420000e-01  2.552240e+05  1.420000e-01  2.552240e+05 
  459   500     1  1.420000e-01  2.552240e+05  1.420000e-01  2.552240e+05 
  460   461     1  1.420000e-01  2.552240e+05  1.420000e-01  2.552240e+05 
  461   462     1  1.420000e-01  2.552240e+05  1.420000e-01  2.552240e+05 
  462   463     1  1.420000e-01  2.552240e+05  1.420000e-01  2.552240e+05 
  462   501     1  1.420000e-01  2.552240e+05  1.420000e-01  2.552240e+05 
  463   464     1  1.420000e-01  2.552240e+05  1.420000e-01  2.552240e+05 
  463   504     1  1.420000e-01  2.552240e+05  1.420000e-01  2.552240e+05 
  464   465     1  1.420000e-01  2.552240e+05  1.420000e-01  2.552240e+05 
  465   466     1  1.420000e-01  2.552240e+05  1.420000e-01  2.552240e+05 
  466   467     1  1.420000e-01  2.552240e+05  1.420000e-01  2.552240e+05 
  466   505     1  1.420000e-01  2.552240e+05  1.420000e-01  2.552240e+05 
  467   468     1  1.420000e-01  2.552240e+05  1.420000e-01  2.552240e+05 
  467   508     1  1.420000e-01  2.552240e+05  1.420000e-01  2.552240e+05 
  468   469     1  1.420000e-01  2.552240e+05  1.420000e-01  2.552240e+05 
  469   470     1  1.420000e-01  2.552240e+05  1.420000e-01  2.552240e+05 
  470   471     1  1.420000e-01  2.552240e+05  1.420000e-01  2.552240e+05 
  470   509     1  1.420000e-01  2.552240e+05  1.420000e-01  2.552240e+05 
  471   472     1  1.420000e-01  2.552240e+05  1.420000e-01  2.552240e+05 
  471   512     1  1.420000e-01  2.552240e+05  1.420000e-01  2.552240e+05 
  472   473     1  1.420000e-01  2.552240e+05  1.420000e-01  2.552240e+05 
  473   474     1  1.420000e-01  2.552240e+05  1.420000e-01  2.552240e+05 
  474   475     1  1.420000e-01  2.552240e+05  1.420000e-01  2.552240e+05 
  474   513     1  1.420000e-01  2.552240e+05  1.420000e-01  2.552240e+05 
  475   476     1  1.420000e-01  2.552240e+05  1.420000e-01  2.552240e+05 
  475   516     1  1.420000e-01  2.552240e+05  1.420000e-01  2.552240e+05 
  476   477     1  1.420000e-01  2.552240e+05  1.420000e-01  2.552240e+05 
  477   478     1  1.420000e-01  2.552240e+05  1.420000e-01  2.552240e+05 
  478   479     1  1.420000e-01  2.552240e+05  1.420000e-01  2.552240e+05 
  478   517     1  1.420000e-01  2.552240e+05  1.420000e-01  2.552240e+05 
  479   480     1  1.420000e-01  2.552240e+05  1.420000e-01  2.552240e+05 
  479   520     1  1.420000e-01  2.552240e+05  1.420000e-01  2.552240e+05 
  481   482     1  1.420000e-01  2.552240e+05  1.420000e-01  2.552240e+05 
  481   520     1  1.420000e-01  2.552240e+05  1.420000e-01  2.552240e+05 
  482   483     1  1.420000e-01  2.552240e+05  1.420000e-01  2.552240e+05 
  482   521     1  1.420000e-01  2.552240e+05  1.420000e-01  2.552240e+05 
  483   484     1  1.420000e-01  2.552240e+05  1.420000e-01  2.552240e+05 
  483   524     1  1.420000e-01  2.552240e+05  1.420000e-01  2.552240e+05 
  484   485     1  1.420000e-01  2.552240e+05  1.420000e-01  2.552240e+05 
  485   486     1  1.420000e-01  2.552240e+05  1.420000e-01  2.552240e+05 
  486   487     1  1.420000e-01  2.552240e+05  1.420000e-01  2.552240e+05 
  486   525     1  1.420000e-01  2.552240e+05  1.420000e-01  2.552240e+05 
  487   488     1  1.420000e-01  2.552240e+05  1.420000e-01  2.552240e+05 
  487   528     1  1.420000e-01  2.552240e+05  1.420000e-01  2.552240e+05 
  488   489     1  1.420000e-01  2.552240e+05  1.420000e-01  2.552240e+05 
  489   490     1  1.420000e-01  2.552240e+05  1.420000e-01  2.552240e+05 
  490   491     1  1.420000e-01  2.552240e+05  1.420000e-01  2.552240e+05 
  490   529     1  1.420000e-01  2.552240e+05  1.420000e-01  2.552240e+05 
  491   492     1  1.420000e-01  2.552240e+05  1.420000e-01  2.552240e+05 
  491   532     1  1.420000e-01  2.552240e+05  1.420000e-01  2.552240e+05 
  492   493     1  1.420000e-01  2.552240e+05  1.420000e-01  2.552240e+05 
  493   494     1  1.420000e-01  2.552240e+05  1.420000e-01  2.552240e+05 
  494   495     1  1.420000e-01  2.552240e+05  1.420000e-01  2.552240e+05 
  494   533     1  1.420000e-01  2.552240e+05  1.420000e-01  2.552240e+05 
  495   496     1  1.420000e-01  2.552240e+05  1.420000e-01  2.552240e+05 
  495   536     1  1.420000e-01  2.552240e+05  1.420000e-01  2.552240e+05 
  496   497     1  1.420000e-01  2.552240e+05  1.420000e-01  2.552240e+05 
  497   498     1  1.420000e-01  2.552240e+05  1.420000e-01  2.552240e+05 
  498   499     1  1.420000e-01  2.552240e+05  1.420000e-01  2.552240e+05 
  498   537     1  1.420000e-01  2.552240e+05  1.420000e-01  2.552240e+05 
  499   500     1  1.420000e-01  2.552240e+05  1.420000e-01  2.552240e+05 
  499   540     1  1.420000e-01  2.552240e+05  1.420000e-01  2.552240e+05 
  500   501     1  1.420000e-01  2.552240e+05  1.420000e-01  2.552240e+05 
  501   502     1  1.420000e-01  2.552240e+05  1.420000e-01  2.552240e+05 
  502   503     1  1.420000e-01  2.552240e+05  1.420000e-01  2.552240e+05 
  502   541     1  1.420000e-01  2.552240e+05  1.420000e-01  2.552240e+05 
  503   504     1  1.420000e-01  2.552240e+05  1.420000e-01  2.552240e+05 
  503   544     1  1.420000e-01  2.552240e+05  1.420000e-01  2.552240e+05 
  504   505     1  1.420000e-01  2.552240e+05  1.420000e-01  2.552240e+05 
  505   506     1  1.420000e-01  2.552240e+05  1.420000e-01  2.552240e+05 
  506   507     1  1.420000e-01  2.552240e+05  1.420000e-01  2.552240e+05 
  506   545     1  1.420000e-01  2.552240e+05  1.420000e-01  2.552240e+05 
  507   508     1  1.420000e-01  2.552240e+05  1.420000e-01  2.552240e+05 
  507   548     1  1.420000e-01  2.552240e+05  1.420000e-01  2.552240e+05 
  508   509     1  1.420000e-01  2.552240e+05  1.420000e-01  2.552240e+05 
  509   510     1  1.420000e-01  2.552240e+05  1.420000e-01  2.552240e+05 
  510   511     1  1.420000e-01  2.552240e+05  1.420000e-01  2.552240e+05 
  510   549     1  1.420000e-01  2.552240e+05  1.420000e-01  2.552240e+05 
  511   512     1  1.420000e-01  2.552240e+05  1.420000e-01  2.552240e+05 
  511   552     1  1.420000e-01  2.552240e+05  1.420000e-01  2.552240e+05 
  512   513     1  1.420000e-01  2.552240e+05  1.420000e-01  2.552240e+05 
  513   514     1  1.420000e-01  2.552240e+05  1.420000e-01  2.552240e+05 
  514   515     1  1.420000e-01  2.552240e+05  1.420000e-01  2.552240e+05 
  514   553     1  1.420000e-01  2.552240e+05  1.420000e-01  2.552240e+05 
  515   516     1  1.420000e-01  2.552240e+05  1.420000e-01  2.552240e+05 
  515   556     1  1.420000e-01  2.552240e+05  1.420000e-01  2.552240e+05 
  516   517     1  1.420000e-01  2.552240e+05  1.420000e-01  2.552240e+05 
  517   518     1  1.420000e-01  2.552240e+05  1.420000e-01  2.552240e+05 
  518   519     1  1.420000e-01  2.552240e+05  1.420000e-01  2.552240e+05 
  518   557     1  1.420000e-01  2.552240e+05  1.420000e-01  2.552240e+05 
  519   520     1  1.420000e-01  2.552240e+05  1.420000e-01  2.552240e+05 
  519   560     1  1.420000e-01  2.552240e+05  1.420000e-01  2.552240e+05 
  521   522     1  1.420000e-01  2.552240e+05  1.420000e-01  2.552240e+05 
  521   560     1  1.420000e-01  2.552240e+05  1.420000e-01  2.552240e+05 
  522   523     1  1.420000e-01  2.552240e+05  1.420000e-01  2.552240e+05 
  522   561     1  1.420000e-01  2.552240e+05  1.420000e-01  2.552240e+05 
  523   524     1  1.420000e-01  2.552240e+05  1.420000e-01  2.552240e+05 
  523   564     1  1.420000e-01  2.552240e+05  1.420000e-01  2.552240e+05 
  524   525     1  1.420000e-01  2.552240e+05  1.420000e-01  2.552240e+05 
  525   526     1  1.420000e-01  2.552240e+05  1.420000e-01  2.552240e+05 
  526   527     1  1.420000e-01  2.552240e+05  1.420000e-01  2.552240e+05 
  526   565     1  1.420000e-01  2.552240e+05  1.420000e-01  2.552240e+05 
  527   528     1  1.420000e-01  2.552240e+05  1.420000e-01  2.552240e+05 
  527   568     1  1.420000e-01  2.552240e+05  1.420000e-01  2.552240e+05 
  528   529     1  1.420000e-01  2.552240e+05  1.420000e-01  2.552240e+05 
  529   530     1  1.420000e-01  2.552240e+05  1.420000e-01  2.552240e+05 
  530   531     1  1.420000e-01  2.552240e+05  1.420000e-01  2.552240e+05 
  530   569     1  1.420000e-01  2.552240e+05  1.420000e-01  2.552240e+05 
  531   532     1  1.420000e-01  2.552240e+05  1.420000e-01  2.552240e+05 
  531   572     1  1.420000e-01  2.552240e+05  1.420000e-01  2.552240e+05 
  532   533     1  1.420000e-01  2.552240e+05  1.420000e-01  2.552240e+05 
  533   534     1  1.420000e-01  2.552240e+05  1.420000e-01  2.552240e+05 
  534   535     1  1.420000e-01  2.552240e+05  1.420000e-01  2.552240e+05 
  534   573     1  1.420000e-01  2.552240e+05  1.420000e-01  2.552240e+05 
  535   536     1  1.420000e-01  2.552240e+05  1.420000e-01  2.552240e+05 
  535   576     1  1.420000e-01  2.552240e+05  1.420000e-01  2.552240e+05 
  536   537     1  1.420000e-01  2.552240e+05  1.420000e-01  2.552240e+05 
  537   538     1  1.420000e-01  2.552240e+05  1.420000e-01  2.552240e+05 
  538   539     1  1.420000e-01  2.552240e+05  1.420000e-01  2.552240e+05 
  538   577     1  1.420000e-01  2.552240e+05  1.420000e-01  2.552240e+05 
  539   540     1  1.420000e-01  2.552240e+05  1.420000e-01  2.552240e+05 
  539   580     1  1.420000e-01  2.552240e+05  1.420000e-01  2.552240e+05 
  540   541     1  1.420000e-01  2.552240e+05  1.420000e-01  2.552240e+05 
  541   542     1  1.420000e-01  2.552240e+05  1.420000e-01  2.552240e+05 
  542   543     1  1.420000e-01  2.552240e+05  1.420000e-01  2.552240e+05 
  542   581     1  1.420000e-01  2.552240e+05  1.420000e-01  2.552240e+05 
  543   544     1  1.420000e-01  2.552240e+05  1.420000e-01  2.552240e+05 
  543   584     1  1.420000e-01  2.552240e+05  1.420000e-01  2.552240e+05 
  544   545     1  1.420000e-01  2.552240e+05  1.420000e-01  2.552240e+05 
  545   546     1  1.420000e-01  2.552240e+05  1.420000e-01  2.552240e+05 
  546   547     1  1.420000e-01  2.552240e+05  1.420000e-01  2.552240e+05 
  546   585     1  1.420000e-01  2.552240e+05  1.420000e-01  2.552240e+05 
  547   548     1  1.420000e-01  2.552240e+05  1.420000e-01  2.552240e+05 
  547   588     1  1.420000e-01  2.552240e+05  1.420000e-01  2.552240e+05 
  548   549     1  1.420000e-01  2.552240e+05  1.420000e-01  2.552240e+05 
  549   550     1  1.420000e-01  2.552240e+05  1.420000e-01  2.552240e+05 
  550   551     1  1.420000e-01  2.552240e+05  1.420000e-01  2.552240e+05 
  550   589     1  1.420000e-01  2.552240e+05  1.420000e-01  2.552240e+05 
  551   552     1  1.420000e-01  2.552240e+05  1.420000e-01  2.552240e+05 
  551   592     1  1.420000e-01  2.552240e+05  1.420000e-01  2.552240e+05 
  552   553     1  1.420000e-01  2.552240e+05  1.420000e-01  2.552240e+05 
  553   554     1  1.420000e-01  2.552240e+05  1.420000e-01  2.552240e+05 
  554   555     1  1.420000e-01  2.552240e+05  1.420000e-01  2.552240e+05 
  554   593     1  1.420000e-01  2.552240e+05  1.420000e-01  2.552240e+05 
  555   556     1  1.420000e-01  2.552240e+05  1.420000e-01  2.552240e+05 
  555   596     1  1.420000e-01  2.552240e+05  1.420000e-01  2.552240e+05 
  556   557     1  1.420000e-01  2.552240e+05  1.420000e-01  2.552240e+05 
  557   558     1  1.420000e-01  2.552240e+05  1.420000e-01  2.552240e+05 
  558   559     1  1.420000e-01  2.552240e+05  1.420000e-01  2.552240e+05 
  558   597     1  1.420000e-01  2.552240e+05  1.420000e-01  2.552240e+05 
  559   560     1  1.420000e-01  2.552240e+05  1.420000e-01  2.552240e+05 
  559   600     1  1.420000e-01  2.552240e+05  1.420000e-01  2.552240e+05 
  561   562     1  1.420000e-01  2.552240e+05  1.420000e-01  2.552240e+05 
  561   600     1  1.420000e-01  2.552240e+05  1.420000e-01  2.552240e+05 
  562   563     1  1.420000e-01  2.552240e+05  1.420000e-01  2.552240e+05 
  563   564     1  1.420000e-01  2.552240e+05  1.420000e-01  2.552240e+05 
  564   565     1  1.420000e-01  2.552240e+05  1.420000e-01  2.552240e+05 
  565   566     1  1.420000e-01  2.552240e+05  1.420000e-01  2.552240e+05 
  566   567     1  1.420000e-01  2.552240e+05  1.420000e-01  2.552240e+05 
  567   568     1  1.420000e-01  2.552240e+05  1.420000e-01  2.552240e+05 
  568   569     1  1.420000e-01  2.552240e+05  1.420000e-01  2.552240e+05 
  569   570     1  1.420000e-01  2.552240e+05  1.420000e-01  2.552240e+05 
  570   571     1  1.420000e-01  2.552240e+05  1.420000e-01  2.552240e+05 
  571   572     1  1.420000e-01  2.552240e+05  1.420000e-01  2.552240e+05 
  572   573     1  1.420000e-01  2.552240e+05  1.420000e-01  2.552240e+05 
  573   574     1  1.420000e-01  2.552240e+05  1.420000e-01  2.552240e+05 
  574   575     1  1.420000e-01  2.552240e+05  1.420000e-01  2.552240e+05 
  575   576     1  1.420000e-01  2.552240e+05  1.420000e-01  2.552240e+05 
  576   577     1  1.420000e-01  2.552240e+05  1.420000e-01  2.552240e+05 
  577   578     1  1.420000e-01  2.552240e+05  1.420000e-01  2.552240e+05 
  578   579     1  1.420000e-01  2.552240e+05  1.420000e-01  2.552240e+05 
  579   580     1  1.420000e-01  2.552240e+05  1.420000e-01  2.552240e+05 
  580   581     1  1.420000e-01  2.552240e+05  1.420000e-01  2.552240e+05 
  581   582     1  1.420000e-01  2.552240e+05  1.420000e-01  2.552240e+05 
  582   583     1  1.420000e-01  2.552240e+05  1.420000e-01  2.552240e+05 
  583   584     1  1.420000e-01  2.552240e+05  1.420000e-01  2.552240e+05 
  584   585     1  1.420000e-01  2.552240e+05  1.420000e-01  2.552240e+05 
  585   586     1  1.420000e-01  2.552240e+05  1.420000e-01  2.552240e+05 
  586   587     1  1.420000e-01  2.552240e+05  1.420000e-01  2.552240e+05 
  587   588     1  1.420000e-01  2.552240e+05  1.420000e-01  2.552240e+05 
  588   589     1  1.420000e-01  2.552240e+05  1.420000e-01  2.552240e+05 
  589   590     1  1.420000e-01  2.552240e+05  1.420000e-01  2.552240e+05 
  590   591     1  1.420000e-01  2.552240e+05  1.420000e-01  2.552240e+05 
  591   592     1  1.420000e-01  2.552240e+05  1.420000e-01  2.552240e+05 
  592   593     1  1.420000e-01  2.552240e+05  1.420000e-01  2.552240e+05 
  593   594     1  1.420000e-01  2.552240e+05  1.420000e-01  2.552240e+05 
  594   595     1  1.420000e-01  2.552240e+05  1.420000e-01  2.552240e+05 
  595   596     1  1.420000e-01  2.552240e+05  1.420000e-01  2.552240e+05 
  596   597     1  1.420000e-01  2.552240e+05  1.420000e-01  2.552240e+05 
  597   598     1  1.420000e-01  2.552240e+05  1.420000e-01  2.552240e+05 
  598   599     1  1.420000e-01  2.552240e+05  1.420000e-01  2.552240e+05 
  599   600     1  1.420000e-01  2.552240e+05  1.420000e-01  2.552240e+05 

[ pairs ]
;  ai    aj funct            c0            c1            c2            c3
    1     4     1 
    1    38     1 
    1    42     1 
    1    44     1 
    1    80     1 
    1   522     1 
    1   564     1 
    1   598     1 
    1   600     1 
    2     5     1 
    2    39     1 
    2    43     1 
    2    45     1 
    2    79     1 
    2    81     1 
    2   561     1 
    2   563     1 
    2   599     1 
    3     6     1 
    3    40     1 
    3    42     1 
    3    46     1 
    3    80     1 
    3    84     1 
    3   562     1 
    3   564     1 
    3   566     1 
    4     7     1 
    4    41     1 
    4    43     1 
    4    45     1 
    4   523     1 
    4   561     1 
    4   565     1 
    4   567     1 
    5     8     1 
    5    44     1 
    5    46     1 
    5    48     1 
    5   526     1 
    5   562     1 
    5   564     1 
    5   568     1 
    6     9     1 
    6    43     1 
    6    47     1 
    6    49     1 
    6    85     1 
    6   563     1 
    6   565     1 
    6   567     1 
    7    10     1 
    7    44     1 
    7    46     1 
    7    50     1 
    7    88     1 
    7   566     1 
    7   568     1 
    7   570     1 
    8    11     1 
    8    45     1 
    8    47     1 
    8    49     1 
    8   527     1 
    8   565     1 
    8   569     1 
    8   571     1 
    9    12     1 
    9    48     1 
    9    50     1 
    9    52     1 
    9   530     1 
    9   566     1 
    9   568     1 
    9   572     1 
   10    13     1 
   10    47     1 
   10    51     1 
   10    53     1 
   10    89     1 
   10   567     1 
   10   569     1 
   10   571     1 
   11    14     1 
   11    48     1 
   11    50     1 
   11    54     1 
   11    92     1 
   11   570     1 
   11   572     1 
   11   574     1 
   12    15     1 
   12    49     1 
   12    51     1 
   12    53     1 
   12   531     1 
   12   569     1 
   12   573     1 
   12   575     1 
   13    16     1 
   13    52     1 
   13    54     1 
   13    56     1 
   13   534     1 
   13   570     1 
   13   572     1 
   13   576     1 
   14    17     1 
   14    51     1 
   14    55     1 
   14    57     1 
   14    93     1 
   14   571     1 
   14   573     1 
   14   575     1 
   15    18     1 
   15    52     1 
   15    54     1 
   15    58     1 
   15    96     1 
   15   574     1 
   15   576     1 
   15   578     1 
   16    19     1 
   16    53     1 
   16    55     1 
   16    57     1 
   16   535     1 
   16   573     1 
   16   577     1 
   16   579     1 
   17    20     1 
   17    56     1 
   17    58     1 
   17    60     1 
   17   538     1 
   17   574     1 
   17   576     1 
   17   580     1 
   18    21     1 
   18    55     1 
   18    59     1 
   18    61     1 
   18    97     1 
   18   575     1 
   18   577     1 
   18   579     1 
   19    22     1 
   19    56     1 
   19    58     1 
   19    62     1 
   19   100     1 
   19   578     1 
   19   580     1 
   19   582     1 
   20    23     1 
   20    57     1 
   20    59     1 
   20    61     1 
   20   539     1 
   20   577     1 
   20   581     1 
   20   583     1 
   21    24     1 
   21    60     1 
   21    62     1 
   21    64     1 
   21   542     1 
   21   578     1 
   21   580     1 
   21   584     1 
   22    25     1 
   22    59     1 
   22    63     1 
   22    65     1 
   22   101     1 
   22   579     1 
   22   581     1 
   22   583     1 
   23    26     1 
   23    60     1 
   23    62     1 
   23    66     1 
   23   104     1 
   23   582     1 
   23   584     1 
   23   586     1 
   24    27     1 
   24    61     1 
   24    63     1 
   24    65     1 
   24   543     1 
   24   581     1 
   24   585     1 
   24   587     1 
   25    28     1 
   25    64     1 
   25    66     1 
   25    68     1 
   25   546     1 
   25   582     1 
   25   584     1 
   25   588     1 
   26    29     1 
   26    63     1 
   26    67     1 
   26    69     1 
   26   105     1 
   26   583     1 
   26   585     1 
   26   587     1 
   27    30     1 
   27    64     1 
   27    66     1 
   27    70     1 
   27   108     1 
   27   586     1 
   27   588     1 
   27   590     1 
   28    31     1 
   28    65     1 
   28    67     1 
   28    69     1 
   28   547     1 
   28   585     1 
   28   589     1 
   28   591     1 
   29    32     1 
   29    68     1 
   29    70     1 
   29    72     1 
   29   550     1 
   29   586     1 
   29   588     1 
   29   592     1 
   30    33     1 
   30    67     1 
   30    71     1 
   30    73     1 
   30   109     1 
   30   587     1 
   30   589     1 
   30   591     1 
   31    34     1 
   31    68     1 
   31    70     1 
   31    74     1 
   31   112     1 
   31   590     1 
   31   592     1 
   31   594     1 
   32    35     1 
   32    69     1 
   32    71     1 
   32    73     1 
   32   551     1 
   32   589     1 
   32   593     1 
   32   595     1 
   33    36     1 
   33    72     1 
   33    74     1 
   33    76     1 
   33   554     1 
   33   590     1 
   33   592     1 
   33   596     1 
   34    37     1 
   34    71     1 
   34    75     1 
   34    77     1 
   34   113     1 
   34   591     1 
   34   593     1 
   34   595     1 
   35    38     1 
   35    72     1 
   35    74     1 
   35    78     1 
   35   116     1 
   35   594     1 
   35   596     1 
   35   598     1 
   36    39     1 
   36    73     1 
   36    75     1 
   36    77     1 
   36   555     1 
   36   593     1 
   36   597     1 
   36   599     1 
   37    40     1 
   37    76     1 
   37    78     1 
   37    80     1 
   37   558     1 
   37   594     1 
   37   596     1 
   37   600     1 
   38    41     1 
   38    75     1 
   38    79     1 
   38   117     1 
   38   595     1 
   38   597     1 
   38   599     1 
   39    42     1 
   39    76     1 
   39    78     1 
   39   120     1 
   39   562     1 
   39   598     1 
   39   600     1 
   40    41     1 
   40    77     1 
   40    79     1 
   40   559     1 
   40   561     1 
   40   563     1 
   40   597     1 
   41    44     1 
   41    78     1 
   41    82     1 
   41    84     1 
   41   120     1 
   41   562     1 
   42    45     1 
   42    79     1 
   42    83     1 
   42    85     1 
   42   119     1 
   42   121     1 
   43    46     1 
   43    80     1 
   43    82     1 
   43    86     1 
   43   120     1 
   43   124     1 
   44    47     1 
   44    81     1 
   44    83     1 
   44    85     1 
   44   563     1 
   45    48     1 
   45    84     1 
   45    86     1 
   45    88     1 
   45   566     1 
   46    49     1 
   46    83     1 
   46    87     1 
   46    89     1 
   46   125     1 
   47    50     1 
   47    84     1 
   47    86     1 
   47    90     1 
   47   128     1 
   48    51     1 
   48    85     1 
   48    87     1 
   48    89     1 
   48   567     1 
   49    52     1 
   49    88     1 
   49    90     1 
   49    92     1 
   49   570     1 
   50    53     1 
   50    87     1 
   50    91     1 
   50    93     1 
   50   129     1 
   51    54     1 
   51    88     1 
   51    90     1 
   51    94     1 
   51   132     1 
   52    55     1 
   52    89     1 
   52    91     1 
   52    93     1 
   52   571     1 
   53    56     1 
   53    92     1 
   53    94     1 
   53    96     1 
   53   574     1 
   54    57     1 
   54    91     1 
   54    95     1 
   54    97     1 
   54   133     1 
   55    58     1 
   55    92     1 
   55    94     1 
   55    98     1 
   55   136     1 
   56    59     1 
   56    93     1 
   56    95     1 
   56    97     1 
   56   575     1 
   57    60     1 
   57    96     1 
   57    98     1 
   57   100     1 
   57   578     1 
   58    61     1 
   58    95     1 
   58    99     1 
   58   101     1 
   58   137     1 
   59    62     1 
   59    96     1 
   59    98     1 
   59   102     1 
   59   140     1 
   60    63     1 
   60    97     1 
   60    99     1 
   60   101     1 
   60   579     1 
   61    64     1 
   61   100     1 
   61   102     1 
   61   104     1 
   61   582     1 
   62    65     1 
   62    99     1 
   62   103     1 
   62   105     1 
   62   141     1 
   63    66     1 
   63   100     1 
   63   102     1 
   63   106     1 
   63   144     1 
   64    67     1 
   64   101     1 
   64   103     1 
   64   105     1 
   64   583     1 
   65    68     1 
   65   104     1 
   65   106     1 
   65   108     1 
   65   586     1 
   66    69     1 
   66   103     1 
   66   107     1 
   66   109     1 
   66   145     1 
   67    70     1 
   67   104     1 
   67   106     1 
   67   110     1 
   67   148     1 
   68    71     1 
   68   105     1 
   68   107     1 
   68   109     1 
   68   587     1 
   69    72     1 
   69   108     1 
   69   110     1 
   69   112     1 
   69   590     1 
   70    73     1 
   70   107     1 
   70   111     1 
   70   113     1 
   70   149     1 
   71    74     1 
   71   108     1 
   71   110     1 
   71   114     1 
   71   152     1 
   72    75     1 
   72   109     1 
   72   111     1 
   72   113     1 
   72   591     1 
   73    76     1 
   73   112     1 
   73   114     1 
   73   116     1 
   73   594     1 
   74    77     1 
   74   111     1 
   74   115     1 
   74   117     1 
   74   153     1 
   75    78     1 
   75   112     1 
   75   114     1 
   75   118     1 
   75   156     1 
   76    79     1 
   76   113     1 
   76   115     1 
   76   117     1 
   76   595     1 
   77    80     1 
   77   116     1 
   77   118     1 
   77   120     1 
   77   598     1 
   78    81     1 
   78   115     1 
   78   119     1 
   78   157     1 
   79    82     1 
   79   116     1 
   79   118     1 
   79   160     1 
   80    81     1 
   80   117     1 
   80   119     1 
   80   599     1 
   81    84     1 
   81   118     1 
   81   122     1 
   81   124     1 
   81   160     1 
   82    85     1 
   82   119     1 
   82   123     1 
   82   125     1 
   82   159     1 
   82   161     1 
   83    86     1 
   83   120     1 
   83   122     1 
   83   126     1 
   83   160     1 
   83   164     1 
   84    87     1 
   84   121     1 
   84   123     1 
   84   125     1 
   85    88     1 
   85   124     1 
   85   126     1 
   85   128     1 
   86    89     1 
   86   123     1 
   86   127     1 
   86   129     1 
   86   165     1 
   87    90     1 
   87   124     1 
   87   126     1 
   87   130     1 
   87   168     1 
   88    91     1 
   88   125     1 
   88   127     1 
   88   129     1 
   89    92     1 
   89   128     1 
   89   130     1 
   89   132     1 
   90    93     1 
   90   127     1 
   90   131     1 
   90   133     1 
   90   169     1 
   91    94     1 
   91   128     1 
   91   130     1 
   91   134     1 
   91   172     1 
   92    95     1 
   92   129     1 
   92   131     1 
   92   133     1 
   93    96     1 
   93   132     1 
   93   134     1 
   93   136     1 
   94    97     1 
   94   131     1 
   94   135     1 
   94   137     1 
   94   173     1 
   95    98     1 
   95   132     1 
   95   134     1 
   95   138     1 
   95   176     1 
   96    99     1 
   96   133     1 
   96   135     1 
   96   137     1 
   97   100     1 
   97   136     1 
   97   138     1 
   97   140     1 
   98   101     1 
   98   135     1 
   98   139     1 
   98   141     1 
   98   177     1 
   99   102     1 
   99   136     1 
   99   138     1 
   99   142     1 
   99   180     1 
  100   103     1 
  100   137     1 
  100   139     1 
  100   141     1 
  101   104     1 
  101   140     1 
  101   142     1 
  101   144     1 
  102   105     1 
  102   139     1 
  102   143     1 
  102   145     1 
  102   181     1 
  103   106     1 
  103   140     1 
  103   142     1 
  103   146     1 
  103   184     1 
  104   107     1 
  104   141     1 
  104   143     1 
  104   145     1 
  105   108     1 
  105   144     1 
  105   146     1 
  105   148     1 
  106   109     1 
  106   143     1 
  106   147     1 
  106   149     1 
  106   185     1 
  107   110     1 
  107   144     1 
  107   146     1 
  107   150     1 
  107   188     1 
  108   111     1 
  108   145     1 
  108   147     1 
  108   149     1 
  109   112     1 
  109   148     1 
  109   150     1 
  109   152     1 
  110   113     1 
  110   147     1 
  110   151     1 
  110   153     1 
  110   189     1 
  111   114     1 
  111   148     1 
  111   150     1 
  111   154     1 
  111   192     1 
  112   115     1 
  112   149     1 
  112   151     1 
  112   153     1 
  113   116     1 
  113   152     1 
  113   154     1 
  113   156     1 
  114   117     1 
  114   151     1 
  114   155     1 
  114   157     1 
  114   193     1 
  115   118     1 
  115   152     1 
  115   154     1 
  115   158     1 
  115   196     1 
  116   119     1 
  116   153     1 
  116   155     1 
  116   157     1 
  117   120     1 
  117   156     1 
  117   158     1 
  117   160     1 
  118   121     1 
  118   155     1 
  118   159     1 
  118   197     1 
  119   122     1 
  119   156     1 
  119   158     1 
  119   200     1 
  120   121     1 
  120   157     1 
  120   159     1 
  121   124     1 
  121   158     1 
  121   162     1 
  121   164     1 
  121   200     1 
  122   125     1 
  122   159     1 
  122   163     1 
  122   165     1 
  122   199     1 
  122   201     1 
  123   126     1 
  123   160     1 
  123   162     1 
  123   166     1 
  123   200     1 
  123   204     1 
  124   127     1 
  124   161     1 
  124   163     1 
  124   165     1 
  125   128     1 
  125   164     1 
  125   166     1 
  125   168     1 
  126   129     1 
  126   163     1 
  126   167     1 
  126   169     1 
  126   205     1 
  127   130     1 
  127   164     1 
  127   166     1 
  127   170     1 
  127   208     1 
  128   131     1 
  128   165     1 
  128   167     1 
  128   169     1 
  129   132     1 
  129   168     1 
  129   170     1 
  129   172     1 
  130   133     1 
  130   167     1 
  130   171     1 
  130   173     1 
  130   209     1 
  131   134     1 
  131   168     1 
  131   170     1 
  131   174     1 
  131   212     1 
  132   135     1 
  132   169     1 
  132   171     1 
  132   173     1 
  133   136     1 
  133   172     1 
  133   174     1 
  133   176     1 
  134   137     1 
  134   171     1 
  134   175     1 
  134   177     1 
  134   213     1 
  135   138     1 
  135   172     1 
  135   174     1 
  135   178     1 
  135   216     1 
  136   139     1 
  136   173     1 
  136   175     1 
  136   177     1 
  137   140     1 
  137   176     1 
  137   178     1 
  137   180     1 
  138   141     1 
  138   175     1 
  138   179     1 
  138   181     1 
  138   217     1 
  139   142     1 
  139   176     1 
  139   178     1 
  139   182     1 
  139   220     1 
  140   143     1 
  140   177     1 
  140   179     1 
  140   181     1 
  141   144     1 
  141   180     1 
  141   182     1 
  141   184     1 
  142   145     1 
  142   179     1 
  142   183     1 
  142   185     1 
  142   221     1 
  143   146     1 
  143   180     1 
  143   182     1 
  143   186     1 
  143   224     1 
  144   147     1 
  144   181     1 
  144   183     1 
  144   185     1 
  145   148     1 
  145   184     1 
  145   186     1 
  145   188     1 
  146   149     1 
  146   183     1 
  146   187     1 
  146   189     1 
  146   225     1 
  147   150     1 
  147   184     1 
  147   186     1 
  147   190     1 
  147   228     1 
  148   151     1 
  148   185     1 
  148   187     1 
  148   189     1 
  149   152     1 
  149   188     1 
  149   190     1 
  149   192     1 
  150   153     1 
  150   187     1 
  150   191     1 
  150   193     1 
  150   229     1 
  151   154     1 
  151   188     1 
  151   190     1 
  151   194     1 
  151   232     1 
  152   155     1 
  152   189     1 
  152   191     1 
  152   193     1 
  153   156     1 
  153   192     1 
  153   194     1 
  153   196     1 
  154   157     1 
  154   191     1 
  154   195     1 
  154   197     1 
  154   233     1 
  155   158     1 
  155   192     1 
  155   194     1 
  155   198     1 
  155   236     1 
  156   159     1 
  156   193     1 
  156   195     1 
  156   197     1 
  157   160     1 
  157   196     1 
  157   198     1 
  157   200     1 
  158   161     1 
  158   195     1 
  158   199     1 
  158   237     1 
  159   162     1 
  159   196     1 
  159   198     1 
  159   240     1 
  160   161     1 
  160   197     1 
  160   199     1 
  161   164     1 
  161   198     1 
  161   202     1 
  161   204     1 
  161   240     1 
  162   165     1 
  162   199     1 
  162   203     1 
  162   205     1 
  162   239     1 
  162   241     1 
  163   166     1 
  163   200     1 
  163   202     1 
  163   206     1 
  163   240     1 
  163   244     1 
  164   167     1 
  164   201     1 
  164   203     1 
  164   205     1 
  165   168     1 
  165   204     1 
  165   206     1 
  165   208     1 
  166   169     1 
  166   203     1 
  166   207     1 
  166   209     1 
  166   245     1 
  167   170     1 
  167   204     1 
  167   206     1 
  167   210     1 
  167   248     1 
  168   171     1 
  168   205     1 
  168   207     1 
  168   209     1 
  169   172     1 
  169   208     1 
  169   210     1 
  169   212     1 
  170   173     1 
  170   207     1 
  170   211     1 
  170   213     1 
  170   249     1 
  171   174     1 
  171   208     1 
  171   210     1 
  171   214     1 
  171   252     1 
  172   175     1 
  172   209     1 
  172   211     1 
  172   213     1 
  173   176     1 
  173   212     1 
  173   214     1 
  173   216     1 
  174   177     1 
  174   211     1 
  174   215     1 
  174   217     1 
  174   253     1 
  175   178     1 
  175   212     1 
  175   214     1 
  175   218     1 
  175   256     1 
  176   179     1 
  176   213     1 
  176   215     1 
  176   217     1 
  177   180     1 
  177   216     1 
  177   218     1 
  177   220     1 
  178   181     1 
  178   215     1 
  178   219     1 
  178   221     1 
  178   257     1 
  179   182     1 
  179   216     1 
  179   218     1 
  179   222     1 
  179   260     1 
  180   183     1 
  180   217     1 
  180   219     1 
  180   221     1 
  181   184     1 
  181   220     1 
  181   222     1 
  181   224     1 
  182   185     1 
  182   219     1 
  182   223     1 
  182   225     1 
  182   261     1 
  183   186     1 
  183   220     1 
  183   222     1 
  183   226     1 
  183   264     1 
  184   187     1 
  184   221     1 
  184   223     1 
  184   225     1 
  185   188     1 
  185   224     1 
  185   226     1 
  185   228     1 
  186   189     1 
  186   223     1 
  186   227     1 
  186   229     1 
  186   265     1 
  187   190     1 
  187   224     1 
  187   226     1 
  187   230     1 
  187   268     1 
  188   191     1 
  188   225     1 
  188   227     1 
  188   229     1 
  189   192     1 
  189   228     1 
  189   230     1 
  189   232     1 
  190   193     1 
  190   227     1 
  190   231     1 
  190   233     1 
  190   269     1 
  191   194     1 
  191   228     1 
  191   230     1 
  191   234     1 
  191   272     1 
  192   195     1 
  192   229     1 
  192   231     1 
  192   233     1 
  193   196     1 
  193   232     1 
  193   234     1 
  193   236     1 
  194   197     1 
  194   231     1 
  194   235     1 
  194   237     1 
  194   273     1 
  195   198     1 
  195   232     1 
  195   234     1 
  195   238     1 
  195   276     1 
  196   199     1 
  196   233     1 
  196   235     1 
  196   237     1 
  197   200     1 
  197   236     1 
  197   238     1 
  197   240     1 
  198   201     1 
  198   235     1 
  198   239     1 
  198   277     1 
  199   202     1 
  199   236     1 
  199   238     1 
  199   280     1 
  200   201     1 
  200   237     1 
  200   239     1 
  201   204     1 
  201   238     1 
  201   242     1 
  201   244     1 
  201   280     1 
  202   205     1 
  202   239     1 
  202   243     1 
  202   245     1 
  202   279     1 
  202   281     1 
  203   206     1 
  203   240     1 
  203   242     1 
  203   246     1 
  203   280     1 
  203   284     1 
  204   207     1 
  204   241     1 
  204   243     1 
  204   245     1 
  205   208     1 
  205   244     1 
  205   246     1 
  205   248     1 
  206   209     1 
  206   243     1 
  206   247     1 
  206   249     1 
  206   285     1 
  207   210     1 
  207   244     1 
  207   246     1 
  207   250     1 
  207   288     1 
  208   211     1 
  208   245     1 
  208   247     1 
  208   249     1 
  209   212     1 
  209   248     1 
  209   250     1 
  209   252     1 
  210   213     1 
  210   247     1 
  210   251     1 
  210   253     1 
  210   289     1 
  211   214     1 
  211   248     1 
  211   250     1 
  211   254     1 
  211   292     1 
  212   215     1 
  212   249     1 
  212   251     1 
  212   253     1 
  213   216     1 
  213   252     1 
  213   254     1 
  213   256     1 
  214   217     1 
  214   251     1 
  214   255     1 
  214   257     1 
  214   293     1 
  215   218     1 
  215   252     1 
  215   254     1 
  215   258     1 
  215   296     1 
  216   219     1 
  216   253     1 
  216   255     1 
  216   257     1 
  217   220     1 
  217   256     1 
  217   258     1 
  217   260     1 
  218   221     1 
  218   255     1 
  218   259     1 
  218   261     1 
  218   297     1 
  219   222     1 
  219   256     1 
  219   258     1 
  219   262     1 
  219   300     1 
  220   223     1 
  220   257     1 
  220   259     1 
  220   261     1 
  221   224     1 
  221   260     1 
  221   262     1 
  221   264     1 
  222   225     1 
  222   259     1 
  222   263     1 
  222   265     1 
  222   301     1 
  223   226     1 
  223   260     1 
  223   262     1 
  223   266     1 
  223   304     1 
  224   227     1 
  224   261     1 
  224   263     1 
  224   265     1 
  225   228     1 
  225   264     1 
  225   266     1 
  225   268     1 
  226   229     1 
  226   263     1 
  226   267     1 
  226   269     1 
  226   305     1 
  227   230     1 
  227   264     1 
  227   266     1 
  227   270     1 
  227   308     1 
  228   231     1 
  228   265     1 
  228   267     1 
  228   269     1 
  229   232     1 
  229   268     1 
  229   270     1 
  229   272     1 
  230   233     1 
  230   267     1 
  230   271     1 
  230   273     1 
  230   309     1 
  231   234     1 
  231   268     1 
  231   270     1 
  231   274     1 
  231   312     1 
  232   235     1 
  232   269     1 
  232   271     1 
  232   273     1 
  233   236     1 
  233   272     1 
  233   274     1 
  233   276     1 
  234   237     1 
  234   271     1 
  234   275     1 
  234   277     1 
  234   313     1 
  235   238     1 
  235   272     1 
  235   274     1 
  235   278     1 
  235   316     1 
  236   239     1 
  236   273     1 
  236   275     1 
  236   277     1 
  237   240     1 
  237   276     1 
  237   278     1 
  237   280     1 
  238   241     1 
  238   275     1 
  238   279     1 
  238   317     1 
  239   242     1 
  239   276     1 
  239   278     1 
  239   320     1 
  240   241     1 
  240   277     1 
  240   279     1 
  241   244     1 
  241   278     1 
  241   282     1 
  241   284     1 
  241   320     1 
  242   245     1 
  242   279     1 
  242   283     1 
  242   285     1 
  242   319     1 
  242   321     1 
  243   246     1 
  243   280     1 
  243   282     1 
  243   286     1 
  243   320     1 
  243   324     1 
  244   247     1 
  244   281     1 
  244   283     1 
  244   285     1 
  245   248     1 
  245   284     1 
  245   286     1 
  245   288     1 
  246   249     1 
  246   283     1 
  246   287     1 
  246   289     1 
  246   325     1 
  247   250     1 
  247   284     1 
  247   286     1 
  247   290     1 
  247   328     1 
  248   251     1 
  248   285     1 
  248   287     1 
  248   289     1 
  249   252     1 
  249   288     1 
  249   290     1 
  249   292     1 
  250   253     1 
  250   287     1 
  250   291     1 
  250   293     1 
  250   329     1 
  251   254     1 
  251   288     1 
  251   290     1 
  251   294     1 
  251   332     1 
  252   255     1 
  252   289     1 
  252   291     1 
  252   293     1 
  253   256     1 
  253   292     1 
  253   294     1 
  253   296     1 
  254   257     1 
  254   291     1 
  254   295     1 
  254   297     1 
  254   333     1 
  255   258     1 
  255   292     1 
  255   294     1 
  255   298     1 
  255   336     1 
  256   259     1 
  256   293     1 
  256   295     1 
  256   297     1 
  257   260     1 
  257   296     1 
  257   298     1 
  257   300     1 
  258   261     1 
  258   295     1 
  258   299     1 
  258   301     1 
  258   337     1 
  259   262     1 
  259   296     1 
  259   298     1 
  259   302     1 
  259   340     1 
  260   263     1 
  260   297     1 
  260   299     1 
  260   301     1 
  261   264     1 
  261   300     1 
  261   302     1 
  261   304     1 
  262   265     1 
  262   299     1 
  262   303     1 
  262   305     1 
  262   341     1 
  263   266     1 
  263   300     1 
  263   302     1 
  263   306     1 
  263   344     1 
  264   267     1 
  264   301     1 
  264   303     1 
  264   305     1 
  265   268     1 
  265   304     1 
  265   306     1 
  265   308     1 
  266   269     1 
  266   303     1 
  266   307     1 
  266   309     1 
  266   345     1 
  267   270     1 
  267   304     1 
  267   306     1 
  267   310     1 
  267   348     1 
  268   271     1 
  268   305     1 
  268   307     1 
  268   309     1 
  269   272     1 
  269   308     1 
  269   310     1 
  269   312     1 
  270   273     1 
  270   307     1 
  270   311     1 
  270   313     1 
  270   349     1 
  271   274     1 
  271   308     1 
  271   310     1 
  271   314     1 
  271   352     1 
  272   275     1 
  272   309     1 
  272   311     1 
  272   313     1 
  273   276     1 
  273   312     1 
  273   314     1 
  273   316     1 
  274   277     1 
  274   311     1 
  274   315     1 
  274   317     1 
  274   353     1 
  275   278     1 
  275   312     1 
  275   314     1 
  275   318     1 
  275   356     1 
  276   279     1 
  276   313     1 
  276   315     1 
  276   317     1 
  277   280     1 
  277   316     1 
  277   318     1 
  277   320     1 
  278   281     1 
  278   315     1 
  278   319     1 
  278   357     1 
  279   282     1 
  279   316     1 
  279   318     1 
  279   360     1 
  280   281     1 
  280   317     1 
  280   319     1 
  281   284     1 
  281   318     1 
  281   322     1 
  281   324     1 
  281   360     1 
  282   285     1 
  282   319     1 
  282   323     1 
  282   325     1 
  282   359     1 
  282   361     1 
  283   286     1 
  283   320     1 
  283   322     1 
  283   326     1 
  283   360     1 
  283   364     1 
  284   287     1 
  284   321     1 
  284   323     1 
  284   325     1 
  285   288     1 
  285   324     1 
  285   326     1 
  285   328     1 
  286   289     1 
  286   323     1 
  286   327     1 
  286   329     1 
  286   365     1 
  287   290     1 
  287   324     1 
  287   326     1 
  287   330     1 
  287   368     1 
  288   291     1 
  288   325     1 
  288   327     1 
  288   329     1 
  289   292     1 
  289   328     1 
  289   330     1 
  289   332     1 
  290   293     1 
  290   327     1 
  290   331     1 
  290   333     1 
  290   369     1 
  291   294     1 
  291   328     1 
  291   330     1 
  291   334     1 
  291   372     1 
  292   295     1 
  292   329     1 
  292   331     1 
  292   333     1 
  293   296     1 
  293   332     1 
  293   334     1 
  293   336     1 
  294   297     1 
  294   331     1 
  294   335     1 
  294   337     1 
  294   373     1 
  295   298     1 
  295   332     1 
  295   334     1 
  295   338     1 
  295   376     1 
  296   299     1 
  296   333     1 
  296   335     1 
  296   337     1 
  297   300     1 
  297   336     1 
  297   338     1 
  297   340     1 
  298   301     1 
  298   335     1 
  298   339     1 
  298   341     1 
  298   377     1 
  299   302     1 
  299   336     1 
  299   338     1 
  299   342     1 
  299   380     1 
  300   303     1 
  300   337     1 
  300   339     1 
  300   341     1 
  301   304     1 
  301   340     1 
  301   342     1 
  301   344     1 
  302   305     1 
  302   339     1 
  302   343     1 
  302   345     1 
  302   381     1 
  303   306     1 
  303   340     1 
  303   342     1 
  303   346     1 
  303   384     1 
  304   307     1 
  304   341     1 
  304   343     1 
  304   345     1 
  305   308     1 
  305   344     1 
  305   346     1 
  305   348     1 
  306   309     1 
  306   343     1 
  306   347     1 
  306   349     1 
  306   385     1 
  307   310     1 
  307   344     1 
  307   346     1 
  307   350     1 
  307   388     1 
  308   311     1 
  308   345     1 
  308   347     1 
  308   349     1 
  309   312     1 
  309   348     1 
  309   350     1 
  309   352     1 
  310   313     1 
  310   347     1 
  310   351     1 
  310   353     1 
  310   389     1 
  311   314     1 
  311   348     1 
  311   350     1 
  311   354     1 
  311   392     1 
  312   315     1 
  312   349     1 
  312   351     1 
  312   353     1 
  313   316     1 
  313   352     1 
  313   354     1 
  313   356     1 
  314   317     1 
  314   351     1 
  314   355     1 
  314   357     1 
  314   393     1 
  315   318     1 
  315   352     1 
  315   354     1 
  315   358     1 
  315   396     1 
  316   319     1 
  316   353     1 
  316   355     1 
  316   357     1 
  317   320     1 
  317   356     1 
  317   358     1 
  317   360     1 
  318   321     1 
  318   355     1 
  318   359     1 
  318   397     1 
  319   322     1 
  319   356     1 
  319   358     1 
  319   400     1 
  320   321     1 
  320   357     1 
  320   359     1 
  321   324     1 
  321   358     1 
  321   362     1 
  321   364     1 
  321   400     1 
  322   325     1 
  322   359     1 
  322   363     1 
  322   365     1 
  322   399     1 
  322   401     1 
  323   326     1 
  323   360     1 
  323   362     1 
  323   366     1 
  323   400     1 
  323   404     1 
  324   327     1 
  324   361     1 
  324   363     1 
  324   365     1 
  325   328     1 
  325   364     1 
  325   366     1 
  325   368     1 
  326   329     1 
  326   363     1 
  326   367     1 
  326   369     1 
  326   405     1 
  327   330     1 
  327   364     1 
  327   366     1 
  327   370     1 
  327   408     1 
  328   331     1 
  328   365     1 
  328   367     1 
  328   369     1 
  329   332     1 
  329   368     1 
  329   370     1 
  329   372     1 
  330   333     1 
  330   367     1 
  330   371     1 
  330   373     1 
  330   409     1 
  331   334     1 
  331   368     1 
  331   370     1 
  331   374     1 
  331   412     1 
  332   335     1 
  332   369     1 
  332   371     1 
  332   373     1 
  333   336     1 
  333   372     1 
  333   374     1 
  333   376     1 
  334   337     1 
  334   371     1 
  334   375     1 
  334   377     1 
  334   413     1 
  335   338     1 
  335   372     1 
  335   374     1 
  335   378     1 
  335   416     1 
  336   339     1 
  336   373     1 
  336   375     1 
  336   377     1 
  337   340     1 
  337   376     1 
  337   378     1 
  337   380     1 
  338   341     1 
  338   375     1 
  338   379     1 
  338   381     1 
  338   417     1 
  339   342     1 
  339   376     1 
  339   378     1 
  339   382     1 
  339   420     1 
  340   343     1 
  340   377     1 
  340   379     1 
  340   381     1 
  341   344     1 
  341   380     1 
  341   382     1 
  341   384     1 
  342   345     1 
  342   379     1 
  342   383     1 
  342   385     1 
  342   421     1 
  343   346     1 
  343   380     1 
  343   382     1 
  343   386     1 
  343   424     1 
  344   347     1 
  344   381     1 
  344   383     1 
  344   385     1 
  345   348     1 
  345   384     1 
  345   386     1 
  345   388     1 
  346   349     1 
  346   383     1 
  346   387     1 
  346   389     1 
  346   425     1 
  347   350     1 
  347   384     1 
  347   386     1 
  347   390     1 
  347   428     1 
  348   351     1 
  348   385     1 
  348   387     1 
  348   389     1 
  349   352     1 
  349   388     1 
  349   390     1 
  349   392     1 
  350   353     1 
  350   387     1 
  350   391     1 
  350   393     1 
  350   429     1 
  351   354     1 
  351   388     1 
  351   390     1 
  351   394     1 
  351   432     1 
  352   355     1 
  352   389     1 
  352   391     1 
  352   393     1 
  353   356     1 
  353   392     1 
  353   394     1 
  353   396     1 
  354   357     1 
  354   391     1 
  354   395     1 
  354   397     1 
  354   433     1 
  355   358     1 
  355   392     1 
  355   394     1 
  355   398     1 
  355   436     1 
  356   359     1 
  356   393     1 
  356   395     1 
  356   397     1 
  357   360     1 
  357   396     1 
  357   398     1 
  357   400     1 
  358   361     1 
  358   395     1 
  358   399     1 
  358   437     1 
  359   362     1 
  359   396     1 
  359   398     1 
  359   440     1 
  360   361     1 
  360   397     1 
  360   399     1 
  361   364     1 
  361   398     1 
  361   402     1 
  361   404     1 
  361   440     1 
  362   365     1 
  362   399     1 
  362   403     1 
  362   405     1 
  362   439     1 
  362   441     1 
  363   366     1 
  363   400     1 
  363   402     1 
  363   406     1 
  363   440     1 
  363   444     1 
  364   367     1 
  364   401     1 
  364   403     1 
  364   405     1 
  365   368     1 
  365   404     1 
  365   406     1 
  365   408     1 
  366   369     1 
  366   403     1 
  366   407     1 
  366   409     1 
  366   445     1 
  367   370     1 
  367   404     1 
  367   406     1 
  367   410     1 
  367   448     1 
  368   371     1 
  368   405     1 
  368   407     1 
  368   409     1 
  369   372     1 
  369   408     1 
  369   410     1 
  369   412     1 
  370   373     1 
  370   407     1 
  370   411     1 
  370   413     1 
  370   449     1 
  371   374     1 
  371   408     1 
  371   410     1 
  371   414     1 
  371   452     1 
  372   375     1 
  372   409     1 
  372   411     1 
  372   413     1 
  373   376     1 
  373   412     1 
  373   414     1 
  373   416     1 
  374   377     1 
  374   411     1 
  374   415     1 
  374   417     1 
  374   453     1 
  375   378     1 
  375   412     1 
  375   414     1 
  375   418     1 
  375   456     1 
  376   379     1 
  376   413     1 
  376   415     1 
  376   417     1 
  377   380     1 
  377   416     1 
  377   418     1 
  377   420     1 
  378   381     1 
  378   415     1 
  378   419     1 
  378   421     1 
  378   457     1 
  379   382     1 
  379   416     1 
  379   418     1 
  379   422     1 
  379   460     1 
  380   383     1 
  380   417     1 
  380   419     1 
  380   421     1 
  381   384     1 
  381   420     1 
  381   422     1 
  381   424     1 
  382   385     1 
  382   419     1 
  382   423     1 
  382   425     1 
  382   461     1 
  383   386     1 
  383   420     1 
  383   422     1 
  383   426     1 
  383   464     1 
  384   387     1 
  384   421     1 
  384   423     1 
  384   425     1 
  385   388     1 
  385   424     1 
  385   426     1 
  385   428     1 
  386   389     1 
  386   423     1 
  386   427     1 
  386   429     1 
  386   465     1 
  387   390     1 
  387   424     1 
  387   426     1 
  387   430     1 
  387   468     1 
  388   391     1 
  388   425     1 
  388   427     1 
  388   429     1 
  389   392     1 
  389   428     1 
  389   430     1 
  389   432     1 
  390   393     1 
  390   427     1 
  390   431     1 
  390   433     1 
  390   469     1 
  391   394     1 
  391   428     1 
  391   430     1 
  391   434     1 
  391   472     1 
  392   395     1 
  392   429     1 
  392   431     1 
  392   433     1 
  393   396     1 
  393   432     1 
  393   434     1 
  393   436     1 
  394   397     1 
  394   431     1 
  394   435     1 
  394   437     1 
  394   473     1 
  395   398     1 
  395   432     1 
  395   434     1 
  395   438     1 
  395   476     1 
  396   399     1 
  396   433     1 
  396   435     1 
  396   437     1 
  397   400     1 
  397   436     1 
  397   438     1 
  397   440     1 
  398   401     1 
  398   435     1 
  398   439     1 
  398   477     1 
  399   402     1 
  399   436     1 
  399   438     1 
  399   480     1 
  400   401     1 
  400   437     1 
  400   439     1 
  401   404     1 
  401   438     1 
  401   442     1 
  401   444     1 
  401   480     1 
  402   405     1 
  402   439     1 
  402   443     1 
  402   445     1 
  402   479     1 
  402   481     1 
  403   406     1 
  403   440     1 
  403   442     1 
  403   446     1 
  403   480     1 
  403   484     1 
  404   407     1 
  404   441     1 
  404   443     1 
  404   445     1 
  405   408     1 
  405   444     1 
  405   446     1 
  405   448     1 
  406   409     1 
  406   443     1 
  406   447     1 
  406   449     1 
  406   485     1 
  407   410     1 
  407   444     1 
  407   446     1 
  407   450     1 
  407   488     1 
  408   411     1 
  408   445     1 
  408   447     1 
  408   449     1 
  409   412     1 
  409   448     1 
  409   450     1 
  409   452     1 
  410   413     1 
  410   447     1 
  410   451     1 
  410   453     1 
  410   489     1 
  411   414     1 
  411   448     1 
  411   450     1 
  411   454     1 
  411   492     1 
  412   415     1 
  412   449     1 
  412   451     1 
  412   453     1 
  413   416     1 
  413   452     1 
  413   454     1 
  413   456     1 
  414   417     1 
  414   451     1 
  414   455     1 
  414   457     1 
  414   493     1 
  415   418     1 
  415   452     1 
  415   454     1 
  415   458     1 
  415   496     1 
  416   419     1 
  416   453     1 
  416   455     1 
  416   457     1 
  417   420     1 
  417   456     1 
  417   458     1 
  417   460     1 
  418   421     1 
  418   455     1 
  418   459     1 
  418   461     1 
  418   497     1 
  419   422     1 
  419   456     1 
  419   458     1 
  419   462     1 
  419   500     1 
  420   423     1 
  420   457     1 
  420   459     1 
  420   461     1 
  421   424     1 
  421   460     1 
  421   462     1 
  421   464     1 
  422   425     1 
  422   459     1 
  422   463     1 
  422   465     1 
  422   501     1 
  423   426     1 
  423   460     1 
  423   462     1 
  423   466     1 
  423   504     1 
  424   427     1 
  424   461     1 
  424   463     1 
  424   465     1 
  425   428     1 
  425   464     1 
  425   466     1 
  425   468     1 
  426   429     1 
  426   463     1 
  426   467     1 
  426   469     1 
  426   505     1 
  427   430     1 
  427   464     1 
  427   466     1 
  427   470     1 
  427   508     1 
  428   431     1 
  428   465     1 
  428   467     1 
  428   469     1 
  429   432     1 
  429   468     1 
  429   470     1 
  429   472     1 
  430   433     1 
  430   467     1 
  430   471     1 
  430   473     1 
  430   509     1 
  431   434     1 
  431   468     1 
  431   470     1 
  431   474     1 
  431   512     1 
  432   435     1 
  432   469     1 
  432   471     1 
  432   473     1 
  433   436     1 
  433   472     1 
  433   474     1 
  433   476     1 
  434   437     1 
  434   471     1 
  434   475     1 
  434   477     1 
  434   513     1 
  435   438     1 
  435   472     1 
  435   474     1 
  435   478     1 
  435   516     1 
  436   439     1 
  436   473     1 
  436   475     1 
  436   477     1 
  437   440     1 
  437   476     1 
  437   478     1 
  437   480     1 
  438   441     1 
  438   475     1 
  438   479     1 
  438   517     1 
  439   442     1 
  439   476     1 
  439   478     1 
  439   520     1 
  440   441     1 
  440   477     1 
  440   479     1 
  441   444     1 
  441   478     1 
  441   482     1 
  441   484     1 
  441   520     1 
  442   445     1 
  442   479     1 
  442   483     1 
  442   485     1 
  442   519     1 
  442   521     1 
  443   446     1 
  443   480     1 
  443   482     1 
  443   486     1 
  443   520     1 
  443   524     1 
  444   447     1 
  444   481     1 
  444   483     1 
  444   485     1 
  445   448     1 
  445   484     1 
  445   486     1 
  445   488     1 
  446   449     1 
  446   483     1 
  446   487     1 
  446   489     1 
  446   525     1 
  447   450     1 
  447   484     1 
  447   486     1 
  447   490     1 
  447   528     1 
  448   451     1 
  448   485     1 
  448   487     1 
  448   489     1 
  449   452     1 
  449   488     1 
  449   490     1 
  449   492     1 
  450   453     1 
  450   487     1 
  450   491     1 
  450   493     1 
  450   529     1 
  451   454     1 
  451   488     1 
  451   490     1 
  451   494     1 
  451   532     1 
  452   455     1 
  452   489     1 
  452   491     1 
  452   493     1 
  453   456     1 
  453   492     1 
  453   494     1 
  453   496     1 
  454   457     1 
  454   491     1 
  454   495     1 
  454   497     1 
  454   533     1 
  455   458     1 
  455   492     1 
  455   494     1 
  455   498     1 
  455   536     1 
  456   459     1 
  456   493     1 
  456   495     1 
  456   497     1 
  457   460     1 
  457   496     1 
  457   498     1 
  457   500     1 
  458   461     1 
  458   495     1 
  458   499     1 
  458   501     1 
  458   537     1 
  459   462     1 
  459   496     1 
  459   498     1 
  459   502     1 
  459   540     1 
  460   463     1 
  460   497     1 
  460   499     1 
  460   501     1 
  461   464     1 
  461   500     1 
  461   502     1 
  461   504     1 
  462   465     1 
  462   499     1 
  462   503     1 
  462   505     1 
  462   541     1 
  463   466     1 
  463   500     1 
  463   502     1 
  463   506     1 
  463   544     1 
  464   467     1 
  464   501     1 
  464   503     1 
  464   505     1 
  465   468     1 
  465   504     1 
  465   506     1 
  465   508     1 
  466   469     1 
  466   503     1 
  466   507     1 
  466   509     1 
  466   545     1 
  467   470     1 
  467   504     1 
  467   506     1 
  467   510     1 
  467   548     1 
  468   471     1 
  468   505     1 
  468   507     1 
  468   509     1 
  469   472     1 
  469   508     1 
  469   510     1 
  469   512     1 
  470   473     1 
  470   507     1 
  470   511     1 
  470   513     1 
  470   549     1 
  471   474     1 
  471   508     1 
  471   510     1 
  471   514     1 
  471   552     1 
  472   475     1 
  472   509     1 
  472   511     1 
  472   513     1 
  473   476     1 
  473   512     1 
  473   514     1 
  473   516     1 
  474   477     1 
  474   511     1 
  474   515     1 
  474   517     1 
  474   553     1 
  475   478     1 
  475   512     1 
  475   514     1 
  475   518     1 
  475   556     1 
  476   479     1 
  476   513     1 
  476   515     1 
  476   517     1 
  477   480     1 
  477   516     1 
  477   518     1 
  477   520     1 
  478   481     1 
  478   515     1 
  478   519     1 
  478   557     1 
  479   482     1 
  479   516     1 
  479   518     1 
  479   560     1 
  480   481     1 
  480   517     1 
  480   519     1 
  481   484     1 
  481   518     1 
  481   522     1 
  481   524     1 
  481   560     1 
  482   485     1 
  482   519     1 
  482   523     1 
  482   525     1 
  482   559     1 
  482   561     1 
  483   486     1 
  483   520     1 
  483   522     1 
  483   526     1 
  483   560     1 
  483   564     1 
  484   487     1 
  484   521     1 
  484   523     1 
  484   525     1 
  485   488     1 
  485   524     1 
  485   526     1 
  485   528     1 
  486   489     1 
  486   523     1 
  486   527     1 
  486   529     1 
  486   565     1 
  487   490     1 
  487   524     1 
  487   526     1 
  487   530     1 
  487   568     1 
  488   491     1 
  488   525     1 
  488   527     1 
  488   529     1 
  489   492     1 
  489   528     1 
  489   530     1 
  489   532     1 
  490   493     1 
  490   527     1 
  490   531     1 
  490   533     1 
  490   569     1 
  491   494     1 
  491   528     1 
  491   530     1 
  491   534     1 
  491   572     1 
  492   495     1 
  492   529     1 
  492   531     1 
  492   533     1 
  493   496     1 
  493   532     1 
  493   534     1 
  493   536     1 
  494   497     1 
  494   531     1 
  494   535     1 
  494   537     1 
  494   573     1 
  495   498     1 
  495   532     1 
  495   534     1 
  495   538     1 
  495   576     1 
  496   499     1 
  496   533     1 
  496   535     1 
  496   537     1 
  497   500     1 
  497   536     1 
  497   538     1 
  497   540     1 
  498   501     1 
  498   535     1 
  498   539     1 
  498   541     1 
  498   577     1 
  499   502     1 
  499   536     1 
  499   538     1 
  499   542     1 
  499   580     1 
  500   503     1 
  500   537     1 
  500   539     1 
  500   541     1 
  501   504     1 
  501   540     1 
  501   542     1 
  501   544     1 
  502   505     1 
  502   539     1 
  502   543     1 
  502   545     1 
  502   581     1 
  503   506     1 
  503   540     1 
  503   542     1 
  503   546     1 
  503   584     1 
  504   507     1 
  504   541     1 
  504   543     1 
  504   545     1 
  505   508     1 
  505   544     1 
  505   546     1 
  505   548     1 
  506   509     1 
  506   543     1 
  506   547     1 
  506   549     1 
  506   585     1 
  507   510     1 
  507   544     1 
  507   546     1 
  507   550     1 
  507   588     1 
  508   511     1 
  508   545     1 
  508   547     1 
  508   549     1 
  509   512     1 
  509   548     1 
  509   550     1 
  509   552     1 
  510   513     1 
  510   547     1 
  510   551     1 
  510   553     1 
  510   589     1 
  511   514     1 
  511   548     1 
  511   550     1 
  511   554     1 
  511   592     1 
  512   515     1 
  512   549     1 
  512   551     1 
  512   553     1 
  513   516     1 
  513   552     1 
  513   554     1 
  513   556     1 
  514   517     1 
  514   551     1 
  514   555     1 
  514   557     1 
  514   593     1 
  515   518     1 
  515   552     1 
  515   554     1 
  515   558     1 
  515   596     1 
  516   519     1 
  516   553     1 
  516   555     1 
  516   557     1 
  517   520     1 
  517   556     1 
  517   558     1 
  517   560     1 
  518   521     1 
  518   555     1 
  518   559     1 
  518   597     1 
  519   522     1 
  519   556     1 
  519   558     1 
  519   600     1 
  520   521     1 
  520   557     1 
  520   559     1 
  521   524     1 
  521   558     1 
  521   562     1 
  521   564     1 
  521   600     1 
  522   525     1 
  522   559     1 
  522   563     1 
  522   565     1 
  522   599     1 
  523   526     1 
  523   560     1 
  523   562     1 
  523   566     1 
  523   600     1 
  524   527     1 
  524   561     1 
  524   563     1 
  524   565     1 
  525   528     1 
  525   564     1 
  525   566     1 
  525   568     1 
  526   529     1 
  526   563     1 
  526   567     1 
  526   569     1 
  527   530     1 
  527   564     1 
  527   566     1 
  527   570     1 
  528   531     1 
  528   565     1 
  528   567     1 
  528   569     1 
  529   532     1 
  529   568     1 
  529   570     1 
  529   572     1 
  530   533     1 
  530   567     1 
  530   571     1 
  530   573     1 
  531   534     1 
  531   568     1 
  531   570     1 
  531   574     1 
  532   535     1 
  532   569     1 
  532   571     1 
  532   573     1 
  533   536     1 
  533   572     1 
  533   574     1 
  533   576     1 
  534   537     1 
  534   571     1 
  534   575     1 
  534   577     1 
  535   538     1 
  535   572     1 
  535   574     1 
  535   578     1 
  536   539     1 
  536   573     1 
  536   575     1 
  536   577     1 
  537   540     1 
  537   576     1 
  537   578     1 
  537   580     1 
  538   541     1 
  538   575     1 
  538   579     1 
  538   581     1 
  539   542     1 
  539   576     1 
  539   578     1 
  539   582     1 
  540   543     1 
  540   577     1 
  540   579     1 
  540   581     1 
  541   544     1 
  541   580     1 
  541   582     1 
  541   584     1 
  542   545     1 
  542   579     1 
  542   583     1 
  542   585     1 
  543   546     1 
  543   580     1 
  543   582     1 
  543   586     1 
  544   547     1 
  544   581     1 
  544   583     1 
  544   585     1 
  545   548     1 
  545   584     1 
  545   586     1 
  545   588     1 
  546   549     1 
  546   583     1 
  546   587     1 
  546   589     1 
  547   550     1 
  547   584     1 
  547   586     1 
  547   590     1 
  548   551     1 
  548   585     1 
  548   587     1 
  548   589     1 
  549   552     1 
  549   588     1 
  549   590     1 
  549   592     1 
  550   553     1 
  550   587     1 
  550   591     1 
  550   593     1 
  551   554     1 
  551   588     1 
  551   590     1 
  551   594     1 
  552   555     1 
  552   589     1 
  552   591     1 
  552   593     1 
  553   556     1 
  553   592     1 
  553   594     1 
  553   596     1 
  554   557     1 
  554   591     1 
  554   595     1 
  554   597     1 
  555   558     1 
  555   592     1 
  555   594     1 
  555   598     1 
  556   559     1 
  556   593     1 
  556   595     1 
  556   597     1 
  557   560     1 
  557   596     1 
  557   598     1 
  557   600     1 
  558   561     1 
  558   595     1 
  558   599     1 
  559   562     1 
  559   596     1 
  559   598     1 
  560   561     1 
  560   597     1 
  560   599     1 
  561   564     1 
  561   598     1 
  562   565     1 
  562   599     1 
  563   566     1 
  563   600     1 
  564   567     1 
  565   568     1 
  566   569     1 
  567   570     1 
  568   571     1 
  569   572     1 
  570   573     1 
  571   574     1 
  572   575     1 
  573   576     1 
  574   577     1 
  575   578     1 
  576   579     1 
  577   580     1 
  578   581     1 
  579   582     1 
  580   583     1 
  581   584     1 
  582   585     1 
  583   586     1 
  584   587     1 
  585   588     1 
  586   589     1 
  587   590     1 
  588   591     1 
  589   592     1 
  590   593     1 
  591   594     1 
  592   595     1 
  593   596     1 
  594   597     1 
  595   598     1 
  596   599     1 
  597   600     1 

[ angles ]
;  ai    aj    ak funct            c0            c1            c2            c3
    2     1    40     1  1.200000e+02  3.347200e+02  1.200000e+02  3.347200e+02 
    2     1   562     1  1.200000e+02  3.347200e+02  1.200000e+02  3.347200e+02 
   40     1   562     1  1.200000e+02  3.347200e+02  1.200000e+02  3.347200e+02 
    1     2     3     1  1.200000e+02  3.347200e+02  1.200000e+02  3.347200e+02 
    1     2    41     1  1.200000e+02  3.347200e+02  1.200000e+02  3.347200e+02 
    3     2    41     1  1.200000e+02  3.347200e+02  1.200000e+02  3.347200e+02 
    2     3     4     1  1.200000e+02  3.347200e+02  1.200000e+02  3.347200e+02 
    2     3    44     1  1.200000e+02  3.347200e+02  1.200000e+02  3.347200e+02 
    4     3    44     1  1.200000e+02  3.347200e+02  1.200000e+02  3.347200e+02 
    3     4     5     1  1.200000e+02  3.347200e+02  1.200000e+02  3.347200e+02 
    3     4   563     1  1.200000e+02  3.347200e+02  1.200000e+02  3.347200e+02 
    5     4   563     1  1.200000e+02  3.347200e+02  1.200000e+02  3.347200e+02 
    4     5     6     1  1.200000e+02  3.347200e+02  1.200000e+02  3.347200e+02 
    4     5   566     1  1.200000e+02  3.347200e+02  1.200000e+02  3.347200e+02 
    6     5   566     1  1.200000e+02  3.347200e+02  1.200000e+02  3.347200e+02 
    5     6     7     1  1.200000e+02  3.347200e+02  1.200000e+02  3.347200e+02 
    5     6    45     1  1.200000e+02  3.347200e+02  1.200000e+02  3.347200e+02 
    7     6    45     1  1.200000e+02  3.347200e+02  1.200000e+02  3.347200e+02 
    6     7     8     1  1.200000e+02  3.347200e+02  1.200000e+02  3.347200e+02 
    6     7    48     1  1.200000e+02  3.347200e+02  1.200000e+02  3.347200e+02 
    8     7    48     1  1.200000e+02  3.347200e+02  1.200000e+02  3.347200e+02 
    7     8     9     1  1.200000e+02  3.347200e+02  1.200000e+02  3.347200e+02 
    7     8   567     1  1.200000e+02  3.347200e+02  1.200000e+02  3.347200e+02 
    9     8   567     1  1.200000e+02  3.347200e+02  1.200000e+02  3.347200e+02 
    8     9    10     1  1.200000e+02  3.347200e+02  1.200000e+02  3.347200e+02 
    8     9   570     1  1.200000e+02  3.347200e+02  1.200000e+02  3.347200e+02 
   10     9   570     1  1.200000e+02  3.347200e+02  1.200000e+02  3.347200e+02 
    9    10    11     1  1.200000e+02  3.347200e+02  1.200000e+02  3.347200e+02 
    9    10    49     1  1.200000e+02  3.347200e+02  1.200000e+02  3.347200e+02 
   11    10    49     1  1.200000e+02  3.347200e+02  1.200000e+02  3.347200e+02 
   10    11    12     1  1.200000e+02  3.347200e+02  1.200000e+02  3.347200e+02 
   10    11    52     1  1.200000e+02  3.347200e+02  1.200000e+02  3.347200e+02 
   12    11    52     1  1.200000e+02  3.347200e+02  1.200000e+02  3.347200e+02 
   11    12    13     1  1.200000e+02  3.347200e+02  1.200000e+02  3.347200e+02 
   11    12   571     1  1.200000e+02  3.347200e+02  1.200000e+02  3.347200e+02 
   13    12   571     1  1.200000e+02  3.347200e+02  1.200000e+02  3.347200e+02 
   12    13    14     1  1.200000e+02  3.347200e+02  1.200000e+02  3.347200e+02 
   12    13   574     1  1.200000e+02  3.347200e+02  1.200000e+02  3.347200e+02 
   14    13   574     1  1.200000e+02  3.347200e+02  1.200000e+02  3.347200e+02 
   13    14    15     1  1.200000e+02  3.347200e+02  1.200000e+02  3.347200e+02 
   13    14    53     1  1.200000e+02  3.347200e+02  1.200000e+02  3.347200e+02 
   15    14    53     1  1.200000e+02  3.347200e+02  1.200000e+02  3.347200e+02 
   14    15    16     1  1.200000e+02  3.347200e+02  1.200000e+02  3.347200e+02 
   14    15    56     1  1.200000e+02  3.347200e+02  1.200000e+02  3.347200e+02 
   16    15    56     1  1.200000e+02  3.347200e+02  1.200000e+02  3.347200e+02 
   15    16    17     1  1.200000e+02  3.347200e+02  1.200000e+02  3.347200e+02 
   15    16   575     1  1.200000e+02  3.347200e+02  1.200000e+02  3.347200e+02 
   17    16   575     1  1.200000e+02  3.347200e+02  1.200000e+02  3.347200e+02 
   16    17    18     1  1.200000e+02  3.347200e+02  1.200000e+02  3.347200e+02 
   16    17   578     1  1.200000e+02  3.347200e+02  1.200000e+02  3.347200e+02 
   18    17   578     1  1.200000e+02  3.347200e+02  1.200000e+02  3.347200e+02 
   17    18    19     1  1.200000e+02  3.347200e+02  1.200000e+02  3.347200e+02 
   17    18    57     1  1.200000e+02  3.347200e+02  1.200000e+02  3.347200e+02 
   19    18    57     1  1.200000e+02  3.347200e+02  1.200000e+02  3.347200e+02 
   18    19    20     1  1.200000e+02  3.347200e+02  1.200000e+02  3.347200e+02 
   18    19    60     1  1.200000e+02  3.347200e+02  1.200000e+02  3.347200e+02 
   20    19    60     1  1.200000e+02  3.347200e+02  1.200000e+02  3.347200e+02 
   19    20    21     1  1.200000e+02  3.347200e+02  1.200000e+02  3.347200e+02 
   19    20   579     1  1.200000e+02  3.347200e+02  1.200000e+02  3.347200e+02 
   21    20   579     1  1.200000e+02  3.347200e+02  1.200000e+02  3.347200e+02 
   20    21    22     1  1.200000e+02  3.347200e+02  1.200000e+02  3.347200e+02 
   20    21   582     1  1.200000e+02  3.347200e+02  1.200000e+02  3.347200e+02 
   22    21   582     1  1.200000e+02  3.347200e+02  1.200000e+02  3.347200e+02 
   21    22    23     1  1.200000e+02  3.347200e+02  1.200000e+02  3.347200e+02 
   21    22    61     1  1.200000e+02  3.347200e+02  1.200000e+02  3.347200e+02 
   23    22    61     1  1.200000e+02  3.347200e+02  1.200000e+02  3.347200e+02 
   22    23    24     1  1.200000e+02  3.347200e+02  1.200000e+02  3.347200e+02 
   22    23    64     1  1.200000e+02  3.347200e+02  1.200000e+02  3.347200e+02 
   24    23    64     1  1.200000e+02  3.347200e+02  1.200000e+02  3.347200e+02 
   23    24    25     1  1.200000e+02  3.347200e+02  1.200000e+02  3.347200e+02 
   23    24   583     1  1.200000e+02  3.347200e+02  1.200000e+02  3.347200e+02 
   25    24   583     1  1.200000e+02  3.347200e+02  1.200000e+02  3.347200e+02 
   24    25    26     1  1.200000e+02  3.347200e+02  1.200000e+02  3.347200e+02 
   24    25   586     1  1.200000e+02  3.347200e+02  1.200000e+02  3.347200e+02 
   26    25   586     1  1.200000e+02  3.347200e+02  1.200000e+02  3.347200e+02 
   25    26    27     1  1.200000e+02  3.347200e+02  1.200000e+02  3.347200e+02 
   25    26    65     1  1.200000e+02  3.347200e+02  1.200000e+02  3.347200e+02 
   27    26    65     1  1.200000e+02  3.347200e+02  1.200000e+02  3.347200e+02 
   26    27    28     1  1.200000e+02  3.347200e+02  1.200000e+02  3.347200e+02 
   26    27    68     1  1.200000e+02  3.347200e+02  1.200000e+02  3.347200e+02 
   28    27    68     1  1.200000e+02  3.347200e+02  1.200000e+02  3.347200e+02 
   27    28    29     1  1.200000e+02  3.347200e+02  1.200000e+02  3.347200e+02 
   27    28   587     1  1.200000e+02  3.347200e+02  1.200000e+02  3.347200e+02 
   29    28   587     1  1.200000e+02  3.347200e+02  1.200000e+02  3.347200e+02 
   28    29    30     1  1.200000e+02  3.347200e+02  1.200000e+02  3.347200e+02 
   28    29   590     1  1.200000e+02  3.347200e+02  1.200000e+02  3.347200e+02 
   30    29   590     1  1.200000e+02  3.347200e+02  1.200000e+02  3.347200e+02 
   29    30    31     1  1.200000e+02  3.347200e+02  1.200000e+02  3.347200e+02 
   29    30    69     1  1.200000e+02  3.347200e+02  1.200000e+02  3.347200e+02 
   31    30    69     1  1.200000e+02  3.347200e+02  1.200000e+02  3.347200e+02 
   30    31    32     1  1.200000e+02  3.347200e+02  1.200000e+02  3.347200e+02 
   30    31    72     1  1.200000e+02  3.347200e+02  1.200000e+02  3.347200e+02 
   32    31    72     1  1.200000e+02  3.347200e+02  1.200000e+02  3.347200e+02 
   31    32    33     1  1.200000e+02  3.347200e+02  1.200000e+02  3.347200e+02 
   31    32   591     1  1.200000e+02  3.347200e+02  1.200000e+02  3.347200e+02 
   33    32   591     1  1.200000e+02  3.347200e+02  1.200000e+02  3.347200e+02 
   32    33    34     1  1.200000e+02  3.347200e+02  1.200000e+02  3.347200e+02 
   32    33   594     1  1.200000e+02  3.347200e+02  1.200000e+02  3.347200e+02 
   34    33   594     1  1.200000e+02  3.347200e+02  1.200000e+02  3.347200e+02 
   33    34    35     1  1.200000e+02  3.347200e+02  1.200000e+02  3.347200e+02 
   33    34    73     1  1.200000e+02  3.347200e+02  1.200000e+02  3.347200e+02 
   35    34    73     1  1.200000e+02  3.347200e+02  1.200000e+02  3.347200e+02 
   34    35    36     1  1.200000e+02  3.347200e+02  1.200000e+02  3.347200e+02 
   34    35    76     1  1.200000e+02  3.347200e+02  1.200000e+02  3.347200e+02 
   36    35    76     1  1.200000e+02  3.347200e+02  1.200000e+02  3.347200e+02 
   35    36    37     1  1.200000e+02  3.347200e+02  1.200000e+02  3.347200e+02 
   35    36   595     1  1.200000e+02  3.347200e+02  1.200000e+02  3.347200e+02 
   37    36   595     1  1.200000e+02  3.347200e+02  1.200000e+02  3.347200e+02 
   36    37    38     1  1.200000e+02  3.347200e+02  1.200000e+02  3.347200e+02 
   36    37   598     1  1.200000e+02  3.347200e+02  1.200000e+02  3.347200e+02 
   38    37   598     1  1.200000e+02  3.347200e+02  1.200000e+02  3.347200e+02 
   37    38    39     1  1.200000e+02  3.347200e+02  1.200000e+02  3.347200e+02 
   37    38    77     1  1.200000e+02  3.347200e+02  1.200000e+02  3.347200e+02 
   39    38    77     1  1.200000e+02  3.347200e+02  1.200000e+02  3.347200e+02 
   38    39    40     1  1.200000e+02  3.347200e+02  1.200000e+02  3.347200e+02 
   38    39    80     1  1.200000e+02  3.347200e+02  1.200000e+02  3.347200e+02 
   40    39    80     1  1.200000e+02  3.347200e+02  1.200000e+02  3.347200e+02 
    1    40    39     1  1.200000e+02  3.347200e+02  1.200000e+02  3.347200e+02 
    1    40   599     1  1.200000e+02  3.347200e+02  1.200000e+02  3.347200e+02 
   39    40   599     1  1.200000e+02  3.347200e+02  1.200000e+02  3.347200e+02 
    2    41    42     1  1.200000e+02  3.347200e+02  1.200000e+02  3.347200e+02 
    2    41    80     1  1.200000e+02  3.347200e+02  1.200000e+02  3.347200e+02 
   42    41    80     1  1.200000e+02  3.347200e+02  1.200000e+02  3.347200e+02 
   41    42    43     1  1.200000e+02  3.347200e+02  1.200000e+02  3.347200e+02 
   41    42    81     1  1.200000e+02  3.347200e+02  1.200000e+02  3.347200e+02 
   43    42    81     1  1.200000e+02  3.347200e+02  1.200000e+02  3.347200e+02 
   42    43    44     1  1.200000e+02  3.347200e+02  1.200000e+02  3.347200e+02 
   42    43    84     1  1.200000e+02  3.347200e+02  1.200000e+02  3.347200e+02 
   44    43    84     1  1.200000e+02  3.347200e+02  1.200000e+02  3.347200e+02 
    3    44    43     1  1.200000e+02  3.347200e+02  1.200000e+02  3.347200e+02 
    3    44    45     1  1.200000e+02  3.347200e+02  1.200000e+02  3.347200e+02 
   43    44    45     1  1.200000e+02  3.347200e+02  1.200000e+02  3.347200e+02 
    6    45    44     1  1.200000e+02  3.347200e+02  1.200000e+02  3.347200e+02 
    6    45    46     1  1.200000e+02  3.347200e+02  1.200000e+02  3.347200e+02 
   44    45    46     1  1.200000e+02  3.347200e+02  1.200000e+02  3.347200e+02 
   45    46    47     1  1.200000e+02  3.347200e+02  1.200000e+02  3.347200e+02 
   45    46    85     1  1.200000e+02  3.347200e+02  1.200000e+02  3.347200e+02 
   47    46    85     1  1.200000e+02  3.347200e+02  1.200000e+02  3.347200e+02 
   46    47    48     1  1.200000e+02  3.347200e+02  1.200000e+02  3.347200e+02 
   46    47    88     1  1.200000e+02  3.347200e+02  1.200000e+02  3.347200e+02 
   48    47    88     1  1.200000e+02  3.347200e+02  1.200000e+02  3.347200e+02 
    7    48    47     1  1.200000e+02  3.347200e+02  1.200000e+02  3.347200e+02 
    7    48    49     1  1.200000e+02  3.347200e+02  1.200000e+02  3.347200e+02 
   47    48    49     1  1.200000e+02  3.347200e+02  1.200000e+02  3.347200e+02 
   10    49    48     1  1.200000e+02  3.347200e+02  1.200000e+02  3.347200e+02 
   10    49    50     1  1.200000e+02  3.347200e+02  1.200000e+02  3.347200e+02 
   48    49    50     1  1.200000e+02  3.347200e+02  1.200000e+02  3.347200e+02 
   49    50    51     1  1.200000e+02  3.347200e+02  1.200000e+02  3.347200e+02 
   49    50    89     1  1.200000e+02  3.347200e+02  1.200000e+02  3.347200e+02 
   51    50    89     1  1.200000e+02  3.347200e+02  1.200000e+02  3.347200e+02 
   50    51    52     1  1.200000e+02  3.347200e+02  1.200000e+02  3.347200e+02 
   50    51    92     1  1.200000e+02  3.347200e+02  1.200000e+02  3.347200e+02 
   52    51    92     1  1.200000e+02  3.347200e+02  1.200000e+02  3.347200e+02 
   11    52    51     1  1.200000e+02  3.347200e+02  1.200000e+02  3.347200e+02 
   11    52    53     1  1.200000e+02  3.347200e+02  1.200000e+02  3.347200e+02 
   51    52    53     1  1.200000e+02  3.347200e+02  1.200000e+02  3.347200e+02 
   14    53    52     1  1.200000e+02  3.347200e+02  1.200000e+02  3.347200e+02 
   14    53    54     1  1.200000e+02  3.347200e+02  1.200000e+02  3.347200e+02 
   52    53    54     1  1.200000e+02  3.347200e+02  1.200000e+02  3.347200e+02 
   53    54    55     1  1.200000e+02  3.347200e+02  1.200000e+02  3.347200e+02 
   53    54    93     1  1.200000e+02  3.347200e+02  1.200000e+02  3.347200e+02 
   55    54    93     1  1.200000e+02  3.347200e+02  1.200000e+02  3.347200e+02 
   54    55    56     1  1.200000e+02  3.347200e+02  1.200000e+02  3.347200e+02 
   54    55    96     1  1.200000e+02  3.347200e+02  1.200000e+02  3.347200e+02 
   56    55    96     1  1.200000e+02  3.347200e+02  1.200000e+02  3.347200e+02 
   15    56    55     1  1.200000e+02  3.347200e+02  1.200000e+02  3.347200e+02 
   15    56    57     1  1.200000e+02  3.347200e+02  1.200000e+02  3.347200e+02 
   55    56    57     1  1.200000e+02  3.347200e+02  1.200000e+02  3.347200e+02 
   18    57    56     1  1.200000e+02  3.347200e+02  1.200000e+02  3.347200e+02 
   18    57    58     1  1.200000e+02  3.347200e+02  1.200000e+02  3.347200e+02 
   56    57    58     1  1.200000e+02  3.347200e+02  1.200000e+02  3.347200e+02 
   57    58    59     1  1.200000e+02  3.347200e+02  1.200000e+02  3.347200e+02 
   57    58    97     1  1.200000e+02  3.347200e+02  1.200000e+02  3.347200e+02 
   59    58    97     1  1.200000e+02  3.347200e+02  1.200000e+02  3.347200e+02 
   58    59    60     1  1.200000e+02  3.347200e+02  1.200000e+02  3.347200e+02 
   58    59   100     1  1.200000e+02  3.347200e+02  1.200000e+02  3.347200e+02 
   60    59   100     1  1.200000e+02  3.347200e+02  1.200000e+02  3.347200e+02 
   19    60    59     1  1.200000e+02  3.347200e+02  1.200000e+02  3.347200e+02 
   19    60    61     1  1.200000e+02  3.347200e+02  1.200000e+02  3.347200e+02 
   59    60    61     1  1.200000e+02  3.347200e+02  1.200000e+02  3.347200e+02 
   22    61    60     1  1.200000e+02  3.347200e+02  1.200000e+02  3.347200e+02 
   22    61    62     1  1.200000e+02  3.347200e+02  1.200000e+02  3.347200e+02 
   60    61    62     1  1.200000e+02  3.347200e+02  1.200000e+02  3.347200e+02 
   61    62    63     1  1.200000e+02  3.347200e+02  1.200000e+02  3.347200e+02 
   61    62   101     1  1.200000e+02  3.347200e+02  1.200000e+02  3.347200e+02 
   63    62   101     1  1.200000e+02  3.347200e+02  1.200000e+02  3.347200e+02 
   62    63    64     1  1.200000e+02  3.347200e+02  1.200000e+02  3.347200e+02 
   62    63   104     1  1.200000e+02  3.347200e+02  1.200000e+02  3.347200e+02 
   64    63   104     1  1.200000e+02  3.347200e+02  1.200000e+02  3.347200e+02 
   23    64    63     1  1.200000e+02  3.347200e+02  1.200000e+02  3.347200e+02 
   23    64    65     1  1.200000e+02  3.347200e+02  1.200000e+02  3.347200e+02 
   63    64    65     1  1.200000e+02  3.347200e+02  1.200000e+02  3.347200e+02 
   26    65    64     1  1.200000e+02  3.347200e+02  1.200000e+02  3.347200e+02 
   26    65    66     1  1.200000e+02  3.347200e+02  1.200000e+02  3.347200e+02 
   64    65    66     1  1.200000e+02  3.347200e+02  1.200000e+02  3.347200e+02 
   65    66    67     1  1.200000e+02  3.347200e+02  1.200000e+02  3.347200e+02 
   65    66   105     1  1.200000e+02  3.347200e+02  1.200000e+02  3.347200e+02 
   67    66   105     1  1.200000e+02  3.347200e+02  1.200000e+02  3.347200e+02 
   66    67    68     1  1.200000e+02  3.347200e+02  1.200000e+02  3.347200e+02 
   66    67   108     1  1.200000e+02  3.347200e+02  1.200000e+02  3.347200e+02 
   68    67   108     1  1.200000e+02  3.347200e+02  1.200000e+02  3.347200e+02 
   27    68    67     1  1.200000e+02  3.347200e+02  1.200000e+02  3.347200e+02 
   27    68    69     1  1.200000e+02  3.347200e+02  1.200000e+02  3.347200e+02 
   67    68    69     1  1.200000e+02  3.347200e+02  1.200000e+02  3.347200e+02 
   30    69    68     1  1.200000e+02  3.347200e+02  1.200000e+02  3.347200e+02 
   30    69    70     1  1.200000e+02  3.347200e+02  1.200000e+02  3.347200e+02 
   68    69    70     1  1.200000e+02  3.347200e+02  1.200000e+02  3.347200e+02 
   69    70    71     1  1.200000e+02  3.347200e+02  1.200000e+02  3.347200e+02 
   69    70   109     1  1.200000e+02  3.347200e+02  1.200000e+02  3.347200e+02 
   71    70   109     1  1.200000e+02  3.347200e+02  1.200000e+02  3.347200e+02 
   70    71    72     1  1.200000e+02  3.347200e+02  1.200000e+02  3.347200e+02 
   70    71   112     1  1.200000e+02  3.347200e+02  1.200000e+02  3.347200e+02 
   72    71   112     1  1.200000e+02  3.347200e+02  1.200000e+02  3.347200e+02 
   31    72    71     1  1.200000e+02  3.347200e+02  1.200000e+02  3.347200e+02 
   31    72    73     1  1.200000e+02  3.347200e+02  1.200000e+02  3.347200e+02 
   71    72    73     1  1.200000e+02  3.347200e+02  1.200000e+02  3.347200e+02 
   34    73    72     1  1.200000e+02  3.347200e+02  1.200000e+02  3.347200e+02 
   34    73    74     1  1.200000e+02  3.347200e+02  1.200000e+02  3.347200e+02 
   72    73    74     1  1.200000e+02  3.347200e+02  1.200000e+02  3.347200e+02 
   73    74    75     1  1.200000e+02  3.347200e+02  1.200000e+02  3.347200e+02 
   73    74   113     1  1.200000e+02  3.347200e+02  1.200000e+02  3.347200e+02 
   75    74   113     1  1.200000e+02  3.347200e+02  1.200000e+02  3.347200e+02 
   74    75    76     1  1.200000e+02  3.347200e+02  1.200000e+02  3.347200e+02 
   74    75   116     1  1.200000e+02  3.347200e+02  1.200000e+02  3.347200e+02 
   76    75   116     1  1.200000e+02  3.347200e+02  1.200000e+02  3.347200e+02 
   35    76    75     1  1.200000e+02  3.347200e+02  1.200000e+02  3.347200e+02 
   35    76    77     1  1.200000e+02  3.347200e+02  1.200000e+02  3.347200e+02 
   75    76    77     1  1.200000e+02  3.347200e+02  1.200000e+02  3.347200e+02 
   38    77    76     1  1.200000e+02  3.347200e+02  1.200000e+02  3.347200e+02 
   38    77    78     1  1.200000e+02  3.347200e+02  1.200000e+02  3.347200e+02 
   76    77    78     1  1.200000e+02  3.347200e+02  1.200000e+02  3.347200e+02 
   77    78    79     1  1.200000e+02  3.347200e+02  1.200000e+02  3.347200e+02 
   77    78   117     1  1.200000e+02  3.347200e+02  1.200000e+02  3.347200e+02 
   79    78   117     1  1.200000e+02  3.347200e+02  1.200000e+02  3.347200e+02 
   78    79    80     1  1.200000e+02  3.347200e+02  1.200000e+02  3.347200e+02 
   78    79   120     1  1.200000e+02  3.347200e+02  1.200000e+02  3.347200e+02 
   80    79   120     1  1.200000e+02  3.347200e+02  1.200000e+02  3.347200e+02 
   39    80    41     1  1.200000e+02  3.347200e+02  1.200000e+02  3.347200e+02 
   39    80    79     1  1.200000e+02  3.347200e+02  1.200000e+02  3.347200e+02 
   41    80    79     1  1.200000e+02  3.347200e+02  1.200000e+02  3.347200e+02 
   42    81    82     1  1.200000e+02  3.347200e+02  1.200000e+02  3.347200e+02 
   42    81   120     1  1.200000e+02  3.347200e+02  1.200000e+02  3.347200e+02 
   82    81   120     1  1.200000e+02  3.347200e+02  1.200000e+02  3.347200e+02 
   81    82    83     1  1.200000e+02  3.347200e+02  1.200000e+02  3.347200e+02 
   81    82   121     1  1.200000e+02  3.347200e+02  1.200000e+02  3.347200e+02 
   83    82   121     1  1.200000e+02  3.347200e+02  1.200000e+02  3.347200e+02 
   82    83    84     1  1.200000e+02  3.347200e+02  1.200000e+02  3.347200e+02 
   82    83   124     1  1.200000e+02  3.347200e+02  1.200000e+02  3.347200e+02 
   84    83   124     1  1.200000e+02  3.347200e+02  1.200000e+02  3.347200e+02 
   43    84    83     1  1.200000e+02  3.347200e+02  1.200000e+02  3.347200e+02 
   43    84    85     1  1.200000e+02  3.347200e+02  1.200000e+02  3.347200e+02 
   83    84    85     1  1.200000e+02  3.347200e+02  1.200000e+02  3.347200e+02 
   46    85    84     1  1.200000e+02  3.347200e+02  1.200000e+02  3.347200e+02 
   46    85    86     1  1.200000e+02  3.347200e+02  1.200000e+02  3.347200e+02 
   84    85    86     1  1.200000e+02  3.347200e+02  1.200000e+02  3.347200e+02 
   85    86    87     1  1.200000e+02  3.347200e+02  1.200000e+02  3.347200e+02 
   85    86   125     1  1.200000e+02  3.347200e+02  1.200000e+02  3.347200e+02 
   87    86   125     1  1.200000e+02  3.347200e+02  1.200000e+02  3.347200e+02 
   86    87    88     1  1.200000e+02  3.347200e+02  1.200000e+02  3.347200e+02 
   86    87   128     1  1.200000e+02  3.347200e+02  1.200000e+02  3.347200e+02 
   88    87   128     1  1.200000e+02  3.347200e+02  1.200000e+02  3.347200e+02 
   47    88    87     1  1.200000e+02  3.347200e+02  1.200000e+02  3.347200e+02 
   47    88    89     1  1.200000e+02  3.347200e+02  1.200000e+02  3.347200e+02 
   87    88    89     1  1.200000e+02  3.347200e+02  1.200000e+02  3.347200e+02 
   50    89    88     1  1.200000e+02  3.347200e+02  1.200000e+02  3.347200e+02 
   50    89    90     1  1.200000e+02  3.347200e+02  1.200000e+02  3.347200e+02 
   88    89    90     1  1.200000e+02  3.347200e+02  1.200000e+02  3.347200e+02 
   89    90    91     1  1.200000e+02  3.347200e+02  1.200000e+02  3.347200e+02 
   89    90   129     1  1.200000e+02  3.347200e+02  1.200000e+02  3.347200e+02 
   91    90   129     1  1.200000e+02  3.347200e+02  1.200000e+02  3.347200e+02 
   90    91    92     1  1.200000e+02  3.347200e+02  1.200000e+02  3.347200e+02 
   90    91   132     1  1.200000e+02  3.347200e+02  1.200000e+02  3.347200e+02 
   92    91   132     1  1.200000e+02  3.347200e+02  1.200000e+02  3.347200e+02 
   51    92    91     1  1.200000e+02  3.347200e+02  1.200000e+02  3.347200e+02 
   51    92    93     1  1.200000e+02  3.347200e+02  1.200000e+02  3.347200e+02 
   91    92    93     1  1.200000e+02  3.347200e+02  1.200000e+02  3.347200e+02 
   54    93    92     1  1.200000e+02  3.347200e+02  1.200000e+02  3.347200e+02 
   54    93    94     1  1.200000e+02  3.347200e+02  1.200000e+02  3.347200e+02 
   92    93    94     1  1.200000e+02  3.347200e+02  1.200000e+02  3.347200e+02 
   93    94    95     1  1.200000e+02  3.347200e+02  1.200000e+02  3.347200e+02 
   93    94   133     1  1.200000e+02  3.347200e+02  1.200000e+02  3.347200e+02 
   95    94   133     1  1.200000e+02  3.347200e+02  1.200000e+02  3.347200e+02 
   94    95    96     1  1.200000e+02  3.347200e+02  1.200000e+02  3.347200e+02 
   94    95   136     1  1.200000e+02  3.347200e+02  1.200000e+02  3.347200e+02 
   96    95   136     1  1.200000e+02  3.347200e+02  1.200000e+02  3.347200e+02 
   55    96    95     1  1.200000e+02  3.347200e+02  1.200000e+02  3.347200e+02 
   55    96    97     1  1.200000e+02  3.347200e+02  1.200000e+02  3.347200e+02 
   95    96    97     1  1.200000e+02  3.347200e+02  1.200000e+02  3.347200e+02 
   58    97    96     1  1.200000e+02  3.347200e+02  1.200000e+02  3.347200e+02 
   58    97    98     1  1.200000e+02  3.347200e+02  1.200000e+02  3.347200e+02 
   96    97    98     1  1.200000e+02  3.347200e+02  1.200000e+02  3.347200e+02 
   97    98    99     1  1.200000e+02  3.347200e+02  1.200000e+02  3.347200e+02 
   97    98   137     1  1.200000e+02  3.347200e+02  1.200000e+02  3.347200e+02 
   99    98   137     1  1.200000e+02  3.347200e+02  1.200000e+02  3.347200e+02 
   98    99   100     1  1.200000e+02  3.347200e+02  1.200000e+02  3.347200e+02 
   98    99   140     1  1.200000e+02  3.347200e+02  1.200000e+02  3.347200e+02 
  100    99   140     1  1.200000e+02  3.347200e+02  1.200000e+02  3.347200e+02 
   59   100    99     1  1.200000e+02  3.347200e+02  1.200000e+02  3.347200e+02 
   59   100   101     1  1.200000e+02  3.347200e+02  1.200000e+02  3.347200e+02 
   99   100   101     1  1.200000e+02  3.347200e+02  1.200000e+02  3.347200e+02 
   62   101   100     1  1.200000e+02  3.347200e+02  1.200000e+02  3.347200e+02 
   62   101   102     1  1.200000e+02  3.347200e+02  1.200000e+02  3.347200e+02 
  100   101   102     1  1.200000e+02  3.347200e+02  1.200000e+02  3.347200e+02 
  101   102   103     1  1.200000e+02  3.347200e+02  1.200000e+02  3.347200e+02 
  101   102   141     1  1.200000e+02  3.347200e+02  1.200000e+02  3.347200e+02 
  103   102   141     1  1.200000e+02  3.347200e+02  1.200000e+02  3.347200e+02 
  102   103   104     1  1.200000e+02  3.347200e+02  1.200000e+02  3.347200e+02 
  102   103   144     1  1.200000e+02  3.347200e+02  1.200000e+02  3.347200e+02 
  104   103   144     1  1.200000e+02  3.347200e+02  1.200000e+02  3.347200e+02 
   63   104   103     1  1.200000e+02  3.347200e+02  1.200000e+02  3.347200e+02 
   63   104   105     1  1.200000e+02  3.347200e+02  1.200000e+02  3.347200e+02 
  103   104   105     1  1.200000e+02  3.347200e+02  1.200000e+02  3.347200e+02 
   66   105   104     1  1.200000e+02  3.347200e+02  1.200000e+02  3.347200e+02 
   66   105   106     1  1.200000e+02  3.347200e+02  1.200000e+02  3.347200e+02 
  104   105   106     1  1.200000e+02  3.347200e+02  1.200000e+02  3.347200e+02 
  105   106   107     1  1.200000e+02  3.347200e+02  1.200000e+02  3.347200e+02 
  105   106   145     1  1.200000e+02  3.347200e+02  1.200000e+02  3.347200e+02 
  107   106   145     1  1.200000e+02  3.347200e+02  1.200000e+02  3.347200e+02 
  106   107   108     1  1.200000e+02  3.347200e+02  1.200000e+02  3.347200e+02 
  106   107   148     1  1.200000e+02  3.347200e+02  1.200000e+02  3.347200e+02 
  108   107   148     1  1.200000e+02  3.347200e+02  1.200000e+02  3.347200e+02 
   67   108   107     1  1.200000e+02  3.347200e+02  1.200000e+02  3.347200e+02 
   67   108   109     1  1.200000e+02  3.347200e+02  1.200000e+02  3.347200e+02 
  107   108   109     1  1.200000e+02  3.347200e+02  1.200000e+02  3.347200e+02 
   70   109   108     1  1.200000e+02  3.347200e+02  1.200000e+02  3.347200e+02 
   70   109   110     1  1.200000e+02  3.347200e+02  1.200000e+02  3.347200e+02 
  108   109   110     1  1.200000e+02  3.347200e+02  1.200000e+02  3.347200e+02 
  109   110   111     1  1.200000e+02  3.347200e+02  1.200000e+02  3.347200e+02 
  109   110   149     1  1.200000e+02  3.347200e+02  1.200000e+02  3.347200e+02 
  111   110   149     1  1.200000e+02  3.347200e+02  1.200000e+02  3.347200e+02 
  110   111   112     1  1.200000e+02  3.347200e+02  1.200000e+02  3.347200e+02 
  110   111   152     1  1.200000e+02  3.347200e+02  1.200000e+02  3.347200e+02 
  112   111   152     1  1.200000e+02  3.347200e+02  1.200000e+02  3.347200e+02 
   71   112   111     1  1.200000e+02  3.347200e+02  1.200000e+02  3.347200e+02 
   71   112   113     1  1.200000e+02  3.347200e+02  1.200000e+02  3.347200e+02 
  111   112   113     1  1.200000e+02  3.347200e+02  1.200000e+02  3.347200e+02 
   74   113   112     1  1.200000e+02  3.347200e+02  1.200000e+02  3.347200e+02 
   74   113   114     1  1.200000e+02  3.347200e+02  1.200000e+02  3.347200e+02 
  112   113   114     1  1.200000e+02  3.347200e+02  1.200000e+02  3.347200e+02 
  113   114   115     1  1.200000e+02  3.347200e+02  1.200000e+02  3.347200e+02 
  113   114   153     1  1.200000e+02  3.347200e+02  1.200000e+02  3.347200e+02 
  115   114   153     1  1.200000e+02  3.347200e+02  1.200000e+02  3.347200e+02 
  114   115   116     1  1.200000e+02  3.347200e+02  1.200000e+02  3.347200e+02 
  114   115   156     1  1.200000e+02  3.347200e+02  1.200000e+02  3.347200e+02 
  116   115   156     1  1.200000e+02  3.347200e+02  1.200000e+02  3.347200e+02 
   75   116   115     1  1.200000e+02  3.347200e+02  1.200000e+02  3.347200e+02 
   75   116   117     1  1.200000e+02  3.347200e+02  1.200000e+02  3.347200e+02 
  115   116   117     1  1.200000e+02  3.347200e+02  1.200000e+02  3.347200e+02 
   78   117   116     1  1.200000e+02  3.347200e+02  1.200000e+02  3.347200e+02 
   78   117   118     1  1.200000e+02  3.347200e+02  1.200000e+02  3.347200e+02 
  116   117   118     1  1.200000e+02  3.347200e+02  1.200000e+02  3.347200e+02 
  117   118   119     1  1.200000e+02  3.347200e+02  1.200000e+02  3.347200e+02 
  117   118   157     1  1.200000e+02  3.347200e+02  1.200000e+02  3.347200e+02 
  119   118   157     1  1.200000e+02  3.347200e+02  1.200000e+02  3.347200e+02 
  118   119   120     1  1.200000e+02  3.347200e+02  1.200000e+02  3.347200e+02 
  118   119   160     1  1.200000e+02  3.347200e+02  1.200000e+02  3.347200e+02 
  120   119   160     1  1.200000e+02  3.347200e+02  1.200000e+02  3.347200e+02 
   79   120    81     1  1.200000e+02  3.347200e+02  1.200000e+02  3.347200e+02 
   79   120   119     1  1.200000e+02  3.347200e+02  1.200000e+02  3.347200e+02 
   81   120   119     1  1.200000e+02  3.347200e+02  1.200000e+02  3.347200e+02 
   82   121   122     1  1.200000e+02  3.347200e+02  1.200000e+02  3.347200e+02 
   82   121   160     1  1.200000e+02  3.347200e+02  1.200000e+02  3.347200e+02 
  122   121   160     1  1.200000e+02  3.347200e+02  1.200000e+02  3.347200e+02 
  121   122   123     1  1.200000e+02  3.347200e+02  1.200000e+02  3.347200e+02 
  121   122   161     1  1.200000e+02  3.347200e+02  1.200000e+02  3.347200e+02 
  123   122   161     1  1.200000e+02  3.347200e+02  1.200000e+02  3.347200e+02 
  122   123   124     1  1.200000e+02  3.347200e+02  1.200000e+02  3.347200e+02 
  122   123   164     1  1.200000e+02  3.347200e+02  1.200000e+02  3.347200e+02 
  124   123   164     1  1.200000e+02  3.347200e+02  1.200000e+02  3.347200e+02 
   83   124   123     1  1.200000e+02  3.347200e+02  1.200000e+02  3.347200e+02 
   83   124   125     1  1.200000e+02  3.347200e+02  1.200000e+02  3.347200e+02 
  123   124   125     1  1.200000e+02  3.347200e+02  1.200000e+02  3.347200e+02 
   86   125   124     1  1.200000e+02  3.347200e+02  1.200000e+02  3.347200e+02 
   86   125   126     1  1.200000e+02  3.347200e+02  1.200000e+02  3.347200e+02 
  124   125   126     1  1.200000e+02  3.347200e+02  1.200000e+02  3.347200e+02 
  125   126   127     1  1.200000e+02  3.347200e+02  1.200000e+02  3.347200e+02 
  125   126   165     1  1.200000e+02  3.347200e+02  1.200000e+02  3.347200e+02 
  127   126   165     1  1.200000e+02  3.347200e+02  1.200000e+02  3.347200e+02 
  126   127   128     1  1.200000e+02  3.347200e+02  1.200000e+02  3.347200e+02 
  126   127   168     1  1.200000e+02  3.347200e+02  1.200000e+02  3.347200e+02 
  128   127   168     1  1.200000e+02  3.347200e+02  1.200000e+02  3.347200e+02 
   87   128   127     1  1.200000e+02  3.347200e+02  1.200000e+02  3.347200e+02 
   87   128   129     1  1.200000e+02  3.347200e+02  1.200000e+02  3.347200e+02 
  127   128   129     1  1.200000e+02  3.347200e+02  1.200000e+02  3.347200e+02 
   90   129   128     1  1.200000e+02  3.347200e+02  1.200000e+02  3.347200e+02 
   90   129   130     1  1.200000e+02  3.347200e+02  1.200000e+02  3.347200e+02 
  128   129   130     1  1.200000e+02  3.347200e+02  1.200000e+02  3.347200e+02 
  129   130   131     1  1.200000e+02  3.347200e+02  1.200000e+02  3.347200e+02 
  129   130   169     1  1.200000e+02  3.347200e+02  1.200000e+02  3.347200e+02 
  131   130   169     1  1.200000e+02  3.347200e+02  1.200000e+02  3.347200e+02 
  130   131   132     1  1.200000e+02  3.347200e+02  1.200000e+02  3.347200e+02 
  130   131   172     1  1.200000e+02  3.347200e+02  1.200000e+02  3.347200e+02 
  132   131   172     1  1.200000e+02  3.347200e+02  1.200000e+02  3.347200e+02 
   91   132   131     1  1.200000e+02  3.347200e+02  1.200000e+02  3.347200e+02 
   91   132   133     1  1.200000e+02  3.347200e+02  1.200000e+02  3.347200e+02 
  131   132   133     1  1.200000e+02  3.347200e+02  1.200000e+02  3.347200e+02 
   94   133   132     1  1.200000e+02  3.347200e+02  1.200000e+02  3.347200e+02 
   94   133   134     1  1.200000e+02  3.347200e+02  1.200000e+02  3.347200e+02 
  132   133   134     1  1.200000e+02  3.347200e+02  1.200000e+02  3.347200e+02 
  133   134   135     1  1.200000e+02  3.347200e+02  1.200000e+02  3.347200e+02 
  133   134   173     1  1.200000e+02  3.347200e+02  1.200000e+02  3.347200e+02 
  135   134   173     1  1.200000e+02  3.347200e+02  1.200000e+02  3.347200e+02 
  134   135   136     1  1.200000e+02  3.347200e+02  1.200000e+02  3.347200e+02 
  134   135   176     1  1.200000e+02  3.347200e+02  1.200000e+02  3.347200e+02 
  136   135   176     1  1.200000e+02  3.347200e+02  1.200000e+02  3.347200e+02 
   95   136   135     1  1.200000e+02  3.347200e+02  1.200000e+02  3.347200e+02 
   95   136   137     1  1.200000e+02  3.347200e+02  1.200000e+02  3.347200e+02 
  135   136   137     1  1.200000e+02  3.347200e+02  1.200000e+02  3.347200e+02 
   98   137   136     1  1.200000e+02  3.347200e+02  1.200000e+02  3.347200e+02 
   98   137   138     1  1.200000e+02  3.347200e+02  1.200000e+02  3.347200e+02 
  136   137   138     1  1.200000e+02  3.347200e+02  1.200000e+02  3.347200e+02 
  137   138   139     1  1.200000e+02  3.347200e+02  1.200000e+02  3.347200e+02 
  137   138   177     1  1.200000e+02  3.347200e+02  1.200000e+02  3.347200e+02 
  139   138   177     1  1.200000e+02  3.347200e+02  1.200000e+02  3.347200e+02 
  138   139   140     1  1.200000e+02  3.347200e+02  1.200000e+02  3.347200e+02 
  138   139   180     1  1.200000e+02  3.347200e+02  1.200000e+02  3.347200e+02 
  140   139   180     1  1.200000e+02  3.347200e+02  1.200000e+02  3.347200e+02 
   99   140   139     1  1.200000e+02  3.347200e+02  1.200000e+02  3.347200e+02 
   99   140   141     1  1.200000e+02  3.347200e+02  1.200000e+02  3.347200e+02 
  139   140   141     1  1.200000e+02  3.347200e+02  1.200000e+02  3.347200e+02 
  102   141   140     1  1.200000e+02  3.347200e+02  1.200000e+02  3.347200e+02 
  102   141   142     1  1.200000e+02  3.347200e+02  1.200000e+02  3.347200e+02 
  140   141   142     1  1.200000e+02  3.347200e+02  1.200000e+02  3.347200e+02 
  141   142   143     1  1.200000e+02  3.347200e+02  1.200000e+02  3.347200e+02 
  141   142   181     1  1.200000e+02  3.347200e+02  1.200000e+02  3.347200e+02 
  143   142   181     1  1.200000e+02  3.347200e+02  1.200000e+02  3.347200e+02 
  142   143   144     1  1.200000e+02  3.347200e+02  1.200000e+02  3.347200e+02 
  142   143   184     1  1.200000e+02  3.347200e+02  1.200000e+02  3.347200e+02 
  144   143   184     1  1.200000e+02  3.347200e+02  1.200000e+02  3.347200e+02 
  103   144   143     1  1.200000e+02  3.347200e+02  1.200000e+02  3.347200e+02 
  103   144   145     1  1.200000e+02  3.347200e+02  1.200000e+02  3.347200e+02 
  143   144   145     1  1.200000e+02  3.347200e+02  1.200000e+02  3.347200e+02 
  106   145   144     1  1.200000e+02  3.347200e+02  1.200000e+02  3.347200e+02 
  106   145   146     1  1.200000e+02  3.347200e+02  1.200000e+02  3.347200e+02 
  144   145   146     1  1.200000e+02  3.347200e+02  1.200000e+02  3.347200e+02 
  145   146   147     1  1.200000e+02  3.347200e+02  1.200000e+02  3.347200e+02 
  145   146   185     1  1.200000e+02  3.347200e+02  1.200000e+02  3.347200e+02 
  147   146   185     1  1.200000e+02  3.347200e+02  1.200000e+02  3.347200e+02 
  146   147   148     1  1.200000e+02  3.347200e+02  1.200000e+02  3.347200e+02 
  146   147   188     1  1.200000e+02  3.347200e+02  1.200000e+02  3.347200e+02 
  148   147   188     1  1.200000e+02  3.347200e+02  1.200000e+02  3.347200e+02 
  107   148   147     1  1.200000e+02  3.347200e+02  1.200000e+02  3.347200e+02 
  107   148   149     1  1.200000e+02  3.347200e+02  1.200000e+02  3.347200e+02 
  147   148   149     1  1.200000e+02  3.347200e+02  1.200000e+02  3.347200e+02 
  110   149   148     1  1.200000e+02  3.347200e+02  1.200000e+02  3.347200e+02 
  110   149   150     1  1.200000e+02  3.347200e+02  1.200000e+02  3.347200e+02 
  148   149   150     1  1.200000e+02  3.347200e+02  1.200000e+02  3.347200e+02 
  149   150   151     1  1.200000e+02  3.347200e+02  1.200000e+02  3.347200e+02 
  149   150   189     1  1.200000e+02  3.347200e+02  1.200000e+02  3.347200e+02 
  151   150   189     1  1.200000e+02  3.347200e+02  1.200000e+02  3.347200e+02 
  150   151   152     1  1.200000e+02  3.347200e+02  1.200000e+02  3.347200e+02 
  150   151   192     1  1.200000e+02  3.347200e+02  1.200000e+02  3.347200e+02 
  152   151   192     1  1.200000e+02  3.347200e+02  1.200000e+02  3.347200e+02 
  111   152   151     1  1.200000e+02  3.347200e+02  1.200000e+02  3.347200e+02 
  111   152   153     1  1.200000e+02  3.347200e+02  1.200000e+02  3.347200e+02 
  151   152   153     1  1.200000e+02  3.347200e+02  1.200000e+02  3.347200e+02 
  114   153   152     1  1.200000e+02  3.347200e+02  1.200000e+02  3.347200e+02 
  114   153   154     1  1.200000e+02  3.347200e+02  1.200000e+02  3.347200e+02 
  152   153   154     1  1.200000e+02  3.347200e+02  1.200000e+02  3.347200e+02 
  153   154   155     1  1.200000e+02  3.347200e+02  1.200000e+02  3.347200e+02 
  153   154   193     1  1.200000e+02  3.347200e+02  1.200000e+02  3.347200e+02 
  155   154   193     1  1.200000e+02  3.347200e+02  1.200000e+02  3.347200e+02 
  154   155   156     1  1.200000e+02  3.347200e+02  1.200000e+02  3.347200e+02 
  154   155   196     1  1.200000e+02  3.347200e+02  1.200000e+02  3.347200e+02 
  156   155   196     1  1.200000e+02  3.347200e+02  1.200000e+02  3.347200e+02 
  115   156   155     1  1.200000e+02  3.347200e+02  1.200000e+02  3.347200e+02 
  115   156   157     1  1.200000e+02  3.347200e+02  1.200000e+02  3.347200e+02 
  155   156   157     1  1.200000e+02  3.347200e+02  1.200000e+02  3.347200e+02 
  118   157   156     1  1.200000e+02  3.347200e+02  1.200000e+02  3.347200e+02 
  118   157   158     1  1.200000e+02  3.347200e+02  1.200000e+02  3.347200e+02 
  156   157   158     1  1.200000e+02  3.347200e+02  1.200000e+02  3.347200e+02 
  157   158   159     1  1.200000e+02  3.347200e+02  1.200000e+02  3.347200e+02 
  157   158   197     1  1.200000e+02  3.347200e+02  1.200000e+02  3.347200e+02 
  159   158   197     1  1.200000e+02  3.347200e+02  1.200000e+02  3.347200e+02 
  158   159   160     1  1.200000e+02  3.347200e+02  1.200000e+02  3.347200e+02 
  158   159   200     1  1.200000e+02  3.347200e+02  1.200000e+02  3.347200e+02 
  160   159   200     1  1.200000e+02  3.347200e+02  1.200000e+02  3.347200e+02 
  119   160   121     1  1.200000e+02  3.347200e+02  1.200000e+02  3.347200e+02 
  119   160   159     1  1.200000e+02  3.347200e+02  1.200000e+02  3.347200e+02 
  121   160   159     1  1.200000e+02  3.347200e+02  1.200000e+02  3.347200e+02 
  122   161   162     1  1.200000e+02  3.347200e+02  1.200000e+02  3.347200e+02 
  122   161   200     1  1.200000e+02  3.347200e+02  1.200000e+02  3.347200e+02 
  162   161   200     1  1.200000e+02  3.347200e+02  1.200000e+02  3.347200e+02 
  161   162   163     1  1.200000e+02  3.347200e+02  1.200000e+02  3.347200e+02 
  161   162   201     1  1.200000e+02  3.347200e+02  1.200000e+02  3.347200e+02 
  163   162   201     1  1.200000e+02  3.347200e+02  1.200000e+02  3.347200e+02 
  162   163   164     1  1.200000e+02  3.347200e+02  1.200000e+02  3.347200e+02 
  162   163   204     1  1.200000e+02  3.347200e+02  1.200000e+02  3.347200e+02 
  164   163   204     1  1.200000e+02  3.347200e+02  1.200000e+02  3.347200e+02 
  123   164   163     1  1.200000e+02  3.347200e+02  1.200000e+02  3.347200e+02 
  123   164   165     1  1.200000e+02  3.347200e+02  1.200000e+02  3.347200e+02 
  163   164   165     1  1.200000e+02  3.347200e+02  1.200000e+02  3.347200e+02 
  126   165   164     1  1.200000e+02  3.347200e+02  1.200000e+02  3.347200e+02 
  126   165   166     1  1.200000e+02  3.347200e+02  1.200000e+02  3.347200e+02 
  164   165   166     1  1.200000e+02  3.347200e+02  1.200000e+02  3.347200e+02 
  165   166   167     1  1.200000e+02  3.347200e+02  1.200000e+02  3.347200e+02 
  165   166   205     1  1.200000e+02  3.347200e+02  1.200000e+02  3.347200e+02 
  167   166   205     1  1.200000e+02  3.347200e+02  1.200000e+02  3.347200e+02 
  166   167   168     1  1.200000e+02  3.347200e+02  1.200000e+02  3.347200e+02 
  166   167   208     1  1.200000e+02  3.347200e+02  1.200000e+02  3.347200e+02 
  168   167   208     1  1.200000e+02  3.347200e+02  1.200000e+02  3.347200e+02 
  127   168   167     1  1.200000e+02  3.347200e+02  1.200000e+02  3.347200e+02 
  127   168   169     1  1.200000e+02  3.347200e+02  1.200000e+02  3.347200e+02 
  167   168   169     1  1.200000e+02  3.347200e+02  1.200000e+02  3.347200e+02 
  130   169   168     1  1.200000e+02  3.347200e+02  1.200000e+02  3.347200e+02 
  130   169   170     1  1.200000e+02  3.347200e+02  1.200000e+02  3.347200e+02 
  168   169   170     1  1.200000e+02  3.347200e+02  1.200000e+02  3.347200e+02 
  169   170   171     1  1.200000e+02  3.347200e+02  1.200000e+02  3.347200e+02 
  169   170   209     1  1.200000e+02  3.347200e+02  1.200000e+02  3.347200e+02 
  171   170   209     1  1.200000e+02  3.347200e+02  1.200000e+02  3.347200e+02 
  170   171   172     1  1.200000e+02  3.347200e+02  1.200000e+02  3.347200e+02 
  170   171   212     1  1.200000e+02  3.347200e+02  1.200000e+02  3.347200e+02 
  172   171   212     1  1.200000e+02  3.347200e+02  1.200000e+02  3.347200e+02 
  131   172   171     1  1.200000e+02  3.347200e+02  1.200000e+02  3.347200e+02 
  131   172   173     1  1.200000e+02  3.347200e+02  1.200000e+02  3.347200e+02 
  171   172   173     1  1.200000e+02  3.347200e+02  1.200000e+02  3.347200e+02 
  134   173   172     1  1.200000e+02  3.347200e+02  1.200000e+02  3.347200e+02 
  134   173   174     1  1.200000e+02  3.347200e+02  1.200000e+02  3.347200e+02 
  172   173   174     1  1.200000e+02  3.347200e+02  1.200000e+02  3.347200e+02 
  173   174   175     1  1.200000e+02  3.347200e+02  1.200000e+02  3.347200e+02 
  173   174   213     1  1.200000e+02  3.347200e+02  1.200000e+02  3.347200e+02 
  175   174   213     1  1.200000e+02  3.347200e+02  1.200000e+02  3.347200e+02 
  174   175   176     1  1.200000e+02  3.347200e+02  1.200000e+02  3.347200e+02 
  174   175   216     1  1.200000e+02  3.347200e+02  1.200000e+02  3.347200e+02 
  176   175   216     1  1.200000e+02  3.347200e+02  1.200000e+02  3.347200e+02 
  135   176   175     1  1.200000e+02  3.347200e+02  1.200000e+02  3.347200e+02 
  135   176   177     1  1.200000e+02  3.347200e+02  1.200000e+02  3.347200e+02 
  175   176   177     1  1.200000e+02  3.347200e+02  1.200000e+02  3.347200e+02 
  138   177   176     1  1.200000e+02  3.347200e+02  1.200000e+02  3.347200e+02 
  138   177   178     1  1.200000e+02  3.347200e+02  1.200000e+02  3.347200e+02 
  176   177   178     1  1.200000e+02  3.347200e+02  1.200000e+02  3.347200e+02 
  177   178   179     1  1.200000e+02  3.347200e+02  1.200000e+02  3.347200e+02 
  177   178   217     1  1.200000e+02  3.347200e+02  1.200000e+02  3.347200e+02 
  179   178   217     1  1.200000e+02  3.347200e+02  1.200000e+02  3.347200e+02 
  178   179   180     1  1.200000e+02  3.347200e+02  1.200000e+02  3.347200e+02 
  178   179   220     1  1.200000e+02  3.347200e+02  1.200000e+02  3.347200e+02 
  180   179   220     1  1.200000e+02  3.347200e+02  1.200000e+02  3.347200e+02 
  139   180   179     1  1.200000e+02  3.347200e+02  1.200000e+02  3.347200e+02 
  139   180   181     1  1.200000e+02  3.347200e+02  1.200000e+02  3.347200e+02 
  179   180   181     1  1.200000e+02  3.347200e+02  1.200000e+02  3.347200e+02 
  142   181   180     1  1.200000e+02  3.347200e+02  1.200000e+02  3.347200e+02 
  142   181   182     1  1.200000e+02  3.347200e+02  1.200000e+02  3.347200e+02 
  180   181   182     1  1.200000e+02  3.347200e+02  1.200000e+02  3.347200e+02 
  181   182   183     1  1.200000e+02  3.347200e+02  1.200000e+02  3.347200e+02 
  181   182   221     1  1.200000e+02  3.347200e+02  1.200000e+02  3.347200e+02 
  183   182   221     1  1.200000e+02  3.347200e+02  1.200000e+02  3.347200e+02 
  182   183   184     1  1.200000e+02  3.347200e+02  1.200000e+02  3.347200e+02 
  182   183   224     1  1.200000e+02  3.347200e+02  1.200000e+02  3.347200e+02 
  184   183   224     1  1.200000e+02  3.347200e+02  1.200000e+02  3.347200e+02 
  143   184   183     1  1.200000e+02  3.347200e+02  1.200000e+02  3.347200e+02 
  143   184   185     1  1.200000e+02  3.347200e+02  1.200000e+02  3.347200e+02 
  183   184   185     1  1.200000e+02  3.347200e+02  1.200000e+02  3.347200e+02 
  146   185   184     1  1.200000e+02  3.347200e+02  1.200000e+02  3.347200e+02 
  146   185   186     1  1.200000e+02  3.347200e+02  1.200000e+02  3.347200e+02 
  184   185   186     1  1.200000e+02  3.347200e+02  1.200000e+02  3.347200e+02 
  185   186   187     1  1.200000e+02  3.347200e+02  1.200000e+02  3.347200e+02 
  185   186   225     1  1.200000e+02  3.347200e+02  1.200000e+02  3.347200e+02 
  187   186   225     1  1.200000e+02  3.347200e+02  1.200000e+02  3.347200e+02 
  186   187   188     1  1.200000e+02  3.347200e+02  1.200000e+02  3.347200e+02 
  186   187   228     1  1.200000e+02  3.347200e+02  1.200000e+02  3.347200e+02 
  188   187   228     1  1.200000e+02  3.347200e+02  1.200000e+02  3.347200e+02 
  147   188   187     1  1.200000e+02  3.347200e+02  1.200000e+02  3.347200e+02 
  147   188   189     1  1.200000e+02  3.347200e+02  1.200000e+02  3.347200e+02 
  187   188   189     1  1.200000e+02  3.347200e+02  1.200000e+02  3.347200e+02 
  150   189   188     1  1.200000e+02  3.347200e+02  1.200000e+02  3.347200e+02 
  150   189   190     1  1.200000e+02  3.347200e+02  1.200000e+02  3.347200e+02 
  188   189   190     1  1.200000e+02  3.347200e+02  1.200000e+02  3.347200e+02 
  189   190   191     1  1.200000e+02  3.347200e+02  1.200000e+02  3.347200e+02 
  189   190   229     1  1.200000e+02  3.347200e+02  1.200000e+02  3.347200e+02 
  191   190   229     1  1.200000e+02  3.347200e+02  1.200000e+02  3.347200e+02 
  190   191   192     1  1.200000e+02  3.347200e+02  1.200000e+02  3.347200e+02 
  190   191   232     1  1.200000e+02  3.347200e+02  1.200000e+02  3.347200e+02 
  192   191   232     1  1.200000e+02  3.347200e+02  1.200000e+02  3.347200e+02 
  151   192   191     1  1.200000e+02  3.347200e+02  1.200000e+02  3.347200e+02 
  151   192   193     1  1.200000e+02  3.347200e+02  1.200000e+02  3.347200e+02 
  191   192   193     1  1.200000e+02  3.347200e+02  1.200000e+02  3.347200e+02 
  154   193   192     1  1.200000e+02  3.347200e+02  1.200000e+02  3.347200e+02 
  154   193   194     1  1.200000e+02  3.347200e+02  1.200000e+02  3.347200e+02 
  192   193   194     1  1.200000e+02  3.347200e+02  1.200000e+02  3.347200e+02 
  193   194   195     1  1.200000e+02  3.347200e+02  1.200000e+02  3.347200e+02 
  193   194   233     1  1.200000e+02  3.347200e+02  1.200000e+02  3.347200e+02 
  195   194   233     1  1.200000e+02  3.347200e+02  1.200000e+02  3.347200e+02 
  194   195   196     1  1.200000e+02  3.347200e+02  1.200000e+02  3.347200e+02 
  194   195   236     1  1.200000e+02  3.347200e+02  1.200000e+02  3.347200e+02 
  196   195   236     1  1.200000e+02  3.347200e+02  1.200000e+02  3.347200e+02 
  155   196   195     1  1.200000e+02  3.347200e+02  1.200000e+02  3.347200e+02 
  155   196   197     1  1.200000e+02  3.347200e+02  1.200000e+02  3.347200e+02 
  195   196   197     1  1.200000e+02  3.347200e+02  1.200000e+02  3.347200e+02 
  158   197   196     1  1.200000e+02  3.347200e+02  1.200000e+02  3.347200e+02 
  158   197   198     1  1.200000e+02  3.347200e+02  1.200000e+02  3.347200e+02 
  196   197   198     1  1.200000e+02  3.347200e+02  1.200000e+02  3.347200e+02 
  197   198   199     1  1.200000e+02  3.347200e+02  1.200000e+02  3.347200e+02 
  197   198   237     1  1.200000e+02  3.347200e+02  1.200000e+02  3.347200e+02 
  199   198   237     1  1.200000e+02  3.347200e+02  1.200000e+02  3.347200e+02 
  198   199   200     1  1.200000e+02  3.347200e+02  1.200000e+02  3.347200e+02 
  198   199   240     1  1.200000e+02  3.347200e+02  1.200000e+02  3.347200e+02 
  200   199   240     1  1.200000e+02  3.347200e+02  1.200000e+02  3.347200e+02 
  159   200   161     1  1.200000e+02  3.347200e+02  1.200000e+02  3.347200e+02 
  159   200   199     1  1.200000e+02  3.347200e+02  1.200000e+02  3.347200e+02 
  161   200   199     1  1.200000e+02  3.347200e+02  1.200000e+02  3.347200e+02 
  162   201   202     1  1.200000e+02  3.347200e+02  1.200000e+02  3.347200e+02 
  162   201   240     1  1.200000e+02  3.347200e+02  1.200000e+02  3.347200e+02 
  202   201   240     1  1.200000e+02  3.347200e+02  1.200000e+02  3.347200e+02 
  201   202   203     1  1.200000e+02  3.347200e+02  1.200000e+02  3.347200e+02 
  201   202   241     1  1.200000e+02  3.347200e+02  1.200000e+02  3.347200e+02 
  203   202   241     1  1.200000e+02  3.347200e+02  1.200000e+02  3.347200e+02 
  202   203   204     1  1.200000e+02  3.347200e+02  1.200000e+02  3.347200e+02 
  202   203   244     1  1.200000e+02  3.347200e+02  1.200000e+02  3.347200e+02 
  204   203   244     1  1.200000e+02  3.347200e+02  1.200000e+02  3.347200e+02 
  163   204   203     1  1.200000e+02  3.347200e+02  1.200000e+02  3.347200e+02 
  163   204   205     1  1.200000e+02  3.347200e+02  1.200000e+02  3.347200e+02 
  203   204   205     1  1.200000e+02  3.347200e+02  1.200000e+02  3.347200e+02 
  166   205   204     1  1.200000e+02  3.347200e+02  1.200000e+02  3.347200e+02 
  166   205   206     1  1.200000e+02  3.347200e+02  1.200000e+02  3.347200e+02 
  204   205   206     1  1.200000e+02  3.347200e+02  1.200000e+02  3.347200e+02 
  205   206   207     1  1.200000e+02  3.347200e+02  1.200000e+02  3.347200e+02 
  205   206   245     1  1.200000e+02  3.347200e+02  1.200000e+02  3.347200e+02 
  207   206   245     1  1.200000e+02  3.347200e+02  1.200000e+02  3.347200e+02 
  206   207   208     1  1.200000e+02  3.347200e+02  1.200000e+02  3.347200e+02 
  206   207   248     1  1.200000e+02  3.347200e+02  1.200000e+02  3.347200e+02 
  208   207   248     1  1.200000e+02  3.347200e+02  1.200000e+02  3.347200e+02 
  167   208   207     1  1.200000e+02  3.347200e+02  1.200000e+02  3.347200e+02 
  167   208   209     1  1.200000e+02  3.347200e+02  1.200000e+02  3.347200e+02 
  207   208   209     1  1.200000e+02  3.347200e+02  1.200000e+02  3.347200e+02 
  170   209   208     1  1.200000e+02  3.347200e+02  1.200000e+02  3.347200e+02 
  170   209   210     1  1.200000e+02  3.347200e+02  1.200000e+02  3.347200e+02 
  208   209   210     1  1.200000e+02  3.347200e+02  1.200000e+02  3.347200e+02 
  209   210   211     1  1.200000e+02  3.347200e+02  1.200000e+02  3.347200e+02 
  209   210   249     1  1.200000e+02  3.347200e+02  1.200000e+02  3.347200e+02 
  211   210   249     1  1.200000e+02  3.347200e+02  1.200000e+02  3.347200e+02 
  210   211   212     1  1.200000e+02  3.347200e+02  1.200000e+02  3.347200e+02 
  210   211   252     1  1.200000e+02  3.347200e+02  1.200000e+02  3.347200e+02 
  212   211   252     1  1.200000e+02  3.347200e+02  1.200000e+02  3.347200e+02 
  171   212   211     1  1.200000e+02  3.347200e+02  1.200000e+02  3.347200e+02 
  171   212   213     1  1.200000e+02  3.347200e+02  1.200000e+02  3.347200e+02 
  211   212   213     1  1.200000e+02  3.347200e+02  1.200000e+02  3.347200e+02 
  174   213   212     1  1.200000e+02  3.347200e+02  1.200000e+02  3.347200e+02 
  174   213   214     1  1.200000e+02  3.347200e+02  1.200000e+02  3.347200e+02 
  212   213   214     1  1.200000e+02  3.347200e+02  1.200000e+02  3.347200e+02 
  213   214   215     1  1.200000e+02  3.347200e+02  1.200000e+02  3.347200e+02 
  213   214   253     1  1.200000e+02  3.347200e+02  1.200000e+02  3.347200e+02 
  215   214   253     1  1.200000e+02  3.347200e+02  1.200000e+02  3.347200e+02 
  214   215   216     1  1.200000e+02  3.347200e+02  1.200000e+02  3.347200e+02 
  214   215   256     1  1.200000e+02  3.347200e+02  1.200000e+02  3.347200e+02 
  216   215   256     1  1.200000e+02  3.347200e+02  1.200000e+02  3.347200e+02 
  175   216   215     1  1.200000e+02  3.347200e+02  1.200000e+02  3.347200e+02 
  175   216   217     1  1.200000e+02  3.347200e+02  1.200000e+02  3.347200e+02 
  215   216   217     1  1.200000e+02  3.347200e+02  1.200000e+02  3.347200e+02 
  178   217   216     1  1.200000e+02  3.347200e+02  1.200000e+02  3.347200e+02 
  178   217   218     1  1.200000e+02  3.347200e+02  1.200000e+02  3.347200e+02 
  216   217   218     1  1.200000e+02  3.347200e+02  1.200000e+02  3.347200e+02 
  217   218   219     1  1.200000e+02  3.347200e+02  1.200000e+02  3.347200e+02 
  217   218   257     1  1.200000e+02  3.347200e+02  1.200000e+02  3.347200e+02 
  219   218   257     1  1.200000e+02  3.347200e+02  1.200000e+02  3.347200e+02 
  218   219   220     1  1.200000e+02  3.347200e+02  1.200000e+02  3.347200e+02 
  218   219   260     1  1.200000e+02  3.347200e+02  1.200000e+02  3.347200e+02 
  220   219   260     1  1.200000e+02  3.347200e+02  1.200000e+02  3.347200e+02 
  179   220   219     1  1.200000e+02  3.347200e+02  1.200000e+02  3.347200e+02 
  179   220   221     1  1.200000e+02  3.347200e+02  1.200000e+02  3.347200e+02 
  219   220   221     1  1.200000e+02  3.347200e+02  1.200000e+02  3.347200e+02 
  182   221   220     1  1.200000e+02  3.347200e+02  1.200000e+02  3.347200e+02 
  182   221   222     1  1.200000e+02  3.347200e+02  1.200000e+02  3.347200e+02 
  220   221   222     1  1.200000e+02  3.347200e+02  1.200000e+02  3.347200e+02 
  221   222   223     1  1.200000e+02  3.347200e+02  1.200000e+02  3.347200e+02 
  221   222   261     1  1.200000e+02  3.347200e+02  1.200000e+02  3.347200e+02 
  223   222   261     1  1.200000e+02  3.347200e+02  1.200000e+02  3.347200e+02 
  222   223   224     1  1.200000e+02  3.347200e+02  1.200000e+02  3.347200e+02 
  222   223   264     1  1.200000e+02  3.347200e+02  1.200000e+02  3.347200e+02 
  224   223   264     1  1.200000e+02  3.347200e+02  1.200000e+02  3.347200e+02 
  183   224   223     1  1.200000e+02  3.347200e+02  1.200000e+02  3.347200e+02 
  183   224   225     1  1.200000e+02  3.347200e+02  1.200000e+02  3.347200e+02 
  223   224   225     1  1.200000e+02  3.347200e+02  1.200000e+02  3.347200e+02 
  186   225   224     1  1.200000e+02  3.347200e+02  1.200000e+02  3.347200e+02 
  186   225   226     1  1.200000e+02  3.347200e+02  1.200000e+02  3.347200e+02 
  224   225   226     1  1.200000e+02  3.347200e+02  1.200000e+02  3.347200e+02 
  225   226   227     1  1.200000e+02  3.347200e+02  1.200000e+02  3.347200e+02 
  225   226   265     1  1.200000e+02  3.347200e+02  1.200000e+02  3.347200e+02 
  227   226   265     1  1.200000e+02  3.347200e+02  1.200000e+02  3.347200e+02 
  226   227   228     1  1.200000e+02  3.347200e+02  1.200000e+02  3.347200e+02 
  226   227   268     1  1.200000e+02  3.347200e+02  1.200000e+02  3.347200e+02 
  228   227   268     1  1.200000e+02  3.347200e+02  1.200000e+02  3.347200e+02 
  187   228   227     1  1.200000e+02  3.347200e+02  1.200000e+02  3.347200e+02 
  187   228   229     1  1.200000e+02  3.347200e+02  1.200000e+02  3.347200e+02 
  227   228   229     1  1.200000e+02  3.347200e+02  1.200000e+02  3.347200e+02 
  190   229   228     1  1.200000e+02  3.347200e+02  1.200000e+02  3.347200e+02 
  190   229   230     1  1.200000e+02  3.347200e+02  1.200000e+02  3.347200e+02 
  228   229   230     1  1.200000e+02  3.347200e+02  1.200000e+02  3.347200e+02 
  229   230   231     1  1.200000e+02  3.347200e+02  1.200000e+02  3.347200e+02 
  229   230   269     1  1.200000e+02  3.347200e+02  1.200000e+02  3.347200e+02 
  231   230   269     1  1.200000e+02  3.347200e+02  1.200000e+02  3.347200e+02 
  230   231   232     1  1.200000e+02  3.347200e+02  1.200000e+02  3.347200e+02 
  230   231   272     1  1.200000e+02  3.347200e+02  1.200000e+02  3.347200e+02 
  232   231   272     1  1.200000e+02  3.347200e+02  1.200000e+02  3.347200e+02 
  191   232   231     1  1.200000e+02  3.347200e+02  1.200000e+02  3.347200e+02 
  191   232   233     1  1.200000e+02  3.347200e+02  1.200000e+02  3.347200e+02 
  231   232   233     1  1.200000e+02  3.347200e+02  1.200000e+02  3.347200e+02 
  194   233   232     1  1.200000e+02  3.347200e+02  1.200000e+02  3.347200e+02 
  194   233   234     1  1.200000e+02  3.347200e+02  1.200000e+02  3.347200e+02 
  232   233   234     1  1.200000e+02  3.347200e+02  1.200000e+02  3.347200e+02 
  233   234   235     1  1.200000e+02  3.347200e+02  1.200000e+02  3.347200e+02 
  233   234   273     1  1.200000e+02  3.347200e+02  1.200000e+02  3.347200e+02 
  235   234   273     1  1.200000e+02  3.347200e+02  1.200000e+02  3.347200e+02 
  234   235   236     1  1.200000e+02  3.347200e+02  1.200000e+02  3.347200e+02 
  234   235   276     1  1.200000e+02  3.347200e+02  1.200000e+02  3.347200e+02 
  236   235   276     1  1.200000e+02  3.347200e+02  1.200000e+02  3.347200e+02 
  195   236   235     1  1.200000e+02  3.347200e+02  1.200000e+02  3.347200e+02 
  195   236   237     1  1.200000e+02  3.347200e+02  1.200000e+02  3.347200e+02 
  235   236   237     1  1.200000e+02  3.347200e+02  1.200000e+02  3.347200e+02 
  198   237   236     1  1.200000e+02  3.347200e+02  1.200000e+02  3.347200e+02 
  198   237   238     1  1.200000e+02  3.347200e+02  1.200000e+02  3.347200e+02 
  236   237   238     1  1.200000e+02  3.347200e+02  1.200000e+02  3.347200e+02 
  237   238   239     1  1.200000e+02  3.347200e+02  1.200000e+02  3.347200e+02 
  237   238   277     1  1.200000e+02  3.347200e+02  1.200000e+02  3.347200e+02 
  239   238   277     1  1.200000e+02  3.347200e+02  1.200000e+02  3.347200e+02 
  238   239   240     1  1.200000e+02  3.347200e+02  1.200000e+02  3.347200e+02 
  238   239   280     1  1.200000e+02  3.347200e+02  1.200000e+02  3.347200e+02 
  240   239   280     1  1.200000e+02  3.347200e+02  1.200000e+02  3.347200e+02 
  199   240   201     1  1.200000e+02  3.347200e+02  1.200000e+02  3.347200e+02 
  199   240   239     1  1.200000e+02  3.347200e+02  1.200000e+02  3.347200e+02 
  201   240   239     1  1.200000e+02  3.347200e+02  1.200000e+02  3.347200e+02 
  202   241   242     1  1.200000e+02  3.347200e+02  1.200000e+02  3.347200e+02 
  202   241   280     1  1.200000e+02  3.347200e+02  1.200000e+02  3.347200e+02 
  242   241   280     1  1.200000e+02  3.347200e+02  1.200000e+02  3.347200e+02 
  241   242   243     1  1.200000e+02  3.347200e+02  1.200000e+02  3.347200e+02 
  241   242   281     1  1.200000e+02  3.347200e+02  1.200000e+02  3.347200e+02 
  243   242   281     1  1.200000e+02  3.347200e+02  1.200000e+02  3.347200e+02 
  242   243   244     1  1.200000e+02  3.347200e+02  1.200000e+02  3.347200e+02 
  242   243   284     1  1.200000e+02  3.347200e+02  1.200000e+02  3.347200e+02 
  244   243   284     1  1.200000e+02  3.347200e+02  1.200000e+02  3.347200e+02 
  203   244   243     1  1.200000e+02  3.347200e+02  1.200000e+02  3.347200e+02 
  203   244   245     1  1.200000e+02  3.347200e+02  1.200000e+02  3.347200e+02 
  243   244   245     1  1.200000e+02  3.347200e+02  1.200000e+02  3.347200e+02 
  206   245   244     1  1.200000e+02  3.347200e+02  1.200000e+02  3.347200e+02 
  206   245   246     1  1.200000e+02  3.347200e+02  1.200000e+02  3.347200e+02 
  244   245   246     1  1.200000e+02  3.347200e+02  1.200000e+02  3.347200e+02 
  245   246   247     1  1.200000e+02  3.347200e+02  1.200000e+02  3.347200e+02 
  245   246   285     1  1.200000e+02  3.347200e+02  1.200000e+02  3.347200e+02 
  247   246   285     1  1.200000e+02  3.347200e+02  1.200000e+02  3.347200e+02 
  246   247   248     1  1.200000e+02  3.347200e+02  1.200000e+02  3.347200e+02 
  246   247   288     1  1.200000e+02  3.347200e+02  1.200000e+02  3.347200e+02 
  248   247   288     1  1.200000e+02  3.347200e+02  1.200000e+02  3.347200e+02 
  207   248   247     1  1.200000e+02  3.347200e+02  1.200000e+02  3.347200e+02 
  207   248   249     1  1.200000e+02  3.347200e+02  1.200000e+02  3.347200e+02 
  247   248   249     1  1.200000e+02  3.347200e+02  1.200000e+02  3.347200e+02 
  210   249   248     1  1.200000e+02  3.347200e+02  1.200000e+02  3.347200e+02 
  210   249   250     1  1.200000e+02  3.347200e+02  1.200000e+02  3.347200e+02 
  248   249   250     1  1.200000e+02  3.347200e+02  1.200000e+02  3.347200e+02 
  249   250   251     1  1.200000e+02  3.347200e+02  1.200000e+02  3.347200e+02 
  249   250   289     1  1.200000e+02  3.347200e+02  1.200000e+02  3.347200e+02 
  251   250   289     1  1.200000e+02  3.347200e+02  1.200000e+02  3.347200e+02 
  250   251   252     1  1.200000e+02  3.347200e+02  1.200000e+02  3.347200e+02 
  250   251   292     1  1.200000e+02  3.347200e+02  1.200000e+02  3.347200e+02 
  252   251   292     1  1.200000e+02  3.347200e+02  1.200000e+02  3.347200e+02 
  211   252   251     1  1.200000e+02  3.347200e+02  1.200000e+02  3.347200e+02 
  211   252   253     1  1.200000e+02  3.347200e+02  1.200000e+02  3.347200e+02 
  251   252   253     1  1.200000e+02  3.347200e+02  1.200000e+02  3.347200e+02 
  214   253   252     1  1.200000e+02  3.347200e+02  1.200000e+02  3.347200e+02 
  214   253   254     1  1.200000e+02  3.347200e+02  1.200000e+02  3.347200e+02 
  252   253   254     1  1.200000e+02  3.347200e+02  1.200000e+02  3.347200e+02 
  253   254   255     1  1.200000e+02  3.347200e+02  1.200000e+02  3.347200e+02 
  253   254   293     1  1.200000e+02  3.347200e+02  1.200000e+02  3.347200e+02 
  255   254   293     1  1.200000e+02  3.347200e+02  1.200000e+02  3.347200e+02 
  254   255   256     1  1.200000e+02  3.347200e+02  1.200000e+02  3.347200e+02 
  254   255   296     1  1.200000e+02  3.347200e+02  1.200000e+02  3.347200e+02 
  256   255   296     1  1.200000e+02  3.347200e+02  1.200000e+02  3.347200e+02 
  215   256   255     1  1.200000e+02  3.347200e+02  1.200000e+02  3.347200e+02 
  215   256   257     1  1.200000e+02  3.347200e+02  1.200000e+02  3.347200e+02 
  255   256   257     1  1.200000e+02  3.347200e+02  1.200000e+02  3.347200e+02 
  218   257   256     1  1.200000e+02  3.347200e+02  1.200000e+02  3.347200e+02 
  218   257   258     1  1.200000e+02  3.347200e+02  1.200000e+02  3.347200e+02 
  256   257   258     1  1.200000e+02  3.347200e+02  1.200000e+02  3.347200e+02 
  257   258   259     1  1.200000e+02  3.347200e+02  1.200000e+02  3.347200e+02 
  257   258   297     1  1.200000e+02  3.347200e+02  1.200000e+02  3.347200e+02 
  259   258   297     1  1.200000e+02  3.347200e+02  1.200000e+02  3.347200e+02 
  258   259   260     1  1.200000e+02  3.347200e+02  1.200000e+02  3.347200e+02 
  258   259   300     1  1.200000e+02  3.347200e+02  1.200000e+02  3.347200e+02 
  260   259   300     1  1.200000e+02  3.347200e+02  1.200000e+02  3.347200e+02 
  219   260   259     1  1.200000e+02  3.347200e+02  1.200000e+02  3.347200e+02 
  219   260   261     1  1.200000e+02  3.347200e+02  1.200000e+02  3.347200e+02 
  259   260   261     1  1.200000e+02  3.347200e+02  1.200000e+02  3.347200e+02 
  222   261   260     1  1.200000e+02  3.347200e+02  1.200000e+02  3.347200e+02 
  222   261   262     1  1.200000e+02  3.347200e+02  1.200000e+02  3.347200e+02 
  260   261   262     1  1.200000e+02  3.347200e+02  1.200000e+02  3.347200e+02 
  261   262   263     1  1.200000e+02  3.347200e+02  1.200000e+02  3.347200e+02 
  261   262   301     1  1.200000e+02  3.347200e+02  1.200000e+02  3.347200e+02 
  263   262   301     1  1.200000e+02  3.347200e+02  1.200000e+02  3.347200e+02 
  262   263   264     1  1.200000e+02  3.347200e+02  1.200000e+02  3.347200e+02 
  262   263   304     1  1.200000e+02  3.347200e+02  1.200000e+02  3.347200e+02 
  264   263   304     1  1.200000e+02  3.347200e+02  1.200000e+02  3.347200e+02 
  223   264   263     1  1.200000e+02  3.347200e+02  1.200000e+02  3.347200e+02 
  223   264   265     1  1.200000e+02  3.347200e+02  1.200000e+02  3.347200e+02 
  263   264   265     1  1.200000e+02  3.347200e+02  1.200000e+02  3.347200e+02 
  226   265   264     1  1.200000e+02  3.347200e+02  1.200000e+02  3.347200e+02 
  226   265   266     1  1.200000e+02  3.347200e+02  1.200000e+02  3.347200e+02 
  264   265   266     1  1.200000e+02  3.347200e+02  1.200000e+02  3.347200e+02 
  265   266   267     1  1.200000e+02  3.347200e+02  1.200000e+02  3.347200e+02 
  265   266   305     1  1.200000e+02  3.347200e+02  1.200000e+02  3.347200e+02 
  267   266   305     1  1.200000e+02  3.347200e+02  1.200000e+02  3.347200e+02 
  266   267   268     1  1.200000e+02  3.347200e+02  1.200000e+02  3.347200e+02 
  266   267   308     1  1.200000e+02  3.347200e+02  1.200000e+02  3.347200e+02 
  268   267   308     1  1.200000e+02  3.347200e+02  1.200000e+02  3.347200e+02 
  227   268   267     1  1.200000e+02  3.347200e+02  1.200000e+02  3.347200e+02 
  227   268   269     1  1.200000e+02  3.347200e+02  1.200000e+02  3.347200e+02 
  267   268   269     1  1.200000e+02  3.347200e+02  1.200000e+02  3.347200e+02 
  230   269   268     1  1.200000e+02  3.347200e+02  1.200000e+02  3.347200e+02 
  230   269   270     1  1.200000e+02  3.347200e+02  1.200000e+02  3.347200e+02 
  268   269   270     1  1.200000e+02  3.347200e+02  1.200000e+02  3.347200e+02 
  269   270   271     1  1.200000e+02  3.347200e+02  1.200000e+02  3.347200e+02 
  269   270   309     1  1.200000e+02  3.347200e+02  1.200000e+02  3.347200e+02 
  271   270   309     1  1.200000e+02  3.347200e+02  1.200000e+02  3.347200e+02 
  270   271   272     1  1.200000e+02  3.347200e+02  1.200000e+02  3.347200e+02 
  270   271   312     1  1.200000e+02  3.347200e+02  1.200000e+02  3.347200e+02 
  272   271   312     1  1.200000e+02  3.347200e+02  1.200000e+02  3.347200e+02 
  231   272   271     1  1.200000e+02  3.347200e+02  1.200000e+02  3.347200e+02 
  231   272   273     1  1.200000e+02  3.347200e+02  1.200000e+02  3.347200e+02 
  271   272   273     1  1.200000e+02  3.347200e+02  1.200000e+02  3.347200e+02 
  234   273   272     1  1.200000e+02  3.347200e+02  1.200000e+02  3.347200e+02 
  234   273   274     1  1.200000e+02  3.347200e+02  1.200000e+02  3.347200e+02 
  272   273   274     1  1.200000e+02  3.347200e+02  1.200000e+02  3.347200e+02 
  273   274   275     1  1.200000e+02  3.347200e+02  1.200000e+02  3.347200e+02 
  273   274   313     1  1.200000e+02  3.347200e+02  1.200000e+02  3.347200e+02 
  275   274   313     1  1.200000e+02  3.347200e+02  1.200000e+02  3.347200e+02 
  274   275   276     1  1.200000e+02  3.347200e+02  1.200000e+02  3.347200e+02 
  274   275   316     1  1.200000e+02  3.347200e+02  1.200000e+02  3.347200e+02 
  276   275   316     1  1.200000e+02  3.347200e+02  1.200000e+02  3.347200e+02 
  235   276   275     1  1.200000e+02  3.347200e+02  1.200000e+02  3.347200e+02 
  235   276   277     1  1.200000e+02  3.347200e+02  1.200000e+02  3.347200e+02 
  275   276   277     1  1.200000e+02  3.347200e+02  1.200000e+02  3.347200e+02 
  238   277   276     1  1.200000e+02  3.347200e+02  1.200000e+02  3.347200e+02 
  238   277   278     1  1.200000e+02  3.347200e+02  1.200000e+02  3.347200e+02 
  276   277   278     1  1.200000e+02  3.347200e+02  1.200000e+02  3.347200e+02 
  277   278   279     1  1.200000e+02  3.347200e+02  1.200000e+02  3.347200e+02 
  277   278   317     1  1.200000e+02  3.347200e+02  1.200000e+02  3.347200e+02 
  279   278   317     1  1.200000e+02  3.347200e+02  1.200000e+02  3.347200e+02 
  278   279   280     1  1.200000e+02  3.347200e+02  1.200000e+02  3.347200e+02 
  278   279   320     1  1.200000e+02  3.347200e+02  1.200000e+02  3.347200e+02 
  280   279   320     1  1.200000e+02  3.347200e+02  1.200000e+02  3.347200e+02 
  239   280   241     1  1.200000e+02  3.347200e+02  1.200000e+02  3.347200e+02 
  239   280   279     1  1.200000e+02  3.347200e+02  1.200000e+02  3.347200e+02 
  241   280   279     1  1.200000e+02  3.347200e+02  1.200000e+02  3.347200e+02 
  242   281   282     1  1.200000e+02  3.347200e+02  1.200000e+02  3.347200e+02 
  242   281   320     1  1.200000e+02  3.347200e+02  1.200000e+02  3.347200e+02 
  282   281   320     1  1.200000e+02  3.347200e+02  1.200000e+02  3.347200e+02 
  281   282   283     1  1.200000e+02  3.347200e+02  1.200000e+02  3.347200e+02 
  281   282   321     1  1.200000e+02  3.347200e+02  1.200000e+02  3.347200e+02 
  283   282   321     1  1.200000e+02  3.347200e+02  1.200000e+02  3.347200e+02 
  282   283   284     1  1.200000e+02  3.347200e+02  1.200000e+02  3.347200e+02 
  282   283   324     1  1.200000e+02  3.347200e+02  1.200000e+02  3.347200e+02 
  284   283   324     1  1.200000e+02  3.347200e+02  1.200000e+02  3.347200e+02 
  243   284   283     1  1.200000e+02  3.347200e+02  1.200000e+02  3.347200e+02 
  243   284   285     1  1.200000e+02  3.347200e+02  1.200000e+02  3.347200e+02 
  283   284   285     1  1.200000e+02  3.347200e+02  1.200000e+02  3.347200e+02 
  246   285   284     1  1.200000e+02  3.347200e+02  1.200000e+02  3.347200e+02 
  246   285   286     1  1.200000e+02  3.347200e+02  1.200000e+02  3.347200e+02 
  284   285   286     1  1.200000e+02  3.347200e+02  1.200000e+02  3.347200e+02 
  285   286   287     1  1.200000e+02  3.347200e+02  1.200000e+02  3.347200e+02 
  285   286   325     1  1.200000e+02  3.347200e+02  1.200000e+02  3.347200e+02 
  287   286   325     1  1.200000e+02  3.347200e+02  1.200000e+02  3.347200e+02 
  286   287   288     1  1.200000e+02  3.347200e+02  1.200000e+02  3.347200e+02 
  286   287   328     1  1.200000e+02  3.347200e+02  1.200000e+02  3.347200e+02 
  288   287   328     1  1.200000e+02  3.347200e+02  1.200000e+02  3.347200e+02 
  247   288   287     1  1.200000e+02  3.347200e+02  1.200000e+02  3.347200e+02 
  247   288   289     1  1.200000e+02  3.347200e+02  1.200000e+02  3.347200e+02 
  287   288   289     1  1.200000e+02  3.347200e+02  1.200000e+02  3.347200e+02 
  250   289   288     1  1.200000e+02  3.347200e+02  1.200000e+02  3.347200e+02 
  250   289   290     1  1.200000e+02  3.347200e+02  1.200000e+02  3.347200e+02 
  288   289   290     1  1.200000e+02  3.347200e+02  1.200000e+02  3.347200e+02 
  289   290   291     1  1.200000e+02  3.347200e+02  1.200000e+02  3.347200e+02 
  289   290   329     1  1.200000e+02  3.347200e+02  1.200000e+02  3.347200e+02 
  291   290   329     1  1.200000e+02  3.347200e+02  1.200000e+02  3.347200e+02 
  290   291   292     1  1.200000e+02  3.347200e+02  1.200000e+02  3.347200e+02 
  290   291   332     1  1.200000e+02  3.347200e+02  1.200000e+02  3.347200e+02 
  292   291   332     1  1.200000e+02  3.347200e+02  1.200000e+02  3.347200e+02 
  251   292   291     1  1.200000e+02  3.347200e+02  1.200000e+02  3.347200e+02 
  251   292   293     1  1.200000e+02  3.347200e+02  1.200000e+02  3.347200e+02 
  291   292   293     1  1.200000e+02  3.347200e+02  1.200000e+02  3.347200e+02 
  254   293   292     1  1.200000e+02  3.347200e+02  1.200000e+02  3.347200e+02 
  254   293   294     1  1.200000e+02  3.347200e+02  1.200000e+02  3.347200e+02 
  292   293   294     1  1.200000e+02  3.347200e+02  1.200000e+02  3.347200e+02 
  293   294   295     1  1.200000e+02  3.347200e+02  1.200000e+02  3.347200e+02 
  293   294   333     1  1.200000e+02  3.347200e+02  1.200000e+02  3.347200e+02 
  295   294   333     1  1.200000e+02  3.347200e+02  1.200000e+02  3.347200e+02 
  294   295   296     1  1.200000e+02  3.347200e+02  1.200000e+02  3.347200e+02 
  294   295   336     1  1.200000e+02  3.347200e+02  1.200000e+02  3.347200e+02 
  296   295   336     1  1.200000e+02  3.347200e+02  1.200000e+02  3.347200e+02 
  255   296   295     1  1.200000e+02  3.347200e+02  1.200000e+02  3.347200e+02 
  255   296   297     1  1.200000e+02  3.347200e+02  1.200000e+02  3.347200e+02 
  295   296   297     1  1.200000e+02  3.347200e+02  1.200000e+02  3.347200e+02 
  258   297   296     1  1.200000e+02  3.347200e+02  1.200000e+02  3.347200e+02 
  258   297   298     1  1.200000e+02  3.347200e+02  1.200000e+02  3.347200e+02 
  296   297   298     1  1.200000e+02  3.347200e+02  1.200000e+02  3.347200e+02 
  297   298   299     1  1.200000e+02  3.347200e+02  1.200000e+02  3.347200e+02 
  297   298   337     1  1.200000e+02  3.347200e+02  1.200000e+02  3.347200e+02 
  299   298   337     1  1.200000e+02  3.347200e+02  1.200000e+02  3.347200e+02 
  298   299   300     1  1.200000e+02  3.347200e+02  1.200000e+02  3.347200e+02 
  298   299   340     1  1.200000e+02  3.347200e+02  1.200000e+02  3.347200e+02 
  300   299   340     1  1.200000e+02  3.347200e+02  1.200000e+02  3.347200e+02 
  259   300   299     1  1.200000e+02  3.347200e+02  1.200000e+02  3.347200e+02 
  259   300   301     1  1.200000e+02  3.347200e+02  1.200000e+02  3.347200e+02 
  299   300   301     1  1.200000e+02  3.347200e+02  1.200000e+02  3.347200e+02 
  262   301   300     1  1.200000e+02  3.347200e+02  1.200000e+02  3.347200e+02 
  262   301   302     1  1.200000e+02  3.347200e+02  1.200000e+02  3.347200e+02 
  300   301   302     1  1.200000e+02  3.347200e+02  1.200000e+02  3.347200e+02 
  301   302   303     1  1.200000e+02  3.347200e+02  1.200000e+02  3.347200e+02 
  301   302   341     1  1.200000e+02  3.347200e+02  1.200000e+02  3.347200e+02 
  303   302   341     1  1.200000e+02  3.347200e+02  1.200000e+02  3.347200e+02 
  302   303   304     1  1.200000e+02  3.347200e+02  1.200000e+02  3.347200e+02 
  302   303   344     1  1.200000e+02  3.347200e+02  1.200000e+02  3.347200e+02 
  304   303   344     1  1.200000e+02  3.347200e+02  1.200000e+02  3.347200e+02 
  263   304   303     1  1.200000e+02  3.347200e+02  1.200000e+02  3.347200e+02 
  263   304   305     1  1.200000e+02  3.347200e+02  1.200000e+02  3.347200e+02 
  303   304   305     1  1.200000e+02  3.347200e+02  1.200000e+02  3.347200e+02 
  266   305   304     1  1.200000e+02  3.347200e+02  1.200000e+02  3.347200e+02 
  266   305   306     1  1.200000e+02  3.347200e+02  1.200000e+02  3.347200e+02 
  304   305   306     1  1.200000e+02  3.347200e+02  1.200000e+02  3.347200e+02 
  305   306   307     1  1.200000e+02  3.347200e+02  1.200000e+02  3.347200e+02 
  305   306   345     1  1.200000e+02  3.347200e+02  1.200000e+02  3.347200e+02 
  307   306   345     1  1.200000e+02  3.347200e+02  1.200000e+02  3.347200e+02 
  306   307   308     1  1.200000e+02  3.347200e+02  1.200000e+02  3.347200e+02 
  306   307   348     1  1.200000e+02  3.347200e+02  1.200000e+02  3.347200e+02 
  308   307   348     1  1.200000e+02  3.347200e+02  1.200000e+02  3.347200e+02 
  267   308   307     1  1.200000e+02  3.347200e+02  1.200000e+02  3.347200e+02 
  267   308   309     1  1.200000e+02  3.347200e+02  1.200000e+02  3.347200e+02 
  307   308   309     1  1.200000e+02  3.347200e+02  1.200000e+02  3.347200e+02 
  270   309   308     1  1.200000e+02  3.347200e+02  1.200000e+02  3.347200e+02 
  270   309   310     1  1.200000e+02  3.347200e+02  1.200000e+02  3.347200e+02 
  308   309   310     1  1.200000e+02  3.347200e+02  1.200000e+02  3.347200e+02 
  309   310   311     1  1.200000e+02  3.347200e+02  1.200000e+02  3.347200e+02 
  309   310   349     1  1.200000e+02  3.347200e+02  1.200000e+02  3.347200e+02 
  311   310   349     1  1.200000e+02  3.347200e+02  1.200000e+02  3.347200e+02 
  310   311   312     1  1.200000e+02  3.347200e+02  1.200000e+02  3.347200e+02 
  310   311   352     1  1.200000e+02  3.347200e+02  1.200000e+02  3.347200e+02 
  312   311   352     1  1.200000e+02  3.347200e+02  1.200000e+02  3.347200e+02 
  271   312   311     1  1.200000e+02  3.347200e+02  1.200000e+02  3.347200e+02 
  271   312   313     1  1.200000e+02  3.347200e+02  1.200000e+02  3.347200e+02 
  311   312   313     1  1.200000e+02  3.347200e+02  1.200000e+02  3.347200e+02 
  274   313   312     1  1.200000e+02  3.347200e+02  1.200000e+02  3.347200e+02 
  274   313   314     1  1.200000e+02  3.347200e+02  1.200000e+02  3.347200e+02 
  312   313   314     1  1.200000e+02  3.347200e+02  1.200000e+02  3.347200e+02 
  313   314   315     1  1.200000e+02  3.347200e+02  1.200000e+02  3.347200e+02 
  313   314   353     1  1.200000e+02  3.347200e+02  1.200000e+02  3.347200e+02 
  315   314   353     1  1.200000e+02  3.347200e+02  1.200000e+02  3.347200e+02 
  314   315   316     1  1.200000e+02  3.347200e+02  1.200000e+02  3.347200e+02 
  314   315   356     1  1.200000e+02  3.347200e+02  1.200000e+02  3.347200e+02 
  316   315   356     1  1.200000e+02  3.347200e+02  1.200000e+02  3.347200e+02 
  275   316   315     1  1.200000e+02  3.347200e+02  1.200000e+02  3.347200e+02 
  275   316   317     1  1.200000e+02  3.347200e+02  1.200000e+02  3.347200e+02 
  315   316   317     1  1.200000e+02  3.347200e+02  1.200000e+02  3.347200e+02 
  278   317   316     1  1.200000e+02  3.347200e+02  1.200000e+02  3.347200e+02 
  278   317   318     1  1.200000e+02  3.347200e+02  1.200000e+02  3.347200e+02 
  316   317   318     1  1.200000e+02  3.347200e+02  1.200000e+02  3.347200e+02 
  317   318   319     1  1.200000e+02  3.347200e+02  1.200000e+02  3.347200e+02 
  317   318   357     1  1.200000e+02  3.347200e+02  1.200000e+02  3.347200e+02 
  319   318   357     1  1.200000e+02  3.347200e+02  1.200000e+02  3.347200e+02 
  318   319   320     1  1.200000e+02  3.347200e+02  1.200000e+02  3.347200e+02 
  318   319   360     1  1.200000e+02  3.347200e+02  1.200000e+02  3.347200e+02 
  320   319   360     1  1.200000e+02  3.347200e+02  1.200000e+02  3.347200e+02 
  279   320   281     1  1.200000e+02  3.347200e+02  1.200000e+02  3.347200e+02 
  279   320   319     1  1.200000e+02  3.347200e+02  1.200000e+02  3.347200e+02 
  281   320   319     1  1.200000e+02  3.347200e+02  1.200000e+02  3.347200e+02 
  282   321   322     1  1.200000e+02  3.347200e+02  1.200000e+02  3.347200e+02 
  282   321   360     1  1.200000e+02  3.347200e+02  1.200000e+02  3.347200e+02 
  322   321   360     1  1.200000e+02  3.347200e+02  1.200000e+02  3.347200e+02 
  321   322   323     1  1.200000e+02  3.347200e+02  1.200000e+02  3.347200e+02 
  321   322   361     1  1.200000e+02  3.347200e+02  1.200000e+02  3.347200e+02 
  323   322   361     1  1.200000e+02  3.347200e+02  1.200000e+02  3.347200e+02 
  322   323   324     1  1.200000e+02  3.347200e+02  1.200000e+02  3.347200e+02 
  322   323   364     1  1.200000e+02  3.347200e+02  1.200000e+02  3.347200e+02 
  324   323   364     1  1.200000e+02  3.347200e+02  1.200000e+02  3.347200e+02 
  283   324   323     1  1.200000e+02  3.347200e+02  1.200000e+02  3.347200e+02 
  283   324   325     1  1.200000e+02  3.347200e+02  1.200000e+02  3.347200e+02 
  323   324   325     1  1.200000e+02  3.347200e+02  1.200000e+02  3.347200e+02 
  286   325   324     1  1.200000e+02  3.347200e+02  1.200000e+02  3.347200e+02 
  286   325   326     1  1.200000e+02  3.347200e+02  1.200000e+02  3.347200e+02 
  324   325   326     1  1.200000e+02  3.347200e+02  1.200000e+02  3.347200e+02 
  325   326   327     1  1.200000e+02  3.347200e+02  1.200000e+02  3.347200e+02 
  325   326   365     1  1.200000e+02  3.347200e+02  1.200000e+02  3.347200e+02 
  327   326   365     1  1.200000e+02  3.347200e+02  1.200000e+02  3.347200e+02 
  326   327   328     1  1.200000e+02  3.347200e+02  1.200000e+02  3.347200e+02 
  326   327   368     1  1.200000e+02  3.347200e+02  1.200000e+02  3.347200e+02 
  328   327   368     1  1.200000e+02  3.347200e+02  1.200000e+02  3.347200e+02 
  287   328   327     1  1.200000e+02  3.347200e+02  1.200000e+02  3.347200e+02 
  287   328   329     1  1.200000e+02  3.347200e+02  1.200000e+02  3.347200e+02 
  327   328   329     1  1.200000e+02  3.347200e+02  1.200000e+02  3.347200e+02 
  290   329   328     1  1.200000e+02  3.347200e+02  1.200000e+02  3.347200e+02 
  290   329   330     1  1.200000e+02  3.347200e+02  1.200000e+02  3.347200e+02 
  328   329   330     1  1.200000e+02  3.347200e+02  1.200000e+02  3.347200e+02 
  329   330   331     1  1.200000e+02  3.347200e+02  1.200000e+02  3.347200e+02 
  329   330   369     1  1.200000e+02  3.347200e+02  1.200000e+02  3.347200e+02 
  331   330   369     1  1.200000e+02  3.347200e+02  1.200000e+02  3.347200e+02 
  330   331   332     1  1.200000e+02  3.347200e+02  1.200000e+02  3.347200e+02 
  330   331   372     1  1.200000e+02  3.347200e+02  1.200000e+02  3.347200e+02 
  332   331   372     1  1.200000e+02  3.347200e+02  1.200000e+02  3.347200e+02 
  291   332   331     1  1.200000e+02  3.347200e+02  1.200000e+02  3.347200e+02 
  291   332   333     1  1.200000e+02  3.347200e+02  1.200000e+02  3.347200e+02 
  331   332   333     1  1.200000e+02  3.347200e+02  1.200000e+02  3.347200e+02 
  294   333   332     1  1.200000e+02  3.347200e+02  1.200000e+02  3.347200e+02 
  294   333   334     1  1.200000e+02  3.347200e+02  1.200000e+02  3.347200e+02 
  332   333   334     1  1.200000e+02  3.347200e+02  1.200000e+02  3.347200e+02 
  333   334   335     1  1.200000e+02  3.347200e+02  1.200000e+02  3.347200e+02 
  333   334   373     1  1.200000e+02  3.347200e+02  1.200000e+02  3.347200e+02 
  335   334   373     1  1.200000e+02  3.347200e+02  1.200000e+02  3.347200e+02 
  334   335   336     1  1.200000e+02  3.347200e+02  1.200000e+02  3.347200e+02 
  334   335   376     1  1.200000e+02  3.347200e+02  1.200000e+02  3.347200e+02 
  336   335   376     1  1.200000e+02  3.347200e+02  1.200000e+02  3.347200e+02 
  295   336   335     1  1.200000e+02  3.347200e+02  1.200000e+02  3.347200e+02 
  295   336   337     1  1.200000e+02  3.347200e+02  1.200000e+02  3.347200e+02 
  335   336   337     1  1.200000e+02  3.347200e+02  1.200000e+02  3.347200e+02 
  298   337   336     1  1.200000e+02  3.347200e+02  1.200000e+02  3.347200e+02 
  298   337   338     1  1.200000e+02  3.347200e+02  1.200000e+02  3.347200e+02 
  336   337   338     1  1.200000e+02  3.347200e+02  1.200000e+02  3.347200e+02 
  337   338   339     1  1.200000e+02  3.347200e+02  1.200000e+02  3.347200e+02 
  337   338   377     1  1.200000e+02  3.347200e+02  1.200000e+02  3.347200e+02 
  339   338   377     1  1.200000e+02  3.347200e+02  1.200000e+02  3.347200e+02 
  338   339   340     1  1.200000e+02  3.347200e+02  1.200000e+02  3.347200e+02 
  338   339   380     1  1.200000e+02  3.347200e+02  1.200000e+02  3.347200e+02 
  340   339   380     1  1.200000e+02  3.347200e+02  1.200000e+02  3.347200e+02 
  299   340   339     1  1.200000e+02  3.347200e+02  1.200000e+02  3.347200e+02 
  299   340   341     1  1.200000e+02  3.347200e+02  1.200000e+02  3.347200e+02 
  339   340   341     1  1.200000e+02  3.347200e+02  1.200000e+02  3.347200e+02 
  302   341   340     1  1.200000e+02  3.347200e+02  1.200000e+02  3.347200e+02 
  302   341   342     1  1.200000e+02  3.347200e+02  1.200000e+02  3.347200e+02 
  340   341   342     1  1.200000e+02  3.347200e+02  1.200000e+02  3.347200e+02 
  341   342   343     1  1.200000e+02  3.347200e+02  1.200000e+02  3.347200e+02 
  341   342   381     1  1.200000e+02  3.347200e+02  1.200000e+02  3.347200e+02 
  343   342   381     1  1.200000e+02  3.347200e+02  1.200000e+02  3.347200e+02 
  342   343   344     1  1.200000e+02  3.347200e+02  1.200000e+02  3.347200e+02 
  342   343   384     1  1.200000e+02  3.347200e+02  1.200000e+02  3.347200e+02 
  344   343   384     1  1.200000e+02  3.347200e+02  1.200000e+02  3.347200e+02 
  303   344   343     1  1.200000e+02  3.347200e+02  1.200000e+02  3.347200e+02 
  303   344   345     1  1.200000e+02  3.347200e+02  1.200000e+02  3.347200e+02 
  343   344   345     1  1.200000e+02  3.347200e+02  1.200000e+02  3.347200e+02 
  306   345   344     1  1.200000e+02  3.347200e+02  1.200000e+02  3.347200e+02 
  306   345   346     1  1.200000e+02  3.347200e+02  1.200000e+02  3.347200e+02 
  344   345   346     1  1.200000e+02  3.347200e+02  1.200000e+02  3.347200e+02 
  345   346   347     1  1.200000e+02  3.347200e+02  1.200000e+02  3.347200e+02 
  345   346   385     1  1.200000e+02  3.347200e+02  1.200000e+02  3.347200e+02 
  347   346   385     1  1.200000e+02  3.347200e+02  1.200000e+02  3.347200e+02 
  346   347   348     1  1.200000e+02  3.347200e+02  1.200000e+02  3.347200e+02 
  346   347   388     1  1.200000e+02  3.347200e+02  1.200000e+02  3.347200e+02 
  348   347   388     1  1.200000e+02  3.347200e+02  1.200000e+02  3.347200e+02 
  307   348   347     1  1.200000e+02  3.347200e+02  1.200000e+02  3.347200e+02 
  307   348   349     1  1.200000e+02  3.347200e+02  1.200000e+02  3.347200e+02 
  347   348   349     1  1.200000e+02  3.347200e+02  1.200000e+02  3.347200e+02 
  310   349   348     1  1.200000e+02  3.347200e+02  1.200000e+02  3.347200e+02 
  310   349   350     1  1.200000e+02  3.347200e+02  1.200000e+02  3.347200e+02 
  348   349   350     1  1.200000e+02  3.347200e+02  1.200000e+02  3.347200e+02 
  349   350   351     1  1.200000e+02  3.347200e+02  1.200000e+02  3.347200e+02 
  349   350   389     1  1.200000e+02  3.347200e+02  1.200000e+02  3.347200e+02 
  351   350   389     1  1.200000e+02  3.347200e+02  1.200000e+02  3.347200e+02 
  350   351   352     1  1.200000e+02  3.347200e+02  1.200000e+02  3.347200e+02 
  350   351   392     1  1.200000e+02  3.347200e+02  1.200000e+02  3.347200e+02 
  352   351   392     1  1.200000e+02  3.347200e+02  1.200000e+02  3.347200e+02 
  311   352   351     1  1.200000e+02  3.347200e+02  1.200000e+02  3.347200e+02 
  311   352   353     1  1.200000e+02  3.347200e+02  1.200000e+02  3.347200e+02 
  351   352   353     1  1.200000e+02  3.347200e+02  1.200000e+02  3.347200e+02 
  314   353   352     1  1.200000e+02  3.347200e+02  1.200000e+02  3.347200e+02 
  314   353   354     1  1.200000e+02  3.347200e+02  1.200000e+02  3.347200e+02 
  352   353   354     1  1.200000e+02  3.347200e+02  1.200000e+02  3.347200e+02 
  353   354   355     1  1.200000e+02  3.347200e+02  1.200000e+02  3.347200e+02 
  353   354   393     1  1.200000e+02  3.347200e+02  1.200000e+02  3.347200e+02 
  355   354   393     1  1.200000e+02  3.347200e+02  1.200000e+02  3.347200e+02 
  354   355   356     1  1.200000e+02  3.347200e+02  1.200000e+02  3.347200e+02 
  354   355   396     1  1.200000e+02  3.347200e+02  1.200000e+02  3.347200e+02 
  356   355   396     1  1.200000e+02  3.347200e+02  1.200000e+02  3.347200e+02 
  315   356   355     1  1.200000e+02  3.347200e+02  1.200000e+02  3.347200e+02 
  315   356   357     1  1.200000e+02  3.347200e+02  1.200000e+02  3.347200e+02 
  355   356   357     1  1.200000e+02  3.347200e+02  1.200000e+02  3.347200e+02 
  318   357   356     1  1.200000e+02  3.347200e+02  1.200000e+02  3.347200e+02 
  318   357   358     1  1.200000e+02  3.347200e+02  1.200000e+02  3.347200e+02 
  356   357   358     1  1.200000e+02  3.347200e+02  1.200000e+02  3.347200e+02 
  357   358   359     1  1.200000e+02  3.347200e+02  1.200000e+02  3.347200e+02 
  357   358   397     1  1.200000e+02  3.347200e+02  1.200000e+02  3.347200e+02 
  359   358   397     1  1.200000e+02  3.347200e+02  1.200000e+02  3.347200e+02 
  358   359   360     1  1.200000e+02  3.347200e+02  1.200000e+02  3.347200e+02 
  358   359   400     1  1.200000e+02  3.347200e+02  1.200000e+02  3.347200e+02 
  360   359   400     1  1.200000e+02  3.347200e+02  1.200000e+02  3.347200e+02 
  319   360   321     1  1.200000e+02  3.347200e+02  1.200000e+02  3.347200e+02 
  319   360   359     1  1.200000e+02  3.347200e+02  1.200000e+02  3.347200e+02 
  321   360   359     1  1.200000e+02  3.347200e+02  1.200000e+02  3.347200e+02 
  322   361   362     1  1.200000e+02  3.347200e+02  1.200000e+02  3.347200e+02 
  322   361   400     1  1.200000e+02  3.347200e+02  1.200000e+02  3.347200e+02 
  362   361   400     1  1.200000e+02  3.347200e+02  1.200000e+02  3.347200e+02 
  361   362   363     1  1.200000e+02  3.347200e+02  1.200000e+02  3.347200e+02 
  361   362   401     1  1.200000e+02  3.347200e+02  1.200000e+02  3.347200e+02 
  363   362   401     1  1.200000e+02  3.347200e+02  1.200000e+02  3.347200e+02 
  362   363   364     1  1.200000e+02  3.347200e+02  1.200000e+02  3.347200e+02 
  362   363   404     1  1.200000e+02  3.347200e+02  1.200000e+02  3.347200e+02 
  364   363   404     1  1.200000e+02  3.347200e+02  1.200000e+02  3.347200e+02 
  323   364   363     1  1.200000e+02  3.347200e+02  1.200000e+02  3.347200e+02 
  323   364   365     1  1.200000e+02  3.347200e+02  1.200000e+02  3.347200e+02 
  363   364   365     1  1.200000e+02  3.347200e+02  1.200000e+02  3.347200e+02 
  326   365   364     1  1.200000e+02  3.347200e+02  1.200000e+02  3.347200e+02 
  326   365   366     1  1.200000e+02  3.347200e+02  1.200000e+02  3.347200e+02 
  364   365   366     1  1.200000e+02  3.347200e+02  1.200000e+02  3.347200e+02 
  365   366   367     1  1.200000e+02  3.347200e+02  1.200000e+02  3.347200e+02 
  365   366   405     1  1.200000e+02  3.347200e+02  1.200000e+02  3.347200e+02 
  367   366   405     1  1.200000e+02  3.347200e+02  1.200000e+02  3.347200e+02 
  366   367   368     1  1.200000e+02  3.347200e+02  1.200000e+02  3.347200e+02 
  366   367   408     1  1.200000e+02  3.347200e+02  1.200000e+02  3.347200e+02 
  368   367   408     1  1.200000e+02  3.347200e+02  1.200000e+02  3.347200e+02 
  327   368   367     1  1.200000e+02  3.347200e+02  1.200000e+02  3.347200e+02 
  327   368   369     1  1.200000e+02  3.347200e+02  1.200000e+02  3.347200e+02 
  367   368   369     1  1.200000e+02  3.347200e+02  1.200000e+02  3.347200e+02 
  330   369   368     1  1.200000e+02  3.347200e+02  1.200000e+02  3.347200e+02 
  330   369   370     1  1.200000e+02  3.347200e+02  1.200000e+02  3.347200e+02 
  368   369   370     1  1.200000e+02  3.347200e+02  1.200000e+02  3.347200e+02 
  369   370   371     1  1.200000e+02  3.347200e+02  1.200000e+02  3.347200e+02 
  369   370   409     1  1.200000e+02  3.347200e+02  1.200000e+02  3.347200e+02 
  371   370   409     1  1.200000e+02  3.347200e+02  1.200000e+02  3.347200e+02 
  370   371   372     1  1.200000e+02  3.347200e+02  1.200000e+02  3.347200e+02 
  370   371   412     1  1.200000e+02  3.347200e+02  1.200000e+02  3.347200e+02 
  372   371   412     1  1.200000e+02  3.347200e+02  1.200000e+02  3.347200e+02 
  331   372   371     1  1.200000e+02  3.347200e+02  1.200000e+02  3.347200e+02 
  331   372   373     1  1.200000e+02  3.347200e+02  1.200000e+02  3.347200e+02 
  371   372   373     1  1.200000e+02  3.347200e+02  1.200000e+02  3.347200e+02 
  334   373   372     1  1.200000e+02  3.347200e+02  1.200000e+02  3.347200e+02 
  334   373   374     1  1.200000e+02  3.347200e+02  1.200000e+02  3.347200e+02 
  372   373   374     1  1.200000e+02  3.347200e+02  1.200000e+02  3.347200e+02 
  373   374   375     1  1.200000e+02  3.347200e+02  1.200000e+02  3.347200e+02 
  373   374   413     1  1.200000e+02  3.347200e+02  1.200000e+02  3.347200e+02 
  375   374   413     1  1.200000e+02  3.347200e+02  1.200000e+02  3.347200e+02 
  374   375   376     1  1.200000e+02  3.347200e+02  1.200000e+02  3.347200e+02 
  374   375   416     1  1.200000e+02  3.347200e+02  1.200000e+02  3.347200e+02 
  376   375   416     1  1.200000e+02  3.347200e+02  1.200000e+02  3.347200e+02 
  335   376   375     1  1.200000e+02  3.347200e+02  1.200000e+02  3.347200e+02 
  335   376   377     1  1.200000e+02  3.347200e+02  1.200000e+02  3.347200e+02 
  375   376   377     1  1.200000e+02  3.347200e+02  1.200000e+02  3.347200e+02 
  338   377   376     1  1.200000e+02  3.347200e+02  1.200000e+02  3.347200e+02 
  338   377   378     1  1.200000e+02  3.347200e+02  1.200000e+02  3.347200e+02 
  376   377   378     1  1.200000e+02  3.347200e+02  1.200000e+02  3.347200e+02 
  377   378   379     1  1.200000e+02  3.347200e+02  1.200000e+02  3.347200e+02 
  377   378   417     1  1.200000e+02  3.347200e+02  1.200000e+02  3.347200e+02 
  379   378   417     1  1.200000e+02  3.347200e+02  1.200000e+02  3.347200e+02 
  378   379   380     1  1.200000e+02  3.347200e+02  1.200000e+02  3.347200e+02 
  378   379   420     1  1.200000e+02  3.347200e+02  1.200000e+02  3.347200e+02 
  380   379   420     1  1.200000e+02  3.347200e+02  1.200000e+02  3.347200e+02 
  339   380   379     1  1.200000e+02  3.347200e+02  1.200000e+02  3.347200e+02 
  339   380   381     1  1.200000e+02  3.347200e+02  1.200000e+02  3.347200e+02 
  379   380   381     1  1.200000e+02  3.347200e+02  1.200000e+02  3.347200e+02 
  342   381   380     1  1.200000e+02  3.347200e+02  1.200000e+02  3.347200e+02 
  342   381   382     1  1.200000e+02  3.347200e+02  1.200000e+02  3.347200e+02 
  380   381   382     1  1.200000e+02  3.347200e+02  1.200000e+02  3.347200e+02 
  381   382   383     1  1.200000e+02  3.347200e+02  1.200000e+02  3.347200e+02 
  381   382   421     1  1.200000e+02  3.347200e+02  1.200000e+02  3.347200e+02 
  383   382   421     1  1.200000e+02  3.347200e+02  1.200000e+02  3.347200e+02 
  382   383   384     1  1.200000e+02  3.347200e+02  1.200000e+02  3.347200e+02 
  382   383   424     1  1.200000e+02  3.347200e+02  1.200000e+02  3.347200e+02 
  384   383   424     1  1.200000e+02  3.347200e+02  1.200000e+02  3.347200e+02 
  343   384   383     1  1.200000e+02  3.347200e+02  1.200000e+02  3.347200e+02 
  343   384   385     1  1.200000e+02  3.347200e+02  1.200000e+02  3.347200e+02 
  383   384   385     1  1.200000e+02  3.347200e+02  1.200000e+02  3.347200e+02 
  346   385   384     1  1.200000e+02  3.347200e+02  1.200000e+02  3.347200e+02 
  346   385   386     1  1.200000e+02  3.347200e+02  1.200000e+02  3.347200e+02 
  384   385   386     1  1.200000e+02  3.347200e+02  1.200000e+02  3.347200e+02 
  385   386   387     1  1.200000e+02  3.347200e+02  1.200000e+02  3.347200e+02 
  385   386   425     1  1.200000e+02  3.347200e+02  1.200000e+02  3.347200e+02 
  387   386   425     1  1.200000e+02  3.347200e+02  1.200000e+02  3.347200e+02 
  386   387   388     1  1.200000e+02  3.347200e+02  1.200000e+02  3.347200e+02 
  386   387   428     1  1.200000e+02  3.347200e+02  1.200000e+02  3.347200e+02 
  388   387   428     1  1.200000e+02  3.347200e+02  1.200000e+02  3.347200e+02 
  347   388   387     1  1.200000e+02  3.347200e+02  1.200000e+02  3.347200e+02 
  347   388   389     1  1.200000e+02  3.347200e+02  1.200000e+02  3.347200e+02 
  387   388   389     1  1.200000e+02  3.347200e+02  1.200000e+02  3.347200e+02 
  350   389   388     1  1.200000e+02  3.347200e+02  1.200000e+02  3.347200e+02 
  350   389   390     1  1.200000e+02  3.347200e+02  1.200000e+02  3.347200e+02 
  388   389   390     1  1.200000e+02  3.347200e+02  1.200000e+02  3.347200e+02 
  389   390   391     1  1.200000e+02  3.347200e+02  1.200000e+02  3.347200e+02 
  389   390   429     1  1.200000e+02  3.347200e+02  1.200000e+02  3.347200e+02 
  391   390   429     1  1.200000e+02  3.347200e+02  1.200000e+02  3.347200e+02 
  390   391   392     1  1.200000e+02  3.347200e+02  1.200000e+02  3.347200e+02 
  390   391   432     1  1.200000e+02  3.347200e+02  1.200000e+02  3.347200e+02 
  392   391   432     1  1.200000e+02  3.347200e+02  1.200000e+02  3.347200e+02 
  351   392   391     1  1.200000e+02  3.347200e+02  1.200000e+02  3.347200e+02 
  351   392   393     1  1.200000e+02  3.347200e+02  1.200000e+02  3.347200e+02 
  391   392   393     1  1.200000e+02  3.347200e+02  1.200000e+02  3.347200e+02 
  354   393   392     1  1.200000e+02  3.347200e+02  1.200000e+02  3.347200e+02 
  354   393   394     1  1.200000e+02  3.347200e+02  1.200000e+02  3.347200e+02 
  392   393   394     1  1.200000e+02  3.347200e+02  1.200000e+02  3.347200e+02 
  393   394   395     1  1.200000e+02  3.347200e+02  1.200000e+02  3.347200e+02 
  393   394   433     1  1.200000e+02  3.347200e+02  1.200000e+02  3.347200e+02 
  395   394   433     1  1.200000e+02  3.347200e+02  1.200000e+02  3.347200e+02 
  394   395   396     1  1.200000e+02  3.347200e+02  1.200000e+02  3.347200e+02 
  394   395   436     1  1.200000e+02  3.347200e+02  1.200000e+02  3.347200e+02 
  396   395   436     1  1.200000e+02  3.347200e+02  1.200000e+02  3.347200e+02 
  355   396   395     1  1.200000e+02  3.347200e+02  1.200000e+02  3.347200e+02 
  355   396   397     1  1.200000e+02  3.347200e+02  1.200000e+02  3.347200e+02 
  395   396   397     1  1.200000e+02  3.347200e+02  1.200000e+02  3.347200e+02 
  358   397   396     1  1.200000e+02  3.347200e+02  1.200000e+02  3.347200e+02 
  358   397   398     1  1.200000e+02  3.347200e+02  1.200000e+02  3.347200e+02 
  396   397   398     1  1.200000e+02  3.347200e+02  1.200000e+02  3.347200e+02 
  397   398   399     1  1.200000e+02  3.347200e+02  1.200000e+02  3.347200e+02 
  397   398   437     1  1.200000e+02  3.347200e+02  1.200000e+02  3.347200e+02 
  399   398   437     1  1.200000e+02  3.347200e+02  1.200000e+02  3.347200e+02 
  398   399   400     1  1.200000e+02  3.347200e+02  1.200000e+02  3.347200e+02 
  398   399   440     1  1.200000e+02  3.347200e+02  1.200000e+02  3.347200e+02 
  400   399   440     1  1.200000e+02  3.347200e+02  1.200000e+02  3.347200e+02 
  359   400   361     1  1.200000e+02  3.347200e+02  1.200000e+02  3.347200e+02 
  359   400   399     1  1.200000e+02  3.347200e+02  1.200000e+02  3.347200e+02 
  361   400   399     1  1.200000e+02  3.347200e+02  1.200000e+02  3.347200e+02 
  362   401   402     1  1.200000e+02  3.347200e+02  1.200000e+02  3.347200e+02 
  362   401   440     1  1.200000e+02  3.347200e+02  1.200000e+02  3.347200e+02 
  402   401   440     1  1.200000e+02  3.347200e+02  1.200000e+02  3.347200e+02 
  401   402   403     1  1.200000e+02  3.347200e+02  1.200000e+02  3.347200e+02 
  401   402   441     1  1.200000e+02  3.347200e+02  1.200000e+02  3.347200e+02 
  403   402   441     1  1.200000e+02  3.347200e+02  1.200000e+02  3.347200e+02 
  402   403   404     1  1.200000e+02  3.347200e+02  1.200000e+02  3.347200e+02 
  402   403   444     1  1.200000e+02  3.347200e+02  1.200000e+02  3.347200e+02 
  404   403   444     1  1.200000e+02  3.347200e+02  1.200000e+02  3.347200e+02 
  363   404   403     1  1.200000e+02  3.347200e+02  1.200000e+02  3.347200e+02 
  363   404   405     1  1.200000e+02  3.347200e+02  1.200000e+02  3.347200e+02 
  403   404   405     1  1.200000e+02  3.347200e+02  1.200000e+02  3.347200e+02 
  366   405   404     1  1.200000e+02  3.347200e+02  1.200000e+02  3.347200e+02 
  366   405   406     1  1.200000e+02  3.347200e+02  1.200000e+02  3.347200e+02 
  404   405   406     1  1.200000e+02  3.347200e+02  1.200000e+02  3.347200e+02 
  405   406   407     1  1.200000e+02  3.347200e+02  1.200000e+02  3.347200e+02 
  405   406   445     1  1.200000e+02  3.347200e+02  1.200000e+02  3.347200e+02 
  407   406   445     1  1.200000e+02  3.347200e+02  1.200000e+02  3.347200e+02 
  406   407   408     1  1.200000e+02  3.347200e+02  1.200000e+02  3.347200e+02 
  406   407   448     1  1.200000e+02  3.347200e+02  1.200000e+02  3.347200e+02 
  408   407   448     1  1.200000e+02  3.347200e+02  1.200000e+02  3.347200e+02 
  367   408   407     1  1.200000e+02  3.347200e+02  1.200000e+02  3.347200e+02 
  367   408   409     1  1.200000e+02  3.347200e+02  1.200000e+02  3.347200e+02 
  407   408   409     1  1.200000e+02  3.347200e+02  1.200000e+02  3.347200e+02 
  370   409   408     1  1.200000e+02  3.347200e+02  1.200000e+02  3.347200e+02 
  370   409   410     1  1.200000e+02  3.347200e+02  1.200000e+02  3.347200e+02 
  408   409   410     1  1.200000e+02  3.347200e+02  1.200000e+02  3.347200e+02 
  409   410   411     1  1.200000e+02  3.347200e+02  1.200000e+02  3.347200e+02 
  409   410   449     1  1.200000e+02  3.347200e+02  1.200000e+02  3.347200e+02 
  411   410   449     1  1.200000e+02  3.347200e+02  1.200000e+02  3.347200e+02 
  410   411   412     1  1.200000e+02  3.347200e+02  1.200000e+02  3.347200e+02 
  410   411   452     1  1.200000e+02  3.347200e+02  1.200000e+02  3.347200e+02 
  412   411   452     1  1.200000e+02  3.347200e+02  1.200000e+02  3.347200e+02 
  371   412   411     1  1.200000e+02  3.347200e+02  1.200000e+02  3.347200e+02 
  371   412   413     1  1.200000e+02  3.347200e+02  1.200000e+02  3.347200e+02 
  411   412   413     1  1.200000e+02  3.347200e+02  1.200000e+02  3.347200e+02 
  374   413   412     1  1.200000e+02  3.347200e+02  1.200000e+02  3.347200e+02 
  374   413   414     1  1.200000e+02  3.347200e+02  1.200000e+02  3.347200e+02 
  412   413   414     1  1.200000e+02  3.347200e+02  1.200000e+02  3.347200e+02 
  413   414   415     1  1.200000e+02  3.347200e+02  1.200000e+02  3.347200e+02 
  413   414   453     1  1.200000e+02  3.347200e+02  1.200000e+02  3.347200e+02 
  415   414   453     1  1.200000e+02  3.347200e+02  1.200000e+02  3.347200e+02 
  414   415   416     1  1.200000e+02  3.347200e+02  1.200000e+02  3.347200e+02 
  414   415   456     1  1.200000e+02  3.347200e+02  1.200000e+02  3.347200e+02 
  416   415   456     1  1.200000e+02  3.347200e+02  1.200000e+02  3.347200e+02 
  375   416   415     1  1.200000e+02  3.347200e+02  1.200000e+02  3.347200e+02 
  375   416   417     1  1.200000e+02  3.347200e+02  1.200000e+02  3.347200e+02 
  415   416   417     1  1.200000e+02  3.347200e+02  1.200000e+02  3.347200e+02 
  378   417   416     1  1.200000e+02  3.347200e+02  1.200000e+02  3.347200e+02 
  378   417   418     1  1.200000e+02  3.347200e+02  1.200000e+02  3.347200e+02 
  416   417   418     1  1.200000e+02  3.347200e+02  1.200000e+02  3.347200e+02 
  417   418   419     1  1.200000e+02  3.347200e+02  1.200000e+02  3.347200e+02 
  417   418   457     1  1.200000e+02  3.347200e+02  1.200000e+02  3.347200e+02 
  419   418   457     1  1.200000e+02  3.347200e+02  1.200000e+02  3.347200e+02 
  418   419   420     1  1.200000e+02  3.347200e+02  1.200000e+02  3.347200e+02 
  418   419   460     1  1.200000e+02  3.347200e+02  1.200000e+02  3.347200e+02 
  420   419   460     1  1.200000e+02  3.347200e+02  1.200000e+02  3.347200e+02 
  379   420   419     1  1.200000e+02  3.347200e+02  1.200000e+02  3.347200e+02 
  379   420   421     1  1.200000e+02  3.347200e+02  1.200000e+02  3.347200e+02 
  419   420   421     1  1.200000e+02  3.347200e+02  1.200000e+02  3.347200e+02 
  382   421   420     1  1.200000e+02  3.347200e+02  1.200000e+02  3.347200e+02 
  382   421   422     1  1.200000e+02  3.347200e+02  1.200000e+02  3.347200e+02 
  420   421   422     1  1.200000e+02  3.347200e+02  1.200000e+02  3.347200e+02 
  421   422   423     1  1.200000e+02  3.347200e+02  1.200000e+02  3.347200e+02 
  421   422   461     1  1.200000e+02  3.347200e+02  1.200000e+02  3.347200e+02 
  423   422   461     1  1.200000e+02  3.347200e+02  1.200000e+02  3.347200e+02 
  422   423   424     1  1.200000e+02  3.347200e+02  1.200000e+02  3.347200e+02 
  422   423   464     1  1.200000e+02  3.347200e+02  1.200000e+02  3.347200e+02 
  424   423   464     1  1.200000e+02  3.347200e+02  1.200000e+02  3.347200e+02 
  383   424   423     1  1.200000e+02  3.347200e+02  1.200000e+02  3.347200e+02 
  383   424   425     1  1.200000e+02  3.347200e+02  1.200000e+02  3.347200e+02 
  423   424   425     1  1.200000e+02  3.347200e+02  1.200000e+02  3.347200e+02 
  386   425   424     1  1.200000e+02  3.347200e+02  1.200000e+02  3.347200e+02 
  386   425   426     1  1.200000e+02  3.347200e+02  1.200000e+02  3.347200e+02 
  424   425   426     1  1.200000e+02  3.347200e+02  1.200000e+02  3.347200e+02 
  425   426   427     1  1.200000e+02  3.347200e+02  1.200000e+02  3.347200e+02 
  425   426   465     1  1.200000e+02  3.347200e+02  1.200000e+02  3.347200e+02 
  427   426   465     1  1.200000e+02  3.347200e+02  1.200000e+02  3.347200e+02 
  426   427   428     1  1.200000e+02  3.347200e+02  1.200000e+02  3.347200e+02 
  426   427   468     1  1.200000e+02  3.347200e+02  1.200000e+02  3.347200e+02 
  428   427   468     1  1.200000e+02  3.347200e+02  1.200000e+02  3.347200e+02 
  387   428   427     1  1.200000e+02  3.347200e+02  1.200000e+02  3.347200e+02 
  387   428   429     1  1.200000e+02  3.347200e+02  1.200000e+02  3.347200e+02 
  427   428   429     1  1.200000e+02  3.347200e+02  1.200000e+02  3.347200e+02 
  390   429   428     1  1.200000e+02  3.347200e+02  1.200000e+02  3.347200e+02 
  390   429   430     1  1.200000e+02  3.347200e+02  1.200000e+02  3.347200e+02 
  428   429   430     1  1.200000e+02  3.347200e+02  1.200000e+02  3.347200e+02 
  429   430   431     1  1.200000e+02  3.347200e+02  1.200000e+02  3.347200e+02 
  429   430   469     1  1.200000e+02  3.347200e+02  1.200000e+02  3.347200e+02 
  431   430   469     1  1.200000e+02  3.347200e+02  1.200000e+02  3.347200e+02 
  430   431   432     1  1.200000e+02  3.347200e+02  1.200000e+02  3.347200e+02 
  430   431   472     1  1.200000e+02  3.347200e+02  1.200000e+02  3.347200e+02 
  432   431   472     1  1.200000e+02  3.347200e+02  1.200000e+02  3.347200e+02 
  391   432   431     1  1.200000e+02  3.347200e+02  1.200000e+02  3.347200e+02 
  391   432   433     1  1.200000e+02  3.347200e+02  1.200000e+02  3.347200e+02 
  431   432   433     1  1.200000e+02  3.347200e+02  1.200000e+02  3.347200e+02 
  394   433   432     1  1.200000e+02  3.347200e+02  1.200000e+02  3.347200e+02 
  394   433   434     1  1.200000e+02  3.347200e+02  1.200000e+02  3.347200e+02 
  432   433   434     1  1.200000e+02  3.347200e+02  1.200000e+02  3.347200e+02 
  433   434   435     1  1.200000e+02  3.347200e+02  1.200000e+02  3.347200e+02 
  433   434   473     1  1.200000e+02  3.347200e+02  1.200000e+02  3.347200e+02 
  435   434   473     1  1.200000e+02  3.347200e+02  1.200000e+02  3.347200e+02 
  434   435   436     1  1.200000e+02  3.347200e+02  1.200000e+02  3.347200e+02 
  434   435   476     1  1.200000e+02  3.347200e+02  1.200000e+02  3.347200e+02 
  436   435   476     1  1.200000e+02  3.347200e+02  1.200000e+02  3.347200e+02 
  395   436   435     1  1.200000e+02  3.347200e+02  1.200000e+02  3.347200e+02 
  395   436   437     1  1.200000e+02  3.347200e+02  1.200000e+02  3.347200e+02 
  435   436   437     1  1.200000e+02  3.347200e+02  1.200000e+02  3.347200e+02 
  398   437   436     1  1.200000e+02  3.347200e+02  1.200000e+02  3.347200e+02 
  398   437   438     1  1.200000e+02  3.347200e+02  1.200000e+02  3.347200e+02 
  436   437   438     1  1.200000e+02  3.347200e+02  1.200000e+02  3.347200e+02 
  437   438   439     1  1.200000e+02  3.347200e+02  1.200000e+02  3.347200e+02 
  437   438   477     1  1.200000e+02  3.347200e+02  1.200000e+02  3.347200e+02 
  439   438   477     1  1.200000e+02  3.347200e+02  1.200000e+02  3.347200e+02 
  438   439   440     1  1.200000e+02  3.347200e+02  1.200000e+02  3.347200e+02 
  438   439   480     1  1.200000e+02  3.347200e+02  1.200000e+02  3.347200e+02 
  440   439   480     1  1.200000e+02  3.347200e+02  1.200000e+02  3.347200e+02 
  399   440   401     1  1.200000e+02  3.347200e+02  1.200000e+02  3.347200e+02 
  399   440   439     1  1.200000e+02  3.347200e+02  1.200000e+02  3.347200e+02 
  401   440   439     1  1.200000e+02  3.347200e+02  1.200000e+02  3.347200e+02 
  402   441   442     1  1.200000e+02  3.347200e+02  1.200000e+02  3.347200e+02 
  402   441   480     1  1.200000e+02  3.347200e+02  1.200000e+02  3.347200e+02 
  442   441   480     1  1.200000e+02  3.347200e+02  1.200000e+02  3.347200e+02 
  441   442   443     1  1.200000e+02  3.347200e+02  1.200000e+02  3.347200e+02 
  441   442   481     1  1.200000e+02  3.347200e+02  1.200000e+02  3.347200e+02 
  443   442   481     1  1.200000e+02  3.347200e+02  1.200000e+02  3.347200e+02 
  442   443   444     1  1.200000e+02  3.347200e+02  1.200000e+02  3.347200e+02 
  442   443   484     1  1.200000e+02  3.347200e+02  1.200000e+02  3.347200e+02 
  444   443   484     1  1.200000e+02  3.347200e+02  1.200000e+02  3.347200e+02 
  403   444   443     1  1.200000e+02  3.347200e+02  1.200000e+02  3.347200e+02 
  403   444   445     1  1.200000e+02  3.347200e+02  1.200000e+02  3.347200e+02 
  443   444   445     1  1.200000e+02  3.347200e+02  1.200000e+02  3.347200e+02 
  406   445   444     1  1.200000e+02  3.347200e+02  1.200000e+02  3.347200e+02 
  406   445   446     1  1.200000e+02  3.347200e+02  1.200000e+02  3.347200e+02 
  444   445   446     1  1.200000e+02  3.347200e+02  1.200000e+02  3.347200e+02 
  445   446   447     1  1.200000e+02  3.347200e+02  1.200000e+02  3.347200e+02 
  445   446   485     1  1.200000e+02  3.347200e+02  1.200000e+02  3.347200e+02 
  447   446   485     1  1.200000e+02  3.347200e+02  1.200000e+02  3.347200e+02 
  446   447   448     1  1.200000e+02  3.347200e+02  1.200000e+02  3.347200e+02 
  446   447   488     1  1.200000e+02  3.347200e+02  1.200000e+02  3.347200e+02 
  448   447   488     1  1.200000e+02  3.347200e+02  1.200000e+02  3.347200e+02 
  407   448   447     1  1.200000e+02  3.347200e+02  1.200000e+02  3.347200e+02 
  407   448   449     1  1.200000e+02  3.347200e+02  1.200000e+02  3.347200e+02 
  447   448   449     1  1.200000e+02  3.347200e+02  1.200000e+02  3.347200e+02 
  410   449   448     1  1.200000e+02  3.347200e+02  1.200000e+02  3.347200e+02 
  410   449   450     1  1.200000e+02  3.347200e+02  1.200000e+02  3.347200e+02 
  448   449   450     1  1.200000e+02  3.347200e+02  1.200000e+02  3.347200e+02 
  449   450   451     1  1.200000e+02  3.347200e+02  1.200000e+02  3.347200e+02 
  449   450   489     1  1.200000e+02  3.347200e+02  1.200000e+02  3.347200e+02 
  451   450   489     1  1.200000e+02  3.347200e+02  1.200000e+02  3.347200e+02 
  450   451   452     1  1.200000e+02  3.347200e+02  1.200000e+02  3.347200e+02 
  450   451   492     1  1.200000e+02  3.347200e+02  1.200000e+02  3.347200e+02 
  452   451   492     1  1.200000e+02  3.347200e+02  1.200000e+02  3.347200e+02 
  411   452   451     1  1.200000e+02  3.347200e+02  1.200000e+02  3.347200e+02 
  411   452   453     1  1.200000e+02  3.347200e+02  1.200000e+02  3.347200e+02 
  451   452   453     1  1.200000e+02  3.347200e+02  1.200000e+02  3.347200e+02 
  414   453   452     1  1.200000e+02  3.347200e+02  1.200000e+02  3.347200e+02 
  414   453   454     1  1.200000e+02  3.347200e+02  1.200000e+02  3.347200e+02 
  452   453   454     1  1.200000e+02  3.347200e+02  1.200000e+02  3.347200e+02 
  453   454   455     1  1.200000e+02  3.347200e+02  1.200000e+02  3.347200e+02 
  453   454   493     1  1.200000e+02  3.347200e+02  1.200000e+02  3.347200e+02 
  455   454   493     1  1.200000e+02  3.347200e+02  1.200000e+02  3.347200e+02 
  454   455   456     1  1.200000e+02  3.347200e+02  1.200000e+02  3.347200e+02 
  454   455   496     1  1.200000e+02  3.347200e+02  1.200000e+02  3.347200e+02 
  456   455   496     1  1.200000e+02  3.347200e+02  1.200000e+02  3.347200e+02 
  415   456   455     1  1.200000e+02  3.347200e+02  1.200000e+02  3.347200e+02 
  415   456   457     1  1.200000e+02  3.347200e+02  1.200000e+02  3.347200e+02 
  455   456   457     1  1.200000e+02  3.347200e+02  1.200000e+02  3.347200e+02 
  418   457   456     1  1.200000e+02  3.347200e+02  1.200000e+02  3.347200e+02 
  418   457   458     1  1.200000e+02  3.347200e+02  1.200000e+02  3.347200e+02 
  456   457   458     1  1.200000e+02  3.347200e+02  1.200000e+02  3.347200e+02 
  457   458   459     1  1.200000e+02  3.347200e+02  1.200000e+02  3.347200e+02 
  457   458   497     1  1.200000e+02  3.347200e+02  1.200000e+02  3.347200e+02 
  459   458   497     1  1.200000e+02  3.347200e+02  1.200000e+02  3.347200e+02 
  458   459   460     1  1.200000e+02  3.347200e+02  1.200000e+02  3.347200e+02 
  458   459   500     1  1.200000e+02  3.347200e+02  1.200000e+02  3.347200e+02 
  460   459   500     1  1.200000e+02  3.347200e+02  1.200000e+02  3.347200e+02 
  419   460   459     1  1.200000e+02  3.347200e+02  1.200000e+02  3.347200e+02 
  419   460   461     1  1.200000e+02  3.347200e+02  1.200000e+02  3.347200e+02 
  459   460   461     1  1.200000e+02  3.347200e+02  1.200000e+02  3.347200e+02 
  422   461   460     1  1.200000e+02  3.347200e+02  1.200000e+02  3.347200e+02 
  422   461   462     1  1.200000e+02  3.347200e+02  1.200000e+02  3.347200e+02 
  460   461   462     1  1.200000e+02  3.347200e+02  1.200000e+02  3.347200e+02 
  461   462   463     1  1.200000e+02  3.347200e+02  1.200000e+02  3.347200e+02 
  461   462   501     1  1.200000e+02  3.347200e+02  1.200000e+02  3.347200e+02 
  463   462   501     1  1.200000e+02  3.347200e+02  1.200000e+02  3.347200e+02 
  462   463   464     1  1.200000e+02  3.347200e+02  1.200000e+02  3.347200e+02 
  462   463   504     1  1.200000e+02  3.347200e+02  1.200000e+02  3.347200e+02 
  464   463   504     1  1.200000e+02  3.347200e+02  1.200000e+02  3.347200e+02 
  423   464   463     1  1.200000e+02  3.347200e+02  1.200000e+02  3.347200e+02 
  423   464   465     1  1.200000e+02  3.347200e+02  1.200000e+02  3.347200e+02 
  463   464   465     1  1.200000e+02  3.347200e+02  1.200000e+02  3.347200e+02 
  426   465   464     1  1.200000e+02  3.347200e+02  1.200000e+02  3.347200e+02 
  426   465   466     1  1.200000e+02  3.347200e+02  1.200000e+02  3.347200e+02 
  464   465   466     1  1.200000e+02  3.347200e+02  1.200000e+02  3.347200e+02 
  465   466   467     1  1.200000e+02  3.347200e+02  1.200000e+02  3.347200e+02 
  465   466   505     1  1.200000e+02  3.347200e+02  1.200000e+02  3.347200e+02 
  467   466   505     1  1.200000e+02  3.347200e+02  1.200000e+02  3.347200e+02 
  466   467   468     1  1.200000e+02  3.347200e+02  1.200000e+02  3.347200e+02 
  466   467   508     1  1.200000e+02  3.347200e+02  1.200000e+02  3.347200e+02 
  468   467   508     1  1.200000e+02  3.347200e+02  1.200000e+02  3.347200e+02 
  427   468   467     1  1.200000e+02  3.347200e+02  1.200000e+02  3.347200e+02 
  427   468   469     1  1.200000e+02  3.347200e+02  1.200000e+02  3.347200e+02 
  467   468   469     1  1.200000e+02  3.347200e+02  1.200000e+02  3.347200e+02 
  430   469   468     1  1.200000e+02  3.347200e+02  1.200000e+02  3.347200e+02 
  430   469   470     1  1.200000e+02  3.347200e+02  1.200000e+02  3.347200e+02 
  468   469   470     1  1.200000e+02  3.347200e+02  1.200000e+02  3.347200e+02 
  469   470   471     1  1.200000e+02  3.347200e+02  1.200000e+02  3.347200e+02 
  469   470   509     1  1.200000e+02  3.347200e+02  1.200000e+02  3.347200e+02 
  471   470   509     1  1.200000e+02  3.347200e+02  1.200000e+02  3.347200e+02 
  470   471   472     1  1.200000e+02  3.347200e+02  1.200000e+02  3.347200e+02 
  470   471   512     1  1.200000e+02  3.347200e+02  1.200000e+02  3.347200e+02 
  472   471   512     1  1.200000e+02  3.347200e+02  1.200000e+02  3.347200e+02 
  431   472   471     1  1.200000e+02  3.347200e+02  1.200000e+02  3.347200e+02 
  431   472   473     1  1.200000e+02  3.347200e+02  1.200000e+02  3.347200e+02 
  471   472   473     1  1.200000e+02  3.347200e+02  1.200000e+02  3.347200e+02 
  434   473   472     1  1.200000e+02  3.347200e+02  1.200000e+02  3.347200e+02 
  434   473   474     1  1.200000e+02  3.347200e+02  1.200000e+02  3.347200e+02 
  472   473   474     1  1.200000e+02  3.347200e+02  1.200000e+02  3.347200e+02 
  473   474   475     1  1.200000e+02  3.347200e+02  1.200000e+02  3.347200e+02 
  473   474   513     1  1.200000e+02  3.347200e+02  1.200000e+02  3.347200e+02 
  475   474   513     1  1.200000e+02  3.347200e+02  1.200000e+02  3.347200e+02 
  474   475   476     1  1.200000e+02  3.347200e+02  1.200000e+02  3.347200e+02 
  474   475   516     1  1.200000e+02  3.347200e+02  1.200000e+02  3.347200e+02 
  476   475   516     1  1.200000e+02  3.347200e+02  1.200000e+02  3.347200e+02 
  435   476   475     1  1.200000e+02  3.347200e+02  1.200000e+02  3.347200e+02 
  435   476   477     1  1.200000e+02  3.347200e+02  1.200000e+02  3.347200e+02 
  475   476   477     1  1.200000e+02  3.347200e+02  1.200000e+02  3.347200e+02 
  438   477   476     1  1.200000e+02  3.347200e+02  1.200000e+02  3.347200e+02 
  438   477   478     1  1.200000e+02  3.347200e+02  1.200000e+02  3.347200e+02 
  476   477   478     1  1.200000e+02  3.347200e+02  1.200000e+02  3.347200e+02 
  477   478   479     1  1.200000e+02  3.347200e+02  1.200000e+02  3.347200e+02 
  477   478   517     1  1.200000e+02  3.347200e+02  1.200000e+02  3.347200e+02 
  479   478   517     1  1.200000e+02  3.347200e+02  1.200000e+02  3.347200e+02 
  478   479   480     1  1.200000e+02  3.347200e+02  1.200000e+02  3.347200e+02 
  478   479   520     1  1.200000e+02  3.347200e+02  1.200000e+02  3.347200e+02 
  480   479   520     1  1.200000e+02  3.347200e+02  1.200000e+02  3.347200e+02 
  439   480   441     1  1.200000e+02  3.347200e+02  1.200000e+02  3.347200e+02 
  439   480   479     1  1.200000e+02  3.347200e+02  1.200000e+02  3.347200e+02 
  441   480   479     1  1.200000e+02  3.347200e+02  1.200000e+02  3.347200e+02 
  442   481   482     1  1.200000e+02  3.347200e+02  1.200000e+02  3.347200e+02 
  442   481   520     1  1.200000e+02  3.347200e+02  1.200000e+02  3.347200e+02 
  482   481   520     1  1.200000e+02  3.347200e+02  1.200000e+02  3.347200e+02 
  481   482   483     1  1.200000e+02  3.347200e+02  1.200000e+02  3.347200e+02 
  481   482   521     1  1.200000e+02  3.347200e+02  1.200000e+02  3.347200e+02 
  483   482   521     1  1.200000e+02  3.347200e+02  1.200000e+02  3.347200e+02 
  482   483   484     1  1.200000e+02  3.347200e+02  1.200000e+02  3.347200e+02 
  482   483   524     1  1.200000e+02  3.347200e+02  1.200000e+02  3.347200e+02 
  484   483   524     1  1.200000e+02  3.347200e+02  1.200000e+02  3.347200e+02 
  443   484   483     1  1.200000e+02  3.347200e+02  1.200000e+02  3.347200e+02 
  443   484   485     1  1.200000e+02  3.347200e+02  1.200000e+02  3.347200e+02 
  483   484   485     1  1.200000e+02  3.347200e+02  1.200000e+02  3.347200e+02 
  446   485   484     1  1.200000e+02  3.347200e+02  1.200000e+02  3.347200e+02 
  446   485   486     1  1.200000e+02  3.347200e+02  1.200000e+02  3.347200e+02 
  484   485   486     1  1.200000e+02  3.347200e+02  1.200000e+02  3.347200e+02 
  485   486   487     1  1.200000e+02  3.347200e+02  1.200000e+02  3.347200e+02 
  485   486   525     1  1.200000e+02  3.347200e+02  1.200000e+02  3.347200e+02 
  487   486   525     1  1.200000e+02  3.347200e+02  1.200000e+02  3.347200e+02 
  486   487   488     1  1.200000e+02  3.347200e+02  1.200000e+02  3.347200e+02 
  486   487   528     1  1.200000e+02  3.347200e+02  1.200000e+02  3.347200e+02 
  488   487   528     1  1.200000e+02  3.347200e+02  1.200000e+02  3.347200e+02 
  447   488   487     1  1.200000e+02  3.347200e+02  1.200000e+02  3.347200e+02 
  447   488   489     1  1.200000e+02  3.347200e+02  1.200000e+02  3.347200e+02 
  487   488   489     1  1.200000e+02  3.347200e+02  1.200000e+02  3.347200e+02 
  450   489   488     1  1.200000e+02  3.347200e+02  1.200000e+02  3.347200e+02 
  450   489   490     1  1.200000e+02  3.347200e+02  1.200000e+02  3.347200e+02 
  488   489   490     1  1.200000e+02  3.347200e+02  1.200000e+02  3.347200e+02 
  489   490   491     1  1.200000e+02  3.347200e+02  1.200000e+02  3.347200e+02 
  489   490   529     1  1.200000e+02  3.347200e+02  1.200000e+02  3.347200e+02 
  491   490   529     1  1.200000e+02  3.347200e+02  1.200000e+02  3.347200e+02 
  490   491   492     1  1.200000e+02  3.347200e+02  1.200000e+02  3.347200e+02 
  490   491   532     1  1.200000e+02  3.347200e+02  1.200000e+02  3.347200e+02 
  492   491   532     1  1.200000e+02  3.347200e+02  1.200000e+02  3.347200e+02 
  451   492   491     1  1.200000e+02  3.347200e+02  1.200000e+02  3.347200e+02 
  451   492   493     1  1.200000e+02  3.347200e+02  1.200000e+02  3.347200e+02 
  491   492   493     1  1.200000e+02  3.347200e+02  1.200000e+02  3.347200e+02 
  454   493   492     1  1.200000e+02  3.347200e+02  1.200000e+02  3.347200e+02 
  454   493   494     1  1.200000e+02  3.347200e+02  1.200000e+02  3.347200e+02 
  492   493   494     1  1.200000e+02  3.347200e+02  1.200000e+02  3.347200e+02 
  493   494   495     1  1.200000e+02  3.347200e+02  1.200000e+02  3.347200e+02 
  493   494   533     1  1.200000e+02  3.347200e+02  1.200000e+02  3.347200e+02 
  495   494   533     1  1.200000e+02  3.347200e+02  1.200000e+02  3.347200e+02 
  494   495   496     1  1.200000e+02  3.347200e+02  1.200000e+02  3.347200e+02 
  494   495   536     1  1.200000e+02  3.347200e+02  1.200000e+02  3.347200e+02 
  496   495   536     1  1.200000e+02  3.347200e+02  1.200000e+02  3.347200e+02 
  455   496   495     1  1.200000e+02  3.347200e+02  1.200000e+02  3.347200e+02 
  455   496   497     1  1.200000e+02  3.347200e+02  1.200000e+02  3.347200e+02 
  495   496   497     1  1.200000e+02  3.347200e+02  1.200000e+02  3.347200e+02 
  458   497   496     1  1.200000e+02  3.347200e+02  1.200000e+02  3.347200e+02 
  458   497   498     1  1.200000e+02  3.347200e+02  1.200000e+02  3.347200e+02 
  496   497   498     1  1.200000e+02  3.347200e+02  1.200000e+02  3.347200e+02 
  497   498   499     1  1.200000e+02  3.347200e+02  1.200000e+02  3.347200e+02 
  497   498   537     1  1.200000e+02  3.347200e+02  1.200000e+02  3.347200e+02 
  499   498   537     1  1.200000e+02  3.347200e+02  1.200000e+02  3.347200e+02 
  498   499   500     1  1.200000e+02  3.347200e+02  1.200000e+02  3.347200e+02 
  498   499   540     1  1.200000e+02  3.347200e+02  1.200000e+02  3.347200e+02 
  500   499   540     1  1.200000e+02  3.347200e+02  1.200000e+02  3.347200e+02 
  459   500   499     1  1.200000e+02  3.347200e+02  1.200000e+02  3.347200e+02 
  459   500   501     1  1.200000e+02  3.347200e+02  1.200000e+02  3.347200e+02 
  499   500   501     1  1.200000e+02  3.347200e+02  1.200000e+02  3.347200e+02 
  462   501   500     1  1.200000e+02  3.347200e+02  1.200000e+02  3.347200e+02 
  462   501   502     1  1.200000e+02  3.347200e+02  1.200000e+02  3.347200e+02 
  500   501   502     1  1.200000e+02  3.347200e+02  1.200000e+02  3.347200e+02 
  501   502   503     1  1.200000e+02  3.347200e+02  1.200000e+02  3.347200e+02 
  501   502   541     1  1.200000e+02  3.347200e+02  1.200000e+02  3.347200e+02 
  503   502   541     1  1.200000e+02  3.347200e+02  1.200000e+02  3.347200e+02 
  502   503   504     1  1.200000e+02  3.347200e+02  1.200000e+02  3.347200e+02 
  502   503   544     1  1.200000e+02  3.347200e+02  1.200000e+02  3.347200e+02 
  504   503   544     1  1.200000e+02  3.347200e+02  1.200000e+02  3.347200e+02 
  463   504   503     1  1.200000e+02  3.347200e+02  1.200000e+02  3.347200e+02 
  463   504   505     1  1.200000e+02  3.347200e+02  1.200000e+02  3.347200e+02 
  503   504   505     1  1.200000e+02  3.347200e+02  1.200000e+02  3.347200e+02 
  466   505   504     1  1.200000e+02  3.347200e+02  1.200000e+02  3.347200e+02 
  466   505   506     1  1.200000e+02  3.347200e+02  1.200000e+02  3.347200e+02 
  504   505   506     1  1.200000e+02  3.347200e+02  1.200000e+02  3.347200e+02 
  505   506   507     1  1.200000e+02  3.347200e+02  1.200000e+02  3.347200e+02 
  505   506   545     1  1.200000e+02  3.347200e+02  1.200000e+02  3.347200e+02 
  507   506   545     1  1.200000e+02  3.347200e+02  1.200000e+02  3.347200e+02 
  506   507   508     1  1.200000e+02  3.347200e+02  1.200000e+02  3.347200e+02 
  506   507   548     1  1.200000e+02  3.347200e+02  1.200000e+02  3.347200e+02 
  508   507   548     1  1.200000e+02  3.347200e+02  1.200000e+02  3.347200e+02 
  467   508   507     1  1.200000e+02  3.347200e+02  1.200000e+02  3.347200e+02 
  467   508   509     1  1.200000e+02  3.347200e+02  1.200000e+02  3.347200e+02 
  507   508   509     1  1.200000e+02  3.347200e+02  1.200000e+02  3.347200e+02 
  470   509   508     1  1.200000e+02  3.347200e+02  1.200000e+02  3.347200e+02 
  470   509   510     1  1.200000e+02  3.347200e+02  1.200000e+02  3.347200e+02 
  508   509   510     1  1.200000e+02  3.347200e+02  1.200000e+02  3.347200e+02 
  509   510   511     1  1.200000e+02  3.347200e+02  1.200000e+02  3.347200e+02 
  509   510   549     1  1.200000e+02  3.347200e+02  1.200000e+02  3.347200e+02 
  511   510   549     1  1.200000e+02  3.347200e+02  1.200000e+02  3.347200e+02 
  510   511   512     1  1.200000e+02  3.347200e+02  1.200000e+02  3.347200e+02 
  510   511   552     1  1.200000e+02  3.347200e+02  1.200000e+02  3.347200e+02 
  512   511   552     1  1.200000e+02  3.347200e+02  1.200000e+02  3.347200e+02 
  471   512   511     1  1.200000e+02  3.347200e+02  1.200000e+02  3.347200e+02 
  471   512   513     1  1.200000e+02  3.347200e+02  1.200000e+02  3.347200e+02 
  511   512   513     1  1.200000e+02  3.347200e+02  1.200000e+02  3.347200e+02 
  474   513   512     1  1.200000e+02  3.347200e+02  1.200000e+02  3.347200e+02 
  474   513   514     1  1.200000e+02  3.347200e+02  1.200000e+02  3.347200e+02 
  512   513   514     1  1.200000e+02  3.347200e+02  1.200000e+02  3.347200e+02 
  513   514   515     1  1.200000e+02  3.347200e+02  1.200000e+02  3.347200e+02 
  513   514   553     1  1.200000e+02  3.347200e+02  1.200000e+02  3.347200e+02 
  515   514   553     1  1.200000e+02  3.347200e+02  1.200000e+02  3.347200e+02 
  514   515   516     1  1.200000e+02  3.347200e+02  1.200000e+02  3.347200e+02 
  514   515   556     1  1.200000e+02  3.347200e+02  1.200000e+02  3.347200e+02 
  516   515   556     1  1.200000e+02  3.347200e+02  1.200000e+02  3.347200e+02 
  475   516   515     1  1.200000e+02  3.347200e+02  1.200000e+02  3.347200e+02 
  475   516   517     1  1.200000e+02  3.347200e+02  1.200000e+02  3.347200e+02 
  515   516   517     1  1.200000e+02  3.347200e+02  1.200000e+02  3.347200e+02 
  478   517   516     1  1.200000e+02  3.347200e+02  1.200000e+02  3.347200e+02 
  478   517   518     1  1.200000e+02  3.347200e+02  1.200000e+02  3.347200e+02 
  516   517   518     1  1.200000e+02  3.347200e+02  1.200000e+02  3.347200e+02 
  517   518   519     1  1.200000e+02  3.347200e+02  1.200000e+02  3.347200e+02 
  517   518   557     1  1.200000e+02  3.347200e+02  1.200000e+02  3.347200e+02 
  519   518   557     1  1.200000e+02  3.347200e+02  1.200000e+02  3.347200e+02 
  518   519   520     1  1.200000e+02  3.347200e+02  1.200000e+02  3.347200e+02 
  518   519   560     1  1.200000e+02  3.347200e+02  1.200000e+02  3.347200e+02 
  520   519   560     1  1.200000e+02  3.347200e+02  1.200000e+02  3.347200e+02 
  479   520   481     1  1.200000e+02  3.347200e+02  1.200000e+02  3.347200e+02 
  479   520   519     1  1.200000e+02  3.347200e+02  1.200000e+02  3.347200e+02 
  481   520   519     1  1.200000e+02  3.347200e+02  1.200000e+02  3.347200e+02 
  482   521   522     1  1.200000e+02  3.347200e+02  1.200000e+02  3.347200e+02 
  482   521   560     1  1.200000e+02  3.347200e+02  1.200000e+02  3.347200e+02 
  522   521   560     1  1.200000e+02  3.347200e+02  1.200000e+02  3.347200e+02 
  521   522   523     1  1.200000e+02  3.347200e+02  1.200000e+02  3.347200e+02 
  521   522   561     1  1.200000e+02  3.347200e+02  1.200000e+02  3.347200e+02 
  523   522   561     1  1.200000e+02  3.347200e+02  1.200000e+02  3.347200e+02 
  522   523   524     1  1.200000e+02  3.347200e+02  1.200000e+02  3.347200e+02 
  522   523   564     1  1.200000e+02  3.347200e+02  1.200000e+02  3.347200e+02 
  524   523   564     1  1.200000e+02  3.347200e+02  1.200000e+02  3.347200e+02 
  483   524   523     1  1.200000e+02  3.347200e+02  1.200000e+02  3.347200e+02 
  483   524   525     1  1.200000e+02  3.347200e+02  1.200000e+02  3.347200e+02 
  523   524   525     1  1.200000e+02  3.347200e+02  1.200000e+02  3.347200e+02 
  486   525   524     1  1.200000e+02  3.347200e+02  1.200000e+02  3.347200e+02 
  486   525   526     1  1.200000e+02  3.347200e+02  1.200000e+02  3.347200e+02 
  524   525   526     1  1.200000e+02  3.347200e+02  1.200000e+02  3.347200e+02 
  525   526   527     1  1.200000e+02  3.347200e+02  1.200000e+02  3.347200e+02 
  525   526   565     1  1.200000e+02  3.347200e+02  1.200000e+02  3.347200e+02 
  527   526   565     1  1.200000e+02  3.347200e+02  1.200000e+02  3.347200e+02 
  526   527   528     1  1.200000e+02  3.347200e+02  1.200000e+02  3.347200e+02 
  526   527   568     1  1.200000e+02  3.347200e+02  1.200000e+02  3.347200e+02 
  528   527   568     1  1.200000e+02  3.347200e+02  1.200000e+02  3.347200e+02 
  487   528   527     1  1.200000e+02  3.347200e+02  1.200000e+02  3.347200e+02 
  487   528   529     1  1.200000e+02  3.347200e+02  1.200000e+02  3.347200e+02 
  527   528   529     1  1.200000e+02  3.347200e+02  1.200000e+02  3.347200e+02 
  490   529   528     1  1.200000e+02  3.347200e+02  1.200000e+02  3.347200e+02 
  490   529   530     1  1.200000e+02  3.347200e+02  1.200000e+02  3.347200e+02 
  528   529   530     1  1.200000e+02  3.347200e+02  1.200000e+02  3.347200e+02 
  529   530   531     1  1.200000e+02  3.347200e+02  1.200000e+02  3.347200e+02 
  529   530   569     1  1.200000e+02  3.347200e+02  1.200000e+02  3.347200e+02 
  531   530   569     1  1.200000e+02  3.347200e+02  1.200000e+02  3.347200e+02 
  530   531   532     1  1.200000e+02  3.347200e+02  1.200000e+02  3.347200e+02 
  530   531   572     1  1.200000e+02  3.347200e+02  1.200000e+02  3.347200e+02 
  532   531   572     1  1.200000e+02  3.347200e+02  1.200000e+02  3.347200e+02 
  491   532   531     1  1.200000e+02  3.347200e+02  1.200000e+02  3.347200e+02 
  491   532   533     1  1.200000e+02  3.347200e+02  1.200000e+02  3.347200e+02 
  531   532   533     1  1.200000e+02  3.347200e+02  1.200000e+02  3.347200e+02 
  494   533   532     1  1.200000e+02  3.347200e+02  1.200000e+02  3.347200e+02 
  494   533   534     1  1.200000e+02  3.347200e+02  1.200000e+02  3.347200e+02 
  532   533   534     1  1.200000e+02  3.347200e+02  1.200000e+02  3.347200e+02 
  533   534   535     1  1.200000e+02  3.347200e+02  1.200000e+02  3.347200e+02 
  533   534   573     1  1.200000e+02  3.347200e+02  1.200000e+02  3.347200e+02 
  535   534   573     1  1.200000e+02  3.347200e+02  1.200000e+02  3.347200e+02 
  534   535   536     1  1.200000e+02  3.347200e+02  1.200000e+02  3.347200e+02 
  534   535   576     1  1.200000e+02  3.347200e+02  1.200000e+02  3.347200e+02 
  536   535   576     1  1.200000e+02  3.347200e+02  1.200000e+02  3.347200e+02 
  495   536   535     1  1.200000e+02  3.347200e+02  1.200000e+02  3.347200e+02 
  495   536   537     1  1.200000e+02  3.347200e+02  1.200000e+02  3.347200e+02 
  535   536   537     1  1.200000e+02  3.347200e+02  1.200000e+02  3.347200e+02 
  498   537   536     1  1.200000e+02  3.347200e+02  1.200000e+02  3.347200e+02 
  498   537   538     1  1.200000e+02  3.347200e+02  1.200000e+02  3.347200e+02 
  536   537   538     1  1.200000e+02  3.347200e+02  1.200000e+02  3.347200e+02 
  537   538   539     1  1.200000e+02  3.347200e+02  1.200000e+02  3.347200e+02 
  537   538   577     1  1.200000e+02  3.347200e+02  1.200000e+02  3.347200e+02 
  539   538   577     1  1.200000e+02  3.347200e+02  1.200000e+02  3.347200e+02 
  538   539   540     1  1.200000e+02  3.347200e+02  1.200000e+02  3.347200e+02 
  538   539   580     1  1.200000e+02  3.347200e+02  1.200000e+02  3.347200e+02 
  540   539   580     1  1.200000e+02  3.347200e+02  1.200000e+02  3.347200e+02 
  499   540   539     1  1.200000e+02  3.347200e+02  1.200000e+02  3.347200e+02 
  499   540   541     1  1.200000e+02  3.347200e+02  1.200000e+02  3.347200e+02 
  539   540   541     1  1.200000e+02  3.347200e+02  1.200000e+02  3.347200e+02 
  502   541   540     1  1.200000e+02  3.347200e+02  1.200000e+02  3.347200e+02 
  502   541   542     1  1.200000e+02  3.347200e+02  1.200000e+02  3.347200e+02 
  540   541   542     1  1.200000e+02  3.347200e+02  1.200000e+02  3.347200e+02 
  541   542   543     1  1.200000e+02  3.347200e+02  1.200000e+02  3.347200e+02 
  541   542   581     1  1.200000e+02  3.347200e+02  1.200000e+02  3.347200e+02 
  543   542   581     1  1.200000e+02  3.347200e+02  1.200000e+02  3.347200e+02 
  542   543   544     1  1.200000e+02  3.347200e+02  1.200000e+02  3.347200e+02 
  542   543   584     1  1.200000e+02  3.347200e+02  1.200000e+02  3.347200e+02 
  544   543   584     1  1.200000e+02  3.347200e+02  1.200000e+02  3.347200e+02 
  503   544   543     1  1.200000e+02  3.347200e+02  1.200000e+02  3.347200e+02 
  503   544   545     1  1.200000e+02  3.347200e+02  1.200000e+02  3.347200e+02 
  543   544   545     1  1.200000e+02  3.347200e+02  1.200000e+02  3.347200e+02 
  506   545   544     1  1.200000e+02  3.347200e+02  1.200000e+02  3.347200e+02 
  506   545   546     1  1.200000e+02  3.347200e+02  1.200000e+02  3.347200e+02 
  544   545   546     1  1.200000e+02  3.347200e+02  1.200000e+02  3.347200e+02 
  545   546   547     1  1.200000e+02  3.347200e+02  1.200000e+02  3.347200e+02 
  545   546   585     1  1.200000e+02  3.347200e+02  1.200000e+02  3.347200e+02 
  547   546   585     1  1.200000e+02  3.347200e+02  1.200000e+02  3.347200e+02 
  546   547   548     1  1.200000e+02  3.347200e+02  1.200000e+02  3.347200e+02 
  546   547   588     1  1.200000e+02  3.347200e+02  1.200000e+02  3.347200e+02 
  548   547   588     1  1.200000e+02  3.347200e+02  1.200000e+02  3.347200e+02 
  507   548   547     1  1.200000e+02  3.347200e+02  1.200000e+02  3.347200e+02 
  507   548   549     1  1.200000e+02  3.347200e+02  1.200000e+02  3.347200e+02 
  547   548   549     1  1.200000e+02  3.347200e+02  1.200000e+02  3.347200e+02 
  510   549   548     1  1.200000e+02  3.347200e+02  1.200000e+02  3.347200e+02 
  510   549   550     1  1.200000e+02  3.347200e+02  1.200000e+02  3.347200e+02 
  548   549   550     1  1.200000e+02  3.347200e+02  1.200000e+02  3.347200e+02 
  549   550   551     1  1.200000e+02  3.347200e+02  1.200000e+02  3.347200e+02 
  549   550   589     1  1.200000e+02  3.347200e+02  1.200000e+02  3.347200e+02 
  551   550   589     1  1.200000e+02  3.347200e+02  1.200000e+02  3.347200e+02 
  550   551   552     1  1.200000e+02  3.347200e+02  1.200000e+02  3.347200e+02 
  550   551   592     1  1.200000e+02  3.347200e+02  1.200000e+02  3.347200e+02 
  552   551   592     1  1.200000e+02  3.347200e+02  1.200000e+02  3.347200e+02 
  511   552   551     1  1.200000e+02  3.347200e+02  1.200000e+02  3.347200e+02 
  511   552   553     1  1.200000e+02  3.347200e+02  1.200000e+02  3.347200e+02 
  551   552   553     1  1.200000e+02  3.347200e+02  1.200000e+02  3.347200e+02 
  514   553   552     1  1.200000e+02  3.347200e+02  1.200000e+02  3.347200e+02 
  514   553   554     1  1.200000e+02  3.347200e+02  1.200000e+02  3.347200e+02 
  552   553   554     1  1.200000e+02  3.347200e+02  1.200000e+02  3.347200e+02 
  553   554   555     1  1.200000e+02  3.347200e+02  1.200000e+02  3.347200e+02 
  553   554   593     1  1.200000e+02  3.347200e+02  1.200000e+02  3.347200e+02 
  555   554   593     1  1.200000e+02  3.347200e+02  1.200000e+02  3.347200e+02 
  554   555   556     1  1.200000e+02  3.347200e+02  1.200000e+02  3.347200e+02 
  554   555   596     1  1.200000e+02  3.347200e+02  1.200000e+02  3.347200e+02 
  556   555   596     1  1.200000e+02  3.347200e+02  1.200000e+02  3.347200e+02 
  515   556   555     1  1.200000e+02  3.347200e+02  1.200000e+02  3.347200e+02 
  515   556   557     1  1.200000e+02  3.347200e+02  1.200000e+02  3.347200e+02 
  555   556   557     1  1.200000e+02  3.347200e+02  1.200000e+02  3.347200e+02 
  518   557   556     1  1.200000e+02  3.347200e+02  1.200000e+02  3.347200e+02 
  518   557   558     1  1.200000e+02  3.347200e+02  1.200000e+02  3.347200e+02 
  556   557   558     1  1.200000e+02  3.347200e+02  1.200000e+02  3.347200e+02 
  557   558   559     1  1.200000e+02  3.347200e+02  1.200000e+02  3.347200e+02 
  557   558   597     1  1.200000e+02  3.347200e+02  1.200000e+02  3.347200e+02 
  559   558   597     1  1.200000e+02  3.347200e+02  1.200000e+02  3.347200e+02 
  558   559   560     1  1.200000e+02  3.347200e+02  1.200000e+02  3.347200e+02 
  558   559   600     1  1.200000e+02  3.347200e+02  1.200000e+02  3.347200e+02 
  560   559   600     1  1.200000e+02  3.347200e+02  1.200000e+02  3.347200e+02 
  519   560   521     1  1.200000e+02  3.347200e+02  1.200000e+02  3.347200e+02 
  519   560   559     1  1.200000e+02  3.347200e+02  1.200000e+02  3.347200e+02 
  521   560   559     1  1.200000e+02  3.347200e+02  1.200000e+02  3.347200e+02 
  522   561   562     1  1.200000e+02  3.347200e+02  1.200000e+02  3.347200e+02 
  522   561   600     1  1.200000e+02  3.347200e+02  1.200000e+02  3.347200e+02 
  562   561   600     1  1.200000e+02  3.347200e+02  1.200000e+02  3.347200e+02 
    1   562   561     1  1.200000e+02  3.347200e+02  1.200000e+02  3.347200e+02 
    1   562   563     1  1.200000e+02  3.347200e+02  1.200000e+02  3.347200e+02 
  561   562   563     1  1.200000e+02  3.347200e+02  1.200000e+02  3.347200e+02 
    4   563   562     1  1.200000e+02  3.347200e+02  1.200000e+02  3.347200e+02 
    4   563   564     1  1.200000e+02  3.347200e+02  1.200000e+02  3.347200e+02 
  562   563   564     1  1.200000e+02  3.347200e+02  1.200000e+02  3.347200e+02 
  523   564   563     1  1.200000e+02  3.347200e+02  1.200000e+02  3.347200e+02 
  523   564   565     1  1.200000e+02  3.347200e+02  1.200000e+02  3.347200e+02 
  563   564   565     1  1.200000e+02  3.347200e+02  1.200000e+02  3.347200e+02 
  526   565   564     1  1.200000e+02  3.347200e+02  1.200000e+02  3.347200e+02 
  526   565   566     1  1.200000e+02  3.347200e+02  1.200000e+02  3.347200e+02 
  564   565   566     1  1.200000e+02  3.347200e+02  1.200000e+02  3.347200e+02 
    5   566   565     1  1.200000e+02  3.347200e+02  1.200000e+02  3.347200e+02 
    5   566   567     1  1.200000e+02  3.347200e+02  1.200000e+02  3.347200e+02 
  565   566   567     1  1.200000e+02  3.347200e+02  1.200000e+02  3.347200e+02 
    8   567   566     1  1.200000e+02  3.347200e+02  1.200000e+02  3.347200e+02 
    8   567   568     1  1.200000e+02  3.347200e+02  1.200000e+02  3.347200e+02 
  566   567   568     1  1.200000e+02  3.347200e+02  1.200000e+02  3.347200e+02 
  527   568   567     1  1.200000e+02  3.347200e+02  1.200000e+02  3.347200e+02 
  527   568   569     1  1.200000e+02  3.347200e+02  1.200000e+02  3.347200e+02 
  567   568   569     1  1.200000e+02  3.347200e+02  1.200000e+02  3.347200e+02 
  530   569   568     1  1.200000e+02  3.347200e+02  1.200000e+02  3.347200e+02 
  530   569   570     1  1.200000e+02  3.347200e+02  1.200000e+02  3.347200e+02 
  568   569   570     1  1.200000e+02  3.347200e+02  1.200000e+02  3.347200e+02 
    9   570   569     1  1.200000e+02  3.347200e+02  1.200000e+02  3.347200e+02 
    9   570   571     1  1.200000e+02  3.347200e+02  1.200000e+02  3.347200e+02 
  569   570   571     1  1.200000e+02  3.347200e+02  1.200000e+02  3.347200e+02 
   12   571   570     1  1.200000e+02  3.347200e+02  1.200000e+02  3.347200e+02 
   12   571   572     1  1.200000e+02  3.347200e+02  1.200000e+02  3.347200e+02 
  570   571   572     1  1.200000e+02  3.347200e+02  1.200000e+02  3.347200e+02 
  531   572   571     1  1.200000e+02  3.347200e+02  1.200000e+02  3.347200e+02 
  531   572   573     1  1.200000e+02  3.347200e+02  1.200000e+02  3.347200e+02 
  571   572   573     1  1.200000e+02  3.347200e+02  1.200000e+02  3.347200e+02 
  534   573   572     1  1.200000e+02  3.347200e+02  1.200000e+02  3.347200e+02 
  534   573   574     1  1.200000e+02  3.347200e+02  1.200000e+02  3.347200e+02 
  572   573   574     1  1.200000e+02  3.347200e+02  1.200000e+02  3.347200e+02 
   13   574   573     1  1.200000e+02  3.347200e+02  1.200000e+02  3.347200e+02 
   13   574   575     1  1.200000e+02  3.347200e+02  1.200000e+02  3.347200e+02 
  573   574   575     1  1.200000e+02  3.347200e+02  1.200000e+02  3.347200e+02 
   16   575   574     1  1.200000e+02  3.347200e+02  1.200000e+02  3.347200e+02 
   16   575   576     1  1.200000e+02  3.347200e+02  1.200000e+02  3.347200e+02 
  574   575   576     1  1.200000e+02  3.347200e+02  1.200000e+02  3.347200e+02 
  535   576   575     1  1.200000e+02  3.347200e+02  1.200000e+02  3.347200e+02 
  535   576   577     1  1.200000e+02  3.347200e+02  1.200000e+02  3.347200e+02 
  575   576   577     1  1.200000e+02  3.347200e+02  1.200000e+02  3.347200e+02 
  538   577   576     1  1.200000e+02  3.347200e+02  1.200000e+02  3.347200e+02 
  538   577   578     1  1.200000e+02  3.347200e+02  1.200000e+02  3.347200e+02 
  576   577   578     1  1.200000e+02  3.347200e+02  1.200000e+02  3.347200e+02 
   17   578   577     1  1.200000e+02  3.347200e+02  1.200000e+02  3.347200e+02 
   17   578   579     1  1.200000e+02  3.347200e+02  1.200000e+02  3.347200e+02 
  577   578   579     1  1.200000e+02  3.347200e+02  1.200000e+02  3.347200e+02 
   20   579   578     1  1.200000e+02  3.347200e+02  1.200000e+02  3.347200e+02 
   20   579   580     1  1.200000e+02  3.347200e+02  1.200000e+02  3.347200e+02 
  578   579   580     1  1.200000e+02  3.347200e+02  1.200000e+02  3.347200e+02 
  539   580   579     1  1.200000e+02  3.347200e+02  1.200000e+02  3.347200e+02 
  539   580   581     1  1.200000e+02  3.347200e+02  1.200000e+02  3.347200e+02 
  579   580   581     1  1.200000e+02  3.347200e+02  1.200000e+02  3.347200e+02 
  542   581   580     1  1.200000e+02  3.347200e+02  1.200000e+02  3.347200e+02 
  542   581   582     1  1.200000e+02  3.347200e+02  1.200000e+02  3.347200e+02 
  580   581   582     1  1.200000e+02  3.347200e+02  1.200000e+02  3.347200e+02 
   21   582   581     1  1.200000e+02  3.347200e+02  1.200000e+02  3.347200e+02 
   21   582   583     1  1.200000e+02  3.347200e+02  1.200000e+02  3.347200e+02 
  581   582   583     1  1.200000e+02  3.347200e+02  1.200000e+02  3.347200e+02 
   24   583   582     1  1.200000e+02  3.347200e+02  1.200000e+02  3.347200e+02 
   24   583   584     1  1.200000e+02  3.347200e+02  1.200000e+02  3.347200e+02 
  582   583   584     1  1.200000e+02  3.347200e+02  1.200000e+02  3.347200e+02 
  543   584   583     1  1.200000e+02  3.347200e+02  1.200000e+02  3.347200e+02 
  543   584   585     1  1.200000e+02  3.347200e+02  1.200000e+02  3.347200e+02 
  583   584   585     1  1.200000e+02  3.347200e+02  1.200000e+02  3.347200e+02 
  546   585   584     1  1.200000e+02  3.347200e+02  1.200000e+02  3.347200e+02 
  546   585   586     1  1.200000e+02  3.347200e+02  1.200000e+02  3.347200e+02 
  584   585   586     1  1.200000e+02  3.347200e+02  1.200000e+02  3.347200e+02 
   25   586   585     1  1.200000e+02  3.347200e+02  1.200000e+02  3.347200e+02 
   25   586   587     1  1.200000e+02  3.347200e+02  1.200000e+02  3.347200e+02 
  585   586   587     1  1.200000e+02  3.347200e+02  1.200000e+02  3.347200e+02 
   28   587   586     1  1.200000e+02  3.347200e+02  1.200000e+02  3.347200e+02 
   28   587   588     1  1.200000e+02  3.347200e+02  1.200000e+02  3.347200e+02 
  586   587   588     1  1.200000e+02  3.347200e+02  1.200000e+02  3.347200e+02 
  547   588   587     1  1.200000e+02  3.347200e+02  1.200000e+02  3.347200e+02 
  547   588   589     1  1.200000e+02  3.347200e+02  1.200000e+02  3.347200e+02 
  587   588   589     1  1.200000e+02  3.347200e+02  1.200000e+02  3.347200e+02 
  550   589   588     1  1.200000e+02  3.347200e+02  1.200000e+02  3.347200e+02 
  550   589   590     1  1.200000e+02  3.347200e+02  1.200000e+02  3.347200e+02 
  588   589   590     1  1.200000e+02  3.347200e+02  1.200000e+02  3.347200e+02 
   29   590   589     1  1.200000e+02  3.347200e+02  1.200000e+02  3.347200e+02 
   29   590   591     1  1.200000e+02  3.347200e+02  1.200000e+02  3.347200e+02 
  589   590   591     1  1.200000e+02  3.347200e+02  1.200000e+02  3.347200e+02 
   32   591   590     1  1.200000e+02  3.347200e+02  1.200000e+02  3.347200e+02 
   32   591   592     1  1.200000e+02  3.347200e+02  1.200000e+02  3.347200e+02 
  590   591   592     1  1.200000e+02  3.347200e+02  1.200000e+02  3.347200e+02 
  551   592   591     1  1.200000e+02  3.347200e+02  1.200000e+02  3.347200e+02 
  551   592   593     1  1.200000e+02  3.347200e+02  1.200000e+02  3.347200e+02 
  591   592   593     1  1.200000e+02  3.347200e+02  1.200000e+02  3.347200e+02 
  554   593   592     1  1.200000e+02  3.347200e+02  1.200000e+02  3.347200e+02 
  554   593   594     1  1.200000e+02  3.347200e+02  1.200000e+02  3.347200e+02 
  592   593   594     1  1.200000e+02  3.347200e+02  1.200000e+02  3.347200e+02 
   33   594   593     1  1.200000e+02  3.347200e+02  1.200000e+02  3.347200e+02 
   33   594   595     1  1.200000e+02  3.347200e+02  1.200000e+02  3.347200e+02 
  593   594   595     1  1.200000e+02  3.347200e+02  1.200000e+02  3.347200e+02 
   36   595   594     1  1.200000e+02  3.347200e+02  1.200000e+02  3.347200e+02 
   36   595   596     1  1.200000e+02  3.347200e+02  1.200000e+02  3.347200e+02 
  594   595   596     1  1.200000e+02  3.347200e+02  1.200000e+02  3.347200e+02 
  555   596   595     1  1.200000e+02  3.347200e+02  1.200000e+02  3.347200e+02 
  555   596   597     1  1.200000e+02  3.347200e+02  1.200000e+02  3.347200e+02 
  595   596   597     1  1.200000e+02  3.347200e+02  1.200000e+02  3.347200e+02 
  558   597   596     1  1.200000e+02  3.347200e+02  1.200000e+02  3.347200e+02 
  558   597   598     1  1.200000e+02  3.347200e+02  1.200000e+02  3.347200e+02 
  596   597   598     1  1.200000e+02  3.347200e+02  1.200000e+02  3.347200e+02 
   37   598   597     1  1.200000e+02  3.347200e+02  1.200000e+02  3.347200e+02 
   37   598   599     1  1.200000e+02  3.347200e+02  1.200000e+02  3.347200e+02 
  597   598   599     1  1.200000e+02  3.347200e+02  1.200000e+02  3.347200e+02 
   40   599   598     1  1.200000e+02  3.347200e+02  1.200000e+02  3.347200e+02 
   40   599   600     1  1.200000e+02  3.347200e+02  1.200000e+02  3.347200e+02 
  598   599   600     1  1.200000e+02  3.347200e+02  1.200000e+02  3.347200e+02 
  559   600   561     1  1.200000e+02  3.347200e+02  1.200000e+02  3.347200e+02 
  559   600   599     1  1.200000e+02  3.347200e+02  1.200000e+02  3.347200e+02 
  561   600   599     1  1.200000e+02  3.347200e+02  1.200000e+02  3.347200e+02 

[ dihedrals ]
;  ai    aj    ak    al funct            c0            c1            c2            c3            c4            c5
   40     1     2     3     1  3.600000e+02  1.297040e+01  3.000000e+00  3.600000e+02  1.297040e+01  3.000000e+00 
   40     1     2    41     1  1.800000e+02  1.297040e+01  3.000000e+00  1.800000e+02  1.297040e+01  3.000000e+00 
  562     1     2     3     1  1.800000e+02  1.297040e+01  3.000000e+00  1.800000e+02  1.297040e+01  3.000000e+00 
  562     1     2    41     1  3.600000e+02  1.297040e+01  3.000000e+00  3.600000e+02  1.297040e+01  3.000000e+00 
    2     1    40    39     1  1.800000e+02  1.297040e+01  3.000000e+00  1.800000e+02  1.297040e+01  3.000000e+00 
    2     1    40   599     1  3.600000e+02  1.297040e+01  3.000000e+00  3.600000e+02  1.297040e+01  3.000000e+00 
  562     1    40    39     1  3.600000e+02  1.297040e+01  3.000000e+00  3.600000e+02  1.297040e+01  3.000000e+00 
  562     1    40   599     1  1.800000e+02  1.297040e+01  3.000000e+00  1.800000e+02  1.297040e+01  3.000000e+00 
    2     1   562   561     1  3.600000e+02  1.297040e+01  3.000000e+00  3.600000e+02  1.297040e+01  3.000000e+00 
    2     1   562   563     1  1.800000e+02  1.297040e+01  3.000000e+00  1.800000e+02  1.297040e+01  3.000000e+00 
   40     1   562   561     1  1.800000e+02  1.297040e+01  3.000000e+00  1.800000e+02  1.297040e+01  3.000000e+00 
   40     1   562   563     1  3.600000e+02  1.297040e+01  3.000000e+00  3.600000e+02  1.297040e+01  3.000000e+00 
    1     2     3     4     1  1.800000e+02  1.297040e+01  3.000000e+00  1.800000e+02  1.297040e+01  3.000000e+00 
    1     2     3    44     1  3.600000e+02  1.297040e+01  3.000000e+00  3.600000e+02  1.297040e+01  3.000000e+00 
   41     2     3     4     1  3.600000e+02  1.297040e+01  3.000000e+00  3.600000e+02  1.297040e+01  3.000000e+00 
   41     2     3    44     1  1.800000e+02  1.297040e+01  3.000000e+00  1.800000e+02  1.297040e+01  3.000000e+00 
    1     2    41    42     1  3.600000e+02  1.297040e+01  3.000000e+00  3.600000e+02  1.297040e+01  3.000000e+00 
    1     2    41    80     1  1.800000e+02  1.297040e+01  3.000000e+00  1.800000e+02  1.297040e+01  3.000000e+00 
    3     2    41    42     1  1.800000e+02  1.297040e+01  3.000000e+00  1.800000e+02  1.297040e+01  3.000000e+00 
    3     2    41    80     1  3.600000e+02  1.297040e+01  3.000000e+00  3.600000e+02  1.297040e+01  3.000000e+00 
    2     3     4     5     1  3.600000e+02  1.297040e+01  3.000000e+00  3.600000e+02  1.297040e+01  3.000000e+00 
    2     3     4   563     1  1.800000e+02  1.297040e+01  3.000000e+00  1.800000e+02  1.297040e+01  3.000000e+00 
   44     3     4     5     1  1.800000e+02  1.297040e+01  3.000000e+00  1.800000e+02  1.297040e+01  3.000000e+00 
   44     3     4   563     1  3.600000e+02  1.297040e+01  3.000000e+00  3.600000e+02  1.297040e+01  3.000000e+00 
    2     3    44    43     1  1.800000e+02  1.297040e+01  3.000000e+00  1.800000e+02  1.297040e+01  3.000000e+00 
    2     3    44    45     1  3.600000e+02  1.297040e+01  3.000000e+00  3.600000e+02  1.297040e+01  3.000000e+00 
    4     3    44    43     1  3.600000e+02  1.297040e+01  3.000000e+00  3.600000e+02  1.297040e+01  3.000000e+00 
    4     3    44    45     1  1.800000e+02  1.297040e+01  3.000000e+00  1.800000e+02  1.297040e+01  3.000000e+00 
    3     4     5     6     1  1.800000e+02  1.297040e+01  3.000000e+00  1.800000e+02  1.297040e+01  3.000000e+00 
    3     4     5   566     1  3.600000e+02  1.297040e+01  3.000000e+00  3.600000e+02  1.297040e+01  3.000000e+00 
  563     4     5     6     1  3.600000e+02  1.297040e+01  3.000000e+00  3.600000e+02  1.297040e+01  3.000000e+00 
  563     4     5   566     1  1.800000e+02  1.297040e+01  3.000000e+00  1.800000e+02  1.297040e+01  3.000000e+00 
    3     4   563   562     1  1.800000e+02  1.297040e+01  3.000000e+00  1.800000e+02  1.297040e+01  3.000000e+00 
    3     4   563   564     1  3.600000e+02  1.297040e+01  3.000000e+00  3.600000e+02  1.297040e+01  3.000000e+00 
    5     4   563   562     1  3.600000e+02  1.297040e+01  3.000000e+00  3.600000e+02  1.297040e+01  3.000000e+00 
    5     4   563   564     1  1.800000e+02  1.297040e+01  3.000000e+00  1.800000e+02  1.297040e+01  3.000000e+00 
    4     5     6     7     1  3.600000e+02  1.297040e+01  3.000000e+00  3.600000e+02  1.297040e+01  3.000000e+00 
    4     5     6    45     1  1.800000e+02  1.297040e+01  3.000000e+00  1.800000e+02  1.297040e+01  3.000000e+00 
  566     5     6     7     1  1.800000e+02  1.297040e+01  3.000000e+00  1.800000e+02  1.297040e+01  3.000000e+00 
  566     5     6    45     1  3.600000e+02  1.297040e+01  3.000000e+00  3.600000e+02  1.297040e+01  3.000000e+00 
    4     5   566   565     1  1.800000e+02  1.297040e+01  3.000000e+00  1.800000e+02  1.297040e+01  3.000000e+00 
    4     5   566   567     1  3.600000e+02  1.297040e+01  3.000000e+00  3.600000e+02  1.297040e+01  3.000000e+00 
    6     5   566   565     1  3.600000e+02  1.297040e+01  3.000000e+00  3.600000e+02  1.297040e+01  3.000000e+00 
    6     5   566   567     1  1.800000e+02  1.297040e+01  3.000000e+00  1.800000e+02  1.297040e+01  3.000000e+00 
    5     6     7     8     1  1.800000e+02  1.297040e+01  3.000000e+00  1.800000e+02  1.297040e+01  3.000000e+00 
    5     6     7    48     1  3.600000e+02  1.297040e+01  3.000000e+00  3.600000e+02  1.297040e+01  3.000000e+00 
   45     6     7     8     1  3.600000e+02  1.297040e+01  3.000000e+00  3.600000e+02  1.297040e+01  3.000000e+00 
   45     6     7    48     1  1.800000e+02  1.297040e+01  3.000000e+00  1.800000e+02  1.297040e+01  3.000000e+00 
    5     6    45    44     1  1.800000e+02  1.297040e+01  3.000000e+00  1.800000e+02  1.297040e+01  3.000000e+00 
    5     6    45    46     1  3.600000e+02  1.297040e+01  3.000000e+00  3.600000e+02  1.297040e+01  3.000000e+00 
    7     6    45    44     1  3.600000e+02  1.297040e+01  3.000000e+00  3.600000e+02  1.297040e+01  3.000000e+00 
    7     6    45    46     1  1.800000e+02  1.297040e+01  3.000000e+00  1.800000e+02  1.297040e+01  3.000000e+00 
    6     7     8     9     1  3.600000e+02  1.297040e+01  3.000000e+00  3.600000e+02  1.297040e+01  3.000000e+00 
    6     7     8   567     1  1.800000e+02  1.297040e+01  3.000000e+00  1.800000e+02  1.297040e+01  3.000000e+00 
   48     7     8     9     1  1.800000e+02  1.297040e+01  3.000000e+00  1.800000e+02  1.297040e+01  3.000000e+00 
   48     7     8   567     1  3.600000e+02  1.297040e+01  3.000000e+00  3.600000e+02  1.297040e+01  3.000000e+00 
    6     7    48    47     1  1.800000e+02  1.297040e+01  3.000000e+00  1.800000e+02  1.297040e+01  3.000000e+00 
    6     7    48    49     1  3.600000e+02  1.297040e+01  3.000000e+00  3.600000e+02  1.297040e+01  3.000000e+00 
    8     7    48    47     1  3.600000e+02  1.297040e+01  3.000000e+00  3.600000e+02  1.297040e+01  3.000000e+00 
    8     7    48    49     1  1.800000e+02  1.297040e+01  3.000000e+00  1.800000e+02  1.297040e+01  3.000000e+00 
    7     8     9    10     1  1.800000e+02  1.297040e+01  3.000000e+00  1.800000e+02  1.297040e+01  3.000000e+00 
    7     8     9   570     1  3.600000e+02  1.297040e+01  3.000000e+00  3.600000e+02  1.297040e+01  3.000000e+00 
  567     8     9    10     1  3.600000e+02  1.297040e+01  3.000000e+00  3.600000e+02  1.297040e+01  3.000000e+00 
  567     8     9   570     1  1.800000e+02  1.297040e+01  3.000000e+00  1.800000e+02  1.297040e+01  3.000000e+00 
    7     8   567   566     1  1.800000e+02  1.297040e+01  3.000000e+00  1.800000e+02  1.297040e+01  3.000000e+00 
    7     8   567   568     1  3.600000e+02  1.297040e+01  3.000000e+00  3.600000e+02  1.297040e+01  3.000000e+00 
    9     8   567   566     1  3.600000e+02  1.297040e+01  3.000000e+00  3.600000e+02  1.297040e+01  3.000000e+00 
    9     8   567   568     1  1.800000e+02  1.297040e+01  3.000000e+00  1.800000e+02  1.297040e+01  3.000000e+00 
    8     9    10    11     1  3.600000e+02  1.297040e+01  3.000000e+00  3.600000e+02  1.297040e+01  3.000000e+00 
    8     9    10    49     1  1.800000e+02  1.297040e+01  3.000000e+00  1.800000e+02  1.297040e+01  3.000000e+00 
  570     9    10    11     1  1.800000e+02  1.297040e+01  3.000000e+00  1.800000e+02  1.297040e+01  3.000000e+00 
  570     9    10    49     1  3.600000e+02  1.297040e+01  3.000000e+00  3.600000e+02  1.297040e+01  3.000000e+00 
    8     9   570   569     1  1.800000e+02  1.297040e+01  3.000000e+00  1.800000e+02  1.297040e+01  3.000000e+00 
    8     9   570   571     1  3.600000e+02  1.297040e+01  3.000000e+00  3.600000e+02  1.297040e+01  3.000000e+00 
   10     9   570   569     1  3.600000e+02  1.297040e+01  3.000000e+00  3.600000e+02  1.297040e+01  3.000000e+00 
   10     9   570   571     1  1.800000e+02  1.297040e+01  3.000000e+00  1.800000e+02  1.297040e+01  3.000000e+00 
    9    10    11    12     1  1.800000e+02  1.297040e+01  3.000000e+00  1.800000e+02  1.297040e+01  3.000000e+00 
    9    10    11    52     1  3.600000e+02  1.297040e+01  3.000000e+00  3.600000e+02  1.297040e+01  3.000000e+00 
   49    10    11    12     1  3.600000e+02  1.297040e+01  3.000000e+00  3.600000e+02  1.297040e+01  3.000000e+00 
   49    10    11    52     1  1.800000e+02  1.297040e+01  3.000000e+00  1.800000e+02  1.297040e+01  3.000000e+00 
    9    10    49    48     1  1.800000e+02  1.297040e+01  3.000000e+00  1.800000e+02  1.297040e+01  3.000000e+00 
    9    10    49    50     1  3.600000e+02  1.297040e+01  3.000000e+00  3.600000e+02  1.297040e+01  3.000000e+00 
   11    10    49    48     1  3.600000e+02  1.297040e+01  3.000000e+00  3.600000e+02  1.297040e+01  3.000000e+00 
   11    10    49    50     1  1.800000e+02  1.297040e+01  3.000000e+00  1.800000e+02  1.297040e+01  3.000000e+00 
   10    11    12    13     1  3.600000e+02  1.297040e+01  3.000000e+00  3.600000e+02  1.297040e+01  3.000000e+00 
   10    11    12   571     1  1.800000e+02  1.297040e+01  3.000000e+00  1.800000e+02  1.297040e+01  3.000000e+00 
   52    11    12    13     1  1.800000e+02  1.297040e+01  3.000000e+00  1.800000e+02  1.297040e+01  3.000000e+00 
   52    11    12   571     1  3.600000e+02  1.297040e+01  3.000000e+00  3.600000e+02  1.297040e+01  3.000000e+00 
   10    11    52    51     1  1.800000e+02  1.297040e+01  3.000000e+00  1.800000e+02  1.297040e+01  3.000000e+00 
   10    11    52    53     1  3.600000e+02  1.297040e+01  3.000000e+00  3.600000e+02  1.297040e+01  3.000000e+00 
   12    11    52    51     1  3.600000e+02  1.297040e+01  3.000000e+00  3.600000e+02  1.297040e+01  3.000000e+00 
   12    11    52    53     1  1.800000e+02  1.297040e+01  3.000000e+00  1.800000e+02  1.297040e+01  3.000000e+00 
   11    12    13    14     1  1.800000e+02  1.297040e+01  3.000000e+00  1.800000e+02  1.297040e+01  3.000000e+00 
   11    12    13   574     1  3.600000e+02  1.297040e+01  3.000000e+00  3.600000e+02  1.297040e+01  3.000000e+00 
  571    12    13    14     1  3.600000e+02  1.297040e+01  3.000000e+00  3.600000e+02  1.297040e+01  3.000000e+00 
  571    12    13   574     1  1.800000e+02  1.297040e+01  3.000000e+00  1.800000e+02  1.297040e+01  3.000000e+00 
   11    12   571   570     1  1.800000e+02  1.297040e+01  3.000000e+00  1.800000e+02  1.297040e+01  3.000000e+00 
   11    12   571   572     1  3.600000e+02  1.297040e+01  3.000000e+00  3.600000e+02  1.297040e+01  3.000000e+00 
   13    12   571   570     1  3.600000e+02  1.297040e+01  3.000000e+00  3.600000e+02  1.297040e+01  3.000000e+00 
   13    12   571   572     1  1.800000e+02  1.297040e+01  3.000000e+00  1.800000e+02  1.297040e+01  3.000000e+00 
   12    13    14    15     1  3.600000e+02  1.297040e+01  3.000000e+00  3.600000e+02  1.297040e+01  3.000000e+00 
   12    13    14    53     1  1.800000e+02  1.297040e+01  3.000000e+00  1.800000e+02  1.297040e+01  3.000000e+00 
  574    13    14    15     1  1.800000e+02  1.297040e+01  3.000000e+00  1.800000e+02  1.297040e+01  3.000000e+00 
  574    13    14    53     1  3.600000e+02  1.297040e+01  3.000000e+00  3.600000e+02  1.297040e+01  3.000000e+00 
   12    13   574   573     1  1.800000e+02  1.297040e+01  3.000000e+00  1.800000e+02  1.297040e+01  3.000000e+00 
   12    13   574   575     1  3.600000e+02  1.297040e+01  3.000000e+00  3.600000e+02  1.297040e+01  3.000000e+00 
   14    13   574   573     1  3.600000e+02  1.297040e+01  3.000000e+00  3.600000e+02  1.297040e+01  3.000000e+00 
   14    13   574   575     1  1.800000e+02  1.297040e+01  3.000000e+00  1.800000e+02  1.297040e+01  3.000000e+00 
   13    14    15    16     1  1.800000e+02  1.297040e+01  3.000000e+00  1.800000e+02  1.297040e+01  3.000000e+00 
   13    14    15    56     1  3.600000e+02  1.297040e+01  3.000000e+00  3.600000e+02  1.297040e+01  3.000000e+00 
   53    14    15    16     1  3.600000e+02  1.297040e+01  3.000000e+00  3.600000e+02  1.297040e+01  3.000000e+00 
   53    14    15    56     1  1.800000e+02  1.297040e+01  3.000000e+00  1.800000e+02  1.297040e+01  3.000000e+00 
   13    14    53    52     1  1.800000e+02  1.297040e+01  3.000000e+00  1.800000e+02  1.297040e+01  3.000000e+00 
   13    14    53    54     1  3.600000e+02  1.297040e+01  3.000000e+00  3.600000e+02  1.297040e+01  3.000000e+00 
   15    14    53    52     1  3.600000e+02  1.297040e+01  3.000000e+00  3.600000e+02  1.297040e+01  3.000000e+00 
   15    14    53    54     1  1.800000e+02  1.297040e+01  3.000000e+00  1.800000e+02  1.297040e+01  3.000000e+00 
   14    15    16    17     1  3.600000e+02  1.297040e+01  3.000000e+00  3.600000e+02  1.297040e+01  3.000000e+00 
   14    15    16   575     1  1.800000e+02  1.297040e+01  3.000000e+00  1.800000e+02  1.297040e+01  3.000000e+00 
   56    15    16    17     1  1.800000e+02  1.297040e+01  3.000000e+00  1.800000e+02  1.297040e+01  3.000000e+00 
   56    15    16   575     1  3.600000e+02  1.297040e+01  3.000000e+00  3.600000e+02  1.297040e+01  3.000000e+00 
   14    15    56    55     1  1.800000e+02  1.297040e+01  3.000000e+00  1.800000e+02  1.297040e+01  3.000000e+00 
   14    15    56    57     1  3.600000e+02  1.297040e+01  3.000000e+00  3.600000e+02  1.297040e+01  3.000000e+00 
   16    15    56    55     1  3.600000e+02  1.297040e+01  3.000000e+00  3.600000e+02  1.297040e+01  3.000000e+00 
   16    15    56    57     1  1.800000e+02  1.297040e+01  3.000000e+00  1.800000e+02  1.297040e+01  3.000000e+00 
   15    16    17    18     1  1.800000e+02  1.297040e+01  3.000000e+00  1.800000e+02  1.297040e+01  3.000000e+00 
   15    16    17   578     1  3.600000e+02  1.297040e+01  3.000000e+00  3.600000e+02  1.297040e+01  3.000000e+00 
  575    16    17    18     1  3.600000e+02  1.297040e+01  3.000000e+00  3.600000e+02  1.297040e+01  3.000000e+00 
  575    16    17   578     1  1.800000e+02  1.297040e+01  3.000000e+00  1.800000e+02  1.297040e+01  3.000000e+00 
   15    16   575   574     1  1.800000e+02  1.297040e+01  3.000000e+00  1.800000e+02  1.297040e+01  3.000000e+00 
   15    16   575   576     1  3.600000e+02  1.297040e+01  3.000000e+00  3.600000e+02  1.297040e+01  3.000000e+00 
   17    16   575   574     1  3.600000e+02  1.297040e+01  3.000000e+00  3.600000e+02  1.297040e+01  3.000000e+00 
   17    16   575   576     1  1.800000e+02  1.297040e+01  3.000000e+00  1.800000e+02  1.297040e+01  3.000000e+00 
   16    17    18    19     1  3.600000e+02  1.297040e+01  3.000000e+00  3.600000e+02  1.297040e+01  3.000000e+00 
   16    17    18    57     1  1.800000e+02  1.297040e+01  3.000000e+00  1.800000e+02  1.297040e+01  3.000000e+00 
  578    17    18    19     1  1.800000e+02  1.297040e+01  3.000000e+00  1.800000e+02  1.297040e+01  3.000000e+00 
  578    17    18    57     1  3.600000e+02  1.297040e+01  3.000000e+00  3.600000e+02  1.297040e+01  3.000000e+00 
   16    17   578   577     1  1.800000e+02  1.297040e+01  3.000000e+00  1.800000e+02  1.297040e+01  3.000000e+00 
   16    17   578   579     1  3.600000e+02  1.297040e+01  3.000000e+00  3.600000e+02  1.297040e+01  3.000000e+00 
   18    17   578   577     1  3.600000e+02  1.297040e+01  3.000000e+00  3.600000e+02  1.297040e+01  3.000000e+00 
   18    17   578   579     1  1.800000e+02  1.297040e+01  3.000000e+00  1.800000e+02  1.297040e+01  3.000000e+00 
   17    18    19    20     1  1.800000e+02  1.297040e+01  3.000000e+00  1.800000e+02  1.297040e+01  3.000000e+00 
   17    18    19    60     1  3.600000e+02  1.297040e+01  3.000000e+00  3.600000e+02  1.297040e+01  3.000000e+00 
   57    18    19    20     1  3.600000e+02  1.297040e+01  3.000000e+00  3.600000e+02  1.297040e+01  3.000000e+00 
   57    18    19    60     1  1.800000e+02  1.297040e+01  3.000000e+00  1.800000e+02  1.297040e+01  3.000000e+00 
   17    18    57    56     1  1.800000e+02  1.297040e+01  3.000000e+00  1.800000e+02  1.297040e+01  3.000000e+00 
   17    18    57    58     1  3.600000e+02  1.297040e+01  3.000000e+00  3.600000e+02  1.297040e+01  3.000000e+00 
   19    18    57    56     1  3.600000e+02  1.297040e+01  3.000000e+00  3.600000e+02  1.297040e+01  3.000000e+00 
   19    18    57    58     1  1.800000e+02  1.297040e+01  3.000000e+00  1.800000e+02  1.297040e+01  3.000000e+00 
   18    19    20    21     1  3.600000e+02  1.297040e+01  3.000000e+00  3.600000e+02  1.297040e+01  3.000000e+00 
   18    19    20   579     1  1.800000e+02  1.297040e+01  3.000000e+00  1.800000e+02  1.297040e+01  3.000000e+00 
   60    19    20    21     1  1.800000e+02  1.297040e+01  3.000000e+00  1.800000e+02  1.297040e+01  3.000000e+00 
   60    19    20   579     1  3.600000e+02  1.297040e+01  3.000000e+00  3.600000e+02  1.297040e+01  3.000000e+00 
   18    19    60    59     1  1.800000e+02  1.297040e+01  3.000000e+00  1.800000e+02  1.297040e+01  3.000000e+00 
   18    19    60    61     1  3.600000e+02  1.297040e+01  3.000000e+00  3.600000e+02  1.297040e+01  3.000000e+00 
   20    19    60    59     1  3.600000e+02  1.297040e+01  3.000000e+00  3.600000e+02  1.297040e+01  3.000000e+00 
   20    19    60    61     1  1.800000e+02  1.297040e+01  3.000000e+00  1.800000e+02  1.297040e+01  3.000000e+00 
   19    20    21    22     1  1.800000e+02  1.297040e+01  3.000000e+00  1.800000e+02  1.297040e+01  3.000000e+00 
   19    20    21   582     1  3.600000e+02  1.297040e+01  3.000000e+00  3.600000e+02  1.297040e+01  3.000000e+00 
  579    20    21    22     1  3.600000e+02  1.297040e+01  3.000000e+00  3.600000e+02  1.297040e+01  3.000000e+00 
  579    20    21   582     1  1.800000e+02  1.297040e+01  3.000000e+00  1.800000e+02  1.297040e+01  3.000000e+00 
   19    20   579   578     1  1.800000e+02  1.297040e+01  3.000000e+00  1.800000e+02  1.297040e+01  3.000000e+00 
   19    20   579   580     1  3.600000e+02  1.297040e+01  3.000000e+00  3.600000e+02  1.297040e+01  3.000000e+00 
   21    20   579   578     1  3.600000e+02  1.297040e+01  3.000000e+00  3.600000e+02  1.297040e+01  3.000000e+00 
   21    20   579   580     1  1.800000e+02  1.297040e+01  3.000000e+00  1.800000e+02  1.297040e+01  3.000000e+00 
   20    21    22    23     1  3.600000e+02  1.297040e+01  3.000000e+00  3.600000e+02  1.297040e+01  3.000000e+00 
   20    21    22    61     1  1.800000e+02  1.297040e+01  3.000000e+00  1.800000e+02  1.297040e+01  3.000000e+00 
  582    21    22    23     1  1.800000e+02  1.297040e+01  3.000000e+00  1.800000e+02  1.297040e+01  3.000000e+00 
  582    21    22    61     1  3.600000e+02  1.297040e+01  3.000000e+00  3.600000e+02  1.297040e+01  3.000000e+00 
   20    21   582   581     1  1.800000e+02  1.297040e+01  3.000000e+00  1.800000e+02  1.297040e+01  3.000000e+00 
   20    21   582   583     1  3.600000e+02  1.297040e+01  3.000000e+00  3.600000e+02  1.297040e+01  3.000000e+00 
   22    21   582   581     1  3.600000e+02  1.297040e+01  3.000000e+00  3.600000e+02  1.297040e+01  3.000000e+00 
   22    21   582   583     1  1.800000e+02  1.297040e+01  3.000000e+00  1.800000e+02  1.297040e+01  3.000000e+00 
   21    22    23    24     1  1.800000e+02  1.297040e+01  3.000000e+00  1.800000e+02  1.297040e+01  3.000000e+00 
   21    22    23    64     1  3.600000e+02  1.297040e+01  3.000000e+00  3.600000e+02  1.297040e+01  3.000000e+00 
   61    22    23    24     1  3.600000e+02  1.297040e+01  3.000000e+00  3.600000e+02  1.297040e+01  3.000000e+00 
   61    22    23    64     1  1.800000e+02  1.297040e+01  3.000000e+00  1.800000e+02  1.297040e+01  3.000000e+00 
   21    22    61    60     1  1.800000e+02  1.297040e+01  3.000000e+00  1.800000e+02  1.297040e+01  3.000000e+00 
   21    22    61    62     1  3.600000e+02  1.297040e+01  3.000000e+00  3.600000e+02  1.297040e+01  3.000000e+00 
   23    22    61    60     1  3.600000e+02  1.297040e+01  3.000000e+00  3.600000e+02  1.297040e+01  3.000000e+00 
   23    22    61    62     1  1.800000e+02  1.297040e+01  3.000000e+00  1.800000e+02  1.297040e+01  3.000000e+00 
   22    23    24    25     1  3.600000e+02  1.297040e+01  3.000000e+00  3.600000e+02  1.297040e+01  3.000000e+00 
   22    23    24   583     1  1.800000e+02  1.297040e+01  3.000000e+00  1.800000e+02  1.297040e+01  3.000000e+00 
   64    23    24    25     1  1.800000e+02  1.297040e+01  3.000000e+00  1.800000e+02  1.297040e+01  3.000000e+00 
   64    23    24   583     1  3.600000e+02  1.297040e+01  3.000000e+00  3.600000e+02  1.297040e+01  3.000000e+00 
   22    23    64    63     1  1.800000e+02  1.297040e+01  3.000000e+00  1.800000e+02  1.297040e+01  3.000000e+00 
   22    23    64    65     1  3.600000e+02  1.297040e+01  3.000000e+00  3.600000e+02  1.297040e+01  3.000000e+00 
   24    23    64    63     1  3.600000e+02  1.297040e+01  3.000000e+00  3.600000e+02  1.297040e+01  3.000000e+00 
   24    23    64    65     1  1.800000e+02  1.297040e+01  3.000000e+00  1.800000e+02  1.297040e+01  3.000000e+00 
   23    24    25    26     1  1.800000e+02  1.297040e+01  3.000000e+00  1.800000e+02  1.297040e+01  3.000000e+00 
   23    24    25   586     1  3.600000e+02  1.297040e+01  3.000000e+00  3.600000e+02  1.297040e+01  3.000000e+00 
  583    24    25    26     1  3.600000e+02  1.297040e+01  3.000000e+00  3.600000e+02  1.297040e+01  3.000000e+00 
  583    24    25   586     1  1.800000e+02  1.297040e+01  3.000000e+00  1.800000e+02  1.297040e+01  3.000000e+00 
   23    24   583   582     1  1.800000e+02  1.297040e+01  3.000000e+00  1.800000e+02  1.297040e+01  3.000000e+00 
   23    24   583   584     1  3.600000e+02  1.297040e+01  3.000000e+00  3.600000e+02  1.297040e+01  3.000000e+00 
   25    24   583   582     1  3.600000e+02  1.297040e+01  3.000000e+00  3.600000e+02  1.297040e+01  3.000000e+00 
   25    24   583   584     1  1.800000e+02  1.297040e+01  3.000000e+00  1.800000e+02  1.297040e+01  3.000000e+00 
   24    25    26    27     1  3.600000e+02  1.297040e+01  3.000000e+00  3.600000e+02  1.297040e+01  3.000000e+00 
   24    25    26    65     1  1.800000e+02  1.297040e+01  3.000000e+00  1.800000e+02  1.297040e+01  3.000000e+00 
  586    25    26    27     1  1.800000e+02  1.297040e+01  3.000000e+00  1.800000e+02  1.297040e+01  3.000000e+00 
  586    25    26    65     1  3.600000e+02  1.297040e+01  3.000000e+00  3.600000e+02  1.297040e+01  3.000000e+00 
   24    25   586   585     1  1.800000e+02  1.297040e+01  3.000000e+00  1.800000e+02  1.297040e+01  3.000000e+00 
   24    25   586   587     1  3.600000e+02  1.297040e+01  3.000000e+00  3.600000e+02  1.297040e+01  3.000000e+00 
   26    25   586   585     1  3.600000e+02  1.297040e+01  3.000000e+00  3.600000e+02  1.297040e+01  3.000000e+00 
   26    25   586   587     1  1.800000e+02  1.297040e+01  3.000000e+00  1.800000e+02  1.297040e+01  3.000000e+00 
   25    26    27    28     1  1.800000e+02  1.297040e+01  3.000000e+00  1.800000e+02  1.297040e+01  3.000000e+00 
   25    26    27    68     1  3.600000e+02  1.297040e+01  3.000000e+00  3.600000e+02  1.297040e+01  3.000000e+00 
   65    26    27    28     1  3.600000e+02  1.297040e+01  3.000000e+00  3.600000e+02  1.297040e+01  3.000000e+00 
   65    26    27    68     1  1.800000e+02  1.297040e+01  3.000000e+00  1.800000e+02  1.297040e+01  3.000000e+00 
   25    26    65    64     1  1.800000e+02  1.297040e+01  3.000000e+00  1.800000e+02  1.297040e+01  3.000000e+00 
   25    26    65    66     1  3.600000e+02  1.297040e+01  3.000000e+00  3.600000e+02  1.297040e+01  3.000000e+00 
   27    26    65    64     1  3.600000e+02  1.297040e+01  3.000000e+00  3.600000e+02  1.297040e+01  3.000000e+00 
   27    26    65    66     1  1.800000e+02  1.297040e+01  3.000000e+00  1.800000e+02  1.297040e+01  3.000000e+00 
   26    27    28    29     1  3.600000e+02  1.297040e+01  3.000000e+00  3.600000e+02  1.297040e+01  3.000000e+00 
   26    27    28   587     1  1.800000e+02  1.297040e+01  3.000000e+00  1.800000e+02  1.297040e+01  3.000000e+00 
   68    27    28    29     1  1.800000e+02  1.297040e+01  3.000000e+00  1.800000e+02  1.297040e+01  3.000000e+00 
   68    27    28   587     1  3.600000e+02  1.297040e+01  3.000000e+00  3.600000e+02  1.297040e+01  3.000000e+00 
   26    27    68    67     1  1.800000e+02  1.297040e+01  3.000000e+00  1.800000e+02  1.297040e+01  3.000000e+00 
   26    27    68    69     1  3.600000e+02  1.297040e+01  3.000000e+00  3.600000e+02  1.297040e+01  3.000000e+00 
   28    27    68    67     1  3.600000e+02  1.297040e+01  3.000000e+00  3.600000e+02  1.297040e+01  3.000000e+00 
   28    27    68    69     1  1.800000e+02  1.297040e+01  3.000000e+00  1.800000e+02  1.297040e+01  3.000000e+00 
   27    28    29    30     1  1.800000e+02  1.297040e+01  3.000000e+00  1.800000e+02  1.297040e+01  3.000000e+00 
   27    28    29   590     1  3.600000e+02  1.297040e+01  3.000000e+00  3.600000e+02  1.297040e+01  3.000000e+00 
  587    28    29    30     1  3.600000e+02  1.297040e+01  3.000000e+00  3.600000e+02  1.297040e+01  3.000000e+00 
  587    28    29   590     1  1.800000e+02  1.297040e+01  3.000000e+00  1.800000e+02  1.297040e+01  3.000000e+00 
   27    28   587   586     1  1.800000e+02  1.297040e+01  3.000000e+00  1.800000e+02  1.297040e+01  3.000000e+00 
   27    28   587   588     1  3.600000e+02  1.297040e+01  3.000000e+00  3.600000e+02  1.297040e+01  3.000000e+00 
   29    28   587   586     1  3.600000e+02  1.297040e+01  3.000000e+00  3.600000e+02  1.297040e+01  3.000000e+00 
   29    28   587   588     1  1.800000e+02  1.297040e+01  3.000000e+00  1.800000e+02  1.297040e+01  3.000000e+00 
   28    29    30    31     1  3.600000e+02  1.297040e+01  3.000000e+00  3.600000e+02  1.297040e+01  3.000000e+00 
   28    29    30    69     1  1.800000e+02  1.297040e+01  3.000000e+00  1.800000e+02  1.297040e+01  3.000000e+00 
  590    29    30    31     1  1.800000e+02  1.297040e+01  3.000000e+00  1.800000e+02  1.297040e+01  3.000000e+00 
  590    29    30    69     1  3.600000e+02  1.297040e+01  3.000000e+00  3.600000e+02  1.297040e+01  3.000000e+00 
   28    29   590   589     1  1.800000e+02  1.297040e+01  3.000000e+00  1.800000e+02  1.297040e+01  3.000000e+00 
   28    29   590   591     1  3.600000e+02  1.297040e+01  3.000000e+00  3.600000e+02  1.297040e+01  3.000000e+00 
   30    29   590   589     1  3.600000e+02  1.297040e+01  3.000000e+00  3.600000e+02  1.297040e+01  3.000000e+00 
   30    29   590   591     1  1.800000e+02  1.297040e+01  3.000000e+00  1.800000e+02  1.297040e+01  3.000000e+00 
   29    30    31    32     1  1.800000e+02  1.297040e+01  3.000000e+00  1.800000e+02  1.297040e+01  3.000000e+00 
   29    30    31    72     1  3.600000e+02  1.297040e+01  3.000000e+00  3.600000e+02  1.297040e+01  3.000000e+00 
   69    30    31    32     1  3.600000e+02  1.297040e+01  3.000000e+00  3.600000e+02  1.297040e+01  3.000000e+00 
   69    30    31    72     1  1.800000e+02  1.297040e+01  3.000000e+00  1.800000e+02  1.297040e+01  3.000000e+00 
   29    30    69    68     1  1.800000e+02  1.297040e+01  3.000000e+00  1.800000e+02  1.297040e+01  3.000000e+00 
   29    30    69    70     1  3.600000e+02  1.297040e+01  3.000000e+00  3.600000e+02  1.297040e+01  3.000000e+00 
   31    30    69    68     1  3.600000e+02  1.297040e+01  3.000000e+00  3.600000e+02  1.297040e+01  3.000000e+00 
   31    30    69    70     1  1.800000e+02  1.297040e+01  3.000000e+00  1.800000e+02  1.297040e+01  3.000000e+00 
   30    31    32    33     1  3.600000e+02  1.297040e+01  3.000000e+00  3.600000e+02  1.297040e+01  3.000000e+00 
   30    31    32   591     1  1.800000e+02  1.297040e+01  3.000000e+00  1.800000e+02  1.297040e+01  3.000000e+00 
   72    31    32    33     1  1.800000e+02  1.297040e+01  3.000000e+00  1.800000e+02  1.297040e+01  3.000000e+00 
   72    31    32   591     1  3.600000e+02  1.297040e+01  3.000000e+00  3.600000e+02  1.297040e+01  3.000000e+00 
   30    31    72    71     1  1.800000e+02  1.297040e+01  3.000000e+00  1.800000e+02  1.297040e+01  3.000000e+00 
   30    31    72    73     1  3.600000e+02  1.297040e+01  3.000000e+00  3.600000e+02  1.297040e+01  3.000000e+00 
   32    31    72    71     1  3.600000e+02  1.297040e+01  3.000000e+00  3.600000e+02  1.297040e+01  3.000000e+00 
   32    31    72    73     1  1.800000e+02  1.297040e+01  3.000000e+00  1.800000e+02  1.297040e+01  3.000000e+00 
   31    32    33    34     1  1.800000e+02  1.297040e+01  3.000000e+00  1.800000e+02  1.297040e+01  3.000000e+00 
   31    32    33   594     1  3.600000e+02  1.297040e+01  3.000000e+00  3.600000e+02  1.297040e+01  3.000000e+00 
  591    32    33    34     1  3.600000e+02  1.297040e+01  3.000000e+00  3.600000e+02  1.297040e+01  3.000000e+00 
  591    32    33   594     1  1.800000e+02  1.297040e+01  3.000000e+00  1.800000e+02  1.297040e+01  3.000000e+00 
   31    32   591   590     1  1.800000e+02  1.297040e+01  3.000000e+00  1.800000e+02  1.297040e+01  3.000000e+00 
   31    32   591   592     1  3.600000e+02  1.297040e+01  3.000000e+00  3.600000e+02  1.297040e+01  3.000000e+00 
   33    32   591   590     1  3.600000e+02  1.297040e+01  3.000000e+00  3.600000e+02  1.297040e+01  3.000000e+00 
   33    32   591   592     1  1.800000e+02  1.297040e+01  3.000000e+00  1.800000e+02  1.297040e+01  3.000000e+00 
   32    33    34    35     1  3.600000e+02  1.297040e+01  3.000000e+00  3.600000e+02  1.297040e+01  3.000000e+00 
   32    33    34    73     1  1.800000e+02  1.297040e+01  3.000000e+00  1.800000e+02  1.297040e+01  3.000000e+00 
  594    33    34    35     1  1.800000e+02  1.297040e+01  3.000000e+00  1.800000e+02  1.297040e+01  3.000000e+00 
  594    33    34    73     1  3.600000e+02  1.297040e+01  3.000000e+00  3.600000e+02  1.297040e+01  3.000000e+00 
   32    33   594   593     1  1.800000e+02  1.297040e+01  3.000000e+00  1.800000e+02  1.297040e+01  3.000000e+00 
   32    33   594   595     1  3.600000e+02  1.297040e+01  3.000000e+00  3.600000e+02  1.297040e+01  3.000000e+00 
   34    33   594   593     1  3.600000e+02  1.297040e+01  3.000000e+00  3.600000e+02  1.297040e+01  3.000000e+00 
   34    33   594   595     1  1.800000e+02  1.297040e+01  3.000000e+00  1.800000e+02  1.297040e+01  3.000000e+00 
   33    34    35    36     1  1.800000e+02  1.297040e+01  3.000000e+00  1.800000e+02  1.297040e+01  3.000000e+00 
   33    34    35    76     1  3.600000e+02  1.297040e+01  3.000000e+00  3.600000e+02  1.297040e+01  3.000000e+00 
   73    34    35    36     1  3.600000e+02  1.297040e+01  3.000000e+00  3.600000e+02  1.297040e+01  3.000000e+00 
   73    34    35    76     1  1.800000e+02  1.297040e+01  3.000000e+00  1.800000e+02  1.297040e+01  3.000000e+00 
   33    34    73    72     1  1.800000e+02  1.297040e+01  3.000000e+00  1.800000e+02  1.297040e+01  3.000000e+00 
   33    34    73    74     1  3.600000e+02  1.297040e+01  3.000000e+00  3.600000e+02  1.297040e+01  3.000000e+00 
   35    34    73    72     1  3.600000e+02  1.297040e+01  3.000000e+00  3.600000e+02  1.297040e+01  3.000000e+00 
   35    34    73    74     1  1.800000e+02  1.297040e+01  3.000000e+00  1.800000e+02  1.297040e+01  3.000000e+00 
   34    35    36    37     1  3.600000e+02  1.297040e+01  3.000000e+00  3.600000e+02  1.297040e+01  3.000000e+00 
   34    35    36   595     1  1.800000e+02  1.297040e+01  3.000000e+00  1.800000e+02  1.297040e+01  3.000000e+00 
   76    35    36    37     1  1.800000e+02  1.297040e+01  3.000000e+00  1.800000e+02  1.297040e+01  3.000000e+00 
   76    35    36   595     1  3.600000e+02  1.297040e+01  3.000000e+00  3.600000e+02  1.297040e+01  3.000000e+00 
   34    35    76    75     1  1.800000e+02  1.297040e+01  3.000000e+00  1.800000e+02  1.297040e+01  3.000000e+00 
   34    35    76    77     1  3.600000e+02  1.297040e+01  3.000000e+00  3.600000e+02  1.297040e+01  3.000000e+00 
   36    35    76    75     1  3.600000e+02  1.297040e+01  3.000000e+00  3.600000e+02  1.297040e+01  3.000000e+00 
   36    35    76    77     1  1.800000e+02  1.297040e+01  3.000000e+00  1.800000e+02  1.297040e+01  3.000000e+00 
   35    36    37    38     1  1.800000e+02  1.297040e+01  3.000000e+00  1.800000e+02  1.297040e+01  3.000000e+00 
   35    36    37   598     1  3.600000e+02  1.297040e+01  3.000000e+00  3.600000e+02  1.297040e+01  3.000000e+00 
  595    36    37    38     1  3.600000e+02  1.297040e+01  3.000000e+00  3.600000e+02  1.297040e+01  3.000000e+00 
  595    36    37   598     1  1.800000e+02  1.297040e+01  3.000000e+00  1.800000e+02  1.297040e+01  3.000000e+00 
   35    36   595   594     1  1.800000e+02  1.297040e+01  3.000000e+00  1.800000e+02  1.297040e+01  3.000000e+00 
   35    36   595   596     1  3.600000e+02  1.297040e+01  3.000000e+00  3.600000e+02  1.297040e+01  3.000000e+00 
   37    36   595   594     1  3.600000e+02  1.297040e+01  3.000000e+00  3.600000e+02  1.297040e+01  3.000000e+00 
   37    36   595   596     1  1.800000e+02  1.297040e+01  3.000000e+00  1.800000e+02  1.297040e+01  3.000000e+00 
   36    37    38    39     1  3.600000e+02  1.297040e+01  3.000000e+00  3.600000e+02  1.297040e+01  3.000000e+00 
   36    37    38    77     1  1.800000e+02  1.297040e+01  3.000000e+00  1.800000e+02  1.297040e+01  3.000000e+00 
  598    37    38    39     1  1.800000e+02  1.297040e+01  3.000000e+00  1.800000e+02  1.297040e+01  3.000000e+00 
  598    37    38    77     1  3.600000e+02  1.297040e+01  3.000000e+00  3.600000e+02  1.297040e+01  3.000000e+00 
   36    37   598   597     1  1.800000e+02  1.297040e+01  3.000000e+00  1.800000e+02  1.297040e+01  3.000000e+00 
   36    37   598   599     1  3.600000e+02  1.297040e+01  3.000000e+00  3.600000e+02  1.297040e+01  3.000000e+00 
   38    37   598   597     1  3.600000e+02  1.297040e+01  3.000000e+00  3.600000e+02  1.297040e+01  3.000000e+00 
   38    37   598   599     1  1.800000e+02  1.297040e+01  3.000000e+00  1.800000e+02  1.297040e+01  3.000000e+00 
   37    38    39    40     1  1.800000e+02  1.297040e+01  3.000000e+00  1.800000e+02  1.297040e+01  3.000000e+00 
   37    38    39    80     1  3.600000e+02  1.297040e+01  3.000000e+00  3.600000e+02  1.297040e+01  3.000000e+00 
   77    38    39    40     1  3.600000e+02  1.297040e+01  3.000000e+00  3.600000e+02  1.297040e+01  3.000000e+00 
   77    38    39    80     1  1.800000e+02  1.297040e+01  3.000000e+00  1.800000e+02  1.297040e+01  3.000000e+00 
   37    38    77    76     1  1.800000e+02  1.297040e+01  3.000000e+00  1.800000e+02  1.297040e+01  3.000000e+00 
   37    38    77    78     1  3.600000e+02  1.297040e+01  3.000000e+00  3.600000e+02  1.297040e+01  3.000000e+00 
   39    38    77    76     1  3.600000e+02  1.297040e+01  3.000000e+00  3.600000e+02  1.297040e+01  3.000000e+00 
   39    38    77    78     1  1.800000e+02  1.297040e+01  3.000000e+00  1.800000e+02  1.297040e+01  3.000000e+00 
   38    39    40     1     1  3.600000e+02  1.297040e+01  3.000000e+00  3.600000e+02  1.297040e+01  3.000000e+00 
   38    39    40   599     1  1.800000e+02  1.297040e+01  3.000000e+00  1.800000e+02  1.297040e+01  3.000000e+00 
   80    39    40     1     1  1.800000e+02  1.297040e+01  3.000000e+00  1.800000e+02  1.297040e+01  3.000000e+00 
   80    39    40   599     1  3.600000e+02  1.297040e+01  3.000000e+00  3.600000e+02  1.297040e+01  3.000000e+00 
   38    39    80    41     1  3.600000e+02  1.297040e+01  3.000000e+00  3.600000e+02  1.297040e+01  3.000000e+00 
   38    39    80    79     1  1.800000e+02  1.297040e+01  3.000000e+00  1.800000e+02  1.297040e+01  3.000000e+00 
   40    39    80    41     1  1.800000e+02  1.297040e+01  3.000000e+00  1.800000e+02  1.297040e+01  3.000000e+00 
   40    39    80    79     1  3.600000e+02  1.297040e+01  3.000000e+00  3.600000e+02  1.297040e+01  3.000000e+00 
    1    40   599   598     1  3.600000e+02  1.297040e+01  3.000000e+00  3.600000e+02  1.297040e+01  3.000000e+00 
    1    40   599   600     1  1.800000e+02  1.297040e+01  3.000000e+00  1.800000e+02  1.297040e+01  3.000000e+00 
   39    40   599   598     1  1.800000e+02  1.297040e+01  3.000000e+00  1.800000e+02  1.297040e+01  3.000000e+00 
   39    40   599   600     1  3.600000e+02  1.297040e+01  3.000000e+00  3.600000e+02  1.297040e+01  3.000000e+00 
    2    41    42    43     1  1.800000e+02  1.297040e+01  3.000000e+00  1.800000e+02  1.297040e+01  3.000000e+00 
    2    41    42    81     1  3.600000e+02  1.297040e+01  3.000000e+00  3.600000e+02  1.297040e+01  3.000000e+00 
   80    41    42    43     1  3.600000e+02  1.297040e+01  3.000000e+00  3.600000e+02  1.297040e+01  3.000000e+00 
   80    41    42    81     1  1.800000e+02  1.297040e+01  3.000000e+00  1.800000e+02  1.297040e+01  3.000000e+00 
    2    41    80    39     1  1.800000e+02  1.297040e+01  3.000000e+00  1.800000e+02  1.297040e+01  3.000000e+00 
    2    41    80    79     1  3.600000e+02  1.297040e+01  3.000000e+00  3.600000e+02  1.297040e+01  3.000000e+00 
   42    41    80    39     1  3.600000e+02  1.297040e+01  3.000000e+00  3.600000e+02  1.297040e+01  3.000000e+00 
   42    41    80    79     1  1.800000e+02  1.297040e+01  3.000000e+00  1.800000e+02  1.297040e+01  3.000000e+00 
   41    42    43    44     1  1.800000e+02  1.297040e+01  3.000000e+00  1.800000e+02  1.297040e+01  3.000000e+00 
   41    42    43    84     1  3.600000e+02  1.297040e+01  3.000000e+00  3.600000e+02  1.297040e+01  3.000000e+00 
   81    42    43    44     1  3.600000e+02  1.297040e+01  3.000000e+00  3.600000e+02  1.297040e+01  3.000000e+00 
   81    42    43    84     1  1.800000e+02  1.297040e+01  3.000000e+00  1.800000e+02  1.297040e+01  3.000000e+00 
   41    42    81    82     1  3.600000e+02  1.297040e+01  3.000000e+00  3.600000e+02  1.297040e+01  3.000000e+00 
   41    42    81   120     1  1.800000e+02  1.297040e+01  3.000000e+00  1.800000e+02  1.297040e+01  3.000000e+00 
   43    42    81    82     1  1.800000e+02  1.297040e+01  3.000000e+00  1.800000e+02  1.297040e+01  3.000000e+00 
   43    42    81   120     1  3.600000e+02  1.297040e+01  3.000000e+00  3.600000e+02  1.297040e+01  3.000000e+00 
   42    43    44     3     1  1.800000e+02  1.297040e+01  3.000000e+00  1.800000e+02  1.297040e+01  3.000000e+00 
   42    43    44    45     1  3.600000e+02  1.297040e+01  3.000000e+00  3.600000e+02  1.297040e+01  3.000000e+00 
   84    43    44     3     1  3.600000e+02  1.297040e+01  3.000000e+00  3.600000e+02  1.297040e+01  3.000000e+00 
   84    43    44    45     1  1.800000e+02  1.297040e+01  3.000000e+00  1.800000e+02  1.297040e+01  3.000000e+00 
   42    43    84    83     1  1.800000e+02  1.297040e+01  3.000000e+00  1.800000e+02  1.297040e+01  3.000000e+00 
   42    43    84    85     1  3.600000e+02  1.297040e+01  3.000000e+00  3.600000e+02  1.297040e+01  3.000000e+00 
   44    43    84    83     1  3.600000e+02  1.297040e+01  3.000000e+00  3.600000e+02  1.297040e+01  3.000000e+00 
   44    43    84    85     1  1.800000e+02  1.297040e+01  3.000000e+00  1.800000e+02  1.297040e+01  3.000000e+00 
    3    44    45     6     1  1.800000e+02  1.297040e+01  3.000000e+00  1.800000e+02  1.297040e+01  3.000000e+00 
    3    44    45    46     1  3.600000e+02  1.297040e+01  3.000000e+00  3.600000e+02  1.297040e+01  3.000000e+00 
   43    44    45     6     1  3.600000e+02  1.297040e+01  3.000000e+00  3.600000e+02  1.297040e+01  3.000000e+00 
   43    44    45    46     1  1.800000e+02  1.297040e+01  3.000000e+00  1.800000e+02  1.297040e+01  3.000000e+00 
    6    45    46    47     1  1.800000e+02  1.297040e+01  3.000000e+00  1.800000e+02  1.297040e+01  3.000000e+00 
    6    45    46    85     1  3.600000e+02  1.297040e+01  3.000000e+00  3.600000e+02  1.297040e+01  3.000000e+00 
   44    45    46    47     1  3.600000e+02  1.297040e+01  3.000000e+00  3.600000e+02  1.297040e+01  3.000000e+00 
   44    45    46    85     1  1.800000e+02  1.297040e+01  3.000000e+00  1.800000e+02  1.297040e+01  3.000000e+00 
   45    46    47    48     1  1.800000e+02  1.297040e+01  3.000000e+00  1.800000e+02  1.297040e+01  3.000000e+00 
   45    46    47    88     1  3.600000e+02  1.297040e+01  3.000000e+00  3.600000e+02  1.297040e+01  3.000000e+00 
   85    46    47    48     1  3.600000e+02  1.297040e+01  3.000000e+00  3.600000e+02  1.297040e+01  3.000000e+00 
   85    46    47    88     1  1.800000e+02  1.297040e+01  3.000000e+00  1.800000e+02  1.297040e+01  3.000000e+00 
   45    46    85    84     1  1.800000e+02  1.297040e+01  3.000000e+00  1.800000e+02  1.297040e+01  3.000000e+00 
   45    46    85    86     1  3.600000e+02  1.297040e+01  3.000000e+00  3.600000e+02  1.297040e+01  3.000000e+00 
   47    46    85    84     1  3.600000e+02  1.297040e+01  3.000000e+00  3.600000e+02  1.297040e+01  3.000000e+00 
   47    46    85    86     1  1.800000e+02  1.297040e+01  3.000000e+00  1.800000e+02  1.297040e+01  3.000000e+00 
   46    47    48     7     1  1.800000e+02  1.297040e+01  3.000000e+00  1.800000e+02  1.297040e+01  3.000000e+00 
   46    47    48    49     1  3.600000e+02  1.297040e+01  3.000000e+00  3.600000e+02  1.297040e+01  3.000000e+00 
   88    47    48     7     1  3.600000e+02  1.297040e+01  3.000000e+00  3.600000e+02  1.297040e+01  3.000000e+00 
   88    47    48    49     1  1.800000e+02  1.297040e+01  3.000000e+00  1.800000e+02  1.297040e+01  3.000000e+00 
   46    47    88    87     1  1.800000e+02  1.297040e+01  3.000000e+00  1.800000e+02  1.297040e+01  3.000000e+00 
   46    47    88    89     1  3.600000e+02  1.297040e+01  3.000000e+00  3.600000e+02  1.297040e+01  3.000000e+00 
   48    47    88    87     1  3.600000e+02  1.297040e+01  3.000000e+00  3.600000e+02  1.297040e+01  3.000000e+00 
   48    47    88    89     1  1.800000e+02  1.297040e+01  3.000000e+00  1.800000e+02  1.297040e+01  3.000000e+00 
    7    48    49    10     1  1.800000e+02  1.297040e+01  3.000000e+00  1.800000e+02  1.297040e+01  3.000000e+00 
    7    48    49    50     1  3.600000e+02  1.297040e+01  3.000000e+00  3.600000e+02  1.297040e+01  3.000000e+00 
   47    48    49    10     1  3.600000e+02  1.297040e+01  3.000000e+00  3.600000e+02  1.297040e+01  3.000000e+00 
   47    48    49    50     1  1.800000e+02  1.297040e+01  3.000000e+00  1.800000e+02  1.297040e+01  3.000000e+00 
   10    49    50    51     1  1.800000e+02  1.297040e+01  3.000000e+00  1.800000e+02  1.297040e+01  3.000000e+00 
   10    49    50    89     1  3.600000e+02  1.297040e+01  3.000000e+00  3.600000e+02  1.297040e+01  3.000000e+00 
   48    49    50    51     1  3.600000e+02  1.297040e+01  3.000000e+00  3.600000e+02  1.297040e+01  3.000000e+00 
   48    49    50    89     1  1.800000e+02  1.297040e+01  3.000000e+00  1.800000e+02  1.297040e+01  3.000000e+00 
   49    50    51    52     1  1.800000e+02  1.297040e+01  3.000000e+00  1.800000e+02  1.297040e+01  3.000000e+00 
   49    50    51    92     1  3.600000e+02  1.297040e+01  3.000000e+00  3.600000e+02  1.297040e+01  3.000000e+00 
   89    50    51    52     1  3.600000e+02  1.297040e+01  3.000000e+00  3.600000e+02  1.297040e+01  3.000000e+00 
   89    50    51    92     1  1.800000e+02  1.297040e+01  3.000000e+00  1.800000e+02  1.297040e+01  3.000000e+00 
   49    50    89    88     1  1.800000e+02  1.297040e+01  3.000000e+00  1.800000e+02  1.297040e+01  3.000000e+00 
   49    50    89    90     1  3.600000e+02  1.297040e+01  3.000000e+00  3.600000e+02  1.297040e+01  3.000000e+00 
   51    50    89    88     1  3.600000e+02  1.297040e+01  3.000000e+00  3.600000e+02  1.297040e+01  3.000000e+00 
   51    50    89    90     1  1.800000e+02  1.297040e+01  3.000000e+00  1.800000e+02  1.297040e+01  3.000000e+00 
   50    51    52    11     1  1.800000e+02  1.297040e+01  3.000000e+00  1.800000e+02  1.297040e+01  3.000000e+00 
   50    51    52    53     1  3.600000e+02  1.297040e+01  3.000000e+00  3.600000e+02  1.297040e+01  3.000000e+00 
   92    51    52    11     1  3.600000e+02  1.297040e+01  3.000000e+00  3.600000e+02  1.297040e+01  3.000000e+00 
   92    51    52    53     1  1.800000e+02  1.297040e+01  3.000000e+00  1.800000e+02  1.297040e+01  3.000000e+00 
   50    51    92    91     1  1.800000e+02  1.297040e+01  3.000000e+00  1.800000e+02  1.297040e+01  3.000000e+00 
   50    51    92    93     1  3.600000e+02  1.297040e+01  3.000000e+00  3.600000e+02  1.297040e+01  3.000000e+00 
   52    51    92    91     1  3.600000e+02  1.297040e+01  3.000000e+00  3.600000e+02  1.297040e+01  3.000000e+00 
   52    51    92    93     1  1.800000e+02  1.297040e+01  3.000000e+00  1.800000e+02  1.297040e+01  3.000000e+00 
   11    52    53    14     1  1.800000e+02  1.297040e+01  3.000000e+00  1.800000e+02  1.297040e+01  3.000000e+00 
   11    52    53    54     1  3.600000e+02  1.297040e+01  3.000000e+00  3.600000e+02  1.297040e+01  3.000000e+00 
   51    52    53    14     1  3.600000e+02  1.297040e+01  3.000000e+00  3.600000e+02  1.297040e+01  3.000000e+00 
   51    52    53    54     1  1.800000e+02  1.297040e+01  3.000000e+00  1.800000e+02  1.297040e+01  3.000000e+00 
   14    53    54    55     1  1.800000e+02  1.297040e+01  3.000000e+00  1.800000e+02  1.297040e+01  3.000000e+00 
   14    53    54    93     1  3.600000e+02  1.297040e+01  3.000000e+00  3.600000e+02  1.297040e+01  3.000000e+00 
   52    53    54    55     1  3.600000e+02  1.297040e+01  3.000000e+00  3.600000e+02  1.297040e+01  3.000000e+00 
   52    53    54    93     1  1.800000e+02  1.297040e+01  3.000000e+00  1.800000e+02  1.297040e+01  3.000000e+00 
   53    54    55    56     1  1.800000e+02  1.297040e+01  3.000000e+00  1.800000e+02  1.297040e+01  3.000000e+00 
   53    54    55    96     1  3.600000e+02  1.297040e+01  3.000000e+00  3.600000e+02  1.297040e+01  3.000000e+00 
   93    54    55    56     1  3.600000e+02  1.297040e+01  3.000000e+00  3.600000e+02  1.297040e+01  3.000000e+00 
   93    54    55    96     1  1.800000e+02  1.297040e+01  3.000000e+00  1.800000e+02  1.297040e+01  3.000000e+00 
   53    54    93    92     1  1.800000e+02  1.297040e+01  3.000000e+00  1.800000e+02  1.297040e+01  3.000000e+00 
   53    54    93    94     1  3.600000e+02  1.297040e+01  3.000000e+00  3.600000e+02  1.297040e+01  3.000000e+00 
   55    54    93    92     1  3.600000e+02  1.297040e+01  3.000000e+00  3.600000e+02  1.297040e+01  3.000000e+00 
   55    54    93    94     1  1.800000e+02  1.297040e+01  3.000000e+00  1.800000e+02  1.297040e+01  3.000000e+00 
   54    55    56    15     1  1.800000e+02  1.297040e+01  3.000000e+00  1.800000e+02  1.297040e+01  3.000000e+00 
   54    55    56    57     1  3.600000e+02  1.297040e+01  3.000000e+00  3.600000e+02  1.297040e+01  3.000000e+00 
   96    55    56    15     1  3.600000e+02  1.297040e+01  3.000000e+00  3.600000e+02  1.297040e+01  3.000000e+00 
   96    55    56    57     1  1.800000e+02  1.297040e+01  3.000000e+00  1.800000e+02  1.297040e+01  3.000000e+00 
   54    55    96    95     1  1.800000e+02  1.297040e+01  3.000000e+00  1.800000e+02  1.297040e+01  3.000000e+00 
   54    55    96    97     1  3.600000e+02  1.297040e+01  3.000000e+00  3.600000e+02  1.297040e+01  3.000000e+00 
   56    55    96    95     1  3.600000e+02  1.297040e+01  3.000000e+00  3.600000e+02  1.297040e+01  3.000000e+00 
   56    55    96    97     1  1.800000e+02  1.297040e+01  3.000000e+00  1.800000e+02  1.297040e+01  3.000000e+00 
   15    56    57    18     1  1.800000e+02  1.297040e+01  3.000000e+00  1.800000e+02  1.297040e+01  3.000000e+00 
   15    56    57    58     1  3.600000e+02  1.297040e+01  3.000000e+00  3.600000e+02  1.297040e+01  3.000000e+00 
   55    56    57    18     1  3.600000e+02  1.297040e+01  3.000000e+00  3.600000e+02  1.297040e+01  3.000000e+00 
   55    56    57    58     1  1.800000e+02  1.297040e+01  3.000000e+00  1.800000e+02  1.297040e+01  3.000000e+00 
   18    57    58    59     1  1.800000e+02  1.297040e+01  3.000000e+00  1.800000e+02  1.297040e+01  3.000000e+00 
   18    57    58    97     1  3.600000e+02  1.297040e+01  3.000000e+00  3.600000e+02  1.297040e+01  3.000000e+00 
   56    57    58    59     1  3.600000e+02  1.297040e+01  3.000000e+00  3.600000e+02  1.297040e+01  3.000000e+00 
   56    57    58    97     1  1.800000e+02  1.297040e+01  3.000000e+00  1.800000e+02  1.297040e+01  3.000000e+00 
   57    58    59    60     1  1.800000e+02  1.297040e+01  3.000000e+00  1.800000e+02  1.297040e+01  3.000000e+00 
   57    58    59   100     1  3.600000e+02  1.297040e+01  3.000000e+00  3.600000e+02  1.297040e+01  3.000000e+00 
   97    58    59    60     1  3.600000e+02  1.297040e+01  3.000000e+00  3.600000e+02  1.297040e+01  3.000000e+00 
   97    58    59   100     1  1.800000e+02  1.297040e+01  3.000000e+00  1.800000e+02  1.297040e+01  3.000000e+00 
   57    58    97    96     1  1.800000e+02  1.297040e+01  3.000000e+00  1.800000e+02  1.297040e+01  3.000000e+00 
   57    58    97    98     1  3.600000e+02  1.297040e+01  3.000000e+00  3.600000e+02  1.297040e+01  3.000000e+00 
   59    58    97    96     1  3.600000e+02  1.297040e+01  3.000000e+00  3.600000e+02  1.297040e+01  3.000000e+00 
   59    58    97    98     1  1.800000e+02  1.297040e+01  3.000000e+00  1.800000e+02  1.297040e+01  3.000000e+00 
   58    59    60    19     1  1.800000e+02  1.297040e+01  3.000000e+00  1.800000e+02  1.297040e+01  3.000000e+00 
   58    59    60    61     1  3.600000e+02  1.297040e+01  3.000000e+00  3.600000e+02  1.297040e+01  3.000000e+00 
  100    59    60    19     1  3.600000e+02  1.297040e+01  3.000000e+00  3.600000e+02  1.297040e+01  3.000000e+00 
  100    59    60    61     1  1.800000e+02  1.297040e+01  3.000000e+00  1.800000e+02  1.297040e+01  3.000000e+00 
   58    59   100    99     1  1.800000e+02  1.297040e+01  3.000000e+00  1.800000e+02  1.297040e+01  3.000000e+00 
   58    59   100   101     1  3.600000e+02  1.297040e+01  3.000000e+00  3.600000e+02  1.297040e+01  3.000000e+00 
   60    59   100    99     1  3.600000e+02  1.297040e+01  3.000000e+00  3.600000e+02  1.297040e+01  3.000000e+00 
   60    59   100   101     1  1.800000e+02  1.297040e+01  3.000000e+00  1.800000e+02  1.297040e+01  3.000000e+00 
   19    60    61    22     1  1.800000e+02  1.297040e+01  3.000000e+00  1.800000e+02  1.297040e+01  3.000000e+00 
   19    60    61    62     1  3.600000e+02  1.297040e+01  3.000000e+00  3.600000e+02  1.297040e+01  3.000000e+00 
   59    60    61    22     1  3.600000e+02  1.297040e+01  3.000000e+00  3.600000e+02  1.297040e+01  3.000000e+00 
   59    60    61    62     1  1.800000e+02  1.297040e+01  3.000000e+00  1.800000e+02  1.297040e+01  3.000000e+00 
   22    61    62    63     1  1.800000e+02  1.297040e+01  3.000000e+00  1.800000e+02  1.297040e+01  3.000000e+00 
   22    61    62   101     1  3.600000e+02  1.297040e+01  3.000000e+00  3.600000e+02  1.297040e+01  3.000000e+00 
   60    61    62    63     1  3.600000e+02  1.297040e+01  3.000000e+00  3.600000e+02  1.297040e+01  3.000000e+00 
   60    61    62   101     1  1.800000e+02  1.297040e+01  3.000000e+00  1.800000e+02  1.297040e+01  3.000000e+00 
   61    62    63    64     1  1.800000e+02  1.297040e+01  3.000000e+00  1.800000e+02  1.297040e+01  3.000000e+00 
   61    62    63   104     1  3.600000e+02  1.297040e+01  3.000000e+00  3.600000e+02  1.297040e+01  3.000000e+00 
  101    62    63    64     1  3.600000e+02  1.297040e+01  3.000000e+00  3.600000e+02  1.297040e+01  3.000000e+00 
  101    62    63   104     1  1.800000e+02  1.297040e+01  3.000000e+00  1.800000e+02  1.297040e+01  3.000000e+00 
   61    62   101   100     1  1.800000e+02  1.297040e+01  3.000000e+00  1.800000e+02  1.297040e+01  3.000000e+00 
   61    62   101   102     1  3.600000e+02  1.297040e+01  3.000000e+00  3.600000e+02  1.297040e+01  3.000000e+00 
   63    62   101   100     1  3.600000e+02  1.297040e+01  3.000000e+00  3.600000e+02  1.297040e+01  3.000000e+00 
   63    62   101   102     1  1.800000e+02  1.297040e+01  3.000000e+00  1.800000e+02  1.297040e+01  3.000000e+00 
   62    63    64    23     1  1.800000e+02  1.297040e+01  3.000000e+00  1.800000e+02  1.297040e+01  3.000000e+00 
   62    63    64    65     1  3.600000e+02  1.297040e+01  3.000000e+00  3.600000e+02  1.297040e+01  3.000000e+00 
  104    63    64    23     1  3.600000e+02  1.297040e+01  3.000000e+00  3.600000e+02  1.297040e+01  3.000000e+00 
  104    63    64    65     1  1.800000e+02  1.297040e+01  3.000000e+00  1.800000e+02  1.297040e+01  3.000000e+00 
   62    63   104   103     1  1.800000e+02  1.297040e+01  3.000000e+00  1.800000e+02  1.297040e+01  3.000000e+00 
   62    63   104   105     1  3.600000e+02  1.297040e+01  3.000000e+00  3.600000e+02  1.297040e+01  3.000000e+00 
   64    63   104   103     1  3.600000e+02  1.297040e+01  3.000000e+00  3.600000e+02  1.297040e+01  3.000000e+00 
   64    63   104   105     1  1.800000e+02  1.297040e+01  3.000000e+00  1.800000e+02  1.297040e+01  3.000000e+00 
   23    64    65    26     1  1.800000e+02  1.297040e+01  3.000000e+00  1.800000e+02  1.297040e+01  3.000000e+00 
   23    64    65    66     1  3.600000e+02  1.297040e+01  3.000000e+00  3.600000e+02  1.297040e+01  3.000000e+00 
   63    64    65    26     1  3.600000e+02  1.297040e+01  3.000000e+00  3.600000e+02  1.297040e+01  3.000000e+00 
   63    64    65    66     1  1.800000e+02  1.297040e+01  3.000000e+00  1.800000e+02  1.297040e+01  3.000000e+00 
   26    65    66    67     1  1.800000e+02  1.297040e+01  3.000000e+00  1.800000e+02  1.297040e+01  3.000000e+00 
   26    65    66   105     1  3.600000e+02  1.297040e+01  3.000000e+00  3.600000e+02  1.297040e+01  3.000000e+00 
   64    65    66    67     1  3.600000e+02  1.297040e+01  3.000000e+00  3.600000e+02  1.297040e+01  3.000000e+00 
   64    65    66   105     1  1.800000e+02  1.297040e+01  3.000000e+00  1.800000e+02  1.297040e+01  3.000000e+00 
   65    66    67    68     1  1.800000e+02  1.297040e+01  3.000000e+00  1.800000e+02  1.297040e+01  3.000000e+00 
   65    66    67   108     1  3.600000e+02  1.297040e+01  3.000000e+00  3.600000e+02  1.297040e+01  3.000000e+00 
  105    66    67    68     1  3.600000e+02  1.297040e+01  3.000000e+00  3.600000e+02  1.297040e+01  3.000000e+00 
  105    66    67   108     1  1.800000e+02  1.297040e+01  3.000000e+00  1.800000e+02  1.297040e+01  3.000000e+00 
   65    66   105   104     1  1.800000e+02  1.297040e+01  3.000000e+00  1.800000e+02  1.297040e+01  3.000000e+00 
   65    66   105   106     1  3.600000e+02  1.297040e+01  3.000000e+00  3.600000e+02  1.297040e+01  3.000000e+00 
   67    66   105   104     1  3.600000e+02  1.297040e+01  3.000000e+00  3.600000e+02  1.297040e+01  3.000000e+00 
   67    66   105   106     1  1.800000e+02  1.297040e+01  3.000000e+00  1.800000e+02  1.297040e+01  3.000000e+00 
   66    67    68    27     1  1.800000e+02  1.297040e+01  3.000000e+00  1.800000e+02  1.297040e+01  3.000000e+00 
   66    67    68    69     1  3.600000e+02  1.297040e+01  3.000000e+00  3.600000e+02  1.297040e+01  3.000000e+00 
  108    67    68    27     1  3.600000e+02  1.297040e+01  3.000000e+00  3.600000e+02  1.297040e+01  3.000000e+00 
  108    67    68    69     1  1.800000e+02  1.297040e+01  3.000000e+00  1.800000e+02  1.297040e+01  3.000000e+00 
   66    67   108   107     1  1.800000e+02  1.297040e+01  3.000000e+00  1.800000e+02  1.297040e+01  3.000000e+00 
   66    67   108   109     1  3.600000e+02  1.297040e+01  3.000000e+00  3.600000e+02  1.297040e+01  3.000000e+00 
   68    67   108   107     1  3.600000e+02  1.297040e+01  3.000000e+00  3.600000e+02  1.297040e+01  3.000000e+00 
   68    67   108   109     1  1.800000e+02  1.297040e+01  3.000000e+00  1.800000e+02  1.297040e+01  3.000000e+00 
   27    68    69    30     1  1.800000e+02  1.297040e+01  3.000000e+00  1.800000e+02  1.297040e+01  3.000000e+00 
   27    68    69    70     1  3.600000e+02  1.297040e+01  3.000000e+00  3.600000e+02  1.297040e+01  3.000000e+00 
   67    68    69    30     1  3.600000e+02  1.297040e+01  3.000000e+00  3.600000e+02  1.297040e+01  3.000000e+00 
   67    68    69    70     1  1.800000e+02  1.297040e+01  3.000000e+00  1.800000e+02  1.297040e+01  3.000000e+00 
   30    69    70    71     1  1.800000e+02  1.297040e+01  3.000000e+00  1.800000e+02  1.297040e+01  3.000000e+00 
   30    69    70   109     1  3.600000e+02  1.297040e+01  3.000000e+00  3.600000e+02  1.297040e+01  3.000000e+00 
   68    69    70    71     1  3.600000e+02  1.297040e+01  3.000000e+00  3.600000e+02  1.297040e+01  3.000000e+00 
   68    69    70   109     1  1.800000e+02  1.297040e+01  3.000000e+00  1.800000e+02  1.297040e+01  3.000000e+00 
   69    70    71    72     1  1.800000e+02  1.297040e+01  3.000000e+00  1.800000e+02  1.297040e+01  3.000000e+00 
   69    70    71   112     1  3.600000e+02  1.297040e+01  3.000000e+00  3.600000e+02  1.297040e+01  3.000000e+00 
  109    70    71    72     1  3.600000e+02  1.297040e+01  3.000000e+00  3.600000e+02  1.297040e+01  3.000000e+00 
  109    70    71   112     1  1.800000e+02  1.297040e+01  3.000000e+00  1.800000e+02  1.297040e+01  3.000000e+00 
   69    70   109   108     1  1.800000e+02  1.297040e+01  3.000000e+00  1.800000e+02  1.297040e+01  3.000000e+00 
   69    70   109   110     1  3.600000e+02  1.297040e+01  3.000000e+00  3.600000e+02  1.297040e+01  3.000000e+00 
   71    70   109   108     1  3.600000e+02  1.297040e+01  3.000000e+00  3.600000e+02  1.297040e+01  3.000000e+00 
   71    70   109   110     1  1.800000e+02  1.297040e+01  3.000000e+00  1.800000e+02  1.297040e+01  3.000000e+00 
   70    71    72    31     1  1.800000e+02  1.297040e+01  3.000000e+00  1.800000e+02  1.297040e+01  3.000000e+00 
   70    71    72    73     1  3.600000e+02  1.297040e+01  3.000000e+00  3.600000e+02  1.297040e+01  3.000000e+00 
  112    71    72    31     1  3.600000e+02  1.297040e+01  3.000000e+00  3.600000e+02  1.297040e+01  3.000000e+00 
  112    71    72    73     1  1.800000e+02  1.297040e+01  3.000000e+00  1.800000e+02  1.297040e+01  3.000000e+00 
   70    71   112   111     1  1.800000e+02  1.297040e+01  3.000000e+00  1.800000e+02  1.297040e+01  3.000000e+00 
   70    71   112   113     1  3.600000e+02  1.297040e+01  3.000000e+00  3.600000e+02  1.297040e+01  3.000000e+00 
   72    71   112   111     1  3.600000e+02  1.297040e+01  3.000000e+00  3.600000e+02  1.297040e+01  3.000000e+00 
   72    71   112   113     1  1.800000e+02  1.297040e+01  3.000000e+00  1.800000e+02  1.297040e+01  3.000000e+00 
   31    72    73    34     1  1.800000e+02  1.297040e+01  3.000000e+00  1.800000e+02  1.297040e+01  3.000000e+00 
   31    72    73    74     1  3.600000e+02  1.297040e+01  3.000000e+00  3.600000e+02  1.297040e+01  3.000000e+00 
   71    72    73    34     1  3.600000e+02  1.297040e+01  3.000000e+00  3.600000e+02  1.297040e+01  3.000000e+00 
   71    72    73    74     1  1.800000e+02  1.297040e+01  3.000000e+00  1.800000e+02  1.297040e+01  3.000000e+00 
   34    73    74    75     1  1.800000e+02  1.297040e+01  3.000000e+00  1.800000e+02  1.297040e+01  3.000000e+00 
   34    73    74   113     1  3.600000e+02  1.297040e+01  3.000000e+00  3.600000e+02  1.297040e+01  3.000000e+00 
   72    73    74    75     1  3.600000e+02  1.297040e+01  3.000000e+00  3.600000e+02  1.297040e+01  3.000000e+00 
   72    73    74   113     1  1.800000e+02  1.297040e+01  3.000000e+00  1.800000e+02  1.297040e+01  3.000000e+00 
   73    74    75    76     1  1.800000e+02  1.297040e+01  3.000000e+00  1.800000e+02  1.297040e+01  3.000000e+00 
   73    74    75   116     1  3.600000e+02  1.297040e+01  3.000000e+00  3.600000e+02  1.297040e+01  3.000000e+00 
  113    74    75    76     1  3.600000e+02  1.297040e+01  3.000000e+00  3.600000e+02  1.297040e+01  3.000000e+00 
  113    74    75   116     1  1.800000e+02  1.297040e+01  3.000000e+00  1.800000e+02  1.297040e+01  3.000000e+00 
   73    74   113   112     1  1.800000e+02  1.297040e+01  3.000000e+00  1.800000e+02  1.297040e+01  3.000000e+00 
   73    74   113   114     1  3.600000e+02  1.297040e+01  3.000000e+00  3.600000e+02  1.297040e+01  3.000000e+00 
   75    74   113   112     1  3.600000e+02  1.297040e+01  3.000000e+00  3.600000e+02  1.297040e+01  3.000000e+00 
   75    74   113   114     1  1.800000e+02  1.297040e+01  3.000000e+00  1.800000e+02  1.297040e+01  3.000000e+00 
   74    75    76    35     1  1.800000e+02  1.297040e+01  3.000000e+00  1.800000e+02  1.297040e+01  3.000000e+00 
   74    75    76    77     1  3.600000e+02  1.297040e+01  3.000000e+00  3.600000e+02  1.297040e+01  3.000000e+00 
  116    75    76    35     1  3.600000e+02  1.297040e+01  3.000000e+00  3.600000e+02  1.297040e+01  3.000000e+00 
  116    75    76    77     1  1.800000e+02  1.297040e+01  3.000000e+00  1.800000e+02  1.297040e+01  3.000000e+00 
   74    75   116   115     1  1.800000e+02  1.297040e+01  3.000000e+00  1.800000e+02  1.297040e+01  3.000000e+00 
   74    75   116   117     1  3.600000e+02  1.297040e+01  3.000000e+00  3.600000e+02  1.297040e+01  3.000000e+00 
   76    75   116   115     1  3.600000e+02  1.297040e+01  3.000000e+00  3.600000e+02  1.297040e+01  3.000000e+00 
   76    75   116   117     1  1.800000e+02  1.297040e+01  3.000000e+00  1.800000e+02  1.297040e+01  3.000000e+00 
   35    76    77    38     1  1.800000e+02  1.297040e+01  3.000000e+00  1.800000e+02  1.297040e+01  3.000000e+00 
   35    76    77    78     1  3.600000e+02  1.297040e+01  3.000000e+00  3.600000e+02  1.297040e+01  3.000000e+00 
   75    76    77    38     1  3.600000e+02  1.297040e+01  3.000000e+00  3.600000e+02  1.297040e+01  3.000000e+00 
   75    76    77    78     1  1.800000e+02  1.297040e+01  3.000000e+00  1.800000e+02  1.297040e+01  3.000000e+00 
   38    77    78    79     1  1.800000e+02  1.297040e+01  3.000000e+00  1.800000e+02  1.297040e+01  3.000000e+00 
   38    77    78   117     1  3.600000e+02  1.297040e+01  3.000000e+00  3.600000e+02  1.297040e+01  3.000000e+00 
   76    77    78    79     1  3.600000e+02  1.297040e+01  3.000000e+00  3.600000e+02  1.297040e+01  3.000000e+00 
   76    77    78   117     1  1.800000e+02  1.297040e+01  3.000000e+00  1.800000e+02  1.297040e+01  3.000000e+00 
   77    78    79    80     1  1.800000e+02  1.297040e+01  3.000000e+00  1.800000e+02  1.297040e+01  3.000000e+00 
   77    78    79   120     1  3.600000e+02  1.297040e+01  3.000000e+00  3.600000e+02  1.297040e+01  3.000000e+00 
  117    78    79    80     1  3.600000e+02  1.297040e+01  3.000000e+00  3.600000e+02  1.297040e+01  3.000000e+00 
  117    78    79   120     1  1.800000e+02  1.297040e+01  3.000000e+00  1.800000e+02  1.297040e+01  3.000000e+00 
   77    78   117   116     1  1.800000e+02  1.297040e+01  3.000000e+00  1.800000e+02  1.297040e+01  3.000000e+00 
   77    78   117   118     1  3.600000e+02  1.297040e+01  3.000000e+00  3.600000e+02  1.297040e+01  3.000000e+00 
   79    78   117   116     1  3.600000e+02  1.297040e+01  3.000000e+00  3.600000e+02  1.297040e+01  3.000000e+00 
   79    78   117   118     1  1.800000e+02  1.297040e+01  3.000000e+00  1.800000e+02  1.297040e+01  3.000000e+00 
   78    79    80    39     1  1.800000e+02  1.297040e+01  3.000000e+00  1.800000e+02  1.297040e+01  3.000000e+00 
   78    79    80    41     1  3.600000e+02  1.297040e+01  3.000000e+00  3.600000e+02  1.297040e+01  3.000000e+00 
  120    79    80    39     1  3.600000e+02  1.297040e+01  3.000000e+00  3.600000e+02  1.297040e+01  3.000000e+00 
  120    79    80    41     1  1.800000e+02  1.297040e+01  3.000000e+00  1.800000e+02  1.297040e+01  3.000000e+00 
   78    79   120    81     1  3.600000e+02  1.297040e+01  3.000000e+00  3.600000e+02  1.297040e+01  3.000000e+00 
   78    79   120   119     1  1.800000e+02  1.297040e+01  3.000000e+00  1.800000e+02  1.297040e+01  3.000000e+00 
   80    79   120    81     1  1.800000e+02  1.297040e+01  3.000000e+00  1.800000e+02  1.297040e+01  3.000000e+00 
   80    79   120   119     1  3.600000e+02  1.297040e+01  3.000000e+00  3.600000e+02  1.297040e+01  3.000000e+00 
   42    81    82    83     1  1.800000e+02  1.297040e+01  3.000000e+00  1.800000e+02  1.297040e+01  3.000000e+00 
   42    81    82   121     1  3.600000e+02  1.297040e+01  3.000000e+00  3.600000e+02  1.297040e+01  3.000000e+00 
  120    81    82    83     1  3.600000e+02  1.297040e+01  3.000000e+00  3.600000e+02  1.297040e+01  3.000000e+00 
  120    81    82   121     1  1.800000e+02  1.297040e+01  3.000000e+00  1.800000e+02  1.297040e+01  3.000000e+00 
   42    81   120    79     1  1.800000e+02  1.297040e+01  3.000000e+00  1.800000e+02  1.297040e+01  3.000000e+00 
   42    81   120   119     1  3.600000e+02  1.297040e+01  3.000000e+00  3.600000e+02  1.297040e+01  3.000000e+00 
   82    81   120    79     1  3.600000e+02  1.297040e+01  3.000000e+00  3.600000e+02  1.297040e+01  3.000000e+00 
   82    81   120   119     1  1.800000e+02  1.297040e+01  3.000000e+00  1.800000e+02  1.297040e+01  3.000000e+00 
   81    82    83    84     1  1.800000e+02  1.297040e+01  3.000000e+00  1.800000e+02  1.297040e+01  3.000000e+00 
   81    82    83   124     1  3.600000e+02  1.297040e+01  3.000000e+00  3.600000e+02  1.297040e+01  3.000000e+00 
  121    82    83    84     1  3.600000e+02  1.297040e+01  3.000000e+00  3.600000e+02  1.297040e+01  3.000000e+00 
  121    82    83   124     1  1.800000e+02  1.297040e+01  3.000000e+00  1.800000e+02  1.297040e+01  3.000000e+00 
   81    82   121   122     1  3.600000e+02  1.297040e+01  3.000000e+00  3.600000e+02  1.297040e+01  3.000000e+00 
   81    82   121   160     1  1.800000e+02  1.297040e+01  3.000000e+00  1.800000e+02  1.297040e+01  3.000000e+00 
   83    82   121   122     1  1.800000e+02  1.297040e+01  3.000000e+00  1.800000e+02  1.297040e+01  3.000000e+00 
   83    82   121   160     1  3.600000e+02  1.297040e+01  3.000000e+00  3.600000e+02  1.297040e+01  3.000000e+00 
   82    83    84    43     1  1.800000e+02  1.297040e+01  3.000000e+00  1.800000e+02  1.297040e+01  3.000000e+00 
   82    83    84    85     1  3.600000e+02  1.297040e+01  3.000000e+00  3.600000e+02  1.297040e+01  3.000000e+00 
  124    83    84    43     1  3.600000e+02  1.297040e+01  3.000000e+00  3.600000e+02  1.297040e+01  3.000000e+00 
  124    83    84    85     1  1.800000e+02  1.297040e+01  3.000000e+00  1.800000e+02  1.297040e+01  3.000000e+00 
   82    83   124   123     1  1.800000e+02  1.297040e+01  3.000000e+00  1.800000e+02  1.297040e+01  3.000000e+00 
   82    83   124   125     1  3.600000e+02  1.297040e+01  3.000000e+00  3.600000e+02  1.297040e+01  3.000000e+00 
   84    83   124   123     1  3.600000e+02  1.297040e+01  3.000000e+00  3.600000e+02  1.297040e+01  3.000000e+00 
   84    83   124   125     1  1.800000e+02  1.297040e+01  3.000000e+00  1.800000e+02  1.297040e+01  3.000000e+00 
   43    84    85    46     1  1.800000e+02  1.297040e+01  3.000000e+00  1.800000e+02  1.297040e+01  3.000000e+00 
   43    84    85    86     1  3.600000e+02  1.297040e+01  3.000000e+00  3.600000e+02  1.297040e+01  3.000000e+00 
   83    84    85    46     1  3.600000e+02  1.297040e+01  3.000000e+00  3.600000e+02  1.297040e+01  3.000000e+00 
   83    84    85    86     1  1.800000e+02  1.297040e+01  3.000000e+00  1.800000e+02  1.297040e+01  3.000000e+00 
   46    85    86    87     1  1.800000e+02  1.297040e+01  3.000000e+00  1.800000e+02  1.297040e+01  3.000000e+00 
   46    85    86   125     1  3.600000e+02  1.297040e+01  3.000000e+00  3.600000e+02  1.297040e+01  3.000000e+00 
   84    85    86    87     1  3.600000e+02  1.297040e+01  3.000000e+00  3.600000e+02  1.297040e+01  3.000000e+00 
   84    85    86   125     1  1.800000e+02  1.297040e+01  3.000000e+00  1.800000e+02  1.297040e+01  3.000000e+00 
   85    86    87    88     1  1.800000e+02  1.297040e+01  3.000000e+00  1.800000e+02  1.297040e+01  3.000000e+00 
   85    86    87   128     1  3.600000e+02  1.297040e+01  3.000000e+00  3.600000e+02  1.297040e+01  3.000000e+00 
  125    86    87    88     1  3.600000e+02  1.297040e+01  3.000000e+00  3.600000e+02  1.297040e+01  3.000000e+00 
  125    86    87   128     1  1.800000e+02  1.297040e+01  3.000000e+00  1.800000e+02  1.297040e+01  3.000000e+00 
   85    86   125   124     1  1.800000e+02  1.297040e+01  3.000000e+00  1.800000e+02  1.297040e+01  3.000000e+00 
   85    86   125   126     1  3.600000e+02  1.297040e+01  3.000000e+00  3.600000e+02  1.297040e+01  3.000000e+00 
   87    86   125   124     1  3.600000e+02  1.297040e+01  3.000000e+00  3.600000e+02  1.297040e+01  3.000000e+00 
   87    86   125   126     1  1.800000e+02  1.297040e+01  3.000000e+00  1.800000e+02  1.297040e+01  3.000000e+00 
   86    87    88    47     1  1.800000e+02  1.297040e+01  3.000000e+00  1.800000e+02  1.297040e+01  3.000000e+00 
   86    87    88    89     1  3.600000e+02  1.297040e+01  3.000000e+00  3.600000e+02  1.297040e+01  3.000000e+00 
  128    87    88    47     1  3.600000e+02  1.297040e+01  3.000000e+00  3.600000e+02  1.297040e+01  3.000000e+00 
  128    87    88    89     1  1.800000e+02  1.297040e+01  3.000000e+00  1.800000e+02  1.297040e+01  3.000000e+00 
   86    87   128   127     1  1.800000e+02  1.297040e+01  3.000000e+00  1.800000e+02  1.297040e+01  3.000000e+00 
   86    87   128   129     1  3.600000e+02  1.297040e+01  3.000000e+00  3.600000e+02  1.297040e+01  3.000000e+00 
   88    87   128   127     1  3.600000e+02  1.297040e+01  3.000000e+00  3.600000e+02  1.297040e+01  3.000000e+00 
   88    87   128   129     1  1.800000e+02  1.297040e+01  3.000000e+00  1.800000e+02  1.297040e+01  3.000000e+00 
   47    88    89    50     1  1.800000e+02  1.297040e+01  3.000000e+00  1.800000e+02  1.297040e+01  3.000000e+00 
   47    88    89    90     1  3.600000e+02  1.297040e+01  3.000000e+00  3.600000e+02  1.297040e+01  3.000000e+00 
   87    88    89    50     1  3.600000e+02  1.297040e+01  3.000000e+00  3.600000e+02  1.297040e+01  3.000000e+00 
   87    88    89    90     1  1.800000e+02  1.297040e+01  3.000000e+00  1.800000e+02  1.297040e+01  3.000000e+00 
   50    89    90    91     1  1.800000e+02  1.297040e+01  3.000000e+00  1.800000e+02  1.297040e+01  3.000000e+00 
   50    89    90   129     1  3.600000e+02  1.297040e+01  3.000000e+00  3.600000e+02  1.297040e+01  3.000000e+00 
   88    89    90    91     1  3.600000e+02  1.297040e+01  3.000000e+00  3.600000e+02  1.297040e+01  3.000000e+00 
   88    89    90   129     1  1.800000e+02  1.297040e+01  3.000000e+00  1.800000e+02  1.297040e+01  3.000000e+00 
   89    90    91    92     1  1.800000e+02  1.297040e+01  3.000000e+00  1.800000e+02  1.297040e+01  3.000000e+00 
   89    90    91   132     1  3.600000e+02  1.297040e+01  3.000000e+00  3.600000e+02  1.297040e+01  3.000000e+00 
  129    90    91    92     1  3.600000e+02  1.297040e+01  3.000000e+00  3.600000e+02  1.297040e+01  3.000000e+00 
  129    90    91   132     1  1.800000e+02  1.297040e+01  3.000000e+00  1.800000e+02  1.297040e+01  3.000000e+00 
   89    90   129   128     1  1.800000e+02  1.297040e+01  3.000000e+00  1.800000e+02  1.297040e+01  3.000000e+00 
   89    90   129   130     1  3.600000e+02  1.297040e+01  3.000000e+00  3.600000e+02  1.297040e+01  3.000000e+00 
   91    90   129   128     1  3.600000e+02  1.297040e+01  3.000000e+00  3.600000e+02  1.297040e+01  3.000000e+00 
   91    90   129   130     1  1.800000e+02  1.297040e+01  3.000000e+00  1.800000e+02  1.297040e+01  3.000000e+00 
   90    91    92    51     1  1.800000e+02  1.297040e+01  3.000000e+00  1.800000e+02  1.297040e+01  3.000000e+00 
   90    91    92    93     1  3.600000e+02  1.297040e+01  3.000000e+00  3.600000e+02  1.297040e+01  3.000000e+00 
  132    91    92    51     1  3.600000e+02  1.297040e+01  3.000000e+00  3.600000e+02  1.297040e+01  3.000000e+00 
  132    91    92    93     1  1.800000e+02  1.297040e+01  3.000000e+00  1.800000e+02  1.297040e+01  3.000000e+00 
   90    91   132   131     1  1.800000e+02  1.297040e+01  3.000000e+00  1.800000e+02  1.297040e+01  3.000000e+00 
   90    91   132   133     1  3.600000e+02  1.297040e+01  3.000000e+00  3.600000e+02  1.297040e+01  3.000000e+00 
   92    91   132   131     1  3.600000e+02  1.297040e+01  3.000000e+00  3.600000e+02  1.297040e+01  3.000000e+00 
   92    91   132   133     1  1.800000e+02  1.297040e+01  3.000000e+00  1.800000e+02  1.297040e+01  3.000000e+00 
   51    92    93    54     1  1.800000e+02  1.297040e+01  3.000000e+00  1.800000e+02  1.297040e+01  3.000000e+00 
   51    92    93    94     1  3.600000e+02  1.297040e+01  3.000000e+00  3.600000e+02  1.297040e+01  3.000000e+00 
   91    92    93    54     1  3.600000e+02  1.297040e+01  3.000000e+00  3.600000e+02  1.297040e+01  3.000000e+00 
   91    92    93    94     1  1.800000e+02  1.297040e+01  3.000000e+00  1.800000e+02  1.297040e+01  3.000000e+00 
   54    93    94    95     1  1.800000e+02  1.297040e+01  3.000000e+00  1.800000e+02  1.297040e+01  3.000000e+00 
   54    93    94   133     1  3.600000e+02  1.297040e+01  3.000000e+00  3.600000e+02  1.297040e+01  3.000000e+00 
   92    93    94    95     1  3.600000e+02  1.297040e+01  3.000000e+00  3.600000e+02  1.297040e+01  3.000000e+00 
   92    93    94   133     1  1.800000e+02  1.297040e+01  3.000000e+00  1.800000e+02  1.297040e+01  3.000000e+00 
   93    94    95    96     1  1.800000e+02  1.297040e+01  3.000000e+00  1.800000e+02  1.297040e+01  3.000000e+00 
   93    94    95   136     1  3.600000e+02  1.297040e+01  3.000000e+00  3.600000e+02  1.297040e+01  3.000000e+00 
  133    94    95    96     1  3.600000e+02  1.297040e+01  3.000000e+00  3.600000e+02  1.297040e+01  3.000000e+00 
  133    94    95   136     1  1.800000e+02  1.297040e+01  3.000000e+00  1.800000e+02  1.297040e+01  3.000000e+00 
   93    94   133   132     1  1.800000e+02  1.297040e+01  3.000000e+00  1.800000e+02  1.297040e+01  3.000000e+00 
   93    94   133   134     1  3.600000e+02  1.297040e+01  3.000000e+00  3.600000e+02  1.297040e+01  3.000000e+00 
   95    94   133   132     1  3.600000e+02  1.297040e+01  3.000000e+00  3.600000e+02  1.297040e+01  3.000000e+00 
   95    94   133   134     1  1.800000e+02  1.297040e+01  3.000000e+00  1.800000e+02  1.297040e+01  3.000000e+00 
   94    95    96    55     1  1.800000e+02  1.297040e+01  3.000000e+00  1.800000e+02  1.297040e+01  3.000000e+00 
   94    95    96    97     1  3.600000e+02  1.297040e+01  3.000000e+00  3.600000e+02  1.297040e+01  3.000000e+00 
  136    95    96    55     1  3.600000e+02  1.297040e+01  3.000000e+00  3.600000e+02  1.297040e+01  3.000000e+00 
  136    95    96    97     1  1.800000e+02  1.297040e+01  3.000000e+00  1.800000e+02  1.297040e+01  3.000000e+00 
   94    95   136   135     1  1.800000e+02  1.297040e+01  3.000000e+00  1.800000e+02  1.297040e+01  3.000000e+00 
   94    95   136   137     1  3.600000e+02  1.297040e+01  3.000000e+00  3.600000e+02  1.297040e+01  3.000000e+00 
   96    95   136   135     1  3.600000e+02  1.297040e+01  3.000000e+00  3.600000e+02  1.297040e+01  3.000000e+00 
   96    95   136   137     1  1.800000e+02  1.297040e+01  3.000000e+00  1.800000e+02  1.297040e+01  3.000000e+00 
   55    96    97    58     1  1.800000e+02  1.297040e+01  3.000000e+00  1.800000e+02  1.297040e+01  3.000000e+00 
   55    96    97    98     1  3.600000e+02  1.297040e+01  3.000000e+00  3.600000e+02  1.297040e+01  3.000000e+00 
   95    96    97    58     1  3.600000e+02  1.297040e+01  3.000000e+00  3.600000e+02  1.297040e+01  3.000000e+00 
   95    96    97    98     1  1.800000e+02  1.297040e+01  3.000000e+00  1.800000e+02  1.297040e+01  3.000000e+00 
   58    97    98    99     1  1.800000e+02  1.297040e+01  3.000000e+00  1.800000e+02  1.297040e+01  3.000000e+00 
   58    97    98   137     1  3.600000e+02  1.297040e+01  3.000000e+00  3.600000e+02  1.297040e+01  3.000000e+00 
   96    97    98    99     1  3.600000e+02  1.297040e+01  3.000000e+00  3.600000e+02  1.297040e+01  3.000000e+00 
   96    97    98   137     1  1.800000e+02  1.297040e+01  3.000000e+00  1.800000e+02  1.297040e+01  3.000000e+00 
   97    98    99   100     1  1.800000e+02  1.297040e+01  3.000000e+00  1.800000e+02  1.297040e+01  3.000000e+00 
   97    98    99   140     1  3.600000e+02  1.297040e+01  3.000000e+00  3.600000e+02  1.297040e+01  3.000000e+00 
  137    98    99   100     1  3.600000e+02  1.297040e+01  3.000000e+00  3.600000e+02  1.297040e+01  3.000000e+00 
  137    98    99   140     1  1.800000e+02  1.297040e+01  3.000000e+00  1.800000e+02  1.297040e+01  3.000000e+00 
   97    98   137   136     1  1.800000e+02  1.297040e+01  3.000000e+00  1.800000e+02  1.297040e+01  3.000000e+00 
   97    98   137   138     1  3.600000e+02  1.297040e+01  3.000000e+00  3.600000e+02  1.297040e+01  3.000000e+00 
   99    98   137   136     1  3.600000e+02  1.297040e+01  3.000000e+00  3.600000e+02  1.297040e+01  3.000000e+00 
   99    98   137   138     1  1.800000e+02  1.297040e+01  3.000000e+00  1.800000e+02  1.297040e+01  3.000000e+00 
   98    99   100    59     1  1.800000e+02  1.297040e+01  3.000000e+00  1.800000e+02  1.297040e+01  3.000000e+00 
   98    99   100   101     1  3.600000e+02  1.297040e+01  3.000000e+00  3.600000e+02  1.297040e+01  3.000000e+00 
  140    99   100    59     1  3.600000e+02  1.297040e+01  3.000000e+00  3.600000e+02  1.297040e+01  3.000000e+00 
  140    99   100   101     1  1.800000e+02  1.297040e+01  3.000000e+00  1.800000e+02  1.297040e+01  3.000000e+00 
   98    99   140   139     1  1.800000e+02  1.297040e+01  3.000000e+00  1.800000e+02  1.297040e+01  3.000000e+00 
   98    99   140   141     1  3.600000e+02  1.297040e+01  3.000000e+00  3.600000e+02  1.297040e+01  3.000000e+00 
  100    99   140   139     1  3.600000e+02  1.297040e+01  3.000000e+00  3.600000e+02  1.297040e+01  3.000000e+00 
  100    99   140   141     1  1.800000e+02  1.297040e+01  3.000000e+00  1.800000e+02  1.297040e+01  3.000000e+00 
   59   100   101    62     1  1.800000e+02  1.297040e+01  3.000000e+00  1.800000e+02  1.297040e+01  3.000000e+00 
   59   100   101   102     1  3.600000e+02  1.297040e+01  3.000000e+00  3.600000e+02  1.297040e+01  3.000000e+00 
   99   100   101    62     1  3.600000e+02  1.297040e+01  3.000000e+00  3.600000e+02  1.297040e+01  3.000000e+00 
   99   100   101   102     1  1.800000e+02  1.297040e+01  3.000000e+00  1.800000e+02  1.297040e+01  3.000000e+00 
   62   101   102   103     1  1.800000e+02  1.297040e+01  3.000000e+00  1.800000e+02  1.297040e+01  3.000000e+00 
   62   101   102   141     1  3.600000e+02  1.297040e+01  3.000000e+00  3.600000e+02  1.297040e+01  3.000000e+00 
  100   101   102   103     1  3.600000e+02  1.297040e+01  3.000000e+00  3.600000e+02  1.297040e+01  3.000000e+00 
  100   101   102   141     1  1.800000e+02  1.297040e+01  3.000000e+00  1.800000e+02  1.297040e+01  3.000000e+00 
  101   102   103   104     1  1.800000e+02  1.297040e+01  3.000000e+00  1.800000e+02  1.297040e+01  3.000000e+00 
  101   102   103   144     1  3.600000e+02  1.297040e+01  3.000000e+00  3.600000e+02  1.297040e+01  3.000000e+00 
  141   102   103   104     1  3.600000e+02  1.297040e+01  3.000000e+00  3.600000e+02  1.297040e+01  3.000000e+00 
  141   102   103   144     1  1.800000e+02  1.297040e+01  3.000000e+00  1.800000e+02  1.297040e+01  3.000000e+00 
  101   102   141   140     1  1.800000e+02  1.297040e+01  3.000000e+00  1.800000e+02  1.297040e+01  3.000000e+00 
  101   102   141   142     1  3.600000e+02  1.297040e+01  3.000000e+00  3.600000e+02  1.297040e+01  3.000000e+00 
  103   102   141   140     1  3.600000e+02  1.297040e+01  3.000000e+00  3.600000e+02  1.297040e+01  3.000000e+00 
  103   102   141   142     1  1.800000e+02  1.297040e+01  3.000000e+00  1.800000e+02  1.297040e+01  3.000000e+00 
  102   103   104    63     1  1.800000e+02  1.297040e+01  3.000000e+00  1.800000e+02  1.297040e+01  3.000000e+00 
  102   103   104   105     1  3.600000e+02  1.297040e+01  3.000000e+00  3.600000e+02  1.297040e+01  3.000000e+00 
  144   103   104    63     1  3.600000e+02  1.297040e+01  3.000000e+00  3.600000e+02  1.297040e+01  3.000000e+00 
  144   103   104   105     1  1.800000e+02  1.297040e+01  3.000000e+00  1.800000e+02  1.297040e+01  3.000000e+00 
  102   103   144   143     1  1.800000e+02  1.297040e+01  3.000000e+00  1.800000e+02  1.297040e+01  3.000000e+00 
  102   103   144   145     1  3.600000e+02  1.297040e+01  3.000000e+00  3.600000e+02  1.297040e+01  3.000000e+00 
  104   103   144   143     1  3.600000e+02  1.297040e+01  3.000000e+00  3.600000e+02  1.297040e+01  3.000000e+00 
  104   103   144   145     1  1.800000e+02  1.297040e+01  3.000000e+00  1.800000e+02  1.297040e+01  3.000000e+00 
   63   104   105    66     1  1.800000e+02  1.297040e+01  3.000000e+00  1.800000e+02  1.297040e+01  3.000000e+00 
   63   104   105   106     1  3.600000e+02  1.297040e+01  3.000000e+00  3.600000e+02  1.297040e+01  3.000000e+00 
  103   104   105    66     1  3.600000e+02  1.297040e+01  3.000000e+00  3.600000e+02  1.297040e+01  3.000000e+00 
  103   104   105   106     1  1.800000e+02  1.297040e+01  3.000000e+00  1.800000e+02  1.297040e+01  3.000000e+00 
   66   105   106   107     1  1.800000e+02  1.297040e+01  3.000000e+00  1.800000e+02  1.297040e+01  3.000000e+00 
   66   105   106   145     1  3.600000e+02  1.297040e+01  3.000000e+00  3.600000e+02  1.297040e+01  3.000000e+00 
  104   105   106   107     1  3.600000e+02  1.297040e+01  3.000000e+00  3.600000e+02  1.297040e+01  3.000000e+00 
  104   105   106   145     1  1.800000e+02  1.297040e+01  3.000000e+00  1.800000e+02  1.297040e+01  3.000000e+00 
  105   106   107   108     1  1.800000e+02  1.297040e+01  3.000000e+00  1.800000e+02  1.297040e+01  3.000000e+00 
  105   106   107   148     1  3.600000e+02  1.297040e+01  3.000000e+00  3.600000e+02  1.297040e+01  3.000000e+00 
  145   106   107   108     1  3.600000e+02  1.297040e+01  3.000000e+00  3.600000e+02  1.297040e+01  3.000000e+00 
  145   106   107   148     1  1.800000e+02  1.297040e+01  3.000000e+00  1.800000e+02  1.297040e+01  3.000000e+00 
  105   106   145   144     1  1.800000e+02  1.297040e+01  3.000000e+00  1.800000e+02  1.297040e+01  3.000000e+00 
  105   106   145   146     1  3.600000e+02  1.297040e+01  3.000000e+00  3.600000e+02  1.297040e+01  3.000000e+00 
  107   106   145   144     1  3.600000e+02  1.297040e+01  3.000000e+00  3.600000e+02  1.297040e+01  3.000000e+00 
  107   106   145   146     1  1.800000e+02  1.297040e+01  3.000000e+00  1.800000e+02  1.297040e+01  3.000000e+00 
  106   107   108    67     1  1.800000e+02  1.297040e+01  3.000000e+00  1.800000e+02  1.297040e+01  3.000000e+00 
  106   107   108   109     1  3.600000e+02  1.297040e+01  3.000000e+00  3.600000e+02  1.297040e+01  3.000000e+00 
  148   107   108    67     1  3.600000e+02  1.297040e+01  3.000000e+00  3.600000e+02  1.297040e+01  3.000000e+00 
  148   107   108   109     1  1.800000e+02  1.297040e+01  3.000000e+00  1.800000e+02  1.297040e+01  3.000000e+00 
  106   107   148   147     1  1.800000e+02  1.297040e+01  3.000000e+00  1.800000e+02  1.297040e+01  3.000000e+00 
  106   107   148   149     1  3.600000e+02  1.297040e+01  3.000000e+00  3.600000e+02  1.297040e+01  3.000000e+00 
  108   107   148   147     1  3.600000e+02  1.297040e+01  3.000000e+00  3.600000e+02  1.297040e+01  3.000000e+00 
  108   107   148   149     1  1.800000e+02  1.297040e+01  3.000000e+00  1.800000e+02  1.297040e+01  3.000000e+00 
   67   108   109    70     1  1.800000e+02  1.297040e+01  3.000000e+00  1.800000e+02  1.297040e+01  3.000000e+00 
   67   108   109   110     1  3.600000e+02  1.297040e+01  3.000000e+00  3.600000e+02  1.297040e+01  3.000000e+00 
  107   108   109    70     1  3.600000e+02  1.297040e+01  3.000000e+00  3.600000e+02  1.297040e+01  3.000000e+00 
  107   108   109   110     1  1.800000e+02  1.297040e+01  3.000000e+00  1.800000e+02  1.297040e+01  3.000000e+00 
   70   109   110   111     1  1.800000e+02  1.297040e+01  3.000000e+00  1.800000e+02  1.297040e+01  3.000000e+00 
   70   109   110   149     1  3.600000e+02  1.297040e+01  3.000000e+00  3.600000e+02  1.297040e+01  3.000000e+00 
  108   109   110   111     1  3.600000e+02  1.297040e+01  3.000000e+00  3.600000e+02  1.297040e+01  3.000000e+00 
  108   109   110   149     1  1.800000e+02  1.297040e+01  3.000000e+00  1.800000e+02  1.297040e+01  3.000000e+00 
  109   110   111   112     1  1.800000e+02  1.297040e+01  3.000000e+00  1.800000e+02  1.297040e+01  3.000000e+00 
  109   110   111   152     1  3.600000e+02  1.297040e+01  3.000000e+00  3.600000e+02  1.297040e+01  3.000000e+00 
  149   110   111   112     1  3.600000e+02  1.297040e+01  3.000000e+00  3.600000e+02  1.297040e+01  3.000000e+00 
  149   110   111   152     1  1.800000e+02  1.297040e+01  3.000000e+00  1.800000e+02  1.297040e+01  3.000000e+00 
  109   110   149   148     1  1.800000e+02  1.297040e+01  3.000000e+00  1.800000e+02  1.297040e+01  3.000000e+00 
  109   110   149   150     1  3.600000e+02  1.297040e+01  3.000000e+00  3.600000e+02  1.297040e+01  3.000000e+00 
  111   110   149   148     1  3.600000e+02  1.297040e+01  3.000000e+00  3.600000e+02  1.297040e+01  3.000000e+00 
  111   110   149   150     1  1.800000e+02  1.297040e+01  3.000000e+00  1.800000e+02  1.297040e+01  3.000000e+00 
  110   111   112    71     1  1.800000e+02  1.297040e+01  3.000000e+00  1.800000e+02  1.297040e+01  3.000000e+00 
  110   111   112   113     1  3.600000e+02  1.297040e+01  3.000000e+00  3.600000e+02  1.297040e+01  3.000000e+00 
  152   111   112    71     1  3.600000e+02  1.297040e+01  3.000000e+00  3.600000e+02  1.297040e+01  3.000000e+00 
  152   111   112   113     1  1.800000e+02  1.297040e+01  3.000000e+00  1.800000e+02  1.297040e+01  3.000000e+00 
  110   111   152   151     1  1.800000e+02  1.297040e+01  3.000000e+00  1.800000e+02  1.297040e+01  3.000000e+00 
  110   111   152   153     1  3.600000e+02  1.297040e+01  3.000000e+00  3.600000e+02  1.297040e+01  3.000000e+00 
  112   111   152   151     1  3.600000e+02  1.297040e+01  3.000000e+00  3.600000e+02  1.297040e+01  3.000000e+00 
  112   111   152   153     1  1.800000e+02  1.297040e+01  3.000000e+00  1.800000e+02  1.297040e+01  3.000000e+00 
   71   112   113    74     1  1.800000e+02  1.297040e+01  3.000000e+00  1.800000e+02  1.297040e+01  3.000000e+00 
   71   112   113   114     1  3.600000e+02  1.297040e+01  3.000000e+00  3.600000e+02  1.297040e+01  3.000000e+00 
  111   112   113    74     1  3.600000e+02  1.297040e+01  3.000000e+00  3.600000e+02  1.297040e+01  3.000000e+00 
  111   112   113   114     1  1.800000e+02  1.297040e+01  3.000000e+00  1.800000e+02  1.297040e+01  3.000000e+00 
   74   113   114   115     1  1.800000e+02  1.297040e+01  3.000000e+00  1.800000e+02  1.297040e+01  3.000000e+00 
   74   113   114   153     1  3.600000e+02  1.297040e+01  3.000000e+00  3.600000e+02  1.297040e+01  3.000000e+00 
  112   113   114   115     1  3.600000e+02  1.297040e+01  3.000000e+00  3.600000e+02  1.297040e+01  3.000000e+00 
  112   113   114   153     1  1.800000e+02  1.297040e+01  3.000000e+00  1.800000e+02  1.297040e+01  3.000000e+00 
  113   114   115   116     1  1.800000e+02  1.297040e+01  3.000000e+00  1.800000e+02  1.297040e+01  3.000000e+00 
  113   114   115   156     1  3.600000e+02  1.297040e+01  3.000000e+00  3.600000e+02  1.297040e+01  3.000000e+00 
  153   114   115   116     1  3.600000e+02  1.297040e+01  3.000000e+00  3.600000e+02  1.297040e+01  3.000000e+00 
  153   114   115   156     1  1.800000e+02  1.297040e+01  3.000000e+00  1.800000e+02  1.297040e+01  3.000000e+00 
  113   114   153   152     1  1.800000e+02  1.297040e+01  3.000000e+00  1.800000e+02  1.297040e+01  3.000000e+00 
  113   114   153   154     1  3.600000e+02  1.297040e+01  3.000000e+00  3.600000e+02  1.297040e+01  3.000000e+00 
  115   114   153   152     1  3.600000e+02  1.297040e+01  3.000000e+00  3.600000e+02  1.297040e+01  3.000000e+00 
  115   114   153   154     1  1.800000e+02  1.297040e+01  3.000000e+00  1.800000e+02  1.297040e+01  3.000000e+00 
  114   115   116    75     1  1.800000e+02  1.297040e+01  3.000000e+00  1.800000e+02  1.297040e+01  3.000000e+00 
  114   115   116   117     1  3.600000e+02  1.297040e+01  3.000000e+00  3.600000e+02  1.297040e+01  3.000000e+00 
  156   115   116    75     1  3.600000e+02  1.297040e+01  3.000000e+00  3.600000e+02  1.297040e+01  3.000000e+00 
  156   115   116   117     1  1.800000e+02  1.297040e+01  3.000000e+00  1.800000e+02  1.297040e+01  3.000000e+00 
  114   115   156   155     1  1.800000e+02  1.297040e+01  3.000000e+00  1.800000e+02  1.297040e+01  3.000000e+00 
  114   115   156   157     1  3.600000e+02  1.297040e+01  3.000000e+00  3.600000e+02  1.297040e+01  3.000000e+00 
  116   115   156   155     1  3.600000e+02  1.297040e+01  3.000000e+00  3.600000e+02  1.297040e+01  3.000000e+00 
  116   115   156   157     1  1.800000e+02  1.297040e+01  3.000000e+00  1.800000e+02  1.297040e+01  3.000000e+00 
   75   116   117    78     1  1.800000e+02  1.297040e+01  3.000000e+00  1.800000e+02  1.297040e+01  3.000000e+00 
   75   116   117   118     1  3.600000e+02  1.297040e+01  3.000000e+00  3.600000e+02  1.297040e+01  3.000000e+00 
  115   116   117    78     1  3.600000e+02  1.297040e+01  3.000000e+00  3.600000e+02  1.297040e+01  3.000000e+00 
  115   116   117   118     1  1.800000e+02  1.297040e+01  3.000000e+00  1.800000e+02  1.297040e+01  3.000000e+00 
   78   117   118   119     1  1.800000e+02  1.297040e+01  3.000000e+00  1.800000e+02  1.297040e+01  3.000000e+00 
   78   117   118   157     1  3.600000e+02  1.297040e+01  3.000000e+00  3.600000e+02  1.297040e+01  3.000000e+00 
  116   117   118   119     1  3.600000e+02  1.297040e+01  3.000000e+00  3.600000e+02  1.297040e+01  3.000000e+00 
  116   117   118   157     1  1.800000e+02  1.297040e+01  3.000000e+00  1.800000e+02  1.297040e+01  3.000000e+00 
  117   118   119   120     1  1.800000e+02  1.297040e+01  3.000000e+00  1.800000e+02  1.297040e+01  3.000000e+00 
  117   118   119   160     1  3.600000e+02  1.297040e+01  3.000000e+00  3.600000e+02  1.297040e+01  3.000000e+00 
  157   118   119   120     1  3.600000e+02  1.297040e+01  3.000000e+00  3.600000e+02  1.297040e+01  3.000000e+00 
  157   118   119   160     1  1.800000e+02  1.297040e+01  3.000000e+00  1.800000e+02  1.297040e+01  3.000000e+00 
  117   118   157   156     1  1.800000e+02  1.297040e+01  3.000000e+00  1.800000e+02  1.297040e+01  3.000000e+00 
  117   118   157   158     1  3.600000e+02  1.297040e+01  3.000000e+00  3.600000e+02  1.297040e+01  3.000000e+00 
  119   118   157   156     1  3.600000e+02  1.297040e+01  3.000000e+00  3.600000e+02  1.297040e+01  3.000000e+00 
  119   118   157   158     1  1.800000e+02  1.297040e+01  3.000000e+00  1.800000e+02  1.297040e+01  3.000000e+00 
  118   119   120    79     1  1.800000e+02  1.297040e+01  3.000000e+00  1.800000e+02  1.297040e+01  3.000000e+00 
  118   119   120    81     1  3.600000e+02  1.297040e+01  3.000000e+00  3.600000e+02  1.297040e+01  3.000000e+00 
  160   119   120    79     1  3.600000e+02  1.297040e+01  3.000000e+00  3.600000e+02  1.297040e+01  3.000000e+00 
  160   119   120    81     1  1.800000e+02  1.297040e+01  3.000000e+00  1.800000e+02  1.297040e+01  3.000000e+00 
  118   119   160   121     1  3.600000e+02  1.297040e+01  3.000000e+00  3.600000e+02  1.297040e+01  3.000000e+00 
  118   119   160   159     1  1.800000e+02  1.297040e+01  3.000000e+00  1.800000e+02  1.297040e+01  3.000000e+00 
  120   119   160   121     1  1.800000e+02  1.297040e+01  3.000000e+00  1.800000e+02  1.297040e+01  3.000000e+00 
  120   119   160   159     1  3.600000e+02  1.297040e+01  3.000000e+00  3.600000e+02  1.297040e+01  3.000000e+00 
   82   121   122   123     1  1.800000e+02  1.297040e+01  3.000000e+00  1.800000e+02  1.297040e+01  3.000000e+00 
   82   121   122   161     1  3.600000e+02  1.297040e+01  3.000000e+00  3.600000e+02  1.297040e+01  3.000000e+00 
  160   121   122   123     1  3.600000e+02  1.297040e+01  3.000000e+00  3.600000e+02  1.297040e+01  3.000000e+00 
  160   121   122   161     1  1.800000e+02  1.297040e+01  3.000000e+00  1.800000e+02  1.297040e+01  3.000000e+00 
   82   121   160   119     1  1.800000e+02  1.297040e+01  3.000000e+00  1.800000e+02  1.297040e+01  3.000000e+00 
   82   121   160   159     1  3.600000e+02  1.297040e+01  3.000000e+00  3.600000e+02  1.297040e+01  3.000000e+00 
  122   121   160   119     1  3.600000e+02  1.297040e+01  3.000000e+00  3.600000e+02  1.297040e+01  3.000000e+00 
  122   121   160   159     1  1.800000e+02  1.297040e+01  3.000000e+00  1.800000e+02  1.297040e+01  3.000000e+00 
  121   122   123   124     1  1.800000e+02  1.297040e+01  3.000000e+00  1.800000e+02  1.297040e+01  3.000000e+00 
  121   122   123   164     1  3.600000e+02  1.297040e+01  3.000000e+00  3.600000e+02  1.297040e+01  3.000000e+00 
  161   122   123   124     1  3.600000e+02  1.297040e+01  3.000000e+00  3.600000e+02  1.297040e+01  3.000000e+00 
  161   122   123   164     1  1.800000e+02  1.297040e+01  3.000000e+00  1.800000e+02  1.297040e+01  3.000000e+00 
  121   122   161   162     1  3.600000e+02  1.297040e+01  3.000000e+00  3.600000e+02  1.297040e+01  3.000000e+00 
  121   122   161   200     1  1.800000e+02  1.297040e+01  3.000000e+00  1.800000e+02  1.297040e+01  3.000000e+00 
  123   122   161   162     1  1.800000e+02  1.297040e+01  3.000000e+00  1.800000e+02  1.297040e+01  3.000000e+00 
  123   122   161   200     1  3.600000e+02  1.297040e+01  3.000000e+00  3.600000e+02  1.297040e+01  3.000000e+00 
  122   123   124    83     1  1.800000e+02  1.297040e+01  3.000000e+00  1.800000e+02  1.297040e+01  3.000000e+00 
  122   123   124   125     1  3.600000e+02  1.297040e+01  3.000000e+00  3.600000e+02  1.297040e+01  3.000000e+00 
  164   123   124    83     1  3.600000e+02  1.297040e+01  3.000000e+00  3.600000e+02  1.297040e+01  3.000000e+00 
  164   123   124   125     1  1.800000e+02  1.297040e+01  3.000000e+00  1.800000e+02  1.297040e+01  3.000000e+00 
  122   123   164   163     1  1.800000e+02  1.297040e+01  3.000000e+00  1.800000e+02  1.297040e+01  3.000000e+00 
  122   123   164   165     1  3.600000e+02  1.297040e+01  3.000000e+00  3.600000e+02  1.297040e+01  3.000000e+00 
  124   123   164   163     1  3.600000e+02  1.297040e+01  3.000000e+00  3.600000e+02  1.297040e+01  3.000000e+00 
  124   123   164   165     1  1.800000e+02  1.297040e+01  3.000000e+00  1.800000e+02  1.297040e+01  3.000000e+00 
   83   124   125    86     1  1.800000e+02  1.297040e+01  3.000000e+00  1.800000e+02  1.297040e+01  3.000000e+00 
   83   124   125   126     1  3.600000e+02  1.297040e+01  3.000000e+00  3.600000e+02  1.297040e+01  3.000000e+00 
  123   124   125    86     1  3.600000e+02  1.297040e+01  3.000000e+00  3.600000e+02  1.297040e+01  3.000000e+00 
  123   124   125   126     1  1.800000e+02  1.297040e+01  3.000000e+00  1.800000e+02  1.297040e+01  3.000000e+00 
   86   125   126   127     1  1.800000e+02  1.297040e+01  3.000000e+00  1.800000e+02  1.297040e+01  3.000000e+00 
   86   125   126   165     1  3.600000e+02  1.297040e+01  3.000000e+00  3.600000e+02  1.297040e+01  3.000000e+00 
  124   125   126   127     1  3.600000e+02  1.297040e+01  3.000000e+00  3.600000e+02  1.297040e+01  3.000000e+00 
  124   125   126   165     1  1.800000e+02  1.297040e+01  3.000000e+00  1.800000e+02  1.297040e+01  3.000000e+00 
  125   126   127   128     1  1.800000e+02  1.297040e+01  3.000000e+00  1.800000e+02  1.297040e+01  3.000000e+00 
  125   126   127   168     1  3.600000e+02  1.297040e+01  3.000000e+00  3.600000e+02  1.297040e+01  3.000000e+00 
  165   126   127   128     1  3.600000e+02  1.297040e+01  3.000000e+00  3.600000e+02  1.297040e+01  3.000000e+00 
  165   126   127   168     1  1.800000e+02  1.297040e+01  3.000000e+00  1.800000e+02  1.297040e+01  3.000000e+00 
  125   126   165   164     1  1.800000e+02  1.297040e+01  3.000000e+00  1.800000e+02  1.297040e+01  3.000000e+00 
  125   126   165   166     1  3.600000e+02  1.297040e+01  3.000000e+00  3.600000e+02  1.297040e+01  3.000000e+00 
  127   126   165   164     1  3.600000e+02  1.297040e+01  3.000000e+00  3.600000e+02  1.297040e+01  3.000000e+00 
  127   126   165   166     1  1.800000e+02  1.297040e+01  3.000000e+00  1.800000e+02  1.297040e+01  3.000000e+00 
  126   127   128    87     1  1.800000e+02  1.297040e+01  3.000000e+00  1.800000e+02  1.297040e+01  3.000000e+00 
  126   127   128   129     1  3.600000e+02  1.297040e+01  3.000000e+00  3.600000e+02  1.297040e+01  3.000000e+00 
  168   127   128    87     1  3.600000e+02  1.297040e+01  3.000000e+00  3.600000e+02  1.297040e+01  3.000000e+00 
  168   127   128   129     1  1.800000e+02  1.297040e+01  3.000000e+00  1.800000e+02  1.297040e+01  3.000000e+00 
  126   127   168   167     1  1.800000e+02  1.297040e+01  3.000000e+00  1.800000e+02  1.297040e+01  3.000000e+00 
  126   127   168   169     1  3.600000e+02  1.297040e+01  3.000000e+00  3.600000e+02  1.297040e+01  3.000000e+00 
  128   127   168   167     1  3.600000e+02  1.297040e+01  3.000000e+00  3.600000e+02  1.297040e+01  3.000000e+00 
  128   127   168   169     1  1.800000e+02  1.297040e+01  3.000000e+00  1.800000e+02  1.297040e+01  3.000000e+00 
   87   128   129    90     1  1.800000e+02  1.297040e+01  3.000000e+00  1.800000e+02  1.297040e+01  3.000000e+00 
   87   128   129   130     1  3.600000e+02  1.297040e+01  3.000000e+00  3.600000e+02  1.297040e+01  3.000000e+00 
  127   128   129    90     1  3.600000e+02  1.297040e+01  3.000000e+00  3.600000e+02  1.297040e+01  3.000000e+00 
  127   128   129   130     1  1.800000e+02  1.297040e+01  3.000000e+00  1.800000e+02  1.297040e+01  3.000000e+00 
   90   129   130   131     1  1.800000e+02  1.297040e+01  3.000000e+00  1.800000e+02  1.297040e+01  3.000000e+00 
   90   129   130   169     1  3.600000e+02  1.297040e+01  3.000000e+00  3.600000e+02  1.297040e+01  3.000000e+00 
  128   129   130   131     1  3.600000e+02  1.297040e+01  3.000000e+00  3.600000e+02  1.297040e+01  3.000000e+00 
  128   129   130   169     1  1.800000e+02  1.297040e+01  3.000000e+00  1.800000e+02  1.297040e+01  3.000000e+00 
  129   130   131   132     1  1.800000e+02  1.297040e+01  3.000000e+00  1.800000e+02  1.297040e+01  3.000000e+00 
  129   130   131   172     1  3.600000e+02  1.297040e+01  3.000000e+00  3.600000e+02  1.297040e+01  3.000000e+00 
  169   130   131   132     1  3.600000e+02  1.297040e+01  3.000000e+00  3.600000e+02  1.297040e+01  3.000000e+00 
  169   130   131   172     1  1.800000e+02  1.297040e+01  3.000000e+00  1.800000e+02  1.297040e+01  3.000000e+00 
  129   130   169   168     1  1.800000e+02  1.297040e+01  3.000000e+00  1.800000e+02  1.297040e+01  3.000000e+00 
  129   130   169   170     1  3.600000e+02  1.297040e+01  3.000000e+00  3.600000e+02  1.297040e+01  3.000000e+00 
  131   130   169   168     1  3.600000e+02  1.297040e+01  3.000000e+00  3.600000e+02  1.297040e+01  3.000000e+00 
  131   130   169   170     1  1.800000e+02  1.297040e+01  3.000000e+00  1.800000e+02  1.297040e+01  3.000000e+00 
  130   131   132    91     1  1.800000e+02  1.297040e+01  3.000000e+00  1.800000e+02  1.297040e+01  3.000000e+00 
  130   131   132   133     1  3.600000e+02  1.297040e+01  3.000000e+00  3.600000e+02  1.297040e+01  3.000000e+00 
  172   131   132    91     1  3.600000e+02  1.297040e+01  3.000000e+00  3.600000e+02  1.297040e+01  3.000000e+00 
  172   131   132   133     1  1.800000e+02  1.297040e+01  3.000000e+00  1.800000e+02  1.297040e+01  3.000000e+00 
  130   131   172   171     1  1.800000e+02  1.297040e+01  3.000000e+00  1.800000e+02  1.297040e+01  3.000000e+00 
  130   131   172   173     1  3.600000e+02  1.297040e+01  3.000000e+00  3.600000e+02  1.297040e+01  3.000000e+00 
  132   131   172   171     1  3.600000e+02  1.297040e+01  3.000000e+00  3.600000e+02  1.297040e+01  3.000000e+00 
  132   131   172   173     1  1.800000e+02  1.297040e+01  3.000000e+00  1.800000e+02  1.297040e+01  3.000000e+00 
   91   132   133    94     1  1.800000e+02  1.297040e+01  3.000000e+00  1.800000e+02  1.297040e+01  3.000000e+00 
   91   132   133   134     1  3.600000e+02  1.297040e+01  3.000000e+00  3.600000e+02  1.297040e+01  3.000000e+00 
  131   132   133    94     1  3.600000e+02  1.297040e+01  3.000000e+00  3.600000e+02  1.297040e+01  3.000000e+00 
  131   132   133   134     1  1.800000e+02  1.297040e+01  3.000000e+00  1.800000e+02  1.297040e+01  3.000000e+00 
   94   133   134   135     1  1.800000e+02  1.297040e+01  3.000000e+00  1.800000e+02  1.297040e+01  3.000000e+00 
   94   133   134   173     1  3.600000e+02  1.297040e+01  3.000000e+00  3.600000e+02  1.297040e+01  3.000000e+00 
  132   133   134   135     1  3.600000e+02  1.297040e+01  3.000000e+00  3.600000e+02  1.297040e+01  3.000000e+00 
  132   133   134   173     1  1.800000e+02  1.297040e+01  3.000000e+00  1.800000e+02  1.297040e+01  3.000000e+00 
  133   134   135   136     1  1.800000e+02  1.297040e+01  3.000000e+00  1.800000e+02  1.297040e+01  3.000000e+00 
  133   134   135   176     1  3.600000e+02  1.297040e+01  3.000000e+00  3.600000e+02  1.297040e+01  3.000000e+00 
  173   134   135   136     1  3.600000e+02  1.297040e+01  3.000000e+00  3.600000e+02  1.297040e+01  3.000000e+00 
  173   134   135   176     1  1.800000e+02  1.297040e+01  3.000000e+00  1.800000e+02  1.297040e+01  3.000000e+00 
  133   134   173   172     1  1.800000e+02  1.297040e+01  3.000000e+00  1.800000e+02  1.297040e+01  3.000000e+00 
  133   134   173   174     1  3.600000e+02  1.297040e+01  3.000000e+00  3.600000e+02  1.297040e+01  3.000000e+00 
  135   134   173   172     1  3.600000e+02  1.297040e+01  3.000000e+00  3.600000e+02  1.297040e+01  3.000000e+00 
  135   134   173   174     1  1.800000e+02  1.297040e+01  3.000000e+00  1.800000e+02  1.297040e+01  3.000000e+00 
  134   135   136    95     1  1.800000e+02  1.297040e+01  3.000000e+00  1.800000e+02  1.297040e+01  3.000000e+00 
  134   135   136   137     1  3.600000e+02  1.297040e+01  3.000000e+00  3.600000e+02  1.297040e+01  3.000000e+00 
  176   135   136    95     1  3.600000e+02  1.297040e+01  3.000000e+00  3.600000e+02  1.297040e+01  3.000000e+00 
  176   135   136   137     1  1.800000e+02  1.297040e+01  3.000000e+00  1.800000e+02  1.297040e+01  3.000000e+00 
  134   135   176   175     1  1.800000e+02  1.297040e+01  3.000000e+00  1.800000e+02  1.297040e+01  3.000000e+00 
  134   135   176   177     1  3.600000e+02  1.297040e+01  3.000000e+00  3.600000e+02  1.297040e+01  3.000000e+00 
  136   135   176   175     1  3.600000e+02  1.297040e+01  3.000000e+00  3.600000e+02  1.297040e+01  3.000000e+00 
  136   135   176   177     1  1.800000e+02  1.297040e+01  3.000000e+00  1.800000e+02  1.297040e+01  3.000000e+00 
   95   136   137    98     1  1.800000e+02  1.297040e+01  3.000000e+00  1.800000e+02  1.297040e+01  3.000000e+00 
   95   136   137   138     1  3.600000e+02  1.297040e+01  3.000000e+00  3.600000e+02  1.297040e+01  3.000000e+00 
  135   136   137    98     1  3.600000e+02  1.297040e+01  3.000000e+00  3.600000e+02  1.297040e+01  3.000000e+00 
  135   136   137   138     1  1.800000e+02  1.297040e+01  3.000000e+00  1.800000e+02  1.297040e+01  3.000000e+00 
   98   137   138   139     1  1.800000e+02  1.297040e+01  3.000000e+00  1.800000e+02  1.297040e+01  3.000000e+00 
   98   137   138   177     1  3.600000e+02  1.297040e+01  3.000000e+00  3.600000e+02  1.297040e+01  3.000000e+00 
  136   137   138   139     1  3.600000e+02  1.297040e+01  3.000000e+00  3.600000e+02  1.297040e+01  3.000000e+00 
  136   137   138   177     1  1.800000e+02  1.297040e+01  3.000000e+00  1.800000e+02  1.297040e+01  3.000000e+00 
  137   138   139   140     1  1.800000e+02  1.297040e+01  3.000000e+00  1.800000e+02  1.297040e+01  3.000000e+00 
  137   138   139   180     1  3.600000e+02  1.297040e+01  3.000000e+00  3.600000e+02  1.297040e+01  3.000000e+00 
  177   138   139   140     1  3.600000e+02  1.297040e+01  3.000000e+00  3.600000e+02  1.297040e+01  3.000000e+00 
  177   138   139   180     1  1.800000e+02  1.297040e+01  3.000000e+00  1.800000e+02  1.297040e+01  3.000000e+00 
  137   138   177   176     1  1.800000e+02  1.297040e+01  3.000000e+00  1.800000e+02  1.297040e+01  3.000000e+00 
  137   138   177   178     1  3.600000e+02  1.297040e+01  3.000000e+00  3.600000e+02  1.297040e+01  3.000000e+00 
  139   138   177   176     1  3.600000e+02  1.297040e+01  3.000000e+00  3.600000e+02  1.297040e+01  3.000000e+00 
  139   138   177   178     1  1.800000e+02  1.297040e+01  3.000000e+00  1.800000e+02  1.297040e+01  3.000000e+00 
  138   139   140    99     1  1.800000e+02  1.297040e+01  3.000000e+00  1.800000e+02  1.297040e+01  3.000000e+00 
  138   139   140   141     1  3.600000e+02  1.297040e+01  3.000000e+00  3.600000e+02  1.297040e+01  3.000000e+00 
  180   139   140    99     1  3.600000e+02  1.297040e+01  3.000000e+00  3.600000e+02  1.297040e+01  3.000000e+00 
  180   139   140   141     1  1.800000e+02  1.297040e+01  3.000000e+00  1.800000e+02  1.297040e+01  3.000000e+00 
  138   139   180   179     1  1.800000e+02  1.297040e+01  3.000000e+00  1.800000e+02  1.297040e+01  3.000000e+00 
  138   139   180   181     1  3.600000e+02  1.297040e+01  3.000000e+00  3.600000e+02  1.297040e+01  3.000000e+00 
  140   139   180   179     1  3.600000e+02  1.297040e+01  3.000000e+00  3.600000e+02  1.297040e+01  3.000000e+00 
  140   139   180   181     1  1.800000e+02  1.297040e+01  3.000000e+00  1.800000e+02  1.297040e+01  3.000000e+00 
   99   140   141   102     1  1.800000e+02  1.297040e+01  3.000000e+00  1.800000e+02  1.297040e+01  3.000000e+00 
   99   140   141   142     1  3.600000e+02  1.297040e+01  3.000000e+00  3.600000e+02  1.297040e+01  3.000000e+00 
  139   140   141   102     1  3.600000e+02  1.297040e+01  3.000000e+00  3.600000e+02  1.297040e+01  3.000000e+00 
  139   140   141   142     1  1.800000e+02  1.297040e+01  3.000000e+00  1.800000e+02  1.297040e+01  3.000000e+00 
  102   141   142   143     1  1.800000e+02  1.297040e+01  3.000000e+00  1.800000e+02  1.297040e+01  3.000000e+00 
  102   141   142   181     1  3.600000e+02  1.297040e+01  3.000000e+00  3.600000e+02  1.297040e+01  3.000000e+00 
  140   141   142   143     1  3.600000e+02  1.297040e+01  3.000000e+00  3.600000e+02  1.297040e+01  3.000000e+00 
  140   141   142   181     1  1.800000e+02  1.297040e+01  3.000000e+00  1.800000e+02  1.297040e+01  3.000000e+00 
  141   142   143   144     1  1.800000e+02  1.297040e+01  3.000000e+00  1.800000e+02  1.297040e+01  3.000000e+00 
  141   142   143   184     1  3.600000e+02  1.297040e+01  3.000000e+00  3.600000e+02  1.297040e+01  3.000000e+00 
  181   142   143   144     1  3.600000e+02  1.297040e+01  3.000000e+00  3.600000e+02  1.297040e+01  3.000000e+00 
  181   142   143   184     1  1.800000e+02  1.297040e+01  3.000000e+00  1.800000e+02  1.297040e+01  3.000000e+00 
  141   142   181   180     1  1.800000e+02  1.297040e+01  3.000000e+00  1.800000e+02  1.297040e+01  3.000000e+00 
  141   142   181   182     1  3.600000e+02  1.297040e+01  3.000000e+00  3.600000e+02  1.297040e+01  3.000000e+00 
  143   142   181   180     1  3.600000e+02  1.297040e+01  3.000000e+00  3.600000e+02  1.297040e+01  3.000000e+00 
  143   142   181   182     1  1.800000e+02  1.297040e+01  3.000000e+00  1.800000e+02  1.297040e+01  3.000000e+00 
  142   143   144   103     1  1.800000e+02  1.297040e+01  3.000000e+00  1.800000e+02  1.297040e+01  3.000000e+00 
  142   143   144   145     1  3.600000e+02  1.297040e+01  3.000000e+00  3.600000e+02  1.297040e+01  3.000000e+00 
  184   143   144   103     1  3.600000e+02  1.297040e+01  3.000000e+00  3.600000e+02  1.297040e+01  3.000000e+00 
  184   143   144   145     1  1.800000e+02  1.297040e+01  3.000000e+00  1.800000e+02  1.297040e+01  3.000000e+00 
  142   143   184   183     1  1.800000e+02  1.297040e+01  3.000000e+00  1.800000e+02  1.297040e+01  3.000000e+00 
  142   143   184   185     1  3.600000e+02  1.297040e+01  3.000000e+00  3.600000e+02  1.297040e+01  3.000000e+00 
  144   143   184   183     1  3.600000e+02  1.297040e+01  3.000000e+00  3.600000e+02  1.297040e+01  3.000000e+00 
  144   143   184   185     1  1.800000e+02  1.297040e+01  3.000000e+00  1.800000e+02  1.297040e+01  3.000000e+00 
  103   144   145   106     1  1.800000e+02  1.297040e+01  3.000000e+00  1.800000e+02  1.297040e+01  3.000000e+00 
  103   144   145   146     1  3.600000e+02  1.297040e+01  3.000000e+00  3.600000e+02  1.297040e+01  3.000000e+00 
  143   144   145   106     1  3.600000e+02  1.297040e+01  3.000000e+00  3.600000e+02  1.297040e+01  3.000000e+00 
  143   144   145   146     1  1.800000e+02  1.297040e+01  3.000000e+00  1.800000e+02  1.297040e+01  3.000000e+00 
  106   145   146   147     1  1.800000e+02  1.297040e+01  3.000000e+00  1.800000e+02  1.297040e+01  3.000000e+00 
  106   145   146   185     1  3.600000e+02  1.297040e+01  3.000000e+00  3.600000e+02  1.297040e+01  3.000000e+00 
  144   145   146   147     1  3.600000e+02  1.297040e+01  3.000000e+00  3.600000e+02  1.297040e+01  3.000000e+00 
  144   145   146   185     1  1.800000e+02  1.297040e+01  3.000000e+00  1.800000e+02  1.297040e+01  3.000000e+00 
  145   146   147   148     1  1.800000e+02  1.297040e+01  3.000000e+00  1.800000e+02  1.297040e+01  3.000000e+00 
  145   146   147   188     1  3.600000e+02  1.297040e+01  3.000000e+00  3.600000e+02  1.297040e+01  3.000000e+00 
  185   146   147   148     1  3.600000e+02  1.297040e+01  3.000000e+00  3.600000e+02  1.297040e+01  3.000000e+00 
  185   146   147   188     1  1.800000e+02  1.297040e+01  3.000000e+00  1.800000e+02  1.297040e+01  3.000000e+00 
  145   146   185   184     1  1.800000e+02  1.297040e+01  3.000000e+00  1.800000e+02  1.297040e+01  3.000000e+00 
  145   146   185   186     1  3.600000e+02  1.297040e+01  3.000000e+00  3.600000e+02  1.297040e+01  3.000000e+00 
  147   146   185   184     1  3.600000e+02  1.297040e+01  3.000000e+00  3.600000e+02  1.297040e+01  3.000000e+00 
  147   146   185   186     1  1.800000e+02  1.297040e+01  3.000000e+00  1.800000e+02  1.297040e+01  3.000000e+00 
  146   147   148   107     1  1.800000e+02  1.297040e+01  3.000000e+00  1.800000e+02  1.297040e+01  3.000000e+00 
  146   147   148   149     1  3.600000e+02  1.297040e+01  3.000000e+00  3.600000e+02  1.297040e+01  3.000000e+00 
  188   147   148   107     1  3.600000e+02  1.297040e+01  3.000000e+00  3.600000e+02  1.297040e+01  3.000000e+00 
  188   147   148   149     1  1.800000e+02  1.297040e+01  3.000000e+00  1.800000e+02  1.297040e+01  3.000000e+00 
  146   147   188   187     1  1.800000e+02  1.297040e+01  3.000000e+00  1.800000e+02  1.297040e+01  3.000000e+00 
  146   147   188   189     1  3.600000e+02  1.297040e+01  3.000000e+00  3.600000e+02  1.297040e+01  3.000000e+00 
  148   147   188   187     1  3.600000e+02  1.297040e+01  3.000000e+00  3.600000e+02  1.297040e+01  3.000000e+00 
  148   147   188   189     1  1.800000e+02  1.297040e+01  3.000000e+00  1.800000e+02  1.297040e+01  3.000000e+00 
  107   148   149   110     1  1.800000e+02  1.297040e+01  3.000000e+00  1.800000e+02  1.297040e+01  3.000000e+00 
  107   148   149   150     1  3.600000e+02  1.297040e+01  3.000000e+00  3.600000e+02  1.297040e+01  3.000000e+00 
  147   148   149   110     1  3.600000e+02  1.297040e+01  3.000000e+00  3.600000e+02  1.297040e+01  3.000000e+00 
  147   148   149   150     1  1.800000e+02  1.297040e+01  3.000000e+00  1.800000e+02  1.297040e+01  3.000000e+00 
  110   149   150   151     1  1.800000e+02  1.297040e+01  3.000000e+00  1.800000e+02  1.297040e+01  3.000000e+00 
  110   149   150   189     1  3.600000e+02  1.297040e+01  3.000000e+00  3.600000e+02  1.297040e+01  3.000000e+00 
  148   149   150   151     1  3.600000e+02  1.297040e+01  3.000000e+00  3.600000e+02  1.297040e+01  3.000000e+00 
  148   149   150   189     1  1.800000e+02  1.297040e+01  3.000000e+00  1.800000e+02  1.297040e+01  3.000000e+00 
  149   150   151   152     1  1.800000e+02  1.297040e+01  3.000000e+00  1.800000e+02  1.297040e+01  3.000000e+00 
  149   150   151   192     1  3.600000e+02  1.297040e+01  3.000000e+00  3.600000e+02  1.297040e+01  3.000000e+00 
  189   150   151   152     1  3.600000e+02  1.297040e+01  3.000000e+00  3.600000e+02  1.297040e+01  3.000000e+00 
  189   150   151   192     1  1.800000e+02  1.297040e+01  3.000000e+00  1.800000e+02  1.297040e+01  3.000000e+00 
  149   150   189   188     1  1.800000e+02  1.297040e+01  3.000000e+00  1.800000e+02  1.297040e+01  3.000000e+00 
  149   150   189   190     1  3.600000e+02  1.297040e+01  3.000000e+00  3.600000e+02  1.297040e+01  3.000000e+00 
  151   150   189   188     1  3.600000e+02  1.297040e+01  3.000000e+00  3.600000e+02  1.297040e+01  3.000000e+00 
  151   150   189   190     1  1.800000e+02  1.297040e+01  3.000000e+00  1.800000e+02  1.297040e+01  3.000000e+00 
  150   151   152   111     1  1.800000e+02  1.297040e+01  3.000000e+00  1.800000e+02  1.297040e+01  3.000000e+00 
  150   151   152   153     1  3.600000e+02  1.297040e+01  3.000000e+00  3.600000e+02  1.297040e+01  3.000000e+00 
  192   151   152   111     1  3.600000e+02  1.297040e+01  3.000000e+00  3.600000e+02  1.297040e+01  3.000000e+00 
  192   151   152   153     1  1.800000e+02  1.297040e+01  3.000000e+00  1.800000e+02  1.297040e+01  3.000000e+00 
  150   151   192   191     1  1.800000e+02  1.297040e+01  3.000000e+00  1.800000e+02  1.297040e+01  3.000000e+00 
  150   151   192   193     1  3.600000e+02  1.297040e+01  3.000000e+00  3.600000e+02  1.297040e+01  3.000000e+00 
  152   151   192   191     1  3.600000e+02  1.297040e+01  3.000000e+00  3.600000e+02  1.297040e+01  3.000000e+00 
  152   151   192   193     1  1.800000e+02  1.297040e+01  3.000000e+00  1.800000e+02  1.297040e+01  3.000000e+00 
  111   152   153   114     1  1.800000e+02  1.297040e+01  3.000000e+00  1.800000e+02  1.297040e+01  3.000000e+00 
  111   152   153   154     1  3.600000e+02  1.297040e+01  3.000000e+00  3.600000e+02  1.297040e+01  3.000000e+00 
  151   152   153   114     1  3.600000e+02  1.297040e+01  3.000000e+00  3.600000e+02  1.297040e+01  3.000000e+00 
  151   152   153   154     1  1.800000e+02  1.297040e+01  3.000000e+00  1.800000e+02  1.297040e+01  3.000000e+00 
  114   153   154   155     1  1.800000e+02  1.297040e+01  3.000000e+00  1.800000e+02  1.297040e+01  3.000000e+00 
  114   153   154   193     1  3.600000e+02  1.297040e+01  3.000000e+00  3.600000e+02  1.297040e+01  3.000000e+00 
  152   153   154   155     1  3.600000e+02  1.297040e+01  3.000000e+00  3.600000e+02  1.297040e+01  3.000000e+00 
  152   153   154   193     1  1.800000e+02  1.297040e+01  3.000000e+00  1.800000e+02  1.297040e+01  3.000000e+00 
  153   154   155   156     1  1.800000e+02  1.297040e+01  3.000000e+00  1.800000e+02  1.297040e+01  3.000000e+00 
  153   154   155   196     1  3.600000e+02  1.297040e+01  3.000000e+00  3.600000e+02  1.297040e+01  3.000000e+00 
  193   154   155   156     1  3.600000e+02  1.297040e+01  3.000000e+00  3.600000e+02  1.297040e+01  3.000000e+00 
  193   154   155   196     1  1.800000e+02  1.297040e+01  3.000000e+00  1.800000e+02  1.297040e+01  3.000000e+00 
  153   154   193   192     1  1.800000e+02  1.297040e+01  3.000000e+00  1.800000e+02  1.297040e+01  3.000000e+00 
  153   154   193   194     1  3.600000e+02  1.297040e+01  3.000000e+00  3.600000e+02  1.297040e+01  3.000000e+00 
  155   154   193   192     1  3.600000e+02  1.297040e+01  3.000000e+00  3.600000e+02  1.297040e+01  3.000000e+00 
  155   154   193   194     1  1.800000e+02  1.297040e+01  3.000000e+00  1.800000e+02  1.297040e+01  3.000000e+00 
  154   155   156   115     1  1.800000e+02  1.297040e+01  3.000000e+00  1.800000e+02  1.297040e+01  3.000000e+00 
  154   155   156   157     1  3.600000e+02  1.297040e+01  3.000000e+00  3.600000e+02  1.297040e+01  3.000000e+00 
  196   155   156   115     1  3.600000e+02  1.297040e+01  3.000000e+00  3.600000e+02  1.297040e+01  3.000000e+00 
  196   155   156   157     1  1.800000e+02  1.297040e+01  3.000000e+00  1.800000e+02  1.297040e+01  3.000000e+00 
  154   155   196   195     1  1.800000e+02  1.297040e+01  3.000000e+00  1.800000e+02  1.297040e+01  3.000000e+00 
  154   155   196   197     1  3.600000e+02  1.297040e+01  3.000000e+00  3.600000e+02  1.297040e+01  3.000000e+00 
  156   155   196   195     1  3.600000e+02  1.297040e+01  3.000000e+00  3.600000e+02  1.297040e+01  3.000000e+00 
  156   155   196   197     1  1.800000e+02  1.297040e+01  3.000000e+00  1.800000e+02  1.297040e+01  3.000000e+00 
  115   156   157   118     1  1.800000e+02  1.297040e+01  3.000000e+00  1.800000e+02  1.297040e+01  3.000000e+00 
  115   156   157   158     1  3.600000e+02  1.297040e+01  3.000000e+00  3.600000e+02  1.297040e+01  3.000000e+00 
  155   156   157   118     1  3.600000e+02  1.297040e+01  3.000000e+00  3.600000e+02  1.297040e+01  3.000000e+00 
  155   156   157   158     1  1.800000e+02  1.297040e+01  3.000000e+00  1.800000e+02  1.297040e+01  3.000000e+00 
  118   157   158   159     1  1.800000e+02  1.297040e+01  3.000000e+00  1.800000e+02  1.297040e+01  3.000000e+00 
  118   157   158   197     1  3.600000e+02  1.297040e+01  3.000000e+00  3.600000e+02  1.297040e+01  3.000000e+00 
  156   157   158   159     1  3.600000e+02  1.297040e+01  3.000000e+00  3.600000e+02  1.297040e+01  3.000000e+00 
  156   157   158   197     1  1.800000e+02  1.297040e+01  3.000000e+00  1.800000e+02  1.297040e+01  3.000000e+00 
  157   158   159   160     1  1.800000e+02  1.297040e+01  3.000000e+00  1.800000e+02  1.297040e+01  3.000000e+00 
  157   158   159   200     1  3.600000e+02  1.297040e+01  3.000000e+00  3.600000e+02  1.297040e+01  3.000000e+00 
  197   158   159   160     1  3.600000e+02  1.297040e+01  3.000000e+00  3.600000e+02  1.297040e+01  3.000000e+00 
  197   158   159   200     1  1.800000e+02  1.297040e+01  3.000000e+00  1.800000e+02  1.297040e+01  3.000000e+00 
  157   158   197   196     1  1.800000e+02  1.297040e+01  3.000000e+00  1.800000e+02  1.297040e+01  3.000000e+00 
  157   158   197   198     1  3.600000e+02  1.297040e+01  3.000000e+00  3.600000e+02  1.297040e+01  3.000000e+00 
  159   158   197   196     1  3.600000e+02  1.297040e+01  3.000000e+00  3.600000e+02  1.297040e+01  3.000000e+00 
  159   158   197   198     1  1.800000e+02  1.297040e+01  3.000000e+00  1.800000e+02  1.297040e+01  3.000000e+00 
  158   159   160   119     1  1.800000e+02  1.297040e+01  3.000000e+00  1.800000e+02  1.297040e+01  3.000000e+00 
  158   159   160   121     1  3.600000e+02  1.297040e+01  3.000000e+00  3.600000e+02  1.297040e+01  3.000000e+00 
  200   159   160   119     1  3.600000e+02  1.297040e+01  3.000000e+00  3.600000e+02  1.297040e+01  3.000000e+00 
  200   159   160   121     1  1.800000e+02  1.297040e+01  3.000000e+00  1.800000e+02  1.297040e+01  3.000000e+00 
  158   159   200   161     1  3.600000e+02  1.297040e+01  3.000000e+00  3.600000e+02  1.297040e+01  3.000000e+00 
  158   159   200   199     1  1.800000e+02  1.297040e+01  3.000000e+00  1.800000e+02  1.297040e+01  3.000000e+00 
  160   159   200   161     1  1.800000e+02  1.297040e+01  3.000000e+00  1.800000e+02  1.297040e+01  3.000000e+00 
  160   159   200   199     1  3.600000e+02  1.297040e+01  3.000000e+00  3.600000e+02  1.297040e+01  3.000000e+00 
  122   161   162   163     1  1.800000e+02  1.297040e+01  3.000000e+00  1.800000e+02  1.297040e+01  3.000000e+00 
  122   161   162   201     1  3.600000e+02  1.297040e+01  3.000000e+00  3.600000e+02  1.297040e+01  3.000000e+00 
  200   161   162   163     1  3.600000e+02  1.297040e+01  3.000000e+00  3.600000e+02  1.297040e+01  3.000000e+00 
  200   161   162   201     1  1.800000e+02  1.297040e+01  3.000000e+00  1.800000e+02  1.297040e+01  3.000000e+00 
  122   161   200   159     1  1.800000e+02  1.297040e+01  3.000000e+00  1.800000e+02  1.297040e+01  3.000000e+00 
  122   161   200   199     1  3.600000e+02  1.297040e+01  3.000000e+00  3.600000e+02  1.297040e+01  3.000000e+00 
  162   161   200   159     1  3.600000e+02  1.297040e+01  3.000000e+00  3.600000e+02  1.297040e+01  3.000000e+00 
  162   161   200   199     1  1.800000e+02  1.297040e+01  3.000000e+00  1.800000e+02  1.297040e+01  3.000000e+00 
  161   162   163   164     1  1.800000e+02  1.297040e+01  3.000000e+00  1.800000e+02  1.297040e+01  3.000000e+00 
  161   162   163   204     1  3.600000e+02  1.297040e+01  3.000000e+00  3.600000e+02  1.297040e+01  3.000000e+00 
  201   162   163   164     1  3.600000e+02  1.297040e+01  3.000000e+00  3.600000e+02  1.297040e+01  3.000000e+00 
  201   162   163   204     1  1.800000e+02  1.297040e+01  3.000000e+00  1.800000e+02  1.297040e+01  3.000000e+00 
  161   162   201   202     1  3.600000e+02  1.297040e+01  3.000000e+00  3.600000e+02  1.297040e+01  3.000000e+00 
  161   162   201   240     1  1.800000e+02  1.297040e+01  3.000000e+00  1.800000e+02  1.297040e+01  3.000000e+00 
  163   162   201   202     1  1.800000e+02  1.297040e+01  3.000000e+00  1.800000e+02  1.297040e+01  3.000000e+00 
  163   162   201   240     1  3.600000e+02  1.297040e+01  3.000000e+00  3.600000e+02  1.297040e+01  3.000000e+00 
  162   163   164   123     1  1.800000e+02  1.297040e+01  3.000000e+00  1.800000e+02  1.297040e+01  3.000000e+00 
  162   163   164   165     1  3.600000e+02  1.297040e+01  3.000000e+00  3.600000e+02  1.297040e+01  3.000000e+00 
  204   163   164   123     1  3.600000e+02  1.297040e+01  3.000000e+00  3.600000e+02  1.297040e+01  3.000000e+00 
  204   163   164   165     1  1.800000e+02  1.297040e+01  3.000000e+00  1.800000e+02  1.297040e+01  3.000000e+00 
  162   163   204   203     1  1.800000e+02  1.297040e+01  3.000000e+00  1.800000e+02  1.297040e+01  3.000000e+00 
  162   163   204   205     1  3.600000e+02  1.297040e+01  3.000000e+00  3.600000e+02  1.297040e+01  3.000000e+00 
  164   163   204   203     1  3.600000e+02  1.297040e+01  3.000000e+00  3.600000e+02  1.297040e+01  3.000000e+00 
  164   163   204   205     1  1.800000e+02  1.297040e+01  3.000000e+00  1.800000e+02  1.297040e+01  3.000000e+00 
  123   164   165   126     1  1.800000e+02  1.297040e+01  3.000000e+00  1.800000e+02  1.297040e+01  3.000000e+00 
  123   164   165   166     1  3.600000e+02  1.297040e+01  3.000000e+00  3.600000e+02  1.297040e+01  3.000000e+00 
  163   164   165   126     1  3.600000e+02  1.297040e+01  3.000000e+00  3.600000e+02  1.297040e+01  3.000000e+00 
  163   164   165   166     1  1.800000e+02  1.297040e+01  3.000000e+00  1.800000e+02  1.297040e+01  3.000000e+00 
  126   165   166   167     1  1.800000e+02  1.297040e+01  3.000000e+00  1.800000e+02  1.297040e+01  3.000000e+00 
  126   165   166   205     1  3.600000e+02  1.297040e+01  3.000000e+00  3.600000e+02  1.297040e+01  3.000000e+00 
  164   165   166   167     1  3.600000e+02  1.297040e+01  3.000000e+00  3.600000e+02  1.297040e+01  3.000000e+00 
  164   165   166   205     1  1.800000e+02  1.297040e+01  3.000000e+00  1.800000e+02  1.297040e+01  3.000000e+00 
  165   166   167   168     1  1.800000e+02  1.297040e+01  3.000000e+00  1.800000e+02  1.297040e+01  3.000000e+00 
  165   166   167   208     1  3.600000e+02  1.297040e+01  3.000000e+00  3.600000e+02  1.297040e+01  3.000000e+00 
  205   166   167   168     1  3.600000e+02  1.297040e+01  3.000000e+00  3.600000e+02  1.297040e+01  3.000000e+00 
  205   166   167   208     1  1.800000e+02  1.297040e+01  3.000000e+00  1.800000e+02  1.297040e+01  3.000000e+00 
  165   166   205   204     1  1.800000e+02  1.297040e+01  3.000000e+00  1.800000e+02  1.297040e+01  3.000000e+00 
  165   166   205   206     1  3.600000e+02  1.297040e+01  3.000000e+00  3.600000e+02  1.297040e+01  3.000000e+00 
  167   166   205   204     1  3.600000e+02  1.297040e+01  3.000000e+00  3.600000e+02  1.297040e+01  3.000000e+00 
  167   166   205   206     1  1.800000e+02  1.297040e+01  3.000000e+00  1.800000e+02  1.297040e+01  3.000000e+00 
  166   167   168   127     1  1.800000e+02  1.297040e+01  3.000000e+00  1.800000e+02  1.297040e+01  3.000000e+00 
  166   167   168   169     1  3.600000e+02  1.297040e+01  3.000000e+00  3.600000e+02  1.297040e+01  3.000000e+00 
  208   167   168   127     1  3.600000e+02  1.297040e+01  3.000000e+00  3.600000e+02  1.297040e+01  3.000000e+00 
  208   167   168   169     1  1.800000e+02  1.297040e+01  3.000000e+00  1.800000e+02  1.297040e+01  3.000000e+00 
  166   167   208   207     1  1.800000e+02  1.297040e+01  3.000000e+00  1.800000e+02  1.297040e+01  3.000000e+00 
  166   167   208   209     1  3.600000e+02  1.297040e+01  3.000000e+00  3.600000e+02  1.297040e+01  3.000000e+00 
  168   167   208   207     1  3.600000e+02  1.297040e+01  3.000000e+00  3.600000e+02  1.297040e+01  3.000000e+00 
  168   167   208   209     1  1.800000e+02  1.297040e+01  3.000000e+00  1.800000e+02  1.297040e+01  3.000000e+00 
  127   168   169   130     1  1.800000e+02  1.297040e+01  3.000000e+00  1.800000e+02  1.297040e+01  3.000000e+00 
  127   168   169   170     1  3.600000e+02  1.297040e+01  3.000000e+00  3.600000e+02  1.297040e+01  3.000000e+00 
  167   168   169   130     1  3.600000e+02  1.297040e+01  3.000000e+00  3.600000e+02  1.297040e+01  3.000000e+00 
  167   168   169   170     1  1.800000e+02  1.297040e+01  3.000000e+00  1.800000e+02  1.297040e+01  3.000000e+00 
  130   169   170   171     1  1.800000e+02  1.297040e+01  3.000000e+00  1.800000e+02  1.297040e+01  3.000000e+00 
  130   169   170   209     1  3.600000e+02  1.297040e+01  3.000000e+00  3.600000e+02  1.297040e+01  3.000000e+00 
  168   169   170   171     1  3.600000e+02  1.297040e+01  3.000000e+00  3.600000e+02  1.297040e+01  3.000000e+00 
  168   169   170   209     1  1.800000e+02  1.297040e+01  3.000000e+00  1.800000e+02  1.297040e+01  3.000000e+00 
  169   170   171   172     1  1.800000e+02  1.297040e+01  3.000000e+00  1.800000e+02  1.297040e+01  3.000000e+00 
  169   170   171   212     1  3.600000e+02  1.297040e+01  3.000000e+00  3.600000e+02  1.297040e+01  3.000000e+00 
  209   170   171   172     1  3.600000e+02  1.297040e+01  3.000000e+00  3.600000e+02  1.297040e+01  3.000000e+00 
  209   170   171   212     1  1.800000e+02  1.297040e+01  3.000000e+00  1.800000e+02  1.297040e+01  3.000000e+00 
  169   170   209   208     1  1.800000e+02  1.297040e+01  3.000000e+00  1.800000e+02  1.297040e+01  3.000000e+00 
  169   170   209   210     1  3.600000e+02  1.297040e+01  3.000000e+00  3.600000e+02  1.297040e+01  3.000000e+00 
  171   170   209   208     1  3.600000e+02  1.297040e+01  3.000000e+00  3.600000e+02  1.297040e+01  3.000000e+00 
  171   170   209   210     1  1.800000e+02  1.297040e+01  3.000000e+00  1.800000e+02  1.297040e+01  3.000000e+00 
  170   171   172   131     1  1.800000e+02  1.297040e+01  3.000000e+00  1.800000e+02  1.297040e+01  3.000000e+00 
  170   171   172   173     1  3.600000e+02  1.297040e+01  3.000000e+00  3.600000e+02  1.297040e+01  3.000000e+00 
  212   171   172   131     1  3.600000e+02  1.297040e+01  3.000000e+00  3.600000e+02  1.297040e+01  3.000000e+00 
  212   171   172   173     1  1.800000e+02  1.297040e+01  3.000000e+00  1.800000e+02  1.297040e+01  3.000000e+00 
  170   171   212   211     1  1.800000e+02  1.297040e+01  3.000000e+00  1.800000e+02  1.297040e+01  3.000000e+00 
  170   171   212   213     1  3.600000e+02  1.297040e+01  3.000000e+00  3.600000e+02  1.297040e+01  3.000000e+00 
  172   171   212   211     1  3.600000e+02  1.297040e+01  3.000000e+00  3.600000e+02  1.297040e+01  3.000000e+00 
  172   171   212   213     1  1.800000e+02  1.297040e+01  3.000000e+00  1.800000e+02  1.297040e+01  3.000000e+00 
  131   172   173   134     1  1.800000e+02  1.297040e+01  3.000000e+00  1.800000e+02  1.297040e+01  3.000000e+00 
  131   172   173   174     1  3.600000e+02  1.297040e+01  3.000000e+00  3.600000e+02  1.297040e+01  3.000000e+00 
  171   172   173   134     1  3.600000e+02  1.297040e+01  3.000000e+00  3.600000e+02  1.297040e+01  3.000000e+00 
  171   172   173   174     1  1.800000e+02  1.297040e+01  3.000000e+00  1.800000e+02  1.297040e+01  3.000000e+00 
  134   173   174   175     1  1.800000e+02  1.297040e+01  3.000000e+00  1.800000e+02  1.297040e+01  3.000000e+00 
  134   173   174   213     1  3.600000e+02  1.297040e+01  3.000000e+00  3.600000e+02  1.297040e+01  3.000000e+00 
  172   173   174   175     1  3.600000e+02  1.297040e+01  3.000000e+00  3.600000e+02  1.297040e+01  3.000000e+00 
  172   173   174   213     1  1.800000e+02  1.297040e+01  3.000000e+00  1.800000e+02  1.297040e+01  3.000000e+00 
  173   174   175   176     1  1.800000e+02  1.297040e+01  3.000000e+00  1.800000e+02  1.297040e+01  3.000000e+00 
  173   174   175   216     1  3.600000e+02  1.297040e+01  3.000000e+00  3.600000e+02  1.297040e+01  3.000000e+00 
  213   174   175   176     1  3.600000e+02  1.297040e+01  3.000000e+00  3.600000e+02  1.297040e+01  3.000000e+00 
  213   174   175   216     1  1.800000e+02  1.297040e+01  3.000000e+00  1.800000e+02  1.297040e+01  3.000000e+00 
  173   174   213   212     1  1.800000e+02  1.297040e+01  3.000000e+00  1.800000e+02  1.297040e+01  3.000000e+00 
  173   174   213   214     1  3.600000e+02  1.297040e+01  3.000000e+00  3.600000e+02  1.297040e+01  3.000000e+00 
  175   174   213   212     1  3.600000e+02  1.297040e+01  3.000000e+00  3.600000e+02  1.297040e+01  3.000000e+00 
  175   174   213   214     1  1.800000e+02  1.297040e+01  3.000000e+00  1.800000e+02  1.297040e+01  3.000000e+00 
  174   175   176   135     1  1.800000e+02  1.297040e+01  3.000000e+00  1.800000e+02  1.297040e+01  3.000000e+00 
  174   175   176   177     1  3.600000e+02  1.297040e+01  3.000000e+00  3.600000e+02  1.297040e+01  3.000000e+00 
  216   175   176   135     1  3.600000e+02  1.297040e+01  3.000000e+00  3.600000e+02  1.297040e+01  3.000000e+00 
  216   175   176   177     1  1.800000e+02  1.297040e+01  3.000000e+00  1.800000e+02  1.297040e+01  3.000000e+00 
  174   175   216   215     1  1.800000e+02  1.297040e+01  3.000000e+00  1.800000e+02  1.297040e+01  3.000000e+00 
  174   175   216   217     1  3.600000e+02  1.297040e+01  3.000000e+00  3.600000e+02  1.297040e+01  3.000000e+00 
  176   175   216   215     1  3.600000e+02  1.297040e+01  3.000000e+00  3.600000e+02  1.297040e+01  3.000000e+00 
  176   175   216   217     1  1.800000e+02  1.297040e+01  3.000000e+00  1.800000e+02  1.297040e+01  3.000000e+00 
  135   176   177   138     1  1.800000e+02  1.297040e+01  3.000000e+00  1.800000e+02  1.297040e+01  3.000000e+00 
  135   176   177   178     1  3.600000e+02  1.297040e+01  3.000000e+00  3.600000e+02  1.297040e+01  3.000000e+00 
  175   176   177   138     1  3.600000e+02  1.297040e+01  3.000000e+00  3.600000e+02  1.297040e+01  3.000000e+00 
  175   176   177   178     1  1.800000e+02  1.297040e+01  3.000000e+00  1.800000e+02  1.297040e+01  3.000000e+00 
  138   177   178   179     1  1.800000e+02  1.297040e+01  3.000000e+00  1.800000e+02  1.297040e+01  3.000000e+00 
  138   177   178   217     1  3.600000e+02  1.297040e+01  3.000000e+00  3.600000e+02  1.297040e+01  3.000000e+00 
  176   177   178   179     1  3.600000e+02  1.297040e+01  3.000000e+00  3.600000e+02  1.297040e+01  3.000000e+00 
  176   177   178   217     1  1.800000e+02  1.297040e+01  3.000000e+00  1.800000e+02  1.297040e+01  3.000000e+00 
  177   178   179   180     1  1.800000e+02  1.297040e+01  3.000000e+00  1.800000e+02  1.297040e+01  3.000000e+00 
  177   178   179   220     1  3.600000e+02  1.297040e+01  3.000000e+00  3.600000e+02  1.297040e+01  3.000000e+00 
  217   178   179   180     1  3.600000e+02  1.297040e+01  3.000000e+00  3.600000e+02  1.297040e+01  3.000000e+00 
  217   178   179   220     1  1.800000e+02  1.297040e+01  3.000000e+00  1.800000e+02  1.297040e+01  3.000000e+00 
  177   178   217   216     1  1.800000e+02  1.297040e+01  3.000000e+00  1.800000e+02  1.297040e+01  3.000000e+00 
  177   178   217   218     1  3.600000e+02  1.297040e+01  3.000000e+00  3.600000e+02  1.297040e+01  3.000000e+00 
  179   178   217   216     1  3.600000e+02  1.297040e+01  3.000000e+00  3.600000e+02  1.297040e+01  3.000000e+00 
  179   178   217   218     1  1.800000e+02  1.297040e+01  3.000000e+00  1.800000e+02  1.297040e+01  3.000000e+00 
  178   179   180   139     1  1.800000e+02  1.297040e+01  3.000000e+00  1.800000e+02  1.297040e+01  3.000000e+00 
  178   179   180   181     1  3.600000e+02  1.297040e+01  3.000000e+00  3.600000e+02  1.297040e+01  3.000000e+00 
  220   179   180   139     1  3.600000e+02  1.297040e+01  3.000000e+00  3.600000e+02  1.297040e+01  3.000000e+00 
  220   179   180   181     1  1.800000e+02  1.297040e+01  3.000000e+00  1.800000e+02  1.297040e+01  3.000000e+00 
  178   179   220   219     1  1.800000e+02  1.297040e+01  3.000000e+00  1.800000e+02  1.297040e+01  3.000000e+00 
  178   179   220   221     1  3.600000e+02  1.297040e+01  3.000000e+00  3.600000e+02  1.297040e+01  3.000000e+00 
  180   179   220   219     1  3.600000e+02  1.297040e+01  3.000000e+00  3.600000e+02  1.297040e+01  3.000000e+00 
  180   179   220   221     1  1.800000e+02  1.297040e+01  3.000000e+00  1.800000e+02  1.297040e+01  3.000000e+00 
  139   180   181   142     1  1.800000e+02  1.297040e+01  3.000000e+00  1.800000e+02  1.297040e+01  3.000000e+00 
  139   180   181   182     1  3.600000e+02  1.297040e+01  3.000000e+00  3.600000e+02  1.297040e+01  3.000000e+00 
  179   180   181   142     1  3.600000e+02  1.297040e+01  3.000000e+00  3.600000e+02  1.297040e+01  3.000000e+00 
  179   180   181   182     1  1.800000e+02  1.297040e+01  3.000000e+00  1.800000e+02  1.297040e+01  3.000000e+00 
  142   181   182   183     1  1.800000e+02  1.297040e+01  3.000000e+00  1.800000e+02  1.297040e+01  3.000000e+00 
  142   181   182   221     1  3.600000e+02  1.297040e+01  3.000000e+00  3.600000e+02  1.297040e+01  3.000000e+00 
  180   181   182   183     1  3.600000e+02  1.297040e+01  3.000000e+00  3.600000e+02  1.297040e+01  3.000000e+00 
  180   181   182   221     1  1.800000e+02  1.297040e+01  3.000000e+00  1.800000e+02  1.297040e+01  3.000000e+00 
  181   182   183   184     1  1.800000e+02  1.297040e+01  3.000000e+00  1.800000e+02  1.297040e+01  3.000000e+00 
  181   182   183   224     1  3.600000e+02  1.297040e+01  3.000000e+00  3.600000e+02  1.297040e+01  3.000000e+00 
  221   182   183   184     1  3.600000e+02  1.297040e+01  3.000000e+00  3.600000e+02  1.297040e+01  3.000000e+00 
  221   182   183   224     1  1.800000e+02  1.297040e+01  3.000000e+00  1.800000e+02  1.297040e+01  3.000000e+00 
  181   182   221   220     1  1.800000e+02  1.297040e+01  3.000000e+00  1.800000e+02  1.297040e+01  3.000000e+00 
  181   182   221   222     1  3.600000e+02  1.297040e+01  3.000000e+00  3.600000e+02  1.297040e+01  3.000000e+00 
  183   182   221   220     1  3.600000e+02  1.297040e+01  3.000000e+00  3.600000e+02  1.297040e+01  3.000000e+00 
  183   182   221   222     1  1.800000e+02  1.297040e+01  3.000000e+00  1.800000e+02  1.297040e+01  3.000000e+00 
  182   183   184   143     1  1.800000e+02  1.297040e+01  3.000000e+00  1.800000e+02  1.297040e+01  3.000000e+00 
  182   183   184   185     1  3.600000e+02  1.297040e+01  3.000000e+00  3.600000e+02  1.297040e+01  3.000000e+00 
  224   183   184   143     1  3.600000e+02  1.297040e+01  3.000000e+00  3.600000e+02  1.297040e+01  3.000000e+00 
  224   183   184   185     1  1.800000e+02  1.297040e+01  3.000000e+00  1.800000e+02  1.297040e+01  3.000000e+00 
  182   183   224   223     1  1.800000e+02  1.297040e+01  3.000000e+00  1.800000e+02  1.297040e+01  3.000000e+00 
  182   183   224   225     1  3.600000e+02  1.297040e+01  3.000000e+00  3.600000e+02  1.297040e+01  3.000000e+00 
  184   183   224   223     1  3.600000e+02  1.297040e+01  3.000000e+00  3.600000e+02  1.297040e+01  3.000000e+00 
  184   183   224   225     1  1.800000e+02  1.297040e+01  3.000000e+00  1.800000e+02  1.297040e+01  3.000000e+00 
  143   184   185   146     1  1.800000e+02  1.297040e+01  3.000000e+00  1.800000e+02  1.297040e+01  3.000000e+00 
  143   184   185   186     1  3.600000e+02  1.297040e+01  3.000000e+00  3.600000e+02  1.297040e+01  3.000000e+00 
  183   184   185   146     1  3.600000e+02  1.297040e+01  3.000000e+00  3.600000e+02  1.297040e+01  3.000000e+00 
  183   184   185   186     1  1.800000e+02  1.297040e+01  3.000000e+00  1.800000e+02  1.297040e+01  3.000000e+00 
  146   185   186   187     1  1.800000e+02  1.297040e+01  3.000000e+00  1.800000e+02  1.297040e+01  3.000000e+00 
  146   185   186   225     1  3.600000e+02  1.297040e+01  3.000000e+00  3.600000e+02  1.297040e+01  3.000000e+00 
  184   185   186   187     1  3.600000e+02  1.297040e+01  3.000000e+00  3.600000e+02  1.297040e+01  3.000000e+00 
  184   185   186   225     1  1.800000e+02  1.297040e+01  3.000000e+00  1.800000e+02  1.297040e+01  3.000000e+00 
  185   186   187   188     1  1.800000e+02  1.297040e+01  3.000000e+00  1.800000e+02  1.297040e+01  3.000000e+00 
  185   186   187   228     1  3.600000e+02  1.297040e+01  3.000000e+00  3.600000e+02  1.297040e+01  3.000000e+00 
  225   186   187   188     1  3.600000e+02  1.297040e+01  3.000000e+00  3.600000e+02  1.297040e+01  3.000000e+00 
  225   186   187   228     1  1.800000e+02  1.297040e+01  3.000000e+00  1.800000e+02  1.297040e+01  3.000000e+00 
  185   186   225   224     1  1.800000e+02  1.297040e+01  3.000000e+00  1.800000e+02  1.297040e+01  3.000000e+00 
  185   186   225   226     1  3.600000e+02  1.297040e+01  3.000000e+00  3.600000e+02  1.297040e+01  3.000000e+00 
  187   186   225   224     1  3.600000e+02  1.297040e+01  3.000000e+00  3.600000e+02  1.297040e+01  3.000000e+00 
  187   186   225   226     1  1.800000e+02  1.297040e+01  3.000000e+00  1.800000e+02  1.297040e+01  3.000000e+00 
  186   187   188   147     1  1.800000e+02  1.297040e+01  3.000000e+00  1.800000e+02  1.297040e+01  3.000000e+00 
  186   187   188   189     1  3.600000e+02  1.297040e+01  3.000000e+00  3.600000e+02  1.297040e+01  3.000000e+00 
  228   187   188   147     1  3.600000e+02  1.297040e+01  3.000000e+00  3.600000e+02  1.297040e+01  3.000000e+00 
  228   187   188   189     1  1.800000e+02  1.297040e+01  3.000000e+00  1.800000e+02  1.297040e+01  3.000000e+00 
  186   187   228   227     1  1.800000e+02  1.297040e+01  3.000000e+00  1.800000e+02  1.297040e+01  3.000000e+00 
  186   187   228   229     1  3.600000e+02  1.297040e+01  3.000000e+00  3.600000e+02  1.297040e+01  3.000000e+00 
  188   187   228   227     1  3.600000e+02  1.297040e+01  3.000000e+00  3.600000e+02  1.297040e+01  3.000000e+00 
  188   187   228   229     1  1.800000e+02  1.297040e+01  3.000000e+00  1.800000e+02  1.297040e+01  3.000000e+00 
  147   188   189   150     1  1.800000e+02  1.297040e+01  3.000000e+00  1.800000e+02  1.297040e+01  3.000000e+00 
  147   188   189   190     1  3.600000e+02  1.297040e+01  3.000000e+00  3.600000e+02  1.297040e+01  3.000000e+00 
  187   188   189   150     1  3.600000e+02  1.297040e+01  3.000000e+00  3.600000e+02  1.297040e+01  3.000000e+00 
  187   188   189   190     1  1.800000e+02  1.297040e+01  3.000000e+00  1.800000e+02  1.297040e+01  3.000000e+00 
  150   189   190   191     1  1.800000e+02  1.297040e+01  3.000000e+00  1.800000e+02  1.297040e+01  3.000000e+00 
  150   189   190   229     1  3.600000e+02  1.297040e+01  3.000000e+00  3.600000e+02  1.297040e+01  3.000000e+00 
  188   189   190   191     1  3.600000e+02  1.297040e+01  3.000000e+00  3.600000e+02  1.297040e+01  3.000000e+00 
  188   189   190   229     1  1.800000e+02  1.297040e+01  3.000000e+00  1.800000e+02  1.297040e+01  3.000000e+00 
  189   190   191   192     1  1.800000e+02  1.297040e+01  3.000000e+00  1.800000e+02  1.297040e+01  3.000000e+00 
  189   190   191   232     1  3.600000e+02  1.297040e+01  3.000000e+00  3.600000e+02  1.297040e+01  3.000000e+00 
  229   190   191   192     1  3.600000e+02  1.297040e+01  3.000000e+00  3.600000e+02  1.297040e+01  3.000000e+00 
  229   190   191   232     1  1.800000e+02  1.297040e+01  3.000000e+00  1.800000e+02  1.297040e+01  3.000000e+00 
  189   190   229   228     1  1.800000e+02  1.297040e+01  3.000000e+00  1.800000e+02  1.297040e+01  3.000000e+00 
  189   190   229   230     1  3.600000e+02  1.297040e+01  3.000000e+00  3.600000e+02  1.297040e+01  3.000000e+00 
  191   190   229   228     1  3.600000e+02  1.297040e+01  3.000000e+00  3.600000e+02  1.297040e+01  3.000000e+00 
  191   190   229   230     1  1.800000e+02  1.297040e+01  3.000000e+00  1.800000e+02  1.297040e+01  3.000000e+00 
  190   191   192   151     1  1.800000e+02  1.297040e+01  3.000000e+00  1.800000e+02  1.297040e+01  3.000000e+00 
  190   191   192   193     1  3.600000e+02  1.297040e+01  3.000000e+00  3.600000e+02  1.297040e+01  3.000000e+00 
  232   191   192   151     1  3.600000e+02  1.297040e+01  3.000000e+00  3.600000e+02  1.297040e+01  3.000000e+00 
  232   191   192   193     1  1.800000e+02  1.297040e+01  3.000000e+00  1.800000e+02  1.297040e+01  3.000000e+00 
  190   191   232   231     1  1.800000e+02  1.297040e+01  3.000000e+00  1.800000e+02  1.297040e+01  3.000000e+00 
  190   191   232   233     1  3.600000e+02  1.297040e+01  3.000000e+00  3.600000e+02  1.297040e+01  3.000000e+00 
  192   191   232   231     1  3.600000e+02  1.297040e+01  3.000000e+00  3.600000e+02  1.297040e+01  3.000000e+00 
  192   191   232   233     1  1.800000e+02  1.297040e+01  3.000000e+00  1.800000e+02  1.297040e+01  3.000000e+00 
  151   192   193   154     1  1.800000e+02  1.297040e+01  3.000000e+00  1.800000e+02  1.297040e+01  3.000000e+00 
  151   192   193   194     1  3.600000e+02  1.297040e+01  3.000000e+00  3.600000e+02  1.297040e+01  3.000000e+00 
  191   192   193   154     1  3.600000e+02  1.297040e+01  3.000000e+00  3.600000e+02  1.297040e+01  3.000000e+00 
  191   192   193   194     1  1.800000e+02  1.297040e+01  3.000000e+00  1.800000e+02  1.297040e+01  3.000000e+00 
  154   193   194   195     1  1.800000e+02  1.297040e+01  3.000000e+00  1.800000e+02  1.297040e+01  3.000000e+00 
  154   193   194   233     1  3.600000e+02  1.297040e+01  3.000000e+00  3.600000e+02  1.297040e+01  3.000000e+00 
  192   193   194   195     1  3.600000e+02  1.297040e+01  3.000000e+00  3.600000e+02  1.297040e+01  3.000000e+00 
  192   193   194   233     1  1.800000e+02  1.297040e+01  3.000000e+00  1.800000e+02  1.297040e+01  3.000000e+00 
  193   194   195   196     1  1.800000e+02  1.297040e+01  3.000000e+00  1.800000e+02  1.297040e+01  3.000000e+00 
  193   194   195   236     1  3.600000e+02  1.297040e+01  3.000000e+00  3.600000e+02  1.297040e+01  3.000000e+00 
  233   194   195   196     1  3.600000e+02  1.297040e+01  3.000000e+00  3.600000e+02  1.297040e+01  3.000000e+00 
  233   194   195   236     1  1.800000e+02  1.297040e+01  3.000000e+00  1.800000e+02  1.297040e+01  3.000000e+00 
  193   194   233   232     1  1.800000e+02  1.297040e+01  3.000000e+00  1.800000e+02  1.297040e+01  3.000000e+00 
  193   194   233   234     1  3.600000e+02  1.297040e+01  3.000000e+00  3.600000e+02  1.297040e+01  3.000000e+00 
  195   194   233   232     1  3.600000e+02  1.297040e+01  3.000000e+00  3.600000e+02  1.297040e+01  3.000000e+00 
  195   194   233   234     1  1.800000e+02  1.297040e+01  3.000000e+00  1.800000e+02  1.297040e+01  3.000000e+00 
  194   195   196   155     1  1.800000e+02  1.297040e+01  3.000000e+00  1.800000e+02  1.297040e+01  3.000000e+00 
  194   195   196   197     1  3.600000e+02  1.297040e+01  3.000000e+00  3.600000e+02  1.297040e+01  3.000000e+00 
  236   195   196   155     1  3.600000e+02  1.297040e+01  3.000000e+00  3.600000e+02  1.297040e+01  3.000000e+00 
  236   195   196   197     1  1.800000e+02  1.297040e+01  3.000000e+00  1.800000e+02  1.297040e+01  3.000000e+00 
  194   195   236   235     1  1.800000e+02  1.297040e+01  3.000000e+00  1.800000e+02  1.297040e+01  3.000000e+00 
  194   195   236   237     1  3.600000e+02  1.297040e+01  3.000000e+00  3.600000e+02  1.297040e+01  3.000000e+00 
  196   195   236   235     1  3.600000e+02  1.297040e+01  3.000000e+00  3.600000e+02  1.297040e+01  3.000000e+00 
  196   195   236   237     1  1.800000e+02  1.297040e+01  3.000000e+00  1.800000e+02  1.297040e+01  3.000000e+00 
  155   196   197   158     1  1.800000e+02  1.297040e+01  3.000000e+00  1.800000e+02  1.297040e+01  3.000000e+00 
  155   196   197   198     1  3.600000e+02  1.297040e+01  3.000000e+00  3.600000e+02  1.297040e+01  3.000000e+00 
  195   196   197   158     1  3.600000e+02  1.297040e+01  3.000000e+00  3.600000e+02  1.297040e+01  3.000000e+00 
  195   196   197   198     1  1.800000e+02  1.297040e+01  3.000000e+00  1.800000e+02  1.297040e+01  3.000000e+00 
  158   197   198   199     1  1.800000e+02  1.297040e+01  3.000000e+00  1.800000e+02  1.297040e+01  3.000000e+00 
  158   197   198   237     1  3.600000e+02  1.297040e+01  3.000000e+00  3.600000e+02  1.297040e+01  3.000000e+00 
  196   197   198   199     1  3.600000e+02  1.297040e+01  3.000000e+00  3.600000e+02  1.297040e+01  3.000000e+00 
  196   197   198   237     1  1.800000e+02  1.297040e+01  3.000000e+00  1.800000e+02  1.297040e+01  3.000000e+00 
  197   198   199   200     1  1.800000e+02  1.297040e+01  3.000000e+00  1.800000e+02  1.297040e+01  3.000000e+00 
  197   198   199   240     1  3.600000e+02  1.297040e+01  3.000000e+00  3.600000e+02  1.297040e+01  3.000000e+00 
  237   198   199   200     1  3.600000e+02  1.297040e+01  3.000000e+00  3.600000e+02  1.297040e+01  3.000000e+00 
  237   198   199   240     1  1.800000e+02  1.297040e+01  3.000000e+00  1.800000e+02  1.297040e+01  3.000000e+00 
  197   198   237   236     1  1.800000e+02  1.297040e+01  3.000000e+00  1.800000e+02  1.297040e+01  3.000000e+00 
  197   198   237   238     1  3.600000e+02  1.297040e+01  3.000000e+00  3.600000e+02  1.297040e+01  3.000000e+00 
  199   198   237   236     1  3.600000e+02  1.297040e+01  3.000000e+00  3.600000e+02  1.297040e+01  3.000000e+00 
  199   198   237   238     1  1.800000e+02  1.297040e+01  3.000000e+00  1.800000e+02  1.297040e+01  3.000000e+00 
  198   199   200   159     1  1.800000e+02  1.297040e+01  3.000000e+00  1.800000e+02  1.297040e+01  3.000000e+00 
  198   199   200   161     1  3.600000e+02  1.297040e+01  3.000000e+00  3.600000e+02  1.297040e+01  3.000000e+00 
  240   199   200   159     1  3.600000e+02  1.297040e+01  3.000000e+00  3.600000e+02  1.297040e+01  3.000000e+00 
  240   199   200   161     1  1.800000e+02  1.297040e+01  3.000000e+00  1.800000e+02  1.297040e+01  3.000000e+00 
  198   199   240   201     1  3.600000e+02  1.297040e+01  3.000000e+00  3.600000e+02  1.297040e+01  3.000000e+00 
  198   199   240   239     1  1.800000e+02  1.297040e+01  3.000000e+00  1.800000e+02  1.297040e+01  3.000000e+00 
  200   199   240   201     1  1.800000e+02  1.297040e+01  3.000000e+00  1.800000e+02  1.297040e+01  3.000000e+00 
  200   199   240   239     1  3.600000e+02  1.297040e+01  3.000000e+00  3.600000e+02  1.297040e+01  3.000000e+00 
  162   201   202   203     1  1.800000e+02  1.297040e+01  3.000000e+00  1.800000e+02  1.297040e+01  3.000000e+00 
  162   201   202   241     1  3.600000e+02  1.297040e+01  3.000000e+00  3.600000e+02  1.297040e+01  3.000000e+00 
  240   201   202   203     1  3.600000e+02  1.297040e+01  3.000000e+00  3.600000e+02  1.297040e+01  3.000000e+00 
  240   201   202   241     1  1.800000e+02  1.297040e+01  3.000000e+00  1.800000e+02  1.297040e+01  3.000000e+00 
  162   201   240   199     1  1.800000e+02  1.297040e+01  3.000000e+00  1.800000e+02  1.297040e+01  3.000000e+00 
  162   201   240   239     1  3.600000e+02  1.297040e+01  3.000000e+00  3.600000e+02  1.297040e+01  3.000000e+00 
  202   201   240   199     1  3.600000e+02  1.297040e+01  3.000000e+00  3.600000e+02  1.297040e+01  3.000000e+00 
  202   201   240   239     1  1.800000e+02  1.297040e+01  3.000000e+00  1.800000e+02  1.297040e+01  3.000000e+00 
  201   202   203   204     1  1.800000e+02  1.297040e+01  3.000000e+00  1.800000e+02  1.297040e+01  3.000000e+00 
  201   202   203   244     1  3.600000e+02  1.297040e+01  3.000000e+00  3.600000e+02  1.297040e+01  3.000000e+00 
  241   202   203   204     1  3.600000e+02  1.297040e+01  3.000000e+00  3.600000e+02  1.297040e+01  3.000000e+00 
  241   202   203   244     1  1.800000e+02  1.297040e+01  3.000000e+00  1.800000e+02  1.297040e+01  3.000000e+00 
  201   202   241   242     1  3.600000e+02  1.297040e+01  3.000000e+00  3.600000e+02  1.297040e+01  3.000000e+00 
  201   202   241   280     1  1.800000e+02  1.297040e+01  3.000000e+00  1.800000e+02  1.297040e+01  3.000000e+00 
  203   202   241   242     1  1.800000e+02  1.297040e+01  3.000000e+00  1.800000e+02  1.297040e+01  3.000000e+00 
  203   202   241   280     1  3.600000e+02  1.297040e+01  3.000000e+00  3.600000e+02  1.297040e+01  3.000000e+00 
  202   203   204   163     1  1.800000e+02  1.297040e+01  3.000000e+00  1.800000e+02  1.297040e+01  3.000000e+00 
  202   203   204   205     1  3.600000e+02  1.297040e+01  3.000000e+00  3.600000e+02  1.297040e+01  3.000000e+00 
  244   203   204   163     1  3.600000e+02  1.297040e+01  3.000000e+00  3.600000e+02  1.297040e+01  3.000000e+00 
  244   203   204   205     1  1.800000e+02  1.297040e+01  3.000000e+00  1.800000e+02  1.297040e+01  3.000000e+00 
  202   203   244   243     1  1.800000e+02  1.297040e+01  3.000000e+00  1.800000e+02  1.297040e+01  3.000000e+00 
  202   203   244   245     1  3.600000e+02  1.297040e+01  3.000000e+00  3.600000e+02  1.297040e+01  3.000000e+00 
  204   203   244   243     1  3.600000e+02  1.297040e+01  3.000000e+00  3.600000e+02  1.297040e+01  3.000000e+00 
  204   203   244   245     1  1.800000e+02  1.297040e+01  3.000000e+00  1.800000e+02  1.297040e+01  3.000000e+00 
  163   204   205   166     1  1.800000e+02  1.297040e+01  3.000000e+00  1.800000e+02  1.297040e+01  3.000000e+00 
  163   204   205   206     1  3.600000e+02  1.297040e+01  3.000000e+00  3.600000e+02  1.297040e+01  3.000000e+00 
  203   204   205   166     1  3.600000e+02  1.297040e+01  3.000000e+00  3.600000e+02  1.297040e+01  3.000000e+00 
  203   204   205   206     1  1.800000e+02  1.297040e+01  3.000000e+00  1.800000e+02  1.297040e+01  3.000000e+00 
  166   205   206   207     1  1.800000e+02  1.297040e+01  3.000000e+00  1.800000e+02  1.297040e+01  3.000000e+00 
  166   205   206   245     1  3.600000e+02  1.297040e+01  3.000000e+00  3.600000e+02  1.297040e+01  3.000000e+00 
  204   205   206   207     1  3.600000e+02  1.297040e+01  3.000000e+00  3.600000e+02  1.297040e+01  3.000000e+00 
  204   205   206   245     1  1.800000e+02  1.297040e+01  3.000000e+00  1.800000e+02  1.297040e+01  3.000000e+00 
  205   206   207   208     1  1.800000e+02  1.297040e+01  3.000000e+00  1.800000e+02  1.297040e+01  3.000000e+00 
  205   206   207   248     1  3.600000e+02  1.297040e+01  3.000000e+00  3.600000e+02  1.297040e+01  3.000000e+00 
  245   206   207   208     1  3.600000e+02  1.297040e+01  3.000000e+00  3.600000e+02  1.297040e+01  3.000000e+00 
  245   206   207   248     1  1.800000e+02  1.297040e+01  3.000000e+00  1.800000e+02  1.297040e+01  3.000000e+00 
  205   206   245   244     1  1.800000e+02  1.297040e+01  3.000000e+00  1.800000e+02  1.297040e+01  3.000000e+00 
  205   206   245   246     1  3.600000e+02  1.297040e+01  3.000000e+00  3.600000e+02  1.297040e+01  3.000000e+00 
  207   206   245   244     1  3.600000e+02  1.297040e+01  3.000000e+00  3.600000e+02  1.297040e+01  3.000000e+00 
  207   206   245   246     1  1.800000e+02  1.297040e+01  3.000000e+00  1.800000e+02  1.297040e+01  3.000000e+00 
  206   207   208   167     1  1.800000e+02  1.297040e+01  3.000000e+00  1.800000e+02  1.297040e+01  3.000000e+00 
  206   207   208   209     1  3.600000e+02  1.297040e+01  3.000000e+00  3.600000e+02  1.297040e+01  3.000000e+00 
  248   207   208   167     1  3.600000e+02  1.297040e+01  3.000000e+00  3.600000e+02  1.297040e+01  3.000000e+00 
  248   207   208   209     1  1.800000e+02  1.297040e+01  3.000000e+00  1.800000e+02  1.297040e+01  3.000000e+00 
  206   207   248   247     1  1.800000e+02  1.297040e+01  3.000000e+00  1.800000e+02  1.297040e+01  3.000000e+00 
  206   207   248   249     1  3.600000e+02  1.297040e+01  3.000000e+00  3.600000e+02  1.297040e+01  3.000000e+00 
  208   207   248   247     1  3.600000e+02  1.297040e+01  3.000000e+00  3.600000e+02  1.297040e+01  3.000000e+00 
  208   207   248   249     1  1.800000e+02  1.297040e+01  3.000000e+00  1.800000e+02  1.297040e+01  3.000000e+00 
  167   208   209   170     1  1.800000e+02  1.297040e+01  3.000000e+00  1.800000e+02  1.297040e+01  3.000000e+00 
  167   208   209   210     1  3.600000e+02  1.297040e+01  3.000000e+00  3.600000e+02  1.297040e+01  3.000000e+00 
  207   208   209   170     1  3.600000e+02  1.297040e+01  3.000000e+00  3.600000e+02  1.297040e+01  3.000000e+00 
  207   208   209   210     1  1.800000e+02  1.297040e+01  3.000000e+00  1.800000e+02  1.297040e+01  3.000000e+00 
  170   209   210   211     1  1.800000e+02  1.297040e+01  3.000000e+00  1.800000e+02  1.297040e+01  3.000000e+00 
  170   209   210   249     1  3.600000e+02  1.297040e+01  3.000000e+00  3.600000e+02  1.297040e+01  3.000000e+00 
  208   209   210   211     1  3.600000e+02  1.297040e+01  3.000000e+00  3.600000e+02  1.297040e+01  3.000000e+00 
  208   209   210   249     1  1.800000e+02  1.297040e+01  3.000000e+00  1.800000e+02  1.297040e+01  3.000000e+00 
  209   210   211   212     1  1.800000e+02  1.297040e+01  3.000000e+00  1.800000e+02  1.297040e+01  3.000000e+00 
  209   210   211   252     1  3.600000e+02  1.297040e+01  3.000000e+00  3.600000e+02  1.297040e+01  3.000000e+00 
  249   210   211   212     1  3.600000e+02  1.297040e+01  3.000000e+00  3.600000e+02  1.297040e+01  3.000000e+00 
  249   210   211   252     1  1.800000e+02  1.297040e+01  3.000000e+00  1.800000e+02  1.297040e+01  3.000000e+00 
  209   210   249   248     1  1.800000e+02  1.297040e+01  3.000000e+00  1.800000e+02  1.297040e+01  3.000000e+00 
  209   210   249   250     1  3.600000e+02  1.297040e+01  3.000000e+00  3.600000e+02  1.297040e+01  3.000000e+00 
  211   210   249   248     1  3.600000e+02  1.297040e+01  3.000000e+00  3.600000e+02  1.297040e+01  3.000000e+00 
  211   210   249   250     1  1.800000e+02  1.297040e+01  3.000000e+00  1.800000e+02  1.297040e+01  3.000000e+00 
  210   211   212   171     1  1.800000e+02  1.297040e+01  3.000000e+00  1.800000e+02  1.297040e+01  3.000000e+00 
  210   211   212   213     1  3.600000e+02  1.297040e+01  3.000000e+00  3.600000e+02  1.297040e+01  3.000000e+00 
  252   211   212   171     1  3.600000e+02  1.297040e+01  3.000000e+00  3.600000e+02  1.297040e+01  3.000000e+00 
  252   211   212   213     1  1.800000e+02  1.297040e+01  3.000000e+00  1.800000e+02  1.297040e+01  3.000000e+00 
  210   211   252   251     1  1.800000e+02  1.297040e+01  3.000000e+00  1.800000e+02  1.297040e+01  3.000000e+00 
  210   211   252   253     1  3.600000e+02  1.297040e+01  3.000000e+00  3.600000e+02  1.297040e+01  3.000000e+00 
  212   211   252   251     1  3.600000e+02  1.297040e+01  3.000000e+00  3.600000e+02  1.297040e+01  3.000000e+00 
  212   211   252   253     1  1.800000e+02  1.297040e+01  3.000000e+00  1.800000e+02  1.297040e+01  3.000000e+00 
  171   212   213   174     1  1.800000e+02  1.297040e+01  3.000000e+00  1.800000e+02  1.297040e+01  3.000000e+00 
  171   212   213   214     1  3.600000e+02  1.297040e+01  3.000000e+00  3.600000e+02  1.297040e+01  3.000000e+00 
  211   212   213   174     1  3.600000e+02  1.297040e+01  3.000000e+00  3.600000e+02  1.297040e+01  3.000000e+00 
  211   212   213   214     1  1.800000e+02  1.297040e+01  3.000000e+00  1.800000e+02  1.297040e+01  3.000000e+00 
  174   213   214   215     1  1.800000e+02  1.297040e+01  3.000000e+00  1.800000e+02  1.297040e+01  3.000000e+00 
  174   213   214   253     1  3.600000e+02  1.297040e+01  3.000000e+00  3.600000e+02  1.297040e+01  3.000000e+00 
  212   213   214   215     1  3.600000e+02  1.297040e+01  3.000000e+00  3.600000e+02  1.297040e+01  3.000000e+00 
  212   213   214   253     1  1.800000e+02  1.297040e+01  3.000000e+00  1.800000e+02  1.297040e+01  3.000000e+00 
  213   214   215   216     1  1.800000e+02  1.297040e+01  3.000000e+00  1.800000e+02  1.297040e+01  3.000000e+00 
  213   214   215   256     1  3.600000e+02  1.297040e+01  3.000000e+00  3.600000e+02  1.297040e+01  3.000000e+00 
  253   214   215   216     1  3.600000e+02  1.297040e+01  3.000000e+00  3.600000e+02  1.297040e+01  3.000000e+00 
  253   214   215   256     1  1.800000e+02  1.297040e+01  3.000000e+00  1.800000e+02  1.297040e+01  3.000000e+00 
  213   214   253   252     1  1.800000e+02  1.297040e+01  3.000000e+00  1.800000e+02  1.297040e+01  3.000000e+00 
  213   214   253   254     1  3.600000e+02  1.297040e+01  3.000000e+00  3.600000e+02  1.297040e+01  3.000000e+00 
  215   214   253   252     1  3.600000e+02  1.297040e+01  3.000000e+00  3.600000e+02  1.297040e+01  3.000000e+00 
  215   214   253   254     1  1.800000e+02  1.297040e+01  3.000000e+00  1.800000e+02  1.297040e+01  3.000000e+00 
  214   215   216   175     1  1.800000e+02  1.297040e+01  3.000000e+00  1.800000e+02  1.297040e+01  3.000000e+00 
  214   215   216   217     1  3.600000e+02  1.297040e+01  3.000000e+00  3.600000e+02  1.297040e+01  3.000000e+00 
  256   215   216   175     1  3.600000e+02  1.297040e+01  3.000000e+00  3.600000e+02  1.297040e+01  3.000000e+00 
  256   215   216   217     1  1.800000e+02  1.297040e+01  3.000000e+00  1.800000e+02  1.297040e+01  3.000000e+00 
  214   215   256   255     1  1.800000e+02  1.297040e+01  3.000000e+00  1.800000e+02  1.297040e+01  3.000000e+00 
  214   215   256   257     1  3.600000e+02  1.297040e+01  3.000000e+00  3.600000e+02  1.297040e+01  3.000000e+00 
  216   215   256   255     1  3.600000e+02  1.297040e+01  3.000000e+00  3.600000e+02  1.297040e+01  3.000000e+00 
  216   215   256   257     1  1.800000e+02  1.297040e+01  3.000000e+00  1.800000e+02  1.297040e+01  3.000000e+00 
  175   216   217   178     1  1.800000e+02  1.297040e+01  3.000000e+00  1.800000e+02  1.297040e+01  3.000000e+00 
  175   216   217   218     1  3.600000e+02  1.297040e+01  3.000000e+00  3.600000e+02  1.297040e+01  3.000000e+00 
  215   216   217   178     1  3.600000e+02  1.297040e+01  3.000000e+00  3.600000e+02  1.297040e+01  3.000000e+00 
  215   216   217   218     1  1.800000e+02  1.297040e+01  3.000000e+00  1.800000e+02  1.297040e+01  3.000000e+00 
  178   217   218   219     1  1.800000e+02  1.297040e+01  3.000000e+00  1.800000e+02  1.297040e+01  3.000000e+00 
  178   217   218   257     1  3.600000e+02  1.297040e+01  3.000000e+00  3.600000e+02  1.297040e+01  3.000000e+00 
  216   217   218   219     1  3.600000e+02  1.297040e+01  3.000000e+00  3.600000e+02  1.297040e+01  3.000000e+00 
  216   217   218   257     1  1.800000e+02  1.297040e+01  3.000000e+00  1.800000e+02  1.297040e+01  3.000000e+00 
  217   218   219   220     1  1.800000e+02  1.297040e+01  3.000000e+00  1.800000e+02  1.297040e+01  3.000000e+00 
  217   218   219   260     1  3.600000e+02  1.297040e+01  3.000000e+00  3.600000e+02  1.297040e+01  3.000000e+00 
  257   218   219   220     1  3.600000e+02  1.297040e+01  3.000000e+00  3.600000e+02  1.297040e+01  3.000000e+00 
  257   218   219   260     1  1.800000e+02  1.297040e+01  3.000000e+00  1.800000e+02  1.297040e+01  3.000000e+00 
  217   218   257   256     1  1.800000e+02  1.297040e+01  3.000000e+00  1.800000e+02  1.297040e+01  3.000000e+00 
  217   218   257   258     1  3.600000e+02  1.297040e+01  3.000000e+00  3.600000e+02  1.297040e+01  3.000000e+00 
  219   218   257   256     1  3.600000e+02  1.297040e+01  3.000000e+00  3.600000e+02  1.297040e+01  3.000000e+00 
  219   218   257   258     1  1.800000e+02  1.297040e+01  3.000000e+00  1.800000e+02  1.297040e+01  3.000000e+00 
  218   219   220   179     1  1.800000e+02  1.297040e+01  3.000000e+00  1.800000e+02  1.297040e+01  3.000000e+00 
  218   219   220   221     1  3.600000e+02  1.297040e+01  3.000000e+00  3.600000e+02  1.297040e+01  3.000000e+00 
  260   219   220   179     1  3.600000e+02  1.297040e+01  3.000000e+00  3.600000e+02  1.297040e+01  3.000000e+00 
  260   219   220   221     1  1.800000e+02  1.297040e+01  3.000000e+00  1.800000e+02  1.297040e+01  3.000000e+00 
  218   219   260   259     1  1.800000e+02  1.297040e+01  3.000000e+00  1.800000e+02  1.297040e+01  3.000000e+00 
  218   219   260   261     1  3.600000e+02  1.297040e+01  3.000000e+00  3.600000e+02  1.297040e+01  3.000000e+00 
  220   219   260   259     1  3.600000e+02  1.297040e+01  3.000000e+00  3.600000e+02  1.297040e+01  3.000000e+00 
  220   219   260   261     1  1.800000e+02  1.297040e+01  3.000000e+00  1.800000e+02  1.297040e+01  3.000000e+00 
  179   220   221   182     1  1.800000e+02  1.297040e+01  3.000000e+00  1.800000e+02  1.297040e+01  3.000000e+00 
  179   220   221   222     1  3.600000e+02  1.297040e+01  3.000000e+00  3.600000e+02  1.297040e+01  3.000000e+00 
  219   220   221   182     1  3.600000e+02  1.297040e+01  3.000000e+00  3.600000e+02  1.297040e+01  3.000000e+00 
  219   220   221   222     1  1.800000e+02  1.297040e+01  3.000000e+00  1.800000e+02  1.297040e+01  3.000000e+00 
  182   221   222   223     1  1.800000e+02  1.297040e+01  3.000000e+00  1.800000e+02  1.297040e+01  3.000000e+00 
  182   221   222   261     1  3.600000e+02  1.297040e+01  3.000000e+00  3.600000e+02  1.297040e+01  3.000000e+00 
  220   221   222   223     1  3.600000e+02  1.297040e+01  3.000000e+00  3.600000e+02  1.297040e+01  3.000000e+00 
  220   221   222   261     1  1.800000e+02  1.297040e+01  3.000000e+00  1.800000e+02  1.297040e+01  3.000000e+00 
  221   222   223   224     1  1.800000e+02  1.297040e+01  3.000000e+00  1.800000e+02  1.297040e+01  3.000000e+00 
  221   222   223   264     1  3.600000e+02  1.297040e+01  3.000000e+00  3.600000e+02  1.297040e+01  3.000000e+00 
  261   222   223   224     1  3.600000e+02  1.297040e+01  3.000000e+00  3.600000e+02  1.297040e+01  3.000000e+00 
  261   222   223   264     1  1.800000e+02  1.297040e+01  3.000000e+00  1.800000e+02  1.297040e+01  3.000000e+00 
  221   222   261   260     1  1.800000e+02  1.297040e+01  3.000000e+00  1.800000e+02  1.297040e+01  3.000000e+00 
  221   222   261   262     1  3.600000e+02  1.297040e+01  3.000000e+00  3.600000e+02  1.297040e+01  3.000000e+00 
  223   222   261   260     1  3.600000e+02  1.297040e+01  3.000000e+00  3.600000e+02  1.297040e+01  3.000000e+00 
  223   222   261   262     1  1.800000e+02  1.297040e+01  3.000000e+00  1.800000e+02  1.297040e+01  3.000000e+00 
  222   223   224   183     1  1.800000e+02  1.297040e+01  3.000000e+00  1.800000e+02  1.297040e+01  3.000000e+00 
  222   223   224   225     1  3.600000e+02  1.297040e+01  3.000000e+00  3.600000e+02  1.297040e+01  3.000000e+00 
  264   223   224   183     1  3.600000e+02  1.297040e+01  3.000000e+00  3.600000e+02  1.297040e+01  3.000000e+00 
  264   223   224   225     1  1.800000e+02  1.297040e+01  3.000000e+00  1.800000e+02  1.297040e+01  3.000000e+00 
  222   223   264   263     1  1.800000e+02  1.297040e+01  3.000000e+00  1.800000e+02  1.297040e+01  3.000000e+00 
  222   223   264   265     1  3.600000e+02  1.297040e+01  3.000000e+00  3.600000e+02  1.297040e+01  3.000000e+00 
  224   223   264   263     1  3.600000e+02  1.297040e+01  3.000000e+00  3.600000e+02  1.297040e+01  3.000000e+00 
  224   223   264   265     1  1.800000e+02  1.297040e+01  3.000000e+00  1.800000e+02  1.297040e+01  3.000000e+00 
  183   224   225   186     1  1.800000e+02  1.297040e+01  3.000000e+00  1.800000e+02  1.297040e+01  3.000000e+00 
  183   224   225   226     1  3.600000e+02  1.297040e+01  3.000000e+00  3.600000e+02  1.297040e+01  3.000000e+00 
  223   224   225   186     1  3.600000e+02  1.297040e+01  3.000000e+00  3.600000e+02  1.297040e+01  3.000000e+00 
  223   224   225   226     1  1.800000e+02  1.297040e+01  3.000000e+00  1.800000e+02  1.297040e+01  3.000000e+00 
  186   225   226   227     1  1.800000e+02  1.297040e+01  3.000000e+00  1.800000e+02  1.297040e+01  3.000000e+00 
  186   225   226   265     1  3.600000e+02  1.297040e+01  3.000000e+00  3.600000e+02  1.297040e+01  3.000000e+00 
  224   225   226   227     1  3.600000e+02  1.297040e+01  3.000000e+00  3.600000e+02  1.297040e+01  3.000000e+00 
  224   225   226   265     1  1.800000e+02  1.297040e+01  3.000000e+00  1.800000e+02  1.297040e+01  3.000000e+00 
  225   226   227   228     1  1.800000e+02  1.297040e+01  3.000000e+00  1.800000e+02  1.297040e+01  3.000000e+00 
  225   226   227   268     1  3.600000e+02  1.297040e+01  3.000000e+00  3.600000e+02  1.297040e+01  3.000000e+00 
  265   226   227   228     1  3.600000e+02  1.297040e+01  3.000000e+00  3.600000e+02  1.297040e+01  3.000000e+00 
  265   226   227   268     1  1.800000e+02  1.297040e+01  3.000000e+00  1.800000e+02  1.297040e+01  3.000000e+00 
  225   226   265   264     1  1.800000e+02  1.297040e+01  3.000000e+00  1.800000e+02  1.297040e+01  3.000000e+00 
  225   226   265   266     1  3.600000e+02  1.297040e+01  3.000000e+00  3.600000e+02  1.297040e+01  3.000000e+00 
  227   226   265   264     1  3.600000e+02  1.297040e+01  3.000000e+00  3.600000e+02  1.297040e+01  3.000000e+00 
  227   226   265   266     1  1.800000e+02  1.297040e+01  3.000000e+00  1.800000e+02  1.297040e+01  3.000000e+00 
  226   227   228   187     1  1.800000e+02  1.297040e+01  3.000000e+00  1.800000e+02  1.297040e+01  3.000000e+00 
  226   227   228   229     1  3.600000e+02  1.297040e+01  3.000000e+00  3.600000e+02  1.297040e+01  3.000000e+00 
  268   227   228   187     1  3.600000e+02  1.297040e+01  3.000000e+00  3.600000e+02  1.297040e+01  3.000000e+00 
  268   227   228   229     1  1.800000e+02  1.297040e+01  3.000000e+00  1.800000e+02  1.297040e+01  3.000000e+00 
  226   227   268   267     1  1.800000e+02  1.297040e+01  3.000000e+00  1.800000e+02  1.297040e+01  3.000000e+00 
  226   227   268   269     1  3.600000e+02  1.297040e+01  3.000000e+00  3.600000e+02  1.297040e+01  3.000000e+00 
  228   227   268   267     1  3.600000e+02  1.297040e+01  3.000000e+00  3.600000e+02  1.297040e+01  3.000000e+00 
  228   227   268   269     1  1.800000e+02  1.297040e+01  3.000000e+00  1.800000e+02  1.297040e+01  3.000000e+00 
  187   228   229   190     1  1.800000e+02  1.297040e+01  3.000000e+00  1.800000e+02  1.297040e+01  3.000000e+00 
  187   228   229   230     1  3.600000e+02  1.297040e+01  3.000000e+00  3.600000e+02  1.297040e+01  3.000000e+00 
  227   228   229   190     1  3.600000e+02  1.297040e+01  3.000000e+00  3.600000e+02  1.297040e+01  3.000000e+00 
  227   228   229   230     1  1.800000e+02  1.297040e+01  3.000000e+00  1.800000e+02  1.297040e+01  3.000000e+00 
  190   229   230   231     1  1.800000e+02  1.297040e+01  3.000000e+00  1.800000e+02  1.297040e+01  3.000000e+00 
  190   229   230   269     1  3.600000e+02  1.297040e+01  3.000000e+00  3.600000e+02  1.297040e+01  3.000000e+00 
  228   229   230   231     1  3.600000e+02  1.297040e+01  3.000000e+00  3.600000e+02  1.297040e+01  3.000000e+00 
  228   229   230   269     1  1.800000e+02  1.297040e+01  3.000000e+00  1.800000e+02  1.297040e+01  3.000000e+00 
  229   230   231   232     1  1.800000e+02  1.297040e+01  3.000000e+00  1.800000e+02  1.297040e+01  3.000000e+00 
  229   230   231   272     1  3.600000e+02  1.297040e+01  3.000000e+00  3.600000e+02  1.297040e+01  3.000000e+00 
  269   230   231   232     1  3.600000e+02  1.297040e+01  3.000000e+00  3.600000e+02  1.297040e+01  3.000000e+00 
  269   230   231   272     1  1.800000e+02  1.297040e+01  3.000000e+00  1.800000e+02  1.297040e+01  3.000000e+00 
  229   230   269   268     1  1.800000e+02  1.297040e+01  3.000000e+00  1.800000e+02  1.297040e+01  3.000000e+00 
  229   230   269   270     1  3.600000e+02  1.297040e+01  3.000000e+00  3.600000e+02  1.297040e+01  3.000000e+00 
  231   230   269   268     1  3.600000e+02  1.297040e+01  3.000000e+00  3.600000e+02  1.297040e+01  3.000000e+00 
  231   230   269   270     1  1.800000e+02  1.297040e+01  3.000000e+00  1.800000e+02  1.297040e+01  3.000000e+00 
  230   231   232   191     1  1.800000e+02  1.297040e+01  3.000000e+00  1.800000e+02  1.297040e+01  3.000000e+00 
  230   231   232   233     1  3.600000e+02  1.297040e+01  3.000000e+00  3.600000e+02  1.297040e+01  3.000000e+00 
  272   231   232   191     1  3.600000e+02  1.297040e+01  3.000000e+00  3.600000e+02  1.297040e+01  3.000000e+00 
  272   231   232   233     1  1.800000e+02  1.297040e+01  3.000000e+00  1.800000e+02  1.297040e+01  3.000000e+00 
  230   231   272   271     1  1.800000e+02  1.297040e+01  3.000000e+00  1.800000e+02  1.297040e+01  3.000000e+00 
  230   231   272   273     1  3.600000e+02  1.297040e+01  3.000000e+00  3.600000e+02  1.297040e+01  3.000000e+00 
  232   231   272   271     1  3.600000e+02  1.297040e+01  3.000000e+00  3.600000e+02  1.297040e+01  3.000000e+00 
  232   231   272   273     1  1.800000e+02  1.297040e+01  3.000000e+00  1.800000e+02  1.297040e+01  3.000000e+00 
  191   232   233   194     1  1.800000e+02  1.297040e+01  3.000000e+00  1.800000e+02  1.297040e+01  3.000000e+00 
  191   232   233   234     1  3.600000e+02  1.297040e+01  3.000000e+00  3.600000e+02  1.297040e+01  3.000000e+00 
  231   232   233   194     1  3.600000e+02  1.297040e+01  3.000000e+00  3.600000e+02  1.297040e+01  3.000000e+00 
  231   232   233   234     1  1.800000e+02  1.297040e+01  3.000000e+00  1.800000e+02  1.297040e+01  3.000000e+00 
  194   233   234   235     1  1.800000e+02  1.297040e+01  3.000000e+00  1.800000e+02  1.297040e+01  3.000000e+00 
  194   233   234   273     1  3.600000e+02  1.297040e+01  3.000000e+00  3.600000e+02  1.297040e+01  3.000000e+00 
  232   233   234   235     1  3.600000e+02  1.297040e+01  3.000000e+00  3.600000e+02  1.297040e+01  3.000000e+00 
  232   233   234   273     1  1.800000e+02  1.297040e+01  3.000000e+00  1.800000e+02  1.297040e+01  3.000000e+00 
  233   234   235   236     1  1.800000e+02  1.297040e+01  3.000000e+00  1.800000e+02  1.297040e+01  3.000000e+00 
  233   234   235   276     1  3.600000e+02  1.297040e+01  3.000000e+00  3.600000e+02  1.297040e+01  3.000000e+00 
  273   234   235   236     1  3.600000e+02  1.297040e+01  3.000000e+00  3.600000e+02  1.297040e+01  3.000000e+00 
  273   234   235   276     1  1.800000e+02  1.297040e+01  3.000000e+00  1.800000e+02  1.297040e+01  3.000000e+00 
  233   234   273   272     1  1.800000e+02  1.297040e+01  3.000000e+00  1.800000e+02  1.297040e+01  3.000000e+00 
  233   234   273   274     1  3.600000e+02  1.297040e+01  3.000000e+00  3.600000e+02  1.297040e+01  3.000000e+00 
  235   234   273   272     1  3.600000e+02  1.297040e+01  3.000000e+00  3.600000e+02  1.297040e+01  3.000000e+00 
  235   234   273   274     1  1.800000e+02  1.297040e+01  3.000000e+00  1.800000e+02  1.297040e+01  3.000000e+00 
  234   235   236   195     1  1.800000e+02  1.297040e+01  3.000000e+00  1.800000e+02  1.297040e+01  3.000000e+00 
  234   235   236   237     1  3.600000e+02  1.297040e+01  3.000000e+00  3.600000e+02  1.297040e+01  3.000000e+00 
  276   235   236   195     1  3.600000e+02  1.297040e+01  3.000000e+00  3.600000e+02  1.297040e+01  3.000000e+00 
  276   235   236   237     1  1.800000e+02  1.297040e+01  3.000000e+00  1.800000e+02  1.297040e+01  3.000000e+00 
  234   235   276   275     1  1.800000e+02  1.297040e+01  3.000000e+00  1.800000e+02  1.297040e+01  3.000000e+00 
  234   235   276   277     1  3.600000e+02  1.297040e+01  3.000000e+00  3.600000e+02  1.297040e+01  3.000000e+00 
  236   235   276   275     1  3.600000e+02  1.297040e+01  3.000000e+00  3.600000e+02  1.297040e+01  3.000000e+00 
  236   235   276   277     1  1.800000e+02  1.297040e+01  3.000000e+00  1.800000e+02  1.297040e+01  3.000000e+00 
  195   236   237   198     1  1.800000e+02  1.297040e+01  3.000000e+00  1.800000e+02  1.297040e+01  3.000000e+00 
  195   236   237   238     1  3.600000e+02  1.297040e+01  3.000000e+00  3.600000e+02  1.297040e+01  3.000000e+00 
  235   236   237   198     1  3.600000e+02  1.297040e+01  3.000000e+00  3.600000e+02  1.297040e+01  3.000000e+00 
  235   236   237   238     1  1.800000e+02  1.297040e+01  3.000000e+00  1.800000e+02  1.297040e+01  3.000000e+00 
  198   237   238   239     1  1.800000e+02  1.297040e+01  3.000000e+00  1.800000e+02  1.297040e+01  3.000000e+00 
  198   237   238   277     1  3.600000e+02  1.297040e+01  3.000000e+00  3.600000e+02  1.297040e+01  3.000000e+00 
  236   237   238   239     1  3.600000e+02  1.297040e+01  3.000000e+00  3.600000e+02  1.297040e+01  3.000000e+00 
  236   237   238   277     1  1.800000e+02  1.297040e+01  3.000000e+00  1.800000e+02  1.297040e+01  3.000000e+00 
  237   238   239   240     1  1.800000e+02  1.297040e+01  3.000000e+00  1.800000e+02  1.297040e+01  3.000000e+00 
  237   238   239   280     1  3.600000e+02  1.297040e+01  3.000000e+00  3.600000e+02  1.297040e+01  3.000000e+00 
  277   238   239   240     1  3.600000e+02  1.297040e+01  3.000000e+00  3.600000e+02  1.297040e+01  3.000000e+00 
  277   238   239   280     1  1.800000e+02  1.297040e+01  3.000000e+00  1.800000e+02  1.297040e+01  3.000000e+00 
  237   238   277   276     1  1.800000e+02  1.297040e+01  3.000000e+00  1.800000e+02  1.297040e+01  3.000000e+00 
  237   238   277   278     1  3.600000e+02  1.297040e+01  3.000000e+00  3.600000e+02  1.297040e+01  3.000000e+00 
  239   238   277   276     1  3.600000e+02  1.297040e+01  3.000000e+00  3.600000e+02  1.297040e+01  3.000000e+00 
  239   238   277   278     1  1.800000e+02  1.297040e+01  3.000000e+00  1.800000e+02  1.297040e+01  3.000000e+00 
  238   239   240   199     1  1.800000e+02  1.297040e+01  3.000000e+00  1.800000e+02  1.297040e+01  3.000000e+00 
  238   239   240   201     1  3.600000e+02  1.297040e+01  3.000000e+00  3.600000e+02  1.297040e+01  3.000000e+00 
  280   239   240   199     1  3.600000e+02  1.297040e+01  3.000000e+00  3.600000e+02  1.297040e+01  3.000000e+00 
  280   239   240   201     1  1.800000e+02  1.297040e+01  3.000000e+00  1.800000e+02  1.297040e+01  3.000000e+00 
  238   239   280   241     1  3.600000e+02  1.297040e+01  3.000000e+00  3.600000e+02  1.297040e+01  3.000000e+00 
  238   239   280   279     1  1.800000e+02  1.297040e+01  3.000000e+00  1.800000e+02  1.297040e+01  3.000000e+00 
  240   239   280   241     1  1.800000e+02  1.297040e+01  3.000000e+00  1.800000e+02  1.297040e+01  3.000000e+00 
  240   239   280   279     1  3.600000e+02  1.297040e+01  3.000000e+00  3.600000e+02  1.297040e+01  3.000000e+00 
  202   241   242   243     1  1.800000e+02  1.297040e+01  3.000000e+00  1.800000e+02  1.297040e+01  3.000000e+00 
  202   241   242   281     1  3.600000e+02  1.297040e+01  3.000000e+00  3.600000e+02  1.297040e+01  3.000000e+00 
  280   241   242   243     1  3.600000e+02  1.297040e+01  3.000000e+00  3.600000e+02  1.297040e+01  3.000000e+00 
  280   241   242   281     1  1.800000e+02  1.297040e+01  3.000000e+00  1.800000e+02  1.297040e+01  3.000000e+00 
  202   241   280   239     1  1.800000e+02  1.297040e+01  3.000000e+00  1.800000e+02  1.297040e+01  3.000000e+00 
  202   241   280   279     1  3.600000e+02  1.297040e+01  3.000000e+00  3.600000e+02  1.297040e+01  3.000000e+00 
  242   241   280   239     1  3.600000e+02  1.297040e+01  3.000000e+00  3.600000e+02  1.297040e+01  3.000000e+00 
  242   241   280   279     1  1.800000e+02  1.297040e+01  3.000000e+00  1.800000e+02  1.297040e+01  3.000000e+00 
  241   242   243   244     1  1.800000e+02  1.297040e+01  3.000000e+00  1.800000e+02  1.297040e+01  3.000000e+00 
  241   242   243   284     1  3.600000e+02  1.297040e+01  3.000000e+00  3.600000e+02  1.297040e+01  3.000000e+00 
  281   242   243   244     1  3.600000e+02  1.297040e+01  3.000000e+00  3.600000e+02  1.297040e+01  3.000000e+00 
  281   242   243   284     1  1.800000e+02  1.297040e+01  3.000000e+00  1.800000e+02  1.297040e+01  3.000000e+00 
  241   242   281   282     1  3.600000e+02  1.297040e+01  3.000000e+00  3.600000e+02  1.297040e+01  3.000000e+00 
  241   242   281   320     1  1.800000e+02  1.297040e+01  3.000000e+00  1.800000e+02  1.297040e+01  3.000000e+00 
  243   242   281   282     1  1.800000e+02  1.297040e+01  3.000000e+00  1.800000e+02  1.297040e+01  3.000000e+00 
  243   242   281   320     1  3.600000e+02  1.297040e+01  3.000000e+00  3.600000e+02  1.297040e+01  3.000000e+00 
  242   243   244   203     1  1.800000e+02  1.297040e+01  3.000000e+00  1.800000e+02  1.297040e+01  3.000000e+00 
  242   243   244   245     1  3.600000e+02  1.297040e+01  3.000000e+00  3.600000e+02  1.297040e+01  3.000000e+00 
  284   243   244   203     1  3.600000e+02  1.297040e+01  3.000000e+00  3.600000e+02  1.297040e+01  3.000000e+00 
  284   243   244   245     1  1.800000e+02  1.297040e+01  3.000000e+00  1.800000e+02  1.297040e+01  3.000000e+00 
  242   243   284   283     1  1.800000e+02  1.297040e+01  3.000000e+00  1.800000e+02  1.297040e+01  3.000000e+00 
  242   243   284   285     1  3.600000e+02  1.297040e+01  3.000000e+00  3.600000e+02  1.297040e+01  3.000000e+00 
  244   243   284   283     1  3.600000e+02  1.297040e+01  3.000000e+00  3.600000e+02  1.297040e+01  3.000000e+00 
  244   243   284   285     1  1.800000e+02  1.297040e+01  3.000000e+00  1.800000e+02  1.297040e+01  3.000000e+00 
  203   244   245   206     1  1.800000e+02  1.297040e+01  3.000000e+00  1.800000e+02  1.297040e+01  3.000000e+00 
  203   244   245   246     1  3.600000e+02  1.297040e+01  3.000000e+00  3.600000e+02  1.297040e+01  3.000000e+00 
  243   244   245   206     1  3.600000e+02  1.297040e+01  3.000000e+00  3.600000e+02  1.297040e+01  3.000000e+00 
  243   244   245   246     1  1.800000e+02  1.297040e+01  3.000000e+00  1.800000e+02  1.297040e+01  3.000000e+00 
  206   245   246   247     1  1.800000e+02  1.297040e+01  3.000000e+00  1.800000e+02  1.297040e+01  3.000000e+00 
  206   245   246   285     1  3.600000e+02  1.297040e+01  3.000000e+00  3.600000e+02  1.297040e+01  3.000000e+00 
  244   245   246   247     1  3.600000e+02  1.297040e+01  3.000000e+00  3.600000e+02  1.297040e+01  3.000000e+00 
  244   245   246   285     1  1.800000e+02  1.297040e+01  3.000000e+00  1.800000e+02  1.297040e+01  3.000000e+00 
  245   246   247   248     1  1.800000e+02  1.297040e+01  3.000000e+00  1.800000e+02  1.297040e+01  3.000000e+00 
  245   246   247   288     1  3.600000e+02  1.297040e+01  3.000000e+00  3.600000e+02  1.297040e+01  3.000000e+00 
  285   246   247   248     1  3.600000e+02  1.297040e+01  3.000000e+00  3.600000e+02  1.297040e+01  3.000000e+00 
  285   246   247   288     1  1.800000e+02  1.297040e+01  3.000000e+00  1.800000e+02  1.297040e+01  3.000000e+00 
  245   246   285   284     1  1.800000e+02  1.297040e+01  3.000000e+00  1.800000e+02  1.297040e+01  3.000000e+00 
  245   246   285   286     1  3.600000e+02  1.297040e+01  3.000000e+00  3.600000e+02  1.297040e+01  3.000000e+00 
  247   246   285   284     1  3.600000e+02  1.297040e+01  3.000000e+00  3.600000e+02  1.297040e+01  3.000000e+00 
  247   246   285   286     1  1.800000e+02  1.297040e+01  3.000000e+00  1.800000e+02  1.297040e+01  3.000000e+00 
  246   247   248   207     1  1.800000e+02  1.297040e+01  3.000000e+00  1.800000e+02  1.297040e+01  3.000000e+00 
  246   247   248   249     1  3.600000e+02  1.297040e+01  3.000000e+00  3.600000e+02  1.297040e+01  3.000000e+00 
  288   247   248   207     1  3.600000e+02  1.297040e+01  3.000000e+00  3.600000e+02  1.297040e+01  3.000000e+00 
  288   247   248   249     1  1.800000e+02  1.297040e+01  3.000000e+00  1.800000e+02  1.297040e+01  3.000000e+00 
  246   247   288   287     1  1.800000e+02  1.297040e+01  3.000000e+00  1.800000e+02  1.297040e+01  3.000000e+00 
  246   247   288   289     1  3.600000e+02  1.297040e+01  3.000000e+00  3.600000e+02  1.297040e+01  3.000000e+00 
  248   247   288   287     1  3.600000e+02  1.297040e+01  3.000000e+00  3.600000e+02  1.297040e+01  3.000000e+00 
  248   247   288   289     1  1.800000e+02  1.297040e+01  3.000000e+00  1.800000e+02  1.297040e+01  3.000000e+00 
  207   248   249   210     1  1.800000e+02  1.297040e+01  3.000000e+00  1.800000e+02  1.297040e+01  3.000000e+00 
  207   248   249   250     1  3.600000e+02  1.297040e+01  3.000000e+00  3.600000e+02  1.297040e+01  3.000000e+00 
  247   248   249   210     1  3.600000e+02  1.297040e+01  3.000000e+00  3.600000e+02  1.297040e+01  3.000000e+00 
  247   248   249   250     1  1.800000e+02  1.297040e+01  3.000000e+00  1.800000e+02  1.297040e+01  3.000000e+00 
  210   249   250   251     1  1.800000e+02  1.297040e+01  3.000000e+00  1.800000e+02  1.297040e+01  3.000000e+00 
  210   249   250   289     1  3.600000e+02  1.297040e+01  3.000000e+00  3.600000e+02  1.297040e+01  3.000000e+00 
  248   249   250   251     1  3.600000e+02  1.297040e+01  3.000000e+00  3.600000e+02  1.297040e+01  3.000000e+00 
  248   249   250   289     1  1.800000e+02  1.297040e+01  3.000000e+00  1.800000e+02  1.297040e+01  3.000000e+00 
  249   250   251   252     1  1.800000e+02  1.297040e+01  3.000000e+00  1.800000e+02  1.297040e+01  3.000000e+00 
  249   250   251   292     1  3.600000e+02  1.297040e+01  3.000000e+00  3.600000e+02  1.297040e+01  3.000000e+00 
  289   250   251   252     1  3.600000e+02  1.297040e+01  3.000000e+00  3.600000e+02  1.297040e+01  3.000000e+00 
  289   250   251   292     1  1.800000e+02  1.297040e+01  3.000000e+00  1.800000e+02  1.297040e+01  3.000000e+00 
  249   250   289   288     1  1.800000e+02  1.297040e+01  3.000000e+00  1.800000e+02  1.297040e+01  3.000000e+00 
  249   250   289   290     1  3.600000e+02  1.297040e+01  3.000000e+00  3.600000e+02  1.297040e+01  3.000000e+00 
  251   250   289   288     1  3.600000e+02  1.297040e+01  3.000000e+00  3.600000e+02  1.297040e+01  3.000000e+00 
  251   250   289   290     1  1.800000e+02  1.297040e+01  3.000000e+00  1.800000e+02  1.297040e+01  3.000000e+00 
  250   251   252   211     1  1.800000e+02  1.297040e+01  3.000000e+00  1.800000e+02  1.297040e+01  3.000000e+00 
  250   251   252   253     1  3.600000e+02  1.297040e+01  3.000000e+00  3.600000e+02  1.297040e+01  3.000000e+00 
  292   251   252   211     1  3.600000e+02  1.297040e+01  3.000000e+00  3.600000e+02  1.297040e+01  3.000000e+00 
  292   251   252   253     1  1.800000e+02  1.297040e+01  3.000000e+00  1.800000e+02  1.297040e+01  3.000000e+00 
  250   251   292   291     1  1.800000e+02  1.297040e+01  3.000000e+00  1.800000e+02  1.297040e+01  3.000000e+00 
  250   251   292   293     1  3.600000e+02  1.297040e+01  3.000000e+00  3.600000e+02  1.297040e+01  3.000000e+00 
  252   251   292   291     1  3.600000e+02  1.297040e+01  3.000000e+00  3.600000e+02  1.297040e+01  3.000000e+00 
  252   251   292   293     1  1.800000e+02  1.297040e+01  3.000000e+00  1.800000e+02  1.297040e+01  3.000000e+00 
  211   252   253   214     1  1.800000e+02  1.297040e+01  3.000000e+00  1.800000e+02  1.297040e+01  3.000000e+00 
  211   252   253   254     1  3.600000e+02  1.297040e+01  3.000000e+00  3.600000e+02  1.297040e+01  3.000000e+00 
  251   252   253   214     1  3.600000e+02  1.297040e+01  3.000000e+00  3.600000e+02  1.297040e+01  3.000000e+00 
  251   252   253   254     1  1.800000e+02  1.297040e+01  3.000000e+00  1.800000e+02  1.297040e+01  3.000000e+00 
  214   253   254   255     1  1.800000e+02  1.297040e+01  3.000000e+00  1.800000e+02  1.297040e+01  3.000000e+00 
  214   253   254   293     1  3.600000e+02  1.297040e+01  3.000000e+00  3.600000e+02  1.297040e+01  3.000000e+00 
  252   253   254   255     1  3.600000e+02  1.297040e+01  3.000000e+00  3.600000e+02  1.297040e+01  3.000000e+00 
  252   253   254   293     1  1.800000e+02  1.297040e+01  3.000000e+00  1.800000e+02  1.297040e+01  3.000000e+00 
  253   254   255   256     1  1.800000e+02  1.297040e+01  3.000000e+00  1.800000e+02  1.297040e+01  3.000000e+00 
  253   254   255   296     1  3.600000e+02  1.297040e+01  3.000000e+00  3.600000e+02  1.297040e+01  3.000000e+00 
  293   254   255   256     1  3.600000e+02  1.297040e+01  3.000000e+00  3.600000e+02  1.297040e+01  3.000000e+00 
  293   254   255   296     1  1.800000e+02  1.297040e+01  3.000000e+00  1.800000e+02  1.297040e+01  3.000000e+00 
  253   254   293   292     1  1.800000e+02  1.297040e+01  3.000000e+00  1.800000e+02  1.297040e+01  3.000000e+00 
  253   254   293   294     1  3.600000e+02  1.297040e+01  3.000000e+00  3.600000e+02  1.297040e+01  3.000000e+00 
  255   254   293   292     1  3.600000e+02  1.297040e+01  3.000000e+00  3.600000e+02  1.297040e+01  3.000000e+00 
  255   254   293   294     1  1.800000e+02  1.297040e+01  3.000000e+00  1.800000e+02  1.297040e+01  3.000000e+00 
  254   255   256   215     1  1.800000e+02  1.297040e+01  3.000000e+00  1.800000e+02  1.297040e+01  3.000000e+00 
  254   255   256   257     1  3.600000e+02  1.297040e+01  3.000000e+00  3.600000e+02  1.297040e+01  3.000000e+00 
  296   255   256   215     1  3.600000e+02  1.297040e+01  3.000000e+00  3.600000e+02  1.297040e+01  3.000000e+00 
  296   255   256   257     1  1.800000e+02  1.297040e+01  3.000000e+00  1.800000e+02  1.297040e+01  3.000000e+00 
  254   255   296   295     1  1.800000e+02  1.297040e+01  3.000000e+00  1.800000e+02  1.297040e+01  3.000000e+00 
  254   255   296   297     1  3.600000e+02  1.297040e+01  3.000000e+00  3.600000e+02  1.297040e+01  3.000000e+00 
  256   255   296   295     1  3.600000e+02  1.297040e+01  3.000000e+00  3.600000e+02  1.297040e+01  3.000000e+00 
  256   255   296   297     1  1.800000e+02  1.297040e+01  3.000000e+00  1.800000e+02  1.297040e+01  3.000000e+00 
  215   256   257   218     1  1.800000e+02  1.297040e+01  3.000000e+00  1.800000e+02  1.297040e+01  3.000000e+00 
  215   256   257   258     1  3.600000e+02  1.297040e+01  3.000000e+00  3.600000e+02  1.297040e+01  3.000000e+00 
  255   256   257   218     1  3.600000e+02  1.297040e+01  3.000000e+00  3.600000e+02  1.297040e+01  3.000000e+00 
  255   256   257   258     1  1.800000e+02  1.297040e+01  3.000000e+00  1.800000e+02  1.297040e+01  3.000000e+00 
  218   257   258   259     1  1.800000e+02  1.297040e+01  3.000000e+00  1.800000e+02  1.297040e+01  3.000000e+00 
  218   257   258   297     1  3.600000e+02  1.297040e+01  3.000000e+00  3.600000e+02  1.297040e+01  3.000000e+00 
  256   257   258   259     1  3.600000e+02  1.297040e+01  3.000000e+00  3.600000e+02  1.297040e+01  3.000000e+00 
  256   257   258   297     1  1.800000e+02  1.297040e+01  3.000000e+00  1.800000e+02  1.297040e+01  3.000000e+00 
  257   258   259   260     1  1.800000e+02  1.297040e+01  3.000000e+00  1.800000e+02  1.297040e+01  3.000000e+00 
  257   258   259   300     1  3.600000e+02  1.297040e+01  3.000000e+00  3.600000e+02  1.297040e+01  3.000000e+00 
  297   258   259   260     1  3.600000e+02  1.297040e+01  3.000000e+00  3.600000e+02  1.297040e+01  3.000000e+00 
  297   258   259   300     1  1.800000e+02  1.297040e+01  3.000000e+00  1.800000e+02  1.297040e+01  3.000000e+00 
  257   258   297   296     1  1.800000e+02  1.297040e+01  3.000000e+00  1.800000e+02  1.297040e+01  3.000000e+00 
  257   258   297   298     1  3.600000e+02  1.297040e+01  3.000000e+00  3.600000e+02  1.297040e+01  3.000000e+00 
  259   258   297   296     1  3.600000e+02  1.297040e+01  3.000000e+00  3.600000e+02  1.297040e+01  3.000000e+00 
  259   258   297   298     1  1.800000e+02  1.297040e+01  3.000000e+00  1.800000e+02  1.297040e+01  3.000000e+00 
  258   259   260   219     1  1.800000e+02  1.297040e+01  3.000000e+00  1.800000e+02  1.297040e+01  3.000000e+00 
  258   259   260   261     1  3.600000e+02  1.297040e+01  3.000000e+00  3.600000e+02  1.297040e+01  3.000000e+00 
  300   259   260   219     1  3.600000e+02  1.297040e+01  3.000000e+00  3.600000e+02  1.297040e+01  3.000000e+00 
  300   259   260   261     1  1.800000e+02  1.297040e+01  3.000000e+00  1.800000e+02  1.297040e+01  3.000000e+00 
  258   259   300   299     1  1.800000e+02  1.297040e+01  3.000000e+00  1.800000e+02  1.297040e+01  3.000000e+00 
  258   259   300   301     1  3.600000e+02  1.297040e+01  3.000000e+00  3.600000e+02  1.297040e+01  3.000000e+00 
  260   259   300   299     1  3.600000e+02  1.297040e+01  3.000000e+00  3.600000e+02  1.297040e+01  3.000000e+00 
  260   259   300   301     1  1.800000e+02  1.297040e+01  3.000000e+00  1.800000e+02  1.297040e+01  3.000000e+00 
  219   260   261   222     1  1.800000e+02  1.297040e+01  3.000000e+00  1.800000e+02  1.297040e+01  3.000000e+00 
  219   260   261   262     1  3.600000e+02  1.297040e+01  3.000000e+00  3.600000e+02  1.297040e+01  3.000000e+00 
  259   260   261   222     1  3.600000e+02  1.297040e+01  3.000000e+00  3.600000e+02  1.297040e+01  3.000000e+00 
  259   260   261   262     1  1.800000e+02  1.297040e+01  3.000000e+00  1.800000e+02  1.297040e+01  3.000000e+00 
  222   261   262   263     1  1.800000e+02  1.297040e+01  3.000000e+00  1.800000e+02  1.297040e+01  3.000000e+00 
  222   261   262   301     1  3.600000e+02  1.297040e+01  3.000000e+00  3.600000e+02  1.297040e+01  3.000000e+00 
  260   261   262   263     1  3.600000e+02  1.297040e+01  3.000000e+00  3.600000e+02  1.297040e+01  3.000000e+00 
  260   261   262   301     1  1.800000e+02  1.297040e+01  3.000000e+00  1.800000e+02  1.297040e+01  3.000000e+00 
  261   262   263   264     1  1.800000e+02  1.297040e+01  3.000000e+00  1.800000e+02  1.297040e+01  3.000000e+00 
  261   262   263   304     1  3.600000e+02  1.297040e+01  3.000000e+00  3.600000e+02  1.297040e+01  3.000000e+00 
  301   262   263   264     1  3.600000e+02  1.297040e+01  3.000000e+00  3.600000e+02  1.297040e+01  3.000000e+00 
  301   262   263   304     1  1.800000e+02  1.297040e+01  3.000000e+00  1.800000e+02  1.297040e+01  3.000000e+00 
  261   262   301   300     1  1.800000e+02  1.297040e+01  3.000000e+00  1.800000e+02  1.297040e+01  3.000000e+00 
  261   262   301   302     1  3.600000e+02  1.297040e+01  3.000000e+00  3.600000e+02  1.297040e+01  3.000000e+00 
  263   262   301   300     1  3.600000e+02  1.297040e+01  3.000000e+00  3.600000e+02  1.297040e+01  3.000000e+00 
  263   262   301   302     1  1.800000e+02  1.297040e+01  3.000000e+00  1.800000e+02  1.297040e+01  3.000000e+00 
  262   263   264   223     1  1.800000e+02  1.297040e+01  3.000000e+00  1.800000e+02  1.297040e+01  3.000000e+00 
  262   263   264   265     1  3.600000e+02  1.297040e+01  3.000000e+00  3.600000e+02  1.297040e+01  3.000000e+00 
  304   263   264   223     1  3.600000e+02  1.297040e+01  3.000000e+00  3.600000e+02  1.297040e+01  3.000000e+00 
  304   263   264   265     1  1.800000e+02  1.297040e+01  3.000000e+00  1.800000e+02  1.297040e+01  3.000000e+00 
  262   263   304   303     1  1.800000e+02  1.297040e+01  3.000000e+00  1.800000e+02  1.297040e+01  3.000000e+00 
  262   263   304   305     1  3.600000e+02  1.297040e+01  3.000000e+00  3.600000e+02  1.297040e+01  3.000000e+00 
  264   263   304   303     1  3.600000e+02  1.297040e+01  3.000000e+00  3.600000e+02  1.297040e+01  3.000000e+00 
  264   263   304   305     1  1.800000e+02  1.297040e+01  3.000000e+00  1.800000e+02  1.297040e+01  3.000000e+00 
  223   264   265   226     1  1.800000e+02  1.297040e+01  3.000000e+00  1.800000e+02  1.297040e+01  3.000000e+00 
  223   264   265   266     1  3.600000e+02  1.297040e+01  3.000000e+00  3.600000e+02  1.297040e+01  3.000000e+00 
  263   264   265   226     1  3.600000e+02  1.297040e+01  3.000000e+00  3.600000e+02  1.297040e+01  3.000000e+00 
  263   264   265   266     1  1.800000e+02  1.297040e+01  3.000000e+00  1.800000e+02  1.297040e+01  3.000000e+00 
  226   265   266   267     1  1.800000e+02  1.297040e+01  3.000000e+00  1.800000e+02  1.297040e+01  3.000000e+00 
  226   265   266   305     1  3.600000e+02  1.297040e+01  3.000000e+00  3.600000e+02  1.297040e+01  3.000000e+00 
  264   265   266   267     1  3.600000e+02  1.297040e+01  3.000000e+00  3.600000e+02  1.297040e+01  3.000000e+00 
  264   265   266   305     1  1.800000e+02  1.297040e+01  3.000000e+00  1.800000e+02  1.297040e+01  3.000000e+00 
  265   266   267   268     1  1.800000e+02  1.297040e+01  3.000000e+00  1.800000e+02  1.297040e+01  3.000000e+00 
  265   266   267   308     1  3.600000e+02  1.297040e+01  3.000000e+00  3.600000e+02  1.297040e+01  3.000000e+00 
  305   266   267   268     1  3.600000e+02  1.297040e+01  3.000000e+00  3.600000e+02  1.297040e+01  3.000000e+00 
  305   266   267   308     1  1.800000e+02  1.297040e+01  3.000000e+00  1.800000e+02  1.297040e+01  3.000000e+00 
  265   266   305   304     1  1.800000e+02  1.297040e+01  3.000000e+00  1.800000e+02  1.297040e+01  3.000000e+00 
  265   266   305   306     1  3.600000e+02  1.297040e+01  3.000000e+00  3.600000e+02  1.297040e+01  3.000000e+00 
  267   266   305   304     1  3.600000e+02  1.297040e+01  3.000000e+00  3.600000e+02  1.297040e+01  3.000000e+00 
  267   266   305   306     1  1.800000e+02  1.297040e+01  3.000000e+00  1.800000e+02  1.297040e+01  3.000000e+00 
  266   267   268   227     1  1.800000e+02  1.297040e+01  3.000000e+00  1.800000e+02  1.297040e+01  3.000000e+00 
  266   267   268   269     1  3.600000e+02  1.297040e+01  3.000000e+00  3.600000e+02  1.297040e+01  3.000000e+00 
  308   267   268   227     1  3.600000e+02  1.297040e+01  3.000000e+00  3.600000e+02  1.297040e+01  3.000000e+00 
  308   267   268   269     1  1.800000e+02  1.297040e+01  3.000000e+00  1.800000e+02  1.297040e+01  3.000000e+00 
  266   267   308   307     1  1.800000e+02  1.297040e+01  3.000000e+00  1.800000e+02  1.297040e+01  3.000000e+00 
  266   267   308   309     1  3.600000e+02  1.297040e+01  3.000000e+00  3.600000e+02  1.297040e+01  3.000000e+00 
  268   267   308   307     1  3.600000e+02  1.297040e+01  3.000000e+00  3.600000e+02  1.297040e+01  3.000000e+00 
  268   267   308   309     1  1.800000e+02  1.297040e+01  3.000000e+00  1.800000e+02  1.297040e+01  3.000000e+00 
  227   268   269   230     1  1.800000e+02  1.297040e+01  3.000000e+00  1.800000e+02  1.297040e+01  3.000000e+00 
  227   268   269   270     1  3.600000e+02  1.297040e+01  3.000000e+00  3.600000e+02  1.297040e+01  3.000000e+00 
  267   268   269   230     1  3.600000e+02  1.297040e+01  3.000000e+00  3.600000e+02  1.297040e+01  3.000000e+00 
  267   268   269   270     1  1.800000e+02  1.297040e+01  3.000000e+00  1.800000e+02  1.297040e+01  3.000000e+00 
  230   269   270   271     1  1.800000e+02  1.297040e+01  3.000000e+00  1.800000e+02  1.297040e+01  3.000000e+00 
  230   269   270   309     1  3.600000e+02  1.297040e+01  3.000000e+00  3.600000e+02  1.297040e+01  3.000000e+00 
  268   269   270   271     1  3.600000e+02  1.297040e+01  3.000000e+00  3.600000e+02  1.297040e+01  3.000000e+00 
  268   269   270   309     1  1.800000e+02  1.297040e+01  3.000000e+00  1.800000e+02  1.297040e+01  3.000000e+00 
  269   270   271   272     1  1.800000e+02  1.297040e+01  3.000000e+00  1.800000e+02  1.297040e+01  3.000000e+00 
  269   270   271   312     1  3.600000e+02  1.297040e+01  3.000000e+00  3.600000e+02  1.297040e+01  3.000000e+00 
  309   270   271   272     1  3.600000e+02  1.297040e+01  3.000000e+00  3.600000e+02  1.297040e+01  3.000000e+00 
  309   270   271   312     1  1.800000e+02  1.297040e+01  3.000000e+00  1.800000e+02  1.297040e+01  3.000000e+00 
  269   270   309   308     1  1.800000e+02  1.297040e+01  3.000000e+00  1.800000e+02  1.297040e+01  3.000000e+00 
  269   270   309   310     1  3.600000e+02  1.297040e+01  3.000000e+00  3.600000e+02  1.297040e+01  3.000000e+00 
  271   270   309   308     1  3.600000e+02  1.297040e+01  3.000000e+00  3.600000e+02  1.297040e+01  3.000000e+00 
  271   270   309   310     1  1.800000e+02  1.297040e+01  3.000000e+00  1.800000e+02  1.297040e+01  3.000000e+00 
  270   271   272   231     1  1.800000e+02  1.297040e+01  3.000000e+00  1.800000e+02  1.297040e+01  3.000000e+00 
  270   271   272   273     1  3.600000e+02  1.297040e+01  3.000000e+00  3.600000e+02  1.297040e+01  3.000000e+00 
  312   271   272   231     1  3.600000e+02  1.297040e+01  3.000000e+00  3.600000e+02  1.297040e+01  3.000000e+00 
  312   271   272   273     1  1.800000e+02  1.297040e+01  3.000000e+00  1.800000e+02  1.297040e+01  3.000000e+00 
  270   271   312   311     1  1.800000e+02  1.297040e+01  3.000000e+00  1.800000e+02  1.297040e+01  3.000000e+00 
  270   271   312   313     1  3.600000e+02  1.297040e+01  3.000000e+00  3.600000e+02  1.297040e+01  3.000000e+00 
  272   271   312   311     1  3.600000e+02  1.297040e+01  3.000000e+00  3.600000e+02  1.297040e+01  3.000000e+00 
  272   271   312   313     1  1.800000e+02  1.297040e+01  3.000000e+00  1.800000e+02  1.297040e+01  3.000000e+00 
  231   272   273   234     1  1.800000e+02  1.297040e+01  3.000000e+00  1.800000e+02  1.297040e+01  3.000000e+00 
  231   272   273   274     1  3.600000e+02  1.297040e+01  3.000000e+00  3.600000e+02  1.297040e+01  3.000000e+00 
  271   272   273   234     1  3.600000e+02  1.297040e+01  3.000000e+00  3.600000e+02  1.297040e+01  3.000000e+00 
  271   272   273   274     1  1.800000e+02  1.297040e+01  3.000000e+00  1.800000e+02  1.297040e+01  3.000000e+00 
  234   273   274   275     1  1.800000e+02  1.297040e+01  3.000000e+00  1.800000e+02  1.297040e+01  3.000000e+00 
  234   273   274   313     1  3.600000e+02  1.297040e+01  3.000000e+00  3.600000e+02  1.297040e+01  3.000000e+00 
  272   273   274   275     1  3.600000e+02  1.297040e+01  3.000000e+00  3.600000e+02  1.297040e+01  3.000000e+00 
  272   273   274   313     1  1.800000e+02  1.297040e+01  3.000000e+00  1.800000e+02  1.297040e+01  3.000000e+00 
  273   274   275   276     1  1.800000e+02  1.297040e+01  3.000000e+00  1.800000e+02  1.297040e+01  3.000000e+00 
  273   274   275   316     1  3.600000e+02  1.297040e+01  3.000000e+00  3.600000e+02  1.297040e+01  3.000000e+00 
  313   274   275   276     1  3.600000e+02  1.297040e+01  3.000000e+00  3.600000e+02  1.297040e+01  3.000000e+00 
  313   274   275   316     1  1.800000e+02  1.297040e+01  3.000000e+00  1.800000e+02  1.297040e+01  3.000000e+00 
  273   274   313   312     1  1.800000e+02  1.297040e+01  3.000000e+00  1.800000e+02  1.297040e+01  3.000000e+00 
  273   274   313   314     1  3.600000e+02  1.297040e+01  3.000000e+00  3.600000e+02  1.297040e+01  3.000000e+00 
  275   274   313   312     1  3.600000e+02  1.297040e+01  3.000000e+00  3.600000e+02  1.297040e+01  3.000000e+00 
  275   274   313   314     1  1.800000e+02  1.297040e+01  3.000000e+00  1.800000e+02  1.297040e+01  3.000000e+00 
  274   275   276   235     1  1.800000e+02  1.297040e+01  3.000000e+00  1.800000e+02  1.297040e+01  3.000000e+00 
  274   275   276   277     1  3.600000e+02  1.297040e+01  3.000000e+00  3.600000e+02  1.297040e+01  3.000000e+00 
  316   275   276   235     1  3.600000e+02  1.297040e+01  3.000000e+00  3.600000e+02  1.297040e+01  3.000000e+00 
  316   275   276   277     1  1.800000e+02  1.297040e+01  3.000000e+00  1.800000e+02  1.297040e+01  3.000000e+00 
  274   275   316   315     1  1.800000e+02  1.297040e+01  3.000000e+00  1.800000e+02  1.297040e+01  3.000000e+00 
  274   275   316   317     1  3.600000e+02  1.297040e+01  3.000000e+00  3.600000e+02  1.297040e+01  3.000000e+00 
  276   275   316   315     1  3.600000e+02  1.297040e+01  3.000000e+00  3.600000e+02  1.297040e+01  3.000000e+00 
  276   275   316   317     1  1.800000e+02  1.297040e+01  3.000000e+00  1.800000e+02  1.297040e+01  3.000000e+00 
  235   276   277   238     1  1.800000e+02  1.297040e+01  3.000000e+00  1.800000e+02  1.297040e+01  3.000000e+00 
  235   276   277   278     1  3.600000e+02  1.297040e+01  3.000000e+00  3.600000e+02  1.297040e+01  3.000000e+00 
  275   276   277   238     1  3.600000e+02  1.297040e+01  3.000000e+00  3.600000e+02  1.297040e+01  3.000000e+00 
  275   276   277   278     1  1.800000e+02  1.297040e+01  3.000000e+00  1.800000e+02  1.297040e+01  3.000000e+00 
  238   277   278   279     1  1.800000e+02  1.297040e+01  3.000000e+00  1.800000e+02  1.297040e+01  3.000000e+00 
  238   277   278   317     1  3.600000e+02  1.297040e+01  3.000000e+00  3.600000e+02  1.297040e+01  3.000000e+00 
  276   277   278   279     1  3.600000e+02  1.297040e+01  3.000000e+00  3.600000e+02  1.297040e+01  3.000000e+00 
  276   277   278   317     1  1.800000e+02  1.297040e+01  3.000000e+00  1.800000e+02  1.297040e+01  3.000000e+00 
  277   278   279   280     1  1.800000e+02  1.297040e+01  3.000000e+00  1.800000e+02  1.297040e+01  3.000000e+00 
  277   278   279   320     1  3.600000e+02  1.297040e+01  3.000000e+00  3.600000e+02  1.297040e+01  3.000000e+00 
  317   278   279   280     1  3.600000e+02  1.297040e+01  3.000000e+00  3.600000e+02  1.297040e+01  3.000000e+00 
  317   278   279   320     1  1.800000e+02  1.297040e+01  3.000000e+00  1.800000e+02  1.297040e+01  3.000000e+00 
  277   278   317   316     1  1.800000e+02  1.297040e+01  3.000000e+00  1.800000e+02  1.297040e+01  3.000000e+00 
  277   278   317   318     1  3.600000e+02  1.297040e+01  3.000000e+00  3.600000e+02  1.297040e+01  3.000000e+00 
  279   278   317   316     1  3.600000e+02  1.297040e+01  3.000000e+00  3.600000e+02  1.297040e+01  3.000000e+00 
  279   278   317   318     1  1.800000e+02  1.297040e+01  3.000000e+00  1.800000e+02  1.297040e+01  3.000000e+00 
  278   279   280   239     1  1.800000e+02  1.297040e+01  3.000000e+00  1.800000e+02  1.297040e+01  3.000000e+00 
  278   279   280   241     1  3.600000e+02  1.297040e+01  3.000000e+00  3.600000e+02  1.297040e+01  3.000000e+00 
  320   279   280   239     1  3.600000e+02  1.297040e+01  3.000000e+00  3.600000e+02  1.297040e+01  3.000000e+00 
  320   279   280   241     1  1.800000e+02  1.297040e+01  3.000000e+00  1.800000e+02  1.297040e+01  3.000000e+00 
  278   279   320   281     1  3.600000e+02  1.297040e+01  3.000000e+00  3.600000e+02  1.297040e+01  3.000000e+00 
  278   279   320   319     1  1.800000e+02  1.297040e+01  3.000000e+00  1.800000e+02  1.297040e+01  3.000000e+00 
  280   279   320   281     1  1.800000e+02  1.297040e+01  3.000000e+00  1.800000e+02  1.297040e+01  3.000000e+00 
  280   279   320   319     1  3.600000e+02  1.297040e+01  3.000000e+00  3.600000e+02  1.297040e+01  3.000000e+00 
  242   281   282   283     1  1.800000e+02  1.297040e+01  3.000000e+00  1.800000e+02  1.297040e+01  3.000000e+00 
  242   281   282   321     1  3.600000e+02  1.297040e+01  3.000000e+00  3.600000e+02  1.297040e+01  3.000000e+00 
  320   281   282   283     1  3.600000e+02  1.297040e+01  3.000000e+00  3.600000e+02  1.297040e+01  3.000000e+00 
  320   281   282   321     1  1.800000e+02  1.297040e+01  3.000000e+00  1.800000e+02  1.297040e+01  3.000000e+00 
  242   281   320   279     1  1.800000e+02  1.297040e+01  3.000000e+00  1.800000e+02  1.297040e+01  3.000000e+00 
  242   281   320   319     1  3.600000e+02  1.297040e+01  3.000000e+00  3.600000e+02  1.297040e+01  3.000000e+00 
  282   281   320   279     1  3.600000e+02  1.297040e+01  3.000000e+00  3.600000e+02  1.297040e+01  3.000000e+00 
  282   281   320   319     1  1.800000e+02  1.297040e+01  3.000000e+00  1.800000e+02  1.297040e+01  3.000000e+00 
  281   282   283   284     1  1.800000e+02  1.297040e+01  3.000000e+00  1.800000e+02  1.297040e+01  3.000000e+00 
  281   282   283   324     1  3.600000e+02  1.297040e+01  3.000000e+00  3.600000e+02  1.297040e+01  3.000000e+00 
  321   282   283   284     1  3.600000e+02  1.297040e+01  3.000000e+00  3.600000e+02  1.297040e+01  3.000000e+00 
  321   282   283   324     1  1.800000e+02  1.297040e+01  3.000000e+00  1.800000e+02  1.297040e+01  3.000000e+00 
  281   282   321   322     1  3.600000e+02  1.297040e+01  3.000000e+00  3.600000e+02  1.297040e+01  3.000000e+00 
  281   282   321   360     1  1.800000e+02  1.297040e+01  3.000000e+00  1.800000e+02  1.297040e+01  3.000000e+00 
  283   282   321   322     1  1.800000e+02  1.297040e+01  3.000000e+00  1.800000e+02  1.297040e+01  3.000000e+00 
  283   282   321   360     1  3.600000e+02  1.297040e+01  3.000000e+00  3.600000e+02  1.297040e+01  3.000000e+00 
  282   283   284   243     1  1.800000e+02  1.297040e+01  3.000000e+00  1.800000e+02  1.297040e+01  3.000000e+00 
  282   283   284   285     1  3.600000e+02  1.297040e+01  3.000000e+00  3.600000e+02  1.297040e+01  3.000000e+00 
  324   283   284   243     1  3.600000e+02  1.297040e+01  3.000000e+00  3.600000e+02  1.297040e+01  3.000000e+00 
  324   283   284   285     1  1.800000e+02  1.297040e+01  3.000000e+00  1.800000e+02  1.297040e+01  3.000000e+00 
  282   283   324   323     1  1.800000e+02  1.297040e+01  3.000000e+00  1.800000e+02  1.297040e+01  3.000000e+00 
  282   283   324   325     1  3.600000e+02  1.297040e+01  3.000000e+00  3.600000e+02  1.297040e+01  3.000000e+00 
  284   283   324   323     1  3.600000e+02  1.297040e+01  3.000000e+00  3.600000e+02  1.297040e+01  3.000000e+00 
  284   283   324   325     1  1.800000e+02  1.297040e+01  3.000000e+00  1.800000e+02  1.297040e+01  3.000000e+00 
  243   284   285   246     1  1.800000e+02  1.297040e+01  3.000000e+00  1.800000e+02  1.297040e+01  3.000000e+00 
  243   284   285   286     1  3.600000e+02  1.297040e+01  3.000000e+00  3.600000e+02  1.297040e+01  3.000000e+00 
  283   284   285   246     1  3.600000e+02  1.297040e+01  3.000000e+00  3.600000e+02  1.297040e+01  3.000000e+00 
  283   284   285   286     1  1.800000e+02  1.297040e+01  3.000000e+00  1.800000e+02  1.297040e+01  3.000000e+00 
  246   285   286   287     1  1.800000e+02  1.297040e+01  3.000000e+00  1.800000e+02  1.297040e+01  3.000000e+00 
  246   285   286   325     1  3.600000e+02  1.297040e+01  3.000000e+00  3.600000e+02  1.297040e+01  3.000000e+00 
  284   285   286   287     1  3.600000e+02  1.297040e+01  3.000000e+00  3.600000e+02  1.297040e+01  3.000000e+00 
  284   285   286   325     1  1.800000e+02  1.297040e+01  3.000000e+00  1.800000e+02  1.297040e+01  3.000000e+00 
  285   286   287   288     1  1.800000e+02  1.297040e+01  3.000000e+00  1.800000e+02  1.297040e+01  3.000000e+00 
  285   286   287   328     1  3.600000e+02  1.297040e+01  3.000000e+00  3.600000e+02  1.297040e+01  3.000000e+00 
  325   286   287   288     1  3.600000e+02  1.297040e+01  3.000000e+00  3.600000e+02  1.297040e+01  3.000000e+00 
  325   286   287   328     1  1.800000e+02  1.297040e+01  3.000000e+00  1.800000e+02  1.297040e+01  3.000000e+00 
  285   286   325   324     1  1.800000e+02  1.297040e+01  3.000000e+00  1.800000e+02  1.297040e+01  3.000000e+00 
  285   286   325   326     1  3.600000e+02  1.297040e+01  3.000000e+00  3.600000e+02  1.297040e+01  3.000000e+00 
  287   286   325   324     1  3.600000e+02  1.297040e+01  3.000000e+00  3.600000e+02  1.297040e+01  3.000000e+00 
  287   286   325   326     1  1.800000e+02  1.297040e+01  3.000000e+00  1.800000e+02  1.297040e+01  3.000000e+00 
  286   287   288   247     1  1.800000e+02  1.297040e+01  3.000000e+00  1.800000e+02  1.297040e+01  3.000000e+00 
  286   287   288   289     1  3.600000e+02  1.297040e+01  3.000000e+00  3.600000e+02  1.297040e+01  3.000000e+00 
  328   287   288   247     1  3.600000e+02  1.297040e+01  3.000000e+00  3.600000e+02  1.297040e+01  3.000000e+00 
  328   287   288   289     1  1.800000e+02  1.297040e+01  3.000000e+00  1.800000e+02  1.297040e+01  3.000000e+00 
  286   287   328   327     1  1.800000e+02  1.297040e+01  3.000000e+00  1.800000e+02  1.297040e+01  3.000000e+00 
  286   287   328   329     1  3.600000e+02  1.297040e+01  3.000000e+00  3.600000e+02  1.297040e+01  3.000000e+00 
  288   287   328   327     1  3.600000e+02  1.297040e+01  3.000000e+00  3.600000e+02  1.297040e+01  3.000000e+00 
  288   287   328   329     1  1.800000e+02  1.297040e+01  3.000000e+00  1.800000e+02  1.297040e+01  3.000000e+00 
  247   288   289   250     1  1.800000e+02  1.297040e+01  3.000000e+00  1.800000e+02  1.297040e+01  3.000000e+00 
  247   288   289   290     1  3.600000e+02  1.297040e+01  3.000000e+00  3.600000e+02  1.297040e+01  3.000000e+00 
  287   288   289   250     1  3.600000e+02  1.297040e+01  3.000000e+00  3.600000e+02  1.297040e+01  3.000000e+00 
  287   288   289   290     1  1.800000e+02  1.297040e+01  3.000000e+00  1.800000e+02  1.297040e+01  3.000000e+00 
  250   289   290   291     1  1.800000e+02  1.297040e+01  3.000000e+00  1.800000e+02  1.297040e+01  3.000000e+00 
  250   289   290   329     1  3.600000e+02  1.297040e+01  3.000000e+00  3.600000e+02  1.297040e+01  3.000000e+00 
  288   289   290   291     1  3.600000e+02  1.297040e+01  3.000000e+00  3.600000e+02  1.297040e+01  3.000000e+00 
  288   289   290   329     1  1.800000e+02  1.297040e+01  3.000000e+00  1.800000e+02  1.297040e+01  3.000000e+00 
  289   290   291   292     1  1.800000e+02  1.297040e+01  3.000000e+00  1.800000e+02  1.297040e+01  3.000000e+00 
  289   290   291   332     1  3.600000e+02  1.297040e+01  3.000000e+00  3.600000e+02  1.297040e+01  3.000000e+00 
  329   290   291   292     1  3.600000e+02  1.297040e+01  3.000000e+00  3.600000e+02  1.297040e+01  3.000000e+00 
  329   290   291   332     1  1.800000e+02  1.297040e+01  3.000000e+00  1.800000e+02  1.297040e+01  3.000000e+00 
  289   290   329   328     1  1.800000e+02  1.297040e+01  3.000000e+00  1.800000e+02  1.297040e+01  3.000000e+00 
  289   290   329   330     1  3.600000e+02  1.297040e+01  3.000000e+00  3.600000e+02  1.297040e+01  3.000000e+00 
  291   290   329   328     1  3.600000e+02  1.297040e+01  3.000000e+00  3.600000e+02  1.297040e+01  3.000000e+00 
  291   290   329   330     1  1.800000e+02  1.297040e+01  3.000000e+00  1.800000e+02  1.297040e+01  3.000000e+00 
  290   291   292   251     1  1.800000e+02  1.297040e+01  3.000000e+00  1.800000e+02  1.297040e+01  3.000000e+00 
  290   291   292   293     1  3.600000e+02  1.297040e+01  3.000000e+00  3.600000e+02  1.297040e+01  3.000000e+00 
  332   291   292   251     1  3.600000e+02  1.297040e+01  3.000000e+00  3.600000e+02  1.297040e+01  3.000000e+00 
  332   291   292   293     1  1.800000e+02  1.297040e+01  3.000000e+00  1.800000e+02  1.297040e+01  3.000000e+00 
  290   291   332   331     1  1.800000e+02  1.297040e+01  3.000000e+00  1.800000e+02  1.297040e+01  3.000000e+00 
  290   291   332   333     1  3.600000e+02  1.297040e+01  3.000000e+00  3.600000e+02  1.297040e+01  3.000000e+00 
  292   291   332   331     1  3.600000e+02  1.297040e+01  3.000000e+00  3.600000e+02  1.297040e+01  3.000000e+00 
  292   291   332   333     1  1.800000e+02  1.297040e+01  3.000000e+00  1.800000e+02  1.297040e+01  3.000000e+00 
  251   292   293   254     1  1.800000e+02  1.297040e+01  3.000000e+00  1.800000e+02  1.297040e+01  3.000000e+00 
  251   292   293   294     1  3.600000e+02  1.297040e+01  3.000000e+00  3.600000e+02  1.297040e+01  3.000000e+00 
  291   292   293   254     1  3.600000e+02  1.297040e+01  3.000000e+00  3.600000e+02  1.297040e+01  3.000000e+00 
  291   292   293   294     1  1.800000e+02  1.297040e+01  3.000000e+00  1.800000e+02  1.297040e+01  3.000000e+00 
  254   293   294   295     1  1.800000e+02  1.297040e+01  3.000000e+00  1.800000e+02  1.297040e+01  3.000000e+00 
  254   293   294   333     1  3.600000e+02  1.297040e+01  3.000000e+00  3.600000e+02  1.297040e+01  3.000000e+00 
  292   293   294   295     1  3.600000e+02  1.297040e+01  3.000000e+00  3.600000e+02  1.297040e+01  3.000000e+00 
  292   293   294   333     1  1.800000e+02  1.297040e+01  3.000000e+00  1.800000e+02  1.297040e+01  3.000000e+00 
  293   294   295   296     1  1.800000e+02  1.297040e+01  3.000000e+00  1.800000e+02  1.297040e+01  3.000000e+00 
  293   294   295   336     1  3.600000e+02  1.297040e+01  3.000000e+00  3.600000e+02  1.297040e+01  3.000000e+00 
  333   294   295   296     1  3.600000e+02  1.297040e+01  3.000000e+00  3.600000e+02  1.297040e+01  3.000000e+00 
  333   294   295   336     1  1.800000e+02  1.297040e+01  3.000000e+00  1.800000e+02  1.297040e+01  3.000000e+00 
  293   294   333   332     1  1.800000e+02  1.297040e+01  3.000000e+00  1.800000e+02  1.297040e+01  3.000000e+00 
  293   294   333   334     1  3.600000e+02  1.297040e+01  3.000000e+00  3.600000e+02  1.297040e+01  3.000000e+00 
  295   294   333   332     1  3.600000e+02  1.297040e+01  3.000000e+00  3.600000e+02  1.297040e+01  3.000000e+00 
  295   294   333   334     1  1.800000e+02  1.297040e+01  3.000000e+00  1.800000e+02  1.297040e+01  3.000000e+00 
  294   295   296   255     1  1.800000e+02  1.297040e+01  3.000000e+00  1.800000e+02  1.297040e+01  3.000000e+00 
  294   295   296   297     1  3.600000e+02  1.297040e+01  3.000000e+00  3.600000e+02  1.297040e+01  3.000000e+00 
  336   295   296   255     1  3.600000e+02  1.297040e+01  3.000000e+00  3.600000e+02  1.297040e+01  3.000000e+00 
  336   295   296   297     1  1.800000e+02  1.297040e+01  3.000000e+00  1.800000e+02  1.297040e+01  3.000000e+00 
  294   295   336   335     1  1.800000e+02  1.297040e+01  3.000000e+00  1.800000e+02  1.297040e+01  3.000000e+00 
  294   295   336   337     1  3.600000e+02  1.297040e+01  3.000000e+00  3.600000e+02  1.297040e+01  3.000000e+00 
  296   295   336   335     1  3.600000e+02  1.297040e+01  3.000000e+00  3.600000e+02  1.297040e+01  3.000000e+00 
  296   295   336   337     1  1.800000e+02  1.297040e+01  3.000000e+00  1.800000e+02  1.297040e+01  3.000000e+00 
  255   296   297   258     1  1.800000e+02  1.297040e+01  3.000000e+00  1.800000e+02  1.297040e+01  3.000000e+00 
  255   296   297   298     1  3.600000e+02  1.297040e+01  3.000000e+00  3.600000e+02  1.297040e+01  3.000000e+00 
  295   296   297   258     1  3.600000e+02  1.297040e+01  3.000000e+00  3.600000e+02  1.297040e+01  3.000000e+00 
  295   296   297   298     1  1.800000e+02  1.297040e+01  3.000000e+00  1.800000e+02  1.297040e+01  3.000000e+00 
  258   297   298   299     1  1.800000e+02  1.297040e+01  3.000000e+00  1.800000e+02  1.297040e+01  3.000000e+00 
  258   297   298   337     1  3.600000e+02  1.297040e+01  3.000000e+00  3.600000e+02  1.297040e+01  3.000000e+00 
  296   297   298   299     1  3.600000e+02  1.297040e+01  3.000000e+00  3.600000e+02  1.297040e+01  3.000000e+00 
  296   297   298   337     1  1.800000e+02  1.297040e+01  3.000000e+00  1.800000e+02  1.297040e+01  3.000000e+00 
  297   298   299   300     1  1.800000e+02  1.297040e+01  3.000000e+00  1.800000e+02  1.297040e+01  3.000000e+00 
  297   298   299   340     1  3.600000e+02  1.297040e+01  3.000000e+00  3.600000e+02  1.297040e+01  3.000000e+00 
  337   298   299   300     1  3.600000e+02  1.297040e+01  3.000000e+00  3.600000e+02  1.297040e+01  3.000000e+00 
  337   298   299   340     1  1.800000e+02  1.297040e+01  3.000000e+00  1.800000e+02  1.297040e+01  3.000000e+00 
  297   298   337   336     1  1.800000e+02  1.297040e+01  3.000000e+00  1.800000e+02  1.297040e+01  3.000000e+00 
  297   298   337   338     1  3.600000e+02  1.297040e+01  3.000000e+00  3.600000e+02  1.297040e+01  3.000000e+00 
  299   298   337   336     1  3.600000e+02  1.297040e+01  3.000000e+00  3.600000e+02  1.297040e+01  3.000000e+00 
  299   298   337   338     1  1.800000e+02  1.297040e+01  3.000000e+00  1.800000e+02  1.297040e+01  3.000000e+00 
  298   299   300   259     1  1.800000e+02  1.297040e+01  3.000000e+00  1.800000e+02  1.297040e+01  3.000000e+00 
  298   299   300   301     1  3.600000e+02  1.297040e+01  3.000000e+00  3.600000e+02  1.297040e+01  3.000000e+00 
  340   299   300   259     1  3.600000e+02  1.297040e+01  3.000000e+00  3.600000e+02  1.297040e+01  3.000000e+00 
  340   299   300   301     1  1.800000e+02  1.297040e+01  3.000000e+00  1.800000e+02  1.297040e+01  3.000000e+00 
  298   299   340   339     1  1.800000e+02  1.297040e+01  3.000000e+00  1.800000e+02  1.297040e+01  3.000000e+00 
  298   299   340   341     1  3.600000e+02  1.297040e+01  3.000000e+00  3.600000e+02  1.297040e+01  3.000000e+00 
  300   299   340   339     1  3.600000e+02  1.297040e+01  3.000000e+00  3.600000e+02  1.297040e+01  3.000000e+00 
  300   299   340   341     1  1.800000e+02  1.297040e+01  3.000000e+00  1.800000e+02  1.297040e+01  3.000000e+00 
  259   300   301   262     1  1.800000e+02  1.297040e+01  3.000000e+00  1.800000e+02  1.297040e+01  3.000000e+00 
  259   300   301   302     1  3.600000e+02  1.297040e+01  3.000000e+00  3.600000e+02  1.297040e+01  3.000000e+00 
  299   300   301   262     1  3.600000e+02  1.297040e+01  3.000000e+00  3.600000e+02  1.297040e+01  3.000000e+00 
  299   300   301   302     1  1.800000e+02  1.297040e+01  3.000000e+00  1.800000e+02  1.297040e+01  3.000000e+00 
  262   301   302   303     1  1.800000e+02  1.297040e+01  3.000000e+00  1.800000e+02  1.297040e+01  3.000000e+00 
  262   301   302   341     1  3.600000e+02  1.297040e+01  3.000000e+00  3.600000e+02  1.297040e+01  3.000000e+00 
  300   301   302   303     1  3.600000e+02  1.297040e+01  3.000000e+00  3.600000e+02  1.297040e+01  3.000000e+00 
  300   301   302   341     1  1.800000e+02  1.297040e+01  3.000000e+00  1.800000e+02  1.297040e+01  3.000000e+00 
  301   302   303   304     1  1.800000e+02  1.297040e+01  3.000000e+00  1.800000e+02  1.297040e+01  3.000000e+00 
  301   302   303   344     1  3.600000e+02  1.297040e+01  3.000000e+00  3.600000e+02  1.297040e+01  3.000000e+00 
  341   302   303   304     1  3.600000e+02  1.297040e+01  3.000000e+00  3.600000e+02  1.297040e+01  3.000000e+00 
  341   302   303   344     1  1.800000e+02  1.297040e+01  3.000000e+00  1.800000e+02  1.297040e+01  3.000000e+00 
  301   302   341   340     1  1.800000e+02  1.297040e+01  3.000000e+00  1.800000e+02  1.297040e+01  3.000000e+00 
  301   302   341   342     1  3.600000e+02  1.297040e+01  3.000000e+00  3.600000e+02  1.297040e+01  3.000000e+00 
  303   302   341   340     1  3.600000e+02  1.297040e+01  3.000000e+00  3.600000e+02  1.297040e+01  3.000000e+00 
  303   302   341   342     1  1.800000e+02  1.297040e+01  3.000000e+00  1.800000e+02  1.297040e+01  3.000000e+00 
  302   303   304   263     1  1.800000e+02  1.297040e+01  3.000000e+00  1.800000e+02  1.297040e+01  3.000000e+00 
  302   303   304   305     1  3.600000e+02  1.297040e+01  3.000000e+00  3.600000e+02  1.297040e+01  3.000000e+00 
  344   303   304   263     1  3.600000e+02  1.297040e+01  3.000000e+00  3.600000e+02  1.297040e+01  3.000000e+00 
  344   303   304   305     1  1.800000e+02  1.297040e+01  3.000000e+00  1.800000e+02  1.297040e+01  3.000000e+00 
  302   303   344   343     1  1.800000e+02  1.297040e+01  3.000000e+00  1.800000e+02  1.297040e+01  3.000000e+00 
  302   303   344   345     1  3.600000e+02  1.297040e+01  3.000000e+00  3.600000e+02  1.297040e+01  3.000000e+00 
  304   303   344   343     1  3.600000e+02  1.297040e+01  3.000000e+00  3.600000e+02  1.297040e+01  3.000000e+00 
  304   303   344   345     1  1.800000e+02  1.297040e+01  3.000000e+00  1.800000e+02  1.297040e+01  3.000000e+00 
  263   304   305   266     1  1.800000e+02  1.297040e+01  3.000000e+00  1.800000e+02  1.297040e+01  3.000000e+00 
  263   304   305   306     1  3.600000e+02  1.297040e+01  3.000000e+00  3.600000e+02  1.297040e+01  3.000000e+00 
  303   304   305   266     1  3.600000e+02  1.297040e+01  3.000000e+00  3.600000e+02  1.297040e+01  3.000000e+00 
  303   304   305   306     1  1.800000e+02  1.297040e+01  3.000000e+00  1.800000e+02  1.297040e+01  3.000000e+00 
  266   305   306   307     1  1.800000e+02  1.297040e+01  3.000000e+00  1.800000e+02  1.297040e+01  3.000000e+00 
  266   305   306   345     1  3.600000e+02  1.297040e+01  3.000000e+00  3.600000e+02  1.297040e+01  3.000000e+00 
  304   305   306   307     1  3.600000e+02  1.297040e+01  3.000000e+00  3.600000e+02  1.297040e+01  3.000000e+00 
  304   305   306   345     1  1.800000e+02  1.297040e+01  3.000000e+00  1.800000e+02  1.297040e+01  3.000000e+00 
  305   306   307   308     1  1.800000e+02  1.297040e+01  3.000000e+00  1.800000e+02  1.297040e+01  3.000000e+00 
  305   306   307   348     1  3.600000e+02  1.297040e+01  3.000000e+00  3.600000e+02  1.297040e+01  3.000000e+00 
  345   306   307   308     1  3.600000e+02  1.297040e+01  3.000000e+00  3.600000e+02  1.297040e+01  3.000000e+00 
  345   306   307   348     1  1.800000e+02  1.297040e+01  3.000000e+00  1.800000e+02  1.297040e+01  3.000000e+00 
  305   306   345   344     1  1.800000e+02  1.297040e+01  3.000000e+00  1.800000e+02  1.297040e+01  3.000000e+00 
  305   306   345   346     1  3.600000e+02  1.297040e+01  3.000000e+00  3.600000e+02  1.297040e+01  3.000000e+00 
  307   306   345   344     1  3.600000e+02  1.297040e+01  3.000000e+00  3.600000e+02  1.297040e+01  3.000000e+00 
  307   306   345   346     1  1.800000e+02  1.297040e+01  3.000000e+00  1.800000e+02  1.297040e+01  3.000000e+00 
  306   307   308   267     1  1.800000e+02  1.297040e+01  3.000000e+00  1.800000e+02  1.297040e+01  3.000000e+00 
  306   307   308   309     1  3.600000e+02  1.297040e+01  3.000000e+00  3.600000e+02  1.297040e+01  3.000000e+00 
  348   307   308   267     1  3.600000e+02  1.297040e+01  3.000000e+00  3.600000e+02  1.297040e+01  3.000000e+00 
  348   307   308   309     1  1.800000e+02  1.297040e+01  3.000000e+00  1.800000e+02  1.297040e+01  3.000000e+00 
  306   307   348   347     1  1.800000e+02  1.297040e+01  3.000000e+00  1.800000e+02  1.297040e+01  3.000000e+00 
  306   307   348   349     1  3.600000e+02  1.297040e+01  3.000000e+00  3.600000e+02  1.297040e+01  3.000000e+00 
  308   307   348   347     1  3.600000e+02  1.297040e+01  3.000000e+00  3.600000e+02  1.297040e+01  3.000000e+00 
  308   307   348   349     1  1.800000e+02  1.297040e+01  3.000000e+00  1.800000e+02  1.297040e+01  3.000000e+00 
  267   308   309   270     1  1.800000e+02  1.297040e+01  3.000000e+00  1.800000e+02  1.297040e+01  3.000000e+00 
  267   308   309   310     1  3.600000e+02  1.297040e+01  3.000000e+00  3.600000e+02  1.297040e+01  3.000000e+00 
  307   308   309   270     1  3.600000e+02  1.297040e+01  3.000000e+00  3.600000e+02  1.297040e+01  3.000000e+00 
  307   308   309   310     1  1.800000e+02  1.297040e+01  3.000000e+00  1.800000e+02  1.297040e+01  3.000000e+00 
  270   309   310   311     1  1.800000e+02  1.297040e+01  3.000000e+00  1.800000e+02  1.297040e+01  3.000000e+00 
  270   309   310   349     1  3.600000e+02  1.297040e+01  3.000000e+00  3.600000e+02  1.297040e+01  3.000000e+00 
  308   309   310   311     1  3.600000e+02  1.297040e+01  3.000000e+00  3.600000e+02  1.297040e+01  3.000000e+00 
  308   309   310   349     1  1.800000e+02  1.297040e+01  3.000000e+00  1.800000e+02  1.297040e+01  3.000000e+00 
  309   310   311   312     1  1.800000e+02  1.297040e+01  3.000000e+00  1.800000e+02  1.297040e+01  3.000000e+00 
  309   310   311   352     1  3.600000e+02  1.297040e+01  3.000000e+00  3.600000e+02  1.297040e+01  3.000000e+00 
  349   310   311   312     1  3.600000e+02  1.297040e+01  3.000000e+00  3.600000e+02  1.297040e+01  3.000000e+00 
  349   310   311   352     1  1.800000e+02  1.297040e+01  3.000000e+00  1.800000e+02  1.297040e+01  3.000000e+00 
  309   310   349   348     1  1.800000e+02  1.297040e+01  3.000000e+00  1.800000e+02  1.297040e+01  3.000000e+00 
  309   310   349   350     1  3.600000e+02  1.297040e+01  3.000000e+00  3.600000e+02  1.297040e+01  3.000000e+00 
  311   310   349   348     1  3.600000e+02  1.297040e+01  3.000000e+00  3.600000e+02  1.297040e+01  3.000000e+00 
  311   310   349   350     1  1.800000e+02  1.297040e+01  3.000000e+00  1.800000e+02  1.297040e+01  3.000000e+00 
  310   311   312   271     1  1.800000e+02  1.297040e+01  3.000000e+00  1.800000e+02  1.297040e+01  3.000000e+00 
  310   311   312   313     1  3.600000e+02  1.297040e+01  3.000000e+00  3.600000e+02  1.297040e+01  3.000000e+00 
  352   311   312   271     1  3.600000e+02  1.297040e+01  3.000000e+00  3.600000e+02  1.297040e+01  3.000000e+00 
  352   311   312   313     1  1.800000e+02  1.297040e+01  3.000000e+00  1.800000e+02  1.297040e+01  3.000000e+00 
  310   311   352   351     1  1.800000e+02  1.297040e+01  3.000000e+00  1.800000e+02  1.297040e+01  3.000000e+00 
  310   311   352   353     1  3.600000e+02  1.297040e+01  3.000000e+00  3.600000e+02  1.297040e+01  3.000000e+00 
  312   311   352   351     1  3.600000e+02  1.297040e+01  3.000000e+00  3.600000e+02  1.297040e+01  3.000000e+00 
  312   311   352   353     1  1.800000e+02  1.297040e+01  3.000000e+00  1.800000e+02  1.297040e+01  3.000000e+00 
  271   312   313   274     1  1.800000e+02  1.297040e+01  3.000000e+00  1.800000e+02  1.297040e+01  3.000000e+00 
  271   312   313   314     1  3.600000e+02  1.297040e+01  3.000000e+00  3.600000e+02  1.297040e+01  3.000000e+00 
  311   312   313   274     1  3.600000e+02  1.297040e+01  3.000000e+00  3.600000e+02  1.297040e+01  3.000000e+00 
  311   312   313   314     1  1.800000e+02  1.297040e+01  3.000000e+00  1.800000e+02  1.297040e+01  3.000000e+00 
  274   313   314   315     1  1.800000e+02  1.297040e+01  3.000000e+00  1.800000e+02  1.297040e+01  3.000000e+00 
  274   313   314   353     1  3.600000e+02  1.297040e+01  3.000000e+00  3.600000e+02  1.297040e+01  3.000000e+00 
  312   313   314   315     1  3.600000e+02  1.297040e+01  3.000000e+00  3.600000e+02  1.297040e+01  3.000000e+00 
  312   313   314   353     1  1.800000e+02  1.297040e+01  3.000000e+00  1.800000e+02  1.297040e+01  3.000000e+00 
  313   314   315   316     1  1.800000e+02  1.297040e+01  3.000000e+00  1.800000e+02  1.297040e+01  3.000000e+00 
  313   314   315   356     1  3.600000e+02  1.297040e+01  3.000000e+00  3.600000e+02  1.297040e+01  3.000000e+00 
  353   314   315   316     1  3.600000e+02  1.297040e+01  3.000000e+00  3.600000e+02  1.297040e+01  3.000000e+00 
  353   314   315   356     1  1.800000e+02  1.297040e+01  3.000000e+00  1.800000e+02  1.297040e+01  3.000000e+00 
  313   314   353   352     1  1.800000e+02  1.297040e+01  3.000000e+00  1.800000e+02  1.297040e+01  3.000000e+00 
  313   314   353   354     1  3.600000e+02  1.297040e+01  3.000000e+00  3.600000e+02  1.297040e+01  3.000000e+00 
  315   314   353   352     1  3.600000e+02  1.297040e+01  3.000000e+00  3.600000e+02  1.297040e+01  3.000000e+00 
  315   314   353   354     1  1.800000e+02  1.297040e+01  3.000000e+00  1.800000e+02  1.297040e+01  3.000000e+00 
  314   315   316   275     1  1.800000e+02  1.297040e+01  3.000000e+00  1.800000e+02  1.297040e+01  3.000000e+00 
  314   315   316   317     1  3.600000e+02  1.297040e+01  3.000000e+00  3.600000e+02  1.297040e+01  3.000000e+00 
  356   315   316   275     1  3.600000e+02  1.297040e+01  3.000000e+00  3.600000e+02  1.297040e+01  3.000000e+00 
  356   315   316   317     1  1.800000e+02  1.297040e+01  3.000000e+00  1.800000e+02  1.297040e+01  3.000000e+00 
  314   315   356   355     1  1.800000e+02  1.297040e+01  3.000000e+00  1.800000e+02  1.297040e+01  3.000000e+00 
  314   315   356   357     1  3.600000e+02  1.297040e+01  3.000000e+00  3.600000e+02  1.297040e+01  3.000000e+00 
  316   315   356   355     1  3.600000e+02  1.297040e+01  3.000000e+00  3.600000e+02  1.297040e+01  3.000000e+00 
  316   315   356   357     1  1.800000e+02  1.297040e+01  3.000000e+00  1.800000e+02  1.297040e+01  3.000000e+00 
  275   316   317   278     1  1.800000e+02  1.297040e+01  3.000000e+00  1.800000e+02  1.297040e+01  3.000000e+00 
  275   316   317   318     1  3.600000e+02  1.297040e+01  3.000000e+00  3.600000e+02  1.297040e+01  3.000000e+00 
  315   316   317   278     1  3.600000e+02  1.297040e+01  3.000000e+00  3.600000e+02  1.297040e+01  3.000000e+00 
  315   316   317   318     1  1.800000e+02  1.297040e+01  3.000000e+00  1.800000e+02  1.297040e+01  3.000000e+00 
  278   317   318   319     1  1.800000e+02  1.297040e+01  3.000000e+00  1.800000e+02  1.297040e+01  3.000000e+00 
  278   317   318   357     1  3.600000e+02  1.297040e+01  3.000000e+00  3.600000e+02  1.297040e+01  3.000000e+00 
  316   317   318   319     1  3.600000e+02  1.297040e+01  3.000000e+00  3.600000e+02  1.297040e+01  3.000000e+00 
  316   317   318   357     1  1.800000e+02  1.297040e+01  3.000000e+00  1.800000e+02  1.297040e+01  3.000000e+00 
  317   318   319   320     1  1.800000e+02  1.297040e+01  3.000000e+00  1.800000e+02  1.297040e+01  3.000000e+00 
  317   318   319   360     1  3.600000e+02  1.297040e+01  3.000000e+00  3.600000e+02  1.297040e+01  3.000000e+00 
  357   318   319   320     1  3.600000e+02  1.297040e+01  3.000000e+00  3.600000e+02  1.297040e+01  3.000000e+00 
  357   318   319   360     1  1.800000e+02  1.297040e+01  3.000000e+00  1.800000e+02  1.297040e+01  3.000000e+00 
  317   318   357   356     1  1.800000e+02  1.297040e+01  3.000000e+00  1.800000e+02  1.297040e+01  3.000000e+00 
  317   318   357   358     1  3.600000e+02  1.297040e+01  3.000000e+00  3.600000e+02  1.297040e+01  3.000000e+00 
  319   318   357   356     1  3.600000e+02  1.297040e+01  3.000000e+00  3.600000e+02  1.297040e+01  3.000000e+00 
  319   318   357   358     1  1.800000e+02  1.297040e+01  3.000000e+00  1.800000e+02  1.297040e+01  3.000000e+00 
  318   319   320   279     1  1.800000e+02  1.297040e+01  3.000000e+00  1.800000e+02  1.297040e+01  3.000000e+00 
  318   319   320   281     1  3.600000e+02  1.297040e+01  3.000000e+00  3.600000e+02  1.297040e+01  3.000000e+00 
  360   319   320   279     1  3.600000e+02  1.297040e+01  3.000000e+00  3.600000e+02  1.297040e+01  3.000000e+00 
  360   319   320   281     1  1.800000e+02  1.297040e+01  3.000000e+00  1.800000e+02  1.297040e+01  3.000000e+00 
  318   319   360   321     1  3.600000e+02  1.297040e+01  3.000000e+00  3.600000e+02  1.297040e+01  3.000000e+00 
  318   319   360   359     1  1.800000e+02  1.297040e+01  3.000000e+00  1.800000e+02  1.297040e+01  3.000000e+00 
  320   319   360   321     1  1.800000e+02  1.297040e+01  3.000000e+00  1.800000e+02  1.297040e+01  3.000000e+00 
  320   319   360   359     1  3.600000e+02  1.297040e+01  3.000000e+00  3.600000e+02  1.297040e+01  3.000000e+00 
  282   321   322   323     1  1.800000e+02  1.297040e+01  3.000000e+00  1.800000e+02  1.297040e+01  3.000000e+00 
  282   321   322   361     1  3.600000e+02  1.297040e+01  3.000000e+00  3.600000e+02  1.297040e+01  3.000000e+00 
  360   321   322   323     1  3.600000e+02  1.297040e+01  3.000000e+00  3.600000e+02  1.297040e+01  3.000000e+00 
  360   321   322   361     1  1.800000e+02  1.297040e+01  3.000000e+00  1.800000e+02  1.297040e+01  3.000000e+00 
  282   321   360   319     1  1.800000e+02  1.297040e+01  3.000000e+00  1.800000e+02  1.297040e+01  3.000000e+00 
  282   321   360   359     1  3.600000e+02  1.297040e+01  3.000000e+00  3.600000e+02  1.297040e+01  3.000000e+00 
  322   321   360   319     1  3.600000e+02  1.297040e+01  3.000000e+00  3.600000e+02  1.297040e+01  3.000000e+00 
  322   321   360   359     1  1.800000e+02  1.297040e+01  3.000000e+00  1.800000e+02  1.297040e+01  3.000000e+00 
  321   322   323   324     1  1.800000e+02  1.297040e+01  3.000000e+00  1.800000e+02  1.297040e+01  3.000000e+00 
  321   322   323   364     1  3.600000e+02  1.297040e+01  3.000000e+00  3.600000e+02  1.297040e+01  3.000000e+00 
  361   322   323   324     1  3.600000e+02  1.297040e+01  3.000000e+00  3.600000e+02  1.297040e+01  3.000000e+00 
  361   322   323   364     1  1.800000e+02  1.297040e+01  3.000000e+00  1.800000e+02  1.297040e+01  3.000000e+00 
  321   322   361   362     1  3.600000e+02  1.297040e+01  3.000000e+00  3.600000e+02  1.297040e+01  3.000000e+00 
  321   322   361   400     1  1.800000e+02  1.297040e+01  3.000000e+00  1.800000e+02  1.297040e+01  3.000000e+00 
  323   322   361   362     1  1.800000e+02  1.297040e+01  3.000000e+00  1.800000e+02  1.297040e+01  3.000000e+00 
  323   322   361   400     1  3.600000e+02  1.297040e+01  3.000000e+00  3.600000e+02  1.297040e+01  3.000000e+00 
  322   323   324   283     1  1.800000e+02  1.297040e+01  3.000000e+00  1.800000e+02  1.297040e+01  3.000000e+00 
  322   323   324   325     1  3.600000e+02  1.297040e+01  3.000000e+00  3.600000e+02  1.297040e+01  3.000000e+00 
  364   323   324   283     1  3.600000e+02  1.297040e+01  3.000000e+00  3.600000e+02  1.297040e+01  3.000000e+00 
  364   323   324   325     1  1.800000e+02  1.297040e+01  3.000000e+00  1.800000e+02  1.297040e+01  3.000000e+00 
  322   323   364   363     1  1.800000e+02  1.297040e+01  3.000000e+00  1.800000e+02  1.297040e+01  3.000000e+00 
  322   323   364   365     1  3.600000e+02  1.297040e+01  3.000000e+00  3.600000e+02  1.297040e+01  3.000000e+00 
  324   323   364   363     1  3.600000e+02  1.297040e+01  3.000000e+00  3.600000e+02  1.297040e+01  3.000000e+00 
  324   323   364   365     1  1.800000e+02  1.297040e+01  3.000000e+00  1.800000e+02  1.297040e+01  3.000000e+00 
  283   324   325   286     1  1.800000e+02  1.297040e+01  3.000000e+00  1.800000e+02  1.297040e+01  3.000000e+00 
  283   324   325   326     1  3.600000e+02  1.297040e+01  3.000000e+00  3.600000e+02  1.297040e+01  3.000000e+00 
  323   324   325   286     1  3.600000e+02  1.297040e+01  3.000000e+00  3.600000e+02  1.297040e+01  3.000000e+00 
  323   324   325   326     1  1.800000e+02  1.297040e+01  3.000000e+00  1.800000e+02  1.297040e+01  3.000000e+00 
  286   325   326   327     1  1.800000e+02  1.297040e+01  3.000000e+00  1.800000e+02  1.297040e+01  3.000000e+00 
  286   325   326   365     1  3.600000e+02  1.297040e+01  3.000000e+00  3.600000e+02  1.297040e+01  3.000000e+00 
  324   325   326   327     1  3.600000e+02  1.297040e+01  3.000000e+00  3.600000e+02  1.297040e+01  3.000000e+00 
  324   325   326   365     1  1.800000e+02  1.297040e+01  3.000000e+00  1.800000e+02  1.297040e+01  3.000000e+00 
  325   326   327   328     1  1.800000e+02  1.297040e+01  3.000000e+00  1.800000e+02  1.297040e+01  3.000000e+00 
  325   326   327   368     1  3.600000e+02  1.297040e+01  3.000000e+00  3.600000e+02  1.297040e+01  3.000000e+00 
  365   326   327   328     1  3.600000e+02  1.297040e+01  3.000000e+00  3.600000e+02  1.297040e+01  3.000000e+00 
  365   326   327   368     1  1.800000e+02  1.297040e+01  3.000000e+00  1.800000e+02  1.297040e+01  3.000000e+00 
  325   326   365   364     1  1.800000e+02  1.297040e+01  3.000000e+00  1.800000e+02  1.297040e+01  3.000000e+00 
  325   326   365   366     1  3.600000e+02  1.297040e+01  3.000000e+00  3.600000e+02  1.297040e+01  3.000000e+00 
  327   326   365   364     1  3.600000e+02  1.297040e+01  3.000000e+00  3.600000e+02  1.297040e+01  3.000000e+00 
  327   326   365   366     1  1.800000e+02  1.297040e+01  3.000000e+00  1.800000e+02  1.297040e+01  3.000000e+00 
  326   327   328   287     1  1.800000e+02  1.297040e+01  3.000000e+00  1.800000e+02  1.297040e+01  3.000000e+00 
  326   327   328   329     1  3.600000e+02  1.297040e+01  3.000000e+00  3.600000e+02  1.297040e+01  3.000000e+00 
  368   327   328   287     1  3.600000e+02  1.297040e+01  3.000000e+00  3.600000e+02  1.297040e+01  3.000000e+00 
  368   327   328   329     1  1.800000e+02  1.297040e+01  3.000000e+00  1.800000e+02  1.297040e+01  3.000000e+00 
  326   327   368   367     1  1.800000e+02  1.297040e+01  3.000000e+00  1.800000e+02  1.297040e+01  3.000000e+00 
  326   327   368   369     1  3.600000e+02  1.297040e+01  3.000000e+00  3.600000e+02  1.297040e+01  3.000000e+00 
  328   327   368   367     1  3.600000e+02  1.297040e+01  3.000000e+00  3.600000e+02  1.297040e+01  3.000000e+00 
  328   327   368   369     1  1.800000e+02  1.297040e+01  3.000000e+00  1.800000e+02  1.297040e+01  3.000000e+00 
  287   328   329   290     1  1.800000e+02  1.297040e+01  3.000000e+00  1.800000e+02  1.297040e+01  3.000000e+00 
  287   328   329   330     1  3.600000e+02  1.297040e+01  3.000000e+00  3.600000e+02  1.297040e+01  3.000000e+00 
  327   328   329   290     1  3.600000e+02  1.297040e+01  3.000000e+00  3.600000e+02  1.297040e+01  3.000000e+00 
  327   328   329   330     1  1.800000e+02  1.297040e+01  3.000000e+00  1.800000e+02  1.297040e+01  3.000000e+00 
  290   329   330   331     1  1.800000e+02  1.297040e+01  3.000000e+00  1.800000e+02  1.297040e+01  3.000000e+00 
  290   329   330   369     1  3.600000e+02  1.297040e+01  3.000000e+00  3.600000e+02  1.297040e+01  3.000000e+00 
  328   329   330   331     1  3.600000e+02  1.297040e+01  3.000000e+00  3.600000e+02  1.297040e+01  3.000000e+00 
  328   329   330   369     1  1.800000e+02  1.297040e+01  3.000000e+00  1.800000e+02  1.297040e+01  3.000000e+00 
  329   330   331   332     1  1.800000e+02  1.297040e+01  3.000000e+00  1.800000e+02  1.297040e+01  3.000000e+00 
  329   330   331   372     1  3.600000e+02  1.297040e+01  3.000000e+00  3.600000e+02  1.297040e+01  3.000000e+00 
  369   330   331   332     1  3.600000e+02  1.297040e+01  3.000000e+00  3.600000e+02  1.297040e+01  3.000000e+00 
  369   330   331   372     1  1.800000e+02  1.297040e+01  3.000000e+00  1.800000e+02  1.297040e+01  3.000000e+00 
  329   330   369   368     1  1.800000e+02  1.297040e+01  3.000000e+00  1.800000e+02  1.297040e+01  3.000000e+00 
  329   330   369   370     1  3.600000e+02  1.297040e+01  3.000000e+00  3.600000e+02  1.297040e+01  3.000000e+00 
  331   330   369   368     1  3.600000e+02  1.297040e+01  3.000000e+00  3.600000e+02  1.297040e+01  3.000000e+00 
  331   330   369   370     1  1.800000e+02  1.297040e+01  3.000000e+00  1.800000e+02  1.297040e+01  3.000000e+00 
  330   331   332   291     1  1.800000e+02  1.297040e+01  3.000000e+00  1.800000e+02  1.297040e+01  3.000000e+00 
  330   331   332   333     1  3.600000e+02  1.297040e+01  3.000000e+00  3.600000e+02  1.297040e+01  3.000000e+00 
  372   331   332   291     1  3.600000e+02  1.297040e+01  3.000000e+00  3.600000e+02  1.297040e+01  3.000000e+00 
  372   331   332   333     1  1.800000e+02  1.297040e+01  3.000000e+00  1.800000e+02  1.297040e+01  3.000000e+00 
  330   331   372   371     1  1.800000e+02  1.297040e+01  3.000000e+00  1.800000e+02  1.297040e+01  3.000000e+00 
  330   331   372   373     1  3.600000e+02  1.297040e+01  3.000000e+00  3.600000e+02  1.297040e+01  3.000000e+00 
  332   331   372   371     1  3.600000e+02  1.297040e+01  3.000000e+00  3.600000e+02  1.297040e+01  3.000000e+00 
  332   331   372   373     1  1.800000e+02  1.297040e+01  3.000000e+00  1.800000e+02  1.297040e+01  3.000000e+00 
  291   332   333   294     1  1.800000e+02  1.297040e+01  3.000000e+00  1.800000e+02  1.297040e+01  3.000000e+00 
  291   332   333   334     1  3.600000e+02  1.297040e+01  3.000000e+00  3.600000e+02  1.297040e+01  3.000000e+00 
  331   332   333   294     1  3.600000e+02  1.297040e+01  3.000000e+00  3.600000e+02  1.297040e+01  3.000000e+00 
  331   332   333   334     1  1.800000e+02  1.297040e+01  3.000000e+00  1.800000e+02  1.297040e+01  3.000000e+00 
  294   333   334   335     1  1.800000e+02  1.297040e+01  3.000000e+00  1.800000e+02  1.297040e+01  3.000000e+00 
  294   333   334   373     1  3.600000e+02  1.297040e+01  3.000000e+00  3.600000e+02  1.297040e+01  3.000000e+00 
  332   333   334   335     1  3.600000e+02  1.297040e+01  3.000000e+00  3.600000e+02  1.297040e+01  3.000000e+00 
  332   333   334   373     1  1.800000e+02  1.297040e+01  3.000000e+00  1.800000e+02  1.297040e+01  3.000000e+00 
  333   334   335   336     1  1.800000e+02  1.297040e+01  3.000000e+00  1.800000e+02  1.297040e+01  3.000000e+00 
  333   334   335   376     1  3.600000e+02  1.297040e+01  3.000000e+00  3.600000e+02  1.297040e+01  3.000000e+00 
  373   334   335   336     1  3.600000e+02  1.297040e+01  3.000000e+00  3.600000e+02  1.297040e+01  3.000000e+00 
  373   334   335   376     1  1.800000e+02  1.297040e+01  3.000000e+00  1.800000e+02  1.297040e+01  3.000000e+00 
  333   334   373   372     1  1.800000e+02  1.297040e+01  3.000000e+00  1.800000e+02  1.297040e+01  3.000000e+00 
  333   334   373   374     1  3.600000e+02  1.297040e+01  3.000000e+00  3.600000e+02  1.297040e+01  3.000000e+00 
  335   334   373   372     1  3.600000e+02  1.297040e+01  3.000000e+00  3.600000e+02  1.297040e+01  3.000000e+00 
  335   334   373   374     1  1.800000e+02  1.297040e+01  3.000000e+00  1.800000e+02  1.297040e+01  3.000000e+00 
  334   335   336   295     1  1.800000e+02  1.297040e+01  3.000000e+00  1.800000e+02  1.297040e+01  3.000000e+00 
  334   335   336   337     1  3.600000e+02  1.297040e+01  3.000000e+00  3.600000e+02  1.297040e+01  3.000000e+00 
  376   335   336   295     1  3.600000e+02  1.297040e+01  3.000000e+00  3.600000e+02  1.297040e+01  3.000000e+00 
  376   335   336   337     1  1.800000e+02  1.297040e+01  3.000000e+00  1.800000e+02  1.297040e+01  3.000000e+00 
  334   335   376   375     1  1.800000e+02  1.297040e+01  3.000000e+00  1.800000e+02  1.297040e+01  3.000000e+00 
  334   335   376   377     1  3.600000e+02  1.297040e+01  3.000000e+00  3.600000e+02  1.297040e+01  3.000000e+00 
  336   335   376   375     1  3.600000e+02  1.297040e+01  3.000000e+00  3.600000e+02  1.297040e+01  3.000000e+00 
  336   335   376   377     1  1.800000e+02  1.297040e+01  3.000000e+00  1.800000e+02  1.297040e+01  3.000000e+00 
  295   336   337   298     1  1.800000e+02  1.297040e+01  3.000000e+00  1.800000e+02  1.297040e+01  3.000000e+00 
  295   336   337   338     1  3.600000e+02  1.297040e+01  3.000000e+00  3.600000e+02  1.297040e+01  3.000000e+00 
  335   336   337   298     1  3.600000e+02  1.297040e+01  3.000000e+00  3.600000e+02  1.297040e+01  3.000000e+00 
  335   336   337   338     1  1.800000e+02  1.297040e+01  3.000000e+00  1.800000e+02  1.297040e+01  3.000000e+00 
  298   337   338   339     1  1.800000e+02  1.297040e+01  3.000000e+00  1.800000e+02  1.297040e+01  3.000000e+00 
  298   337   338   377     1  3.600000e+02  1.297040e+01  3.000000e+00  3.600000e+02  1.297040e+01  3.000000e+00 
  336   337   338   339     1  3.600000e+02  1.297040e+01  3.000000e+00  3.600000e+02  1.297040e+01  3.000000e+00 
  336   337   338   377     1  1.800000e+02  1.297040e+01  3.000000e+00  1.800000e+02  1.297040e+01  3.000000e+00 
  337   338   339   340     1  1.800000e+02  1.297040e+01  3.000000e+00  1.800000e+02  1.297040e+01  3.000000e+00 
  337   338   339   380     1  3.600000e+02  1.297040e+01  3.000000e+00  3.600000e+02  1.297040e+01  3.000000e+00 
  377   338   339   340     1  3.600000e+02  1.297040e+01  3.000000e+00  3.600000e+02  1.297040e+01  3.000000e+00 
  377   338   339   380     1  1.800000e+02  1.297040e+01  3.000000e+00  1.800000e+02  1.297040e+01  3.000000e+00 
  337   338   377   376     1  1.800000e+02  1.297040e+01  3.000000e+00  1.800000e+02  1.297040e+01  3.000000e+00 
  337   338   377   378     1  3.600000e+02  1.297040e+01  3.000000e+00  3.600000e+02  1.297040e+01  3.000000e+00 
  339   338   377   376     1  3.600000e+02  1.297040e+01  3.000000e+00  3.600000e+02  1.297040e+01  3.000000e+00 
  339   338   377   378     1  1.800000e+02  1.297040e+01  3.000000e+00  1.800000e+02  1.297040e+01  3.000000e+00 
  338   339   340   299     1  1.800000e+02  1.297040e+01  3.000000e+00  1.800000e+02  1.297040e+01  3.000000e+00 
  338   339   340   341     1  3.600000e+02  1.297040e+01  3.000000e+00  3.600000e+02  1.297040e+01  3.000000e+00 
  380   339   340   299     1  3.600000e+02  1.297040e+01  3.000000e+00  3.600000e+02  1.297040e+01  3.000000e+00 
  380   339   340   341     1  1.800000e+02  1.297040e+01  3.000000e+00  1.800000e+02  1.297040e+01  3.000000e+00 
  338   339   380   379     1  1.800000e+02  1.297040e+01  3.000000e+00  1.800000e+02  1.297040e+01  3.000000e+00 
  338   339   380   381     1  3.600000e+02  1.297040e+01  3.000000e+00  3.600000e+02  1.297040e+01  3.000000e+00 
  340   339   380   379     1  3.600000e+02  1.297040e+01  3.000000e+00  3.600000e+02  1.297040e+01  3.000000e+00 
  340   339   380   381     1  1.800000e+02  1.297040e+01  3.000000e+00  1.800000e+02  1.297040e+01  3.000000e+00 
  299   340   341   302     1  1.800000e+02  1.297040e+01  3.000000e+00  1.800000e+02  1.297040e+01  3.000000e+00 
  299   340   341   342     1  3.600000e+02  1.297040e+01  3.000000e+00  3.600000e+02  1.297040e+01  3.000000e+00 
  339   340   341   302     1  3.600000e+02  1.297040e+01  3.000000e+00  3.600000e+02  1.297040e+01  3.000000e+00 
  339   340   341   342     1  1.800000e+02  1.297040e+01  3.000000e+00  1.800000e+02  1.297040e+01  3.000000e+00 
  302   341   342   343     1  1.800000e+02  1.297040e+01  3.000000e+00  1.800000e+02  1.297040e+01  3.000000e+00 
  302   341   342   381     1  3.600000e+02  1.297040e+01  3.000000e+00  3.600000e+02  1.297040e+01  3.000000e+00 
  340   341   342   343     1  3.600000e+02  1.297040e+01  3.000000e+00  3.600000e+02  1.297040e+01  3.000000e+00 
  340   341   342   381     1  1.800000e+02  1.297040e+01  3.000000e+00  1.800000e+02  1.297040e+01  3.000000e+00 
  341   342   343   344     1  1.800000e+02  1.297040e+01  3.000000e+00  1.800000e+02  1.297040e+01  3.000000e+00 
  341   342   343   384     1  3.600000e+02  1.297040e+01  3.000000e+00  3.600000e+02  1.297040e+01  3.000000e+00 
  381   342   343   344     1  3.600000e+02  1.297040e+01  3.000000e+00  3.600000e+02  1.297040e+01  3.000000e+00 
  381   342   343   384     1  1.800000e+02  1.297040e+01  3.000000e+00  1.800000e+02  1.297040e+01  3.000000e+00 
  341   342   381   380     1  1.800000e+02  1.297040e+01  3.000000e+00  1.800000e+02  1.297040e+01  3.000000e+00 
  341   342   381   382     1  3.600000e+02  1.297040e+01  3.000000e+00  3.600000e+02  1.297040e+01  3.000000e+00 
  343   342   381   380     1  3.600000e+02  1.297040e+01  3.000000e+00  3.600000e+02  1.297040e+01  3.000000e+00 
  343   342   381   382     1  1.800000e+02  1.297040e+01  3.000000e+00  1.800000e+02  1.297040e+01  3.000000e+00 
  342   343   344   303     1  1.800000e+02  1.297040e+01  3.000000e+00  1.800000e+02  1.297040e+01  3.000000e+00 
  342   343   344   345     1  3.600000e+02  1.297040e+01  3.000000e+00  3.600000e+02  1.297040e+01  3.000000e+00 
  384   343   344   303     1  3.600000e+02  1.297040e+01  3.000000e+00  3.600000e+02  1.297040e+01  3.000000e+00 
  384   343   344   345     1  1.800000e+02  1.297040e+01  3.000000e+00  1.800000e+02  1.297040e+01  3.000000e+00 
  342   343   384   383     1  1.800000e+02  1.297040e+01  3.000000e+00  1.800000e+02  1.297040e+01  3.000000e+00 
  342   343   384   385     1  3.600000e+02  1.297040e+01  3.000000e+00  3.600000e+02  1.297040e+01  3.000000e+00 
  344   343   384   383     1  3.600000e+02  1.297040e+01  3.000000e+00  3.600000e+02  1.297040e+01  3.000000e+00 
  344   343   384   385     1  1.800000e+02  1.297040e+01  3.000000e+00  1.800000e+02  1.297040e+01  3.000000e+00 
  303   344   345   306     1  1.800000e+02  1.297040e+01  3.000000e+00  1.800000e+02  1.297040e+01  3.000000e+00 
  303   344   345   346     1  3.600000e+02  1.297040e+01  3.000000e+00  3.600000e+02  1.297040e+01  3.000000e+00 
  343   344   345   306     1  3.600000e+02  1.297040e+01  3.000000e+00  3.600000e+02  1.297040e+01  3.000000e+00 
  343   344   345   346     1  1.800000e+02  1.297040e+01  3.000000e+00  1.800000e+02  1.297040e+01  3.000000e+00 
  306   345   346   347     1  1.800000e+02  1.297040e+01  3.000000e+00  1.800000e+02  1.297040e+01  3.000000e+00 
  306   345   346   385     1  3.600000e+02  1.297040e+01  3.000000e+00  3.600000e+02  1.297040e+01  3.000000e+00 
  344   345   346   347     1  3.600000e+02  1.297040e+01  3.000000e+00  3.600000e+02  1.297040e+01  3.000000e+00 
  344   345   346   385     1  1.800000e+02  1.297040e+01  3.000000e+00  1.800000e+02  1.297040e+01  3.000000e+00 
  345   346   347   348     1  1.800000e+02  1.297040e+01  3.000000e+00  1.800000e+02  1.297040e+01  3.000000e+00 
  345   346   347   388     1  3.600000e+02  1.297040e+01  3.000000e+00  3.600000e+02  1.297040e+01  3.000000e+00 
  385   346   347   348     1  3.600000e+02  1.297040e+01  3.000000e+00  3.600000e+02  1.297040e+01  3.000000e+00 
  385   346   347   388     1  1.800000e+02  1.297040e+01  3.000000e+00  1.800000e+02  1.297040e+01  3.000000e+00 
  345   346   385   384     1  1.800000e+02  1.297040e+01  3.000000e+00  1.800000e+02  1.297040e+01  3.000000e+00 
  345   346   385   386     1  3.600000e+02  1.297040e+01  3.000000e+00  3.600000e+02  1.297040e+01  3.000000e+00 
  347   346   385   384     1  3.600000e+02  1.297040e+01  3.000000e+00  3.600000e+02  1.297040e+01  3.000000e+00 
  347   346   385   386     1  1.800000e+02  1.297040e+01  3.000000e+00  1.800000e+02  1.297040e+01  3.000000e+00 
  346   347   348   307     1  1.800000e+02  1.297040e+01  3.000000e+00  1.800000e+02  1.297040e+01  3.000000e+00 
  346   347   348   349     1  3.600000e+02  1.297040e+01  3.000000e+00  3.600000e+02  1.297040e+01  3.000000e+00 
  388   347   348   307     1  3.600000e+02  1.297040e+01  3.000000e+00  3.600000e+02  1.297040e+01  3.000000e+00 
  388   347   348   349     1  1.800000e+02  1.297040e+01  3.000000e+00  1.800000e+02  1.297040e+01  3.000000e+00 
  346   347   388   387     1  1.800000e+02  1.297040e+01  3.000000e+00  1.800000e+02  1.297040e+01  3.000000e+00 
  346   347   388   389     1  3.600000e+02  1.297040e+01  3.000000e+00  3.600000e+02  1.297040e+01  3.000000e+00 
  348   347   388   387     1  3.600000e+02  1.297040e+01  3.000000e+00  3.600000e+02  1.297040e+01  3.000000e+00 
  348   347   388   389     1  1.800000e+02  1.297040e+01  3.000000e+00  1.800000e+02  1.297040e+01  3.000000e+00 
  307   348   349   310     1  1.800000e+02  1.297040e+01  3.000000e+00  1.800000e+02  1.297040e+01  3.000000e+00 
  307   348   349   350     1  3.600000e+02  1.297040e+01  3.000000e+00  3.600000e+02  1.297040e+01  3.000000e+00 
  347   348   349   310     1  3.600000e+02  1.297040e+01  3.000000e+00  3.600000e+02  1.297040e+01  3.000000e+00 
  347   348   349   350     1  1.800000e+02  1.297040e+01  3.000000e+00  1.800000e+02  1.297040e+01  3.000000e+00 
  310   349   350   351     1  1.800000e+02  1.297040e+01  3.000000e+00  1.800000e+02  1.297040e+01  3.000000e+00 
  310   349   350   389     1  3.600000e+02  1.297040e+01  3.000000e+00  3.600000e+02  1.297040e+01  3.000000e+00 
  348   349   350   351     1  3.600000e+02  1.297040e+01  3.000000e+00  3.600000e+02  1.297040e+01  3.000000e+00 
  348   349   350   389     1  1.800000e+02  1.297040e+01  3.000000e+00  1.800000e+02  1.297040e+01  3.000000e+00 
  349   350   351   352     1  1.800000e+02  1.297040e+01  3.000000e+00  1.800000e+02  1.297040e+01  3.000000e+00 
  349   350   351   392     1  3.600000e+02  1.297040e+01  3.000000e+00  3.600000e+02  1.297040e+01  3.000000e+00 
  389   350   351   352     1  3.600000e+02  1.297040e+01  3.000000e+00  3.600000e+02  1.297040e+01  3.000000e+00 
  389   350   351   392     1  1.800000e+02  1.297040e+01  3.000000e+00  1.800000e+02  1.297040e+01  3.000000e+00 
  349   350   389   388     1  1.800000e+02  1.297040e+01  3.000000e+00  1.800000e+02  1.297040e+01  3.000000e+00 
  349   350   389   390     1  3.600000e+02  1.297040e+01  3.000000e+00  3.600000e+02  1.297040e+01  3.000000e+00 
  351   350   389   388     1  3.600000e+02  1.297040e+01  3.000000e+00  3.600000e+02  1.297040e+01  3.000000e+00 
  351   350   389   390     1  1.800000e+02  1.297040e+01  3.000000e+00  1.800000e+02  1.297040e+01  3.000000e+00 
  350   351   352   311     1  1.800000e+02  1.297040e+01  3.000000e+00  1.800000e+02  1.297040e+01  3.000000e+00 
  350   351   352   353     1  3.600000e+02  1.297040e+01  3.000000e+00  3.600000e+02  1.297040e+01  3.000000e+00 
  392   351   352   311     1  3.600000e+02  1.297040e+01  3.000000e+00  3.600000e+02  1.297040e+01  3.000000e+00 
  392   351   352   353     1  1.800000e+02  1.297040e+01  3.000000e+00  1.800000e+02  1.297040e+01  3.000000e+00 
  350   351   392   391     1  1.800000e+02  1.297040e+01  3.000000e+00  1.800000e+02  1.297040e+01  3.000000e+00 
  350   351   392   393     1  3.600000e+02  1.297040e+01  3.000000e+00  3.600000e+02  1.297040e+01  3.000000e+00 
  352   351   392   391     1  3.600000e+02  1.297040e+01  3.000000e+00  3.600000e+02  1.297040e+01  3.000000e+00 
  352   351   392   393     1  1.800000e+02  1.297040e+01  3.000000e+00  1.800000e+02  1.297040e+01  3.000000e+00 
  311   352   353   314     1  1.800000e+02  1.297040e+01  3.000000e+00  1.800000e+02  1.297040e+01  3.000000e+00 
  311   352   353   354     1  3.600000e+02  1.297040e+01  3.000000e+00  3.600000e+02  1.297040e+01  3.000000e+00 
  351   352   353   314     1  3.600000e+02  1.297040e+01  3.000000e+00  3.600000e+02  1.297040e+01  3.000000e+00 
  351   352   353   354     1  1.800000e+02  1.297040e+01  3.000000e+00  1.800000e+02  1.297040e+01  3.000000e+00 
  314   353   354   355     1  1.800000e+02  1.297040e+01  3.000000e+00  1.800000e+02  1.297040e+01  3.000000e+00 
  314   353   354   393     1  3.600000e+02  1.297040e+01  3.000000e+00  3.600000e+02  1.297040e+01  3.000000e+00 
  352   353   354   355     1  3.600000e+02  1.297040e+01  3.000000e+00  3.600000e+02  1.297040e+01  3.000000e+00 
  352   353   354   393     1  1.800000e+02  1.297040e+01  3.000000e+00  1.800000e+02  1.297040e+01  3.000000e+00 
  353   354   355   356     1  1.800000e+02  1.297040e+01  3.000000e+00  1.800000e+02  1.297040e+01  3.000000e+00 
  353   354   355   396     1  3.600000e+02  1.297040e+01  3.000000e+00  3.600000e+02  1.297040e+01  3.000000e+00 
  393   354   355   356     1  3.600000e+02  1.297040e+01  3.000000e+00  3.600000e+02  1.297040e+01  3.000000e+00 
  393   354   355   396     1  1.800000e+02  1.297040e+01  3.000000e+00  1.800000e+02  1.297040e+01  3.000000e+00 
  353   354   393   392     1  1.800000e+02  1.297040e+01  3.000000e+00  1.800000e+02  1.297040e+01  3.000000e+00 
  353   354   393   394     1  3.600000e+02  1.297040e+01  3.000000e+00  3.600000e+02  1.297040e+01  3.000000e+00 
  355   354   393   392     1  3.600000e+02  1.297040e+01  3.000000e+00  3.600000e+02  1.297040e+01  3.000000e+00 
  355   354   393   394     1  1.800000e+02  1.297040e+01  3.000000e+00  1.800000e+02  1.297040e+01  3.000000e+00 
  354   355   356   315     1  1.800000e+02  1.297040e+01  3.000000e+00  1.800000e+02  1.297040e+01  3.000000e+00 
  354   355   356   357     1  3.600000e+02  1.297040e+01  3.000000e+00  3.600000e+02  1.297040e+01  3.000000e+00 
  396   355   356   315     1  3.600000e+02  1.297040e+01  3.000000e+00  3.600000e+02  1.297040e+01  3.000000e+00 
  396   355   356   357     1  1.800000e+02  1.297040e+01  3.000000e+00  1.800000e+02  1.297040e+01  3.000000e+00 
  354   355   396   395     1  1.800000e+02  1.297040e+01  3.000000e+00  1.800000e+02  1.297040e+01  3.000000e+00 
  354   355   396   397     1  3.600000e+02  1.297040e+01  3.000000e+00  3.600000e+02  1.297040e+01  3.000000e+00 
  356   355   396   395     1  3.600000e+02  1.297040e+01  3.000000e+00  3.600000e+02  1.297040e+01  3.000000e+00 
  356   355   396   397     1  1.800000e+02  1.297040e+01  3.000000e+00  1.800000e+02  1.297040e+01  3.000000e+00 
  315   356   357   318     1  1.800000e+02  1.297040e+01  3.000000e+00  1.800000e+02  1.297040e+01  3.000000e+00 
  315   356   357   358     1  3.600000e+02  1.297040e+01  3.000000e+00  3.600000e+02  1.297040e+01  3.000000e+00 
  355   356   357   318     1  3.600000e+02  1.297040e+01  3.000000e+00  3.600000e+02  1.297040e+01  3.000000e+00 
  355   356   357   358     1  1.800000e+02  1.297040e+01  3.000000e+00  1.800000e+02  1.297040e+01  3.000000e+00 
  318   357   358   359     1  1.800000e+02  1.297040e+01  3.000000e+00  1.800000e+02  1.297040e+01  3.000000e+00 
  318   357   358   397     1  3.600000e+02  1.297040e+01  3.000000e+00  3.600000e+02  1.297040e+01  3.000000e+00 
  356   357   358   359     1  3.600000e+02  1.297040e+01  3.000000e+00  3.600000e+02  1.297040e+01  3.000000e+00 
  356   357   358   397     1  1.800000e+02  1.297040e+01  3.000000e+00  1.800000e+02  1.297040e+01  3.000000e+00 
  357   358   359   360     1  1.800000e+02  1.297040e+01  3.000000e+00  1.800000e+02  1.297040e+01  3.000000e+00 
  357   358   359   400     1  3.600000e+02  1.297040e+01  3.000000e+00  3.600000e+02  1.297040e+01  3.000000e+00 
  397   358   359   360     1  3.600000e+02  1.297040e+01  3.000000e+00  3.600000e+02  1.297040e+01  3.000000e+00 
  397   358   359   400     1  1.800000e+02  1.297040e+01  3.000000e+00  1.800000e+02  1.297040e+01  3.000000e+00 
  357   358   397   396     1  1.800000e+02  1.297040e+01  3.000000e+00  1.800000e+02  1.297040e+01  3.000000e+00 
  357   358   397   398     1  3.600000e+02  1.297040e+01  3.000000e+00  3.600000e+02  1.297040e+01  3.000000e+00 
  359   358   397   396     1  3.600000e+02  1.297040e+01  3.000000e+00  3.600000e+02  1.297040e+01  3.000000e+00 
  359   358   397   398     1  1.800000e+02  1.297040e+01  3.000000e+00  1.800000e+02  1.297040e+01  3.000000e+00 
  358   359   360   319     1  1.800000e+02  1.297040e+01  3.000000e+00  1.800000e+02  1.297040e+01  3.000000e+00 
  358   359   360   321     1  3.600000e+02  1.297040e+01  3.000000e+00  3.600000e+02  1.297040e+01  3.000000e+00 
  400   359   360   319     1  3.600000e+02  1.297040e+01  3.000000e+00  3.600000e+02  1.297040e+01  3.000000e+00 
  400   359   360   321     1  1.800000e+02  1.297040e+01  3.000000e+00  1.800000e+02  1.297040e+01  3.000000e+00 
  358   359   400   361     1  3.600000e+02  1.297040e+01  3.000000e+00  3.600000e+02  1.297040e+01  3.000000e+00 
  358   359   400   399     1  1.800000e+02  1.297040e+01  3.000000e+00  1.800000e+02  1.297040e+01  3.000000e+00 
  360   359   400   361     1  1.800000e+02  1.297040e+01  3.000000e+00  1.800000e+02  1.297040e+01  3.000000e+00 
  360   359   400   399     1  3.600000e+02  1.297040e+01  3.000000e+00  3.600000e+02  1.297040e+01  3.000000e+00 
  322   361   362   363     1  1.800000e+02  1.297040e+01  3.000000e+00  1.800000e+02  1.297040e+01  3.000000e+00 
  322   361   362   401     1  3.600000e+02  1.297040e+01  3.000000e+00  3.600000e+02  1.297040e+01  3.000000e+00 
  400   361   362   363     1  3.600000e+02  1.297040e+01  3.000000e+00  3.600000e+02  1.297040e+01  3.000000e+00 
  400   361   362   401     1  1.800000e+02  1.297040e+01  3.000000e+00  1.800000e+02  1.297040e+01  3.000000e+00 
  322   361   400   359     1  1.800000e+02  1.297040e+01  3.000000e+00  1.800000e+02  1.297040e+01  3.000000e+00 
  322   361   400   399     1  3.600000e+02  1.297040e+01  3.000000e+00  3.600000e+02  1.297040e+01  3.000000e+00 
  362   361   400   359     1  3.600000e+02  1.297040e+01  3.000000e+00  3.600000e+02  1.297040e+01  3.000000e+00 
  362   361   400   399     1  1.800000e+02  1.297040e+01  3.000000e+00  1.800000e+02  1.297040e+01  3.000000e+00 
  361   362   363   364     1  1.800000e+02  1.297040e+01  3.000000e+00  1.800000e+02  1.297040e+01  3.000000e+00 
  361   362   363   404     1  3.600000e+02  1.297040e+01  3.000000e+00  3.600000e+02  1.297040e+01  3.000000e+00 
  401   362   363   364     1  3.600000e+02  1.297040e+01  3.000000e+00  3.600000e+02  1.297040e+01  3.000000e+00 
  401   362   363   404     1  1.800000e+02  1.297040e+01  3.000000e+00  1.800000e+02  1.297040e+01  3.000000e+00 
  361   362   401   402     1  3.600000e+02  1.297040e+01  3.000000e+00  3.600000e+02  1.297040e+01  3.000000e+00 
  361   362   401   440     1  1.800000e+02  1.297040e+01  3.000000e+00  1.800000e+02  1.297040e+01  3.000000e+00 
  363   362   401   402     1  1.800000e+02  1.297040e+01  3.000000e+00  1.800000e+02  1.297040e+01  3.000000e+00 
  363   362   401   440     1  3.600000e+02  1.297040e+01  3.000000e+00  3.600000e+02  1.297040e+01  3.000000e+00 
  362   363   364   323     1  1.800000e+02  1.297040e+01  3.000000e+00  1.800000e+02  1.297040e+01  3.000000e+00 
  362   363   364   365     1  3.600000e+02  1.297040e+01  3.000000e+00  3.600000e+02  1.297040e+01  3.000000e+00 
  404   363   364   323     1  3.600000e+02  1.297040e+01  3.000000e+00  3.600000e+02  1.297040e+01  3.000000e+00 
  404   363   364   365     1  1.800000e+02  1.297040e+01  3.000000e+00  1.800000e+02  1.297040e+01  3.000000e+00 
  362   363   404   403     1  1.800000e+02  1.297040e+01  3.000000e+00  1.800000e+02  1.297040e+01  3.000000e+00 
  362   363   404   405     1  3.600000e+02  1.297040e+01  3.000000e+00  3.600000e+02  1.297040e+01  3.000000e+00 
  364   363   404   403     1  3.600000e+02  1.297040e+01  3.000000e+00  3.600000e+02  1.297040e+01  3.000000e+00 
  364   363   404   405     1  1.800000e+02  1.297040e+01  3.000000e+00  1.800000e+02  1.297040e+01  3.000000e+00 
  323   364   365   326     1  1.800000e+02  1.297040e+01  3.000000e+00  1.800000e+02  1.297040e+01  3.000000e+00 
  323   364   365   366     1  3.600000e+02  1.297040e+01  3.000000e+00  3.600000e+02  1.297040e+01  3.000000e+00 
  363   364   365   326     1  3.600000e+02  1.297040e+01  3.000000e+00  3.600000e+02  1.297040e+01  3.000000e+00 
  363   364   365   366     1  1.800000e+02  1.297040e+01  3.000000e+00  1.800000e+02  1.297040e+01  3.000000e+00 
  326   365   366   367     1  1.800000e+02  1.297040e+01  3.000000e+00  1.800000e+02  1.297040e+01  3.000000e+00 
  326   365   366   405     1  3.600000e+02  1.297040e+01  3.000000e+00  3.600000e+02  1.297040e+01  3.000000e+00 
  364   365   366   367     1  3.600000e+02  1.297040e+01  3.000000e+00  3.600000e+02  1.297040e+01  3.000000e+00 
  364   365   366   405     1  1.800000e+02  1.297040e+01  3.000000e+00  1.800000e+02  1.297040e+01  3.000000e+00 
  365   366   367   368     1  1.800000e+02  1.297040e+01  3.000000e+00  1.800000e+02  1.297040e+01  3.000000e+00 
  365   366   367   408     1  3.600000e+02  1.297040e+01  3.000000e+00  3.600000e+02  1.297040e+01  3.000000e+00 
  405   366   367   368     1  3.600000e+02  1.297040e+01  3.000000e+00  3.600000e+02  1.297040e+01  3.000000e+00 
  405   366   367   408     1  1.800000e+02  1.297040e+01  3.000000e+00  1.800000e+02  1.297040e+01  3.000000e+00 
  365   366   405   404     1  1.800000e+02  1.297040e+01  3.000000e+00  1.800000e+02  1.297040e+01  3.000000e+00 
  365   366   405   406     1  3.600000e+02  1.297040e+01  3.000000e+00  3.600000e+02  1.297040e+01  3.000000e+00 
  367   366   405   404     1  3.600000e+02  1.297040e+01  3.000000e+00  3.600000e+02  1.297040e+01  3.000000e+00 
  367   366   405   406     1  1.800000e+02  1.297040e+01  3.000000e+00  1.800000e+02  1.297040e+01  3.000000e+00 
  366   367   368   327     1  1.800000e+02  1.297040e+01  3.000000e+00  1.800000e+02  1.297040e+01  3.000000e+00 
  366   367   368   369     1  3.600000e+02  1.297040e+01  3.000000e+00  3.600000e+02  1.297040e+01  3.000000e+00 
  408   367   368   327     1  3.600000e+02  1.297040e+01  3.000000e+00  3.600000e+02  1.297040e+01  3.000000e+00 
  408   367   368   369     1  1.800000e+02  1.297040e+01  3.000000e+00  1.800000e+02  1.297040e+01  3.000000e+00 
  366   367   408   407     1  1.800000e+02  1.297040e+01  3.000000e+00  1.800000e+02  1.297040e+01  3.000000e+00 
  366   367   408   409     1  3.600000e+02  1.297040e+01  3.000000e+00  3.600000e+02  1.297040e+01  3.000000e+00 
  368   367   408   407     1  3.600000e+02  1.297040e+01  3.000000e+00  3.600000e+02  1.297040e+01  3.000000e+00 
  368   367   408   409     1  1.800000e+02  1.297040e+01  3.000000e+00  1.800000e+02  1.297040e+01  3.000000e+00 
  327   368   369   330     1  1.800000e+02  1.297040e+01  3.000000e+00  1.800000e+02  1.297040e+01  3.000000e+00 
  327   368   369   370     1  3.600000e+02  1.297040e+01  3.000000e+00  3.600000e+02  1.297040e+01  3.000000e+00 
  367   368   369   330     1  3.600000e+02  1.297040e+01  3.000000e+00  3.600000e+02  1.297040e+01  3.000000e+00 
  367   368   369   370     1  1.800000e+02  1.297040e+01  3.000000e+00  1.800000e+02  1.297040e+01  3.000000e+00 
  330   369   370   371     1  1.800000e+02  1.297040e+01  3.000000e+00  1.800000e+02  1.297040e+01  3.000000e+00 
  330   369   370   409     1  3.600000e+02  1.297040e+01  3.000000e+00  3.600000e+02  1.297040e+01  3.000000e+00 
  368   369   370   371     1  3.600000e+02  1.297040e+01  3.000000e+00  3.600000e+02  1.297040e+01  3.000000e+00 
  368   369   370   409     1  1.800000e+02  1.297040e+01  3.000000e+00  1.800000e+02  1.297040e+01  3.000000e+00 
  369   370   371   372     1  1.800000e+02  1.297040e+01  3.000000e+00  1.800000e+02  1.297040e+01  3.000000e+00 
  369   370   371   412     1  3.600000e+02  1.297040e+01  3.000000e+00  3.600000e+02  1.297040e+01  3.000000e+00 
  409   370   371   372     1  3.600000e+02  1.297040e+01  3.000000e+00  3.600000e+02  1.297040e+01  3.000000e+00 
  409   370   371   412     1  1.800000e+02  1.297040e+01  3.000000e+00  1.800000e+02  1.297040e+01  3.000000e+00 
  369   370   409   408     1  1.800000e+02  1.297040e+01  3.000000e+00  1.800000e+02  1.297040e+01  3.000000e+00 
  369   370   409   410     1  3.600000e+02  1.297040e+01  3.000000e+00  3.600000e+02  1.297040e+01  3.000000e+00 
  371   370   409   408     1  3.600000e+02  1.297040e+01  3.000000e+00  3.600000e+02  1.297040e+01  3.000000e+00 
  371   370   409   410     1  1.800000e+02  1.297040e+01  3.000000e+00  1.800000e+02  1.297040e+01  3.000000e+00 
  370   371   372   331     1  1.800000e+02  1.297040e+01  3.000000e+00  1.800000e+02  1.297040e+01  3.000000e+00 
  370   371   372   373     1  3.600000e+02  1.297040e+01  3.000000e+00  3.600000e+02  1.297040e+01  3.000000e+00 
  412   371   372   331     1  3.600000e+02  1.297040e+01  3.000000e+00  3.600000e+02  1.297040e+01  3.000000e+00 
  412   371   372   373     1  1.800000e+02  1.297040e+01  3.000000e+00  1.800000e+02  1.297040e+01  3.000000e+00 
  370   371   412   411     1  1.800000e+02  1.297040e+01  3.000000e+00  1.800000e+02  1.297040e+01  3.000000e+00 
  370   371   412   413     1  3.600000e+02  1.297040e+01  3.000000e+00  3.600000e+02  1.297040e+01  3.000000e+00 
  372   371   412   411     1  3.600000e+02  1.297040e+01  3.000000e+00  3.600000e+02  1.297040e+01  3.000000e+00 
  372   371   412   413     1  1.800000e+02  1.297040e+01  3.000000e+00  1.800000e+02  1.297040e+01  3.000000e+00 
  331   372   373   334     1  1.800000e+02  1.297040e+01  3.000000e+00  1.800000e+02  1.297040e+01  3.000000e+00 
  331   372   373   374     1  3.600000e+02  1.297040e+01  3.000000e+00  3.600000e+02  1.297040e+01  3.000000e+00 
  371   372   373   334     1  3.600000e+02  1.297040e+01  3.000000e+00  3.600000e+02  1.297040e+01  3.000000e+00 
  371   372   373   374     1  1.800000e+02  1.297040e+01  3.000000e+00  1.800000e+02  1.297040e+01  3.000000e+00 
  334   373   374   375     1  1.800000e+02  1.297040e+01  3.000000e+00  1.800000e+02  1.297040e+01  3.000000e+00 
  334   373   374   413     1  3.600000e+02  1.297040e+01  3.000000e+00  3.600000e+02  1.297040e+01  3.000000e+00 
  372   373   374   375     1  3.600000e+02  1.297040e+01  3.000000e+00  3.600000e+02  1.297040e+01  3.000000e+00 
  372   373   374   413     1  1.800000e+02  1.297040e+01  3.000000e+00  1.800000e+02  1.297040e+01  3.000000e+00 
  373   374   375   376     1  1.800000e+02  1.297040e+01  3.000000e+00  1.800000e+02  1.297040e+01  3.000000e+00 
  373   374   375   416     1  3.600000e+02  1.297040e+01  3.000000e+00  3.600000e+02  1.297040e+01  3.000000e+00 
  413   374   375   376     1  3.600000e+02  1.297040e+01  3.000000e+00  3.600000e+02  1.297040e+01  3.000000e+00 
  413   374   375   416     1  1.800000e+02  1.297040e+01  3.000000e+00  1.800000e+02  1.297040e+01  3.000000e+00 
  373   374   413   412     1  1.800000e+02  1.297040e+01  3.000000e+00  1.800000e+02  1.297040e+01  3.000000e+00 
  373   374   413   414     1  3.600000e+02  1.297040e+01  3.000000e+00  3.600000e+02  1.297040e+01  3.000000e+00 
  375   374   413   412     1  3.600000e+02  1.297040e+01  3.000000e+00  3.600000e+02  1.297040e+01  3.000000e+00 
  375   374   413   414     1  1.800000e+02  1.297040e+01  3.000000e+00  1.800000e+02  1.297040e+01  3.000000e+00 
  374   375   376   335     1  1.800000e+02  1.297040e+01  3.000000e+00  1.800000e+02  1.297040e+01  3.000000e+00 
  374   375   376   377     1  3.600000e+02  1.297040e+01  3.000000e+00  3.600000e+02  1.297040e+01  3.000000e+00 
  416   375   376   335     1  3.600000e+02  1.297040e+01  3.000000e+00  3.600000e+02  1.297040e+01  3.000000e+00 
  416   375   376   377     1  1.800000e+02  1.297040e+01  3.000000e+00  1.800000e+02  1.297040e+01  3.000000e+00 
  374   375   416   415     1  1.800000e+02  1.297040e+01  3.000000e+00  1.800000e+02  1.297040e+01  3.000000e+00 
  374   375   416   417     1  3.600000e+02  1.297040e+01  3.000000e+00  3.600000e+02  1.297040e+01  3.000000e+00 
  376   375   416   415     1  3.600000e+02  1.297040e+01  3.000000e+00  3.600000e+02  1.297040e+01  3.000000e+00 
  376   375   416   417     1  1.800000e+02  1.297040e+01  3.000000e+00  1.800000e+02  1.297040e+01  3.000000e+00 
  335   376   377   338     1  1.800000e+02  1.297040e+01  3.000000e+00  1.800000e+02  1.297040e+01  3.000000e+00 
  335   376   377   378     1  3.600000e+02  1.297040e+01  3.000000e+00  3.600000e+02  1.297040e+01  3.000000e+00 
  375   376   377   338     1  3.600000e+02  1.297040e+01  3.000000e+00  3.600000e+02  1.297040e+01  3.000000e+00 
  375   376   377   378     1  1.800000e+02  1.297040e+01  3.000000e+00  1.800000e+02  1.297040e+01  3.000000e+00 
  338   377   378   379     1  1.800000e+02  1.297040e+01  3.000000e+00  1.800000e+02  1.297040e+01  3.000000e+00 
  338   377   378   417     1  3.600000e+02  1.297040e+01  3.000000e+00  3.600000e+02  1.297040e+01  3.000000e+00 
  376   377   378   379     1  3.600000e+02  1.297040e+01  3.000000e+00  3.600000e+02  1.297040e+01  3.000000e+00 
  376   377   378   417     1  1.800000e+02  1.297040e+01  3.000000e+00  1.800000e+02  1.297040e+01  3.000000e+00 
  377   378   379   380     1  1.800000e+02  1.297040e+01  3.000000e+00  1.800000e+02  1.297040e+01  3.000000e+00 
  377   378   379   420     1  3.600000e+02  1.297040e+01  3.000000e+00  3.600000e+02  1.297040e+01  3.000000e+00 
  417   378   379   380     1  3.600000e+02  1.297040e+01  3.000000e+00  3.600000e+02  1.297040e+01  3.000000e+00 
  417   378   379   420     1  1.800000e+02  1.297040e+01  3.000000e+00  1.800000e+02  1.297040e+01  3.000000e+00 
  377   378   417   416     1  1.800000e+02  1.297040e+01  3.000000e+00  1.800000e+02  1.297040e+01  3.000000e+00 
  377   378   417   418     1  3.600000e+02  1.297040e+01  3.000000e+00  3.600000e+02  1.297040e+01  3.000000e+00 
  379   378   417   416     1  3.600000e+02  1.297040e+01  3.000000e+00  3.600000e+02  1.297040e+01  3.000000e+00 
  379   378   417   418     1  1.800000e+02  1.297040e+01  3.000000e+00  1.800000e+02  1.297040e+01  3.000000e+00 
  378   379   380   339     1  1.800000e+02  1.297040e+01  3.000000e+00  1.800000e+02  1.297040e+01  3.000000e+00 
  378   379   380   381     1  3.600000e+02  1.297040e+01  3.000000e+00  3.600000e+02  1.297040e+01  3.000000e+00 
  420   379   380   339     1  3.600000e+02  1.297040e+01  3.000000e+00  3.600000e+02  1.297040e+01  3.000000e+00 
  420   379   380   381     1  1.800000e+02  1.297040e+01  3.000000e+00  1.800000e+02  1.297040e+01  3.000000e+00 
  378   379   420   419     1  1.800000e+02  1.297040e+01  3.000000e+00  1.800000e+02  1.297040e+01  3.000000e+00 
  378   379   420   421     1  3.600000e+02  1.297040e+01  3.000000e+00  3.600000e+02  1.297040e+01  3.000000e+00 
  380   379   420   419     1  3.600000e+02  1.297040e+01  3.000000e+00  3.600000e+02  1.297040e+01  3.000000e+00 
  380   379   420   421     1  1.800000e+02  1.297040e+01  3.000000e+00  1.800000e+02  1.297040e+01  3.000000e+00 
  339   380   381   342     1  1.800000e+02  1.297040e+01  3.000000e+00  1.800000e+02  1.297040e+01  3.000000e+00 
  339   380   381   382     1  3.600000e+02  1.297040e+01  3.000000e+00  3.600000e+02  1.297040e+01  3.000000e+00 
  379   380   381   342     1  3.600000e+02  1.297040e+01  3.000000e+00  3.600000e+02  1.297040e+01  3.000000e+00 
  379   380   381   382     1  1.800000e+02  1.297040e+01  3.000000e+00  1.800000e+02  1.297040e+01  3.000000e+00 
  342   381   382   383     1  1.800000e+02  1.297040e+01  3.000000e+00  1.800000e+02  1.297040e+01  3.000000e+00 
  342   381   382   421     1  3.600000e+02  1.297040e+01  3.000000e+00  3.600000e+02  1.297040e+01  3.000000e+00 
  380   381   382   383     1  3.600000e+02  1.297040e+01  3.000000e+00  3.600000e+02  1.297040e+01  3.000000e+00 
  380   381   382   421     1  1.800000e+02  1.297040e+01  3.000000e+00  1.800000e+02  1.297040e+01  3.000000e+00 
  381   382   383   384     1  1.800000e+02  1.297040e+01  3.000000e+00  1.800000e+02  1.297040e+01  3.000000e+00 
  381   382   383   424     1  3.600000e+02  1.297040e+01  3.000000e+00  3.600000e+02  1.297040e+01  3.000000e+00 
  421   382   383   384     1  3.600000e+02  1.297040e+01  3.000000e+00  3.600000e+02  1.297040e+01  3.000000e+00 
  421   382   383   424     1  1.800000e+02  1.297040e+01  3.000000e+00  1.800000e+02  1.297040e+01  3.000000e+00 
  381   382   421   420     1  1.800000e+02  1.297040e+01  3.000000e+00  1.800000e+02  1.297040e+01  3.000000e+00 
  381   382   421   422     1  3.600000e+02  1.297040e+01  3.000000e+00  3.600000e+02  1.297040e+01  3.000000e+00 
  383   382   421   420     1  3.600000e+02  1.297040e+01  3.000000e+00  3.600000e+02  1.297040e+01  3.000000e+00 
  383   382   421   422     1  1.800000e+02  1.297040e+01  3.000000e+00  1.800000e+02  1.297040e+01  3.000000e+00 
  382   383   384   343     1  1.800000e+02  1.297040e+01  3.000000e+00  1.800000e+02  1.297040e+01  3.000000e+00 
  382   383   384   385     1  3.600000e+02  1.297040e+01  3.000000e+00  3.600000e+02  1.297040e+01  3.000000e+00 
  424   383   384   343     1  3.600000e+02  1.297040e+01  3.000000e+00  3.600000e+02  1.297040e+01  3.000000e+00 
  424   383   384   385     1  1.800000e+02  1.297040e+01  3.000000e+00  1.800000e+02  1.297040e+01  3.000000e+00 
  382   383   424   423     1  1.800000e+02  1.297040e+01  3.000000e+00  1.800000e+02  1.297040e+01  3.000000e+00 
  382   383   424   425     1  3.600000e+02  1.297040e+01  3.000000e+00  3.600000e+02  1.297040e+01  3.000000e+00 
  384   383   424   423     1  3.600000e+02  1.297040e+01  3.000000e+00  3.600000e+02  1.297040e+01  3.000000e+00 
  384   383   424   425     1  1.800000e+02  1.297040e+01  3.000000e+00  1.800000e+02  1.297040e+01  3.000000e+00 
  343   384   385   346     1  1.800000e+02  1.297040e+01  3.000000e+00  1.800000e+02  1.297040e+01  3.000000e+00 
  343   384   385   386     1  3.600000e+02  1.297040e+01  3.000000e+00  3.600000e+02  1.297040e+01  3.000000e+00 
  383   384   385   346     1  3.600000e+02  1.297040e+01  3.000000e+00  3.600000e+02  1.297040e+01  3.000000e+00 
  383   384   385   386     1  1.800000e+02  1.297040e+01  3.000000e+00  1.800000e+02  1.297040e+01  3.000000e+00 
  346   385   386   387     1  1.800000e+02  1.297040e+01  3.000000e+00  1.800000e+02  1.297040e+01  3.000000e+00 
  346   385   386   425     1  3.600000e+02  1.297040e+01  3.000000e+00  3.600000e+02  1.297040e+01  3.000000e+00 
  384   385   386   387     1  3.600000e+02  1.297040e+01  3.000000e+00  3.600000e+02  1.297040e+01  3.000000e+00 
  384   385   386   425     1  1.800000e+02  1.297040e+01  3.000000e+00  1.800000e+02  1.297040e+01  3.000000e+00 
  385   386   387   388     1  1.800000e+02  1.297040e+01  3.000000e+00  1.800000e+02  1.297040e+01  3.000000e+00 
  385   386   387   428     1  3.600000e+02  1.297040e+01  3.000000e+00  3.600000e+02  1.297040e+01  3.000000e+00 
  425   386   387   388     1  3.600000e+02  1.297040e+01  3.000000e+00  3.600000e+02  1.297040e+01  3.000000e+00 
  425   386   387   428     1  1.800000e+02  1.297040e+01  3.000000e+00  1.800000e+02  1.297040e+01  3.000000e+00 
  385   386   425   424     1  1.800000e+02  1.297040e+01  3.000000e+00  1.800000e+02  1.297040e+01  3.000000e+00 
  385   386   425   426     1  3.600000e+02  1.297040e+01  3.000000e+00  3.600000e+02  1.297040e+01  3.000000e+00 
  387   386   425   424     1  3.600000e+02  1.297040e+01  3.000000e+00  3.600000e+02  1.297040e+01  3.000000e+00 
  387   386   425   426     1  1.800000e+02  1.297040e+01  3.000000e+00  1.800000e+02  1.297040e+01  3.000000e+00 
  386   387   388   347     1  1.800000e+02  1.297040e+01  3.000000e+00  1.800000e+02  1.297040e+01  3.000000e+00 
  386   387   388   389     1  3.600000e+02  1.297040e+01  3.000000e+00  3.600000e+02  1.297040e+01  3.000000e+00 
  428   387   388   347     1  3.600000e+02  1.297040e+01  3.000000e+00  3.600000e+02  1.297040e+01  3.000000e+00 
  428   387   388   389     1  1.800000e+02  1.297040e+01  3.000000e+00  1.800000e+02  1.297040e+01  3.000000e+00 
  386   387   428   427     1  1.800000e+02  1.297040e+01  3.000000e+00  1.800000e+02  1.297040e+01  3.000000e+00 
  386   387   428   429     1  3.600000e+02  1.297040e+01  3.000000e+00  3.600000e+02  1.297040e+01  3.000000e+00 
  388   387   428   427     1  3.600000e+02  1.297040e+01  3.000000e+00  3.600000e+02  1.297040e+01  3.000000e+00 
  388   387   428   429     1  1.800000e+02  1.297040e+01  3.000000e+00  1.800000e+02  1.297040e+01  3.000000e+00 
  347   388   389   350     1  1.800000e+02  1.297040e+01  3.000000e+00  1.800000e+02  1.297040e+01  3.000000e+00 
  347   388   389   390     1  3.600000e+02  1.297040e+01  3.000000e+00  3.600000e+02  1.297040e+01  3.000000e+00 
  387   388   389   350     1  3.600000e+02  1.297040e+01  3.000000e+00  3.600000e+02  1.297040e+01  3.000000e+00 
  387   388   389   390     1  1.800000e+02  1.297040e+01  3.000000e+00  1.800000e+02  1.297040e+01  3.000000e+00 
  350   389   390   391     1  1.800000e+02  1.297040e+01  3.000000e+00  1.800000e+02  1.297040e+01  3.000000e+00 
  350   389   390   429     1  3.600000e+02  1.297040e+01  3.000000e+00  3.600000e+02  1.297040e+01  3.000000e+00 
  388   389   390   391     1  3.600000e+02  1.297040e+01  3.000000e+00  3.600000e+02  1.297040e+01  3.000000e+00 
  388   389   390   429     1  1.800000e+02  1.297040e+01  3.000000e+00  1.800000e+02  1.297040e+01  3.000000e+00 
  389   390   391   392     1  1.800000e+02  1.297040e+01  3.000000e+00  1.800000e+02  1.297040e+01  3.000000e+00 
  389   390   391   432     1  3.600000e+02  1.297040e+01  3.000000e+00  3.600000e+02  1.297040e+01  3.000000e+00 
  429   390   391   392     1  3.600000e+02  1.297040e+01  3.000000e+00  3.600000e+02  1.297040e+01  3.000000e+00 
  429   390   391   432     1  1.800000e+02  1.297040e+01  3.000000e+00  1.800000e+02  1.297040e+01  3.000000e+00 
  389   390   429   428     1  1.800000e+02  1.297040e+01  3.000000e+00  1.800000e+02  1.297040e+01  3.000000e+00 
  389   390   429   430     1  3.600000e+02  1.297040e+01  3.000000e+00  3.600000e+02  1.297040e+01  3.000000e+00 
  391   390   429   428     1  3.600000e+02  1.297040e+01  3.000000e+00  3.600000e+02  1.297040e+01  3.000000e+00 
  391   390   429   430     1  1.800000e+02  1.297040e+01  3.000000e+00  1.800000e+02  1.297040e+01  3.000000e+00 
  390   391   392   351     1  1.800000e+02  1.297040e+01  3.000000e+00  1.800000e+02  1.297040e+01  3.000000e+00 
  390   391   392   393     1  3.600000e+02  1.297040e+01  3.000000e+00  3.600000e+02  1.297040e+01  3.000000e+00 
  432   391   392   351     1  3.600000e+02  1.297040e+01  3.000000e+00  3.600000e+02  1.297040e+01  3.000000e+00 
  432   391   392   393     1  1.800000e+02  1.297040e+01  3.000000e+00  1.800000e+02  1.297040e+01  3.000000e+00 
  390   391   432   431     1  1.800000e+02  1.297040e+01  3.000000e+00  1.800000e+02  1.297040e+01  3.000000e+00 
  390   391   432   433     1  3.600000e+02  1.297040e+01  3.000000e+00  3.600000e+02  1.297040e+01  3.000000e+00 
  392   391   432   431     1  3.600000e+02  1.297040e+01  3.000000e+00  3.600000e+02  1.297040e+01  3.000000e+00 
  392   391   432   433     1  1.800000e+02  1.297040e+01  3.000000e+00  1.800000e+02  1.297040e+01  3.000000e+00 
  351   392   393   354     1  1.800000e+02  1.297040e+01  3.000000e+00  1.800000e+02  1.297040e+01  3.000000e+00 
  351   392   393   394     1  3.600000e+02  1.297040e+01  3.000000e+00  3.600000e+02  1.297040e+01  3.000000e+00 
  391   392   393   354     1  3.600000e+02  1.297040e+01  3.000000e+00  3.600000e+02  1.297040e+01  3.000000e+00 
  391   392   393   394     1  1.800000e+02  1.297040e+01  3.000000e+00  1.800000e+02  1.297040e+01  3.000000e+00 
  354   393   394   395     1  1.800000e+02  1.297040e+01  3.000000e+00  1.800000e+02  1.297040e+01  3.000000e+00 
  354   393   394   433     1  3.600000e+02  1.297040e+01  3.000000e+00  3.600000e+02  1.297040e+01  3.000000e+00 
  392   393   394   395     1  3.600000e+02  1.297040e+01  3.000000e+00  3.600000e+02  1.297040e+01  3.000000e+00 
  392   393   394   433     1  1.800000e+02  1.297040e+01  3.000000e+00  1.800000e+02  1.297040e+01  3.000000e+00 
  393   394   395   396     1  1.800000e+02  1.297040e+01  3.000000e+00  1.800000e+02  1.297040e+01  3.000000e+00 
  393   394   395   436     1  3.600000e+02  1.297040e+01  3.000000e+00  3.600000e+02  1.297040e+01  3.000000e+00 
  433   394   395   396     1  3.600000e+02  1.297040e+01  3.000000e+00  3.600000e+02  1.297040e+01  3.000000e+00 
  433   394   395   436     1  1.800000e+02  1.297040e+01  3.000000e+00  1.800000e+02  1.297040e+01  3.000000e+00 
  393   394   433   432     1  1.800000e+02  1.297040e+01  3.000000e+00  1.800000e+02  1.297040e+01  3.000000e+00 
  393   394   433   434     1  3.600000e+02  1.297040e+01  3.000000e+00  3.600000e+02  1.297040e+01  3.000000e+00 
  395   394   433   432     1  3.600000e+02  1.297040e+01  3.000000e+00  3.600000e+02  1.297040e+01  3.000000e+00 
  395   394   433   434     1  1.800000e+02  1.297040e+01  3.000000e+00  1.800000e+02  1.297040e+01  3.000000e+00 
  394   395   396   355     1  1.800000e+02  1.297040e+01  3.000000e+00  1.800000e+02  1.297040e+01  3.000000e+00 
  394   395   396   397     1  3.600000e+02  1.297040e+01  3.000000e+00  3.600000e+02  1.297040e+01  3.000000e+00 
  436   395   396   355     1  3.600000e+02  1.297040e+01  3.000000e+00  3.600000e+02  1.297040e+01  3.000000e+00 
  436   395   396   397     1  1.800000e+02  1.297040e+01  3.000000e+00  1.800000e+02  1.297040e+01  3.000000e+00 
  394   395   436   435     1  1.800000e+02  1.297040e+01  3.000000e+00  1.800000e+02  1.297040e+01  3.000000e+00 
  394   395   436   437     1  3.600000e+02  1.297040e+01  3.000000e+00  3.600000e+02  1.297040e+01  3.000000e+00 
  396   395   436   435     1  3.600000e+02  1.297040e+01  3.000000e+00  3.600000e+02  1.297040e+01  3.000000e+00 
  396   395   436   437     1  1.800000e+02  1.297040e+01  3.000000e+00  1.800000e+02  1.297040e+01  3.000000e+00 
  355   396   397   358     1  1.800000e+02  1.297040e+01  3.000000e+00  1.800000e+02  1.297040e+01  3.000000e+00 
  355   396   397   398     1  3.600000e+02  1.297040e+01  3.000000e+00  3.600000e+02  1.297040e+01  3.000000e+00 
  395   396   397   358     1  3.600000e+02  1.297040e+01  3.000000e+00  3.600000e+02  1.297040e+01  3.000000e+00 
  395   396   397   398     1  1.800000e+02  1.297040e+01  3.000000e+00  1.800000e+02  1.297040e+01  3.000000e+00 
  358   397   398   399     1  1.800000e+02  1.297040e+01  3.000000e+00  1.800000e+02  1.297040e+01  3.000000e+00 
  358   397   398   437     1  3.600000e+02  1.297040e+01  3.000000e+00  3.600000e+02  1.297040e+01  3.000000e+00 
  396   397   398   399     1  3.600000e+02  1.297040e+01  3.000000e+00  3.600000e+02  1.297040e+01  3.000000e+00 
  396   397   398   437     1  1.800000e+02  1.297040e+01  3.000000e+00  1.800000e+02  1.297040e+01  3.000000e+00 
  397   398   399   400     1  1.800000e+02  1.297040e+01  3.000000e+00  1.800000e+02  1.297040e+01  3.000000e+00 
  397   398   399   440     1  3.600000e+02  1.297040e+01  3.000000e+00  3.600000e+02  1.297040e+01  3.000000e+00 
  437   398   399   400     1  3.600000e+02  1.297040e+01  3.000000e+00  3.600000e+02  1.297040e+01  3.000000e+00 
  437   398   399   440     1  1.800000e+02  1.297040e+01  3.000000e+00  1.800000e+02  1.297040e+01  3.000000e+00 
  397   398   437   436     1  1.800000e+02  1.297040e+01  3.000000e+00  1.800000e+02  1.297040e+01  3.000000e+00 
  397   398   437   438     1  3.600000e+02  1.297040e+01  3.000000e+00  3.600000e+02  1.297040e+01  3.000000e+00 
  399   398   437   436     1  3.600000e+02  1.297040e+01  3.000000e+00  3.600000e+02  1.297040e+01  3.000000e+00 
  399   398   437   438     1  1.800000e+02  1.297040e+01  3.000000e+00  1.800000e+02  1.297040e+01  3.000000e+00 
  398   399   400   359     1  1.800000e+02  1.297040e+01  3.000000e+00  1.800000e+02  1.297040e+01  3.000000e+00 
  398   399   400   361     1  3.600000e+02  1.297040e+01  3.000000e+00  3.600000e+02  1.297040e+01  3.000000e+00 
  440   399   400   359     1  3.600000e+02  1.297040e+01  3.000000e+00  3.600000e+02  1.297040e+01  3.000000e+00 
  440   399   400   361     1  1.800000e+02  1.297040e+01  3.000000e+00  1.800000e+02  1.297040e+01  3.000000e+00 
  398   399   440   401     1  3.600000e+02  1.297040e+01  3.000000e+00  3.600000e+02  1.297040e+01  3.000000e+00 
  398   399   440   439     1  1.800000e+02  1.297040e+01  3.000000e+00  1.800000e+02  1.297040e+01  3.000000e+00 
  400   399   440   401     1  1.800000e+02  1.297040e+01  3.000000e+00  1.800000e+02  1.297040e+01  3.000000e+00 
  400   399   440   439     1  3.600000e+02  1.297040e+01  3.000000e+00  3.600000e+02  1.297040e+01  3.000000e+00 
  362   401   402   403     1  1.800000e+02  1.297040e+01  3.000000e+00  1.800000e+02  1.297040e+01  3.000000e+00 
  362   401   402   441     1  3.600000e+02  1.297040e+01  3.000000e+00  3.600000e+02  1.297040e+01  3.000000e+00 
  440   401   402   403     1  3.600000e+02  1.297040e+01  3.000000e+00  3.600000e+02  1.297040e+01  3.000000e+00 
  440   401   402   441     1  1.800000e+02  1.297040e+01  3.000000e+00  1.800000e+02  1.297040e+01  3.000000e+00 
  362   401   440   399     1  1.800000e+02  1.297040e+01  3.000000e+00  1.800000e+02  1.297040e+01  3.000000e+00 
  362   401   440   439     1  3.600000e+02  1.297040e+01  3.000000e+00  3.600000e+02  1.297040e+01  3.000000e+00 
  402   401   440   399     1  3.600000e+02  1.297040e+01  3.000000e+00  3.600000e+02  1.297040e+01  3.000000e+00 
  402   401   440   439     1  1.800000e+02  1.297040e+01  3.000000e+00  1.800000e+02  1.297040e+01  3.000000e+00 
  401   402   403   404     1  1.800000e+02  1.297040e+01  3.000000e+00  1.800000e+02  1.297040e+01  3.000000e+00 
  401   402   403   444     1  3.600000e+02  1.297040e+01  3.000000e+00  3.600000e+02  1.297040e+01  3.000000e+00 
  441   402   403   404     1  3.600000e+02  1.297040e+01  3.000000e+00  3.600000e+02  1.297040e+01  3.000000e+00 
  441   402   403   444     1  1.800000e+02  1.297040e+01  3.000000e+00  1.800000e+02  1.297040e+01  3.000000e+00 
  401   402   441   442     1  3.600000e+02  1.297040e+01  3.000000e+00  3.600000e+02  1.297040e+01  3.000000e+00 
  401   402   441   480     1  1.800000e+02  1.297040e+01  3.000000e+00  1.800000e+02  1.297040e+01  3.000000e+00 
  403   402   441   442     1  1.800000e+02  1.297040e+01  3.000000e+00  1.800000e+02  1.297040e+01  3.000000e+00 
  403   402   441   480     1  3.600000e+02  1.297040e+01  3.000000e+00  3.600000e+02  1.297040e+01  3.000000e+00 
  402   403   404   363     1  1.800000e+02  1.297040e+01  3.000000e+00  1.800000e+02  1.297040e+01  3.000000e+00 
  402   403   404   405     1  3.600000e+02  1.297040e+01  3.000000e+00  3.600000e+02  1.297040e+01  3.000000e+00 
  444   403   404   363     1  3.600000e+02  1.297040e+01  3.000000e+00  3.600000e+02  1.297040e+01  3.000000e+00 
  444   403   404   405     1  1.800000e+02  1.297040e+01  3.000000e+00  1.800000e+02  1.297040e+01  3.000000e+00 
  402   403   444   443     1  1.800000e+02  1.297040e+01  3.000000e+00  1.800000e+02  1.297040e+01  3.000000e+00 
  402   403   444   445     1  3.600000e+02  1.297040e+01  3.000000e+00  3.600000e+02  1.297040e+01  3.000000e+00 
  404   403   444   443     1  3.600000e+02  1.297040e+01  3.000000e+00  3.600000e+02  1.297040e+01  3.000000e+00 
  404   403   444   445     1  1.800000e+02  1.297040e+01  3.000000e+00  1.800000e+02  1.297040e+01  3.000000e+00 
  363   404   405   366     1  1.800000e+02  1.297040e+01  3.000000e+00  1.800000e+02  1.297040e+01  3.000000e+00 
  363   404   405   406     1  3.600000e+02  1.297040e+01  3.000000e+00  3.600000e+02  1.297040e+01  3.000000e+00 
  403   404   405   366     1  3.600000e+02  1.297040e+01  3.000000e+00  3.600000e+02  1.297040e+01  3.000000e+00 
  403   404   405   406     1  1.800000e+02  1.297040e+01  3.000000e+00  1.800000e+02  1.297040e+01  3.000000e+00 
  366   405   406   407     1  1.800000e+02  1.297040e+01  3.000000e+00  1.800000e+02  1.297040e+01  3.000000e+00 
  366   405   406   445     1  3.600000e+02  1.297040e+01  3.000000e+00  3.600000e+02  1.297040e+01  3.000000e+00 
  404   405   406   407     1  3.600000e+02  1.297040e+01  3.000000e+00  3.600000e+02  1.297040e+01  3.000000e+00 
  404   405   406   445     1  1.800000e+02  1.297040e+01  3.000000e+00  1.800000e+02  1.297040e+01  3.000000e+00 
  405   406   407   408     1  1.800000e+02  1.297040e+01  3.000000e+00  1.800000e+02  1.297040e+01  3.000000e+00 
  405   406   407   448     1  3.600000e+02  1.297040e+01  3.000000e+00  3.600000e+02  1.297040e+01  3.000000e+00 
  445   406   407   408     1  3.600000e+02  1.297040e+01  3.000000e+00  3.600000e+02  1.297040e+01  3.000000e+00 
  445   406   407   448     1  1.800000e+02  1.297040e+01  3.000000e+00  1.800000e+02  1.297040e+01  3.000000e+00 
  405   406   445   444     1  1.800000e+02  1.297040e+01  3.000000e+00  1.800000e+02  1.297040e+01  3.000000e+00 
  405   406   445   446     1  3.600000e+02  1.297040e+01  3.000000e+00  3.600000e+02  1.297040e+01  3.000000e+00 
  407   406   445   444     1  3.600000e+02  1.297040e+01  3.000000e+00  3.600000e+02  1.297040e+01  3.000000e+00 
  407   406   445   446     1  1.800000e+02  1.297040e+01  3.000000e+00  1.800000e+02  1.297040e+01  3.000000e+00 
  406   407   408   367     1  1.800000e+02  1.297040e+01  3.000000e+00  1.800000e+02  1.297040e+01  3.000000e+00 
  406   407   408   409     1  3.600000e+02  1.297040e+01  3.000000e+00  3.600000e+02  1.297040e+01  3.000000e+00 
  448   407   408   367     1  3.600000e+02  1.297040e+01  3.000000e+00  3.600000e+02  1.297040e+01  3.000000e+00 
  448   407   408   409     1  1.800000e+02  1.297040e+01  3.000000e+00  1.800000e+02  1.297040e+01  3.000000e+00 
  406   407   448   447     1  1.800000e+02  1.297040e+01  3.000000e+00  1.800000e+02  1.297040e+01  3.000000e+00 
  406   407   448   449     1  3.600000e+02  1.297040e+01  3.000000e+00  3.600000e+02  1.297040e+01  3.000000e+00 
  408   407   448   447     1  3.600000e+02  1.297040e+01  3.000000e+00  3.600000e+02  1.297040e+01  3.000000e+00 
  408   407   448   449     1  1.800000e+02  1.297040e+01  3.000000e+00  1.800000e+02  1.297040e+01  3.000000e+00 
  367   408   409   370     1  1.800000e+02  1.297040e+01  3.000000e+00  1.800000e+02  1.297040e+01  3.000000e+00 
  367   408   409   410     1  3.600000e+02  1.297040e+01  3.000000e+00  3.600000e+02  1.297040e+01  3.000000e+00 
  407   408   409   370     1  3.600000e+02  1.297040e+01  3.000000e+00  3.600000e+02  1.297040e+01  3.000000e+00 
  407   408   409   410     1  1.800000e+02  1.297040e+01  3.000000e+00  1.800000e+02  1.297040e+01  3.000000e+00 
  370   409   410   411     1  1.800000e+02  1.297040e+01  3.000000e+00  1.800000e+02  1.297040e+01  3.000000e+00 
  370   409   410   449     1  3.600000e+02  1.297040e+01  3.000000e+00  3.600000e+02  1.297040e+01  3.000000e+00 
  408   409   410   411     1  3.600000e+02  1.297040e+01  3.000000e+00  3.600000e+02  1.297040e+01  3.000000e+00 
  408   409   410   449     1  1.800000e+02  1.297040e+01  3.000000e+00  1.800000e+02  1.297040e+01  3.000000e+00 
  409   410   411   412     1  1.800000e+02  1.297040e+01  3.000000e+00  1.800000e+02  1.297040e+01  3.000000e+00 
  409   410   411   452     1  3.600000e+02  1.297040e+01  3.000000e+00  3.600000e+02  1.297040e+01  3.000000e+00 
  449   410   411   412     1  3.600000e+02  1.297040e+01  3.000000e+00  3.600000e+02  1.297040e+01  3.000000e+00 
  449   410   411   452     1  1.800000e+02  1.297040e+01  3.000000e+00  1.800000e+02  1.297040e+01  3.000000e+00 
  409   410   449   448     1  1.800000e+02  1.297040e+01  3.000000e+00  1.800000e+02  1.297040e+01  3.000000e+00 
  409   410   449   450     1  3.600000e+02  1.297040e+01  3.000000e+00  3.600000e+02  1.297040e+01  3.000000e+00 
  411   410   449   448     1  3.600000e+02  1.297040e+01  3.000000e+00  3.600000e+02  1.297040e+01  3.000000e+00 
  411   410   449   450     1  1.800000e+02  1.297040e+01  3.000000e+00  1.800000e+02  1.297040e+01  3.000000e+00 
  410   411   412   371     1  1.800000e+02  1.297040e+01  3.000000e+00  1.800000e+02  1.297040e+01  3.000000e+00 
  410   411   412   413     1  3.600000e+02  1.297040e+01  3.000000e+00  3.600000e+02  1.297040e+01  3.000000e+00 
  452   411   412   371     1  3.600000e+02  1.297040e+01  3.000000e+00  3.600000e+02  1.297040e+01  3.000000e+00 
  452   411   412   413     1  1.800000e+02  1.297040e+01  3.000000e+00  1.800000e+02  1.297040e+01  3.000000e+00 
  410   411   452   451     1  1.800000e+02  1.297040e+01  3.000000e+00  1.800000e+02  1.297040e+01  3.000000e+00 
  410   411   452   453     1  3.600000e+02  1.297040e+01  3.000000e+00  3.600000e+02  1.297040e+01  3.000000e+00 
  412   411   452   451     1  3.600000e+02  1.297040e+01  3.000000e+00  3.600000e+02  1.297040e+01  3.000000e+00 
  412   411   452   453     1  1.800000e+02  1.297040e+01  3.000000e+00  1.800000e+02  1.297040e+01  3.000000e+00 
  371   412   413   374     1  1.800000e+02  1.297040e+01  3.000000e+00  1.800000e+02  1.297040e+01  3.000000e+00 
  371   412   413   414     1  3.600000e+02  1.297040e+01  3.000000e+00  3.600000e+02  1.297040e+01  3.000000e+00 
  411   412   413   374     1  3.600000e+02  1.297040e+01  3.000000e+00  3.600000e+02  1.297040e+01  3.000000e+00 
  411   412   413   414     1  1.800000e+02  1.297040e+01  3.000000e+00  1.800000e+02  1.297040e+01  3.000000e+00 
  374   413   414   415     1  1.800000e+02  1.297040e+01  3.000000e+00  1.800000e+02  1.297040e+01  3.000000e+00 
  374   413   414   453     1  3.600000e+02  1.297040e+01  3.000000e+00  3.600000e+02  1.297040e+01  3.000000e+00 
  412   413   414   415     1  3.600000e+02  1.297040e+01  3.000000e+00  3.600000e+02  1.297040e+01  3.000000e+00 
  412   413   414   453     1  1.800000e+02  1.297040e+01  3.000000e+00  1.800000e+02  1.297040e+01  3.000000e+00 
  413   414   415   416     1  1.800000e+02  1.297040e+01  3.000000e+00  1.800000e+02  1.297040e+01  3.000000e+00 
  413   414   415   456     1  3.600000e+02  1.297040e+01  3.000000e+00  3.600000e+02  1.297040e+01  3.000000e+00 
  453   414   415   416     1  3.600000e+02  1.297040e+01  3.000000e+00  3.600000e+02  1.297040e+01  3.000000e+00 
  453   414   415   456     1  1.800000e+02  1.297040e+01  3.000000e+00  1.800000e+02  1.297040e+01  3.000000e+00 
  413   414   453   452     1  1.800000e+02  1.297040e+01  3.000000e+00  1.800000e+02  1.297040e+01  3.000000e+00 
  413   414   453   454     1  3.600000e+02  1.297040e+01  3.000000e+00  3.600000e+02  1.297040e+01  3.000000e+00 
  415   414   453   452     1  3.600000e+02  1.297040e+01  3.000000e+00  3.600000e+02  1.297040e+01  3.000000e+00 
  415   414   453   454     1  1.800000e+02  1.297040e+01  3.000000e+00  1.800000e+02  1.297040e+01  3.000000e+00 
  414   415   416   375     1  1.800000e+02  1.297040e+01  3.000000e+00  1.800000e+02  1.297040e+01  3.000000e+00 
  414   415   416   417     1  3.600000e+02  1.297040e+01  3.000000e+00  3.600000e+02  1.297040e+01  3.000000e+00 
  456   415   416   375     1  3.600000e+02  1.297040e+01  3.000000e+00  3.600000e+02  1.297040e+01  3.000000e+00 
  456   415   416   417     1  1.800000e+02  1.297040e+01  3.000000e+00  1.800000e+02  1.297040e+01  3.000000e+00 
  414   415   456   455     1  1.800000e+02  1.297040e+01  3.000000e+00  1.800000e+02  1.297040e+01  3.000000e+00 
  414   415   456   457     1  3.600000e+02  1.297040e+01  3.000000e+00  3.600000e+02  1.297040e+01  3.000000e+00 
  416   415   456   455     1  3.600000e+02  1.297040e+01  3.000000e+00  3.600000e+02  1.297040e+01  3.000000e+00 
  416   415   456   457     1  1.800000e+02  1.297040e+01  3.000000e+00  1.800000e+02  1.297040e+01  3.000000e+00 
  375   416   417   378     1  1.800000e+02  1.297040e+01  3.000000e+00  1.800000e+02  1.297040e+01  3.000000e+00 
  375   416   417   418     1  3.600000e+02  1.297040e+01  3.000000e+00  3.600000e+02  1.297040e+01  3.000000e+00 
  415   416   417   378     1  3.600000e+02  1.297040e+01  3.000000e+00  3.600000e+02  1.297040e+01  3.000000e+00 
  415   416   417   418     1  1.800000e+02  1.297040e+01  3.000000e+00  1.800000e+02  1.297040e+01  3.000000e+00 
  378   417   418   419     1  1.800000e+02  1.297040e+01  3.000000e+00  1.800000e+02  1.297040e+01  3.000000e+00 
  378   417   418   457     1  3.600000e+02  1.297040e+01  3.000000e+00  3.600000e+02  1.297040e+01  3.000000e+00 
  416   417   418   419     1  3.600000e+02  1.297040e+01  3.000000e+00  3.600000e+02  1.297040e+01  3.000000e+00 
  416   417   418   457     1  1.800000e+02  1.297040e+01  3.000000e+00  1.800000e+02  1.297040e+01  3.000000e+00 
  417   418   419   420     1  1.800000e+02  1.297040e+01  3.000000e+00  1.800000e+02  1.297040e+01  3.000000e+00 
  417   418   419   460     1  3.600000e+02  1.297040e+01  3.000000e+00  3.600000e+02  1.297040e+01  3.000000e+00 
  457   418   419   420     1  3.600000e+02  1.297040e+01  3.000000e+00  3.600000e+02  1.297040e+01  3.000000e+00 
  457   418   419   460     1  1.800000e+02  1.297040e+01  3.000000e+00  1.800000e+02  1.297040e+01  3.000000e+00 
  417   418   457   456     1  1.800000e+02  1.297040e+01  3.000000e+00  1.800000e+02  1.297040e+01  3.000000e+00 
  417   418   457   458     1  3.600000e+02  1.297040e+01  3.000000e+00  3.600000e+02  1.297040e+01  3.000000e+00 
  419   418   457   456     1  3.600000e+02  1.297040e+01  3.000000e+00  3.600000e+02  1.297040e+01  3.000000e+00 
  419   418   457   458     1  1.800000e+02  1.297040e+01  3.000000e+00  1.800000e+02  1.297040e+01  3.000000e+00 
  418   419   420   379     1  1.800000e+02  1.297040e+01  3.000000e+00  1.800000e+02  1.297040e+01  3.000000e+00 
  418   419   420   421     1  3.600000e+02  1.297040e+01  3.000000e+00  3.600000e+02  1.297040e+01  3.000000e+00 
  460   419   420   379     1  3.600000e+02  1.297040e+01  3.000000e+00  3.600000e+02  1.297040e+01  3.000000e+00 
  460   419   420   421     1  1.800000e+02  1.297040e+01  3.000000e+00  1.800000e+02  1.297040e+01  3.000000e+00 
  418   419   460   459     1  1.800000e+02  1.297040e+01  3.000000e+00  1.800000e+02  1.297040e+01  3.000000e+00 
  418   419   460   461     1  3.600000e+02  1.297040e+01  3.000000e+00  3.600000e+02  1.297040e+01  3.000000e+00 
  420   419   460   459     1  3.600000e+02  1.297040e+01  3.000000e+00  3.600000e+02  1.297040e+01  3.000000e+00 
  420   419   460   461     1  1.800000e+02  1.297040e+01  3.000000e+00  1.800000e+02  1.297040e+01  3.000000e+00 
  379   420   421   382     1  1.800000e+02  1.297040e+01  3.000000e+00  1.800000e+02  1.297040e+01  3.000000e+00 
  379   420   421   422     1  3.600000e+02  1.297040e+01  3.000000e+00  3.600000e+02  1.297040e+01  3.000000e+00 
  419   420   421   382     1  3.600000e+02  1.297040e+01  3.000000e+00  3.600000e+02  1.297040e+01  3.000000e+00 
  419   420   421   422     1  1.800000e+02  1.297040e+01  3.000000e+00  1.800000e+02  1.297040e+01  3.000000e+00 
  382   421   422   423     1  1.800000e+02  1.297040e+01  3.000000e+00  1.800000e+02  1.297040e+01  3.000000e+00 
  382   421   422   461     1  3.600000e+02  1.297040e+01  3.000000e+00  3.600000e+02  1.297040e+01  3.000000e+00 
  420   421   422   423     1  3.600000e+02  1.297040e+01  3.000000e+00  3.600000e+02  1.297040e+01  3.000000e+00 
  420   421   422   461     1  1.800000e+02  1.297040e+01  3.000000e+00  1.800000e+02  1.297040e+01  3.000000e+00 
  421   422   423   424     1  1.800000e+02  1.297040e+01  3.000000e+00  1.800000e+02  1.297040e+01  3.000000e+00 
  421   422   423   464     1  3.600000e+02  1.297040e+01  3.000000e+00  3.600000e+02  1.297040e+01  3.000000e+00 
  461   422   423   424     1  3.600000e+02  1.297040e+01  3.000000e+00  3.600000e+02  1.297040e+01  3.000000e+00 
  461   422   423   464     1  1.800000e+02  1.297040e+01  3.000000e+00  1.800000e+02  1.297040e+01  3.000000e+00 
  421   422   461   460     1  1.800000e+02  1.297040e+01  3.000000e+00  1.800000e+02  1.297040e+01  3.000000e+00 
  421   422   461   462     1  3.600000e+02  1.297040e+01  3.000000e+00  3.600000e+02  1.297040e+01  3.000000e+00 
  423   422   461   460     1  3.600000e+02  1.297040e+01  3.000000e+00  3.600000e+02  1.297040e+01  3.000000e+00 
  423   422   461   462     1  1.800000e+02  1.297040e+01  3.000000e+00  1.800000e+02  1.297040e+01  3.000000e+00 
  422   423   424   383     1  1.800000e+02  1.297040e+01  3.000000e+00  1.800000e+02  1.297040e+01  3.000000e+00 
  422   423   424   425     1  3.600000e+02  1.297040e+01  3.000000e+00  3.600000e+02  1.297040e+01  3.000000e+00 
  464   423   424   383     1  3.600000e+02  1.297040e+01  3.000000e+00  3.600000e+02  1.297040e+01  3.000000e+00 
  464   423   424   425     1  1.800000e+02  1.297040e+01  3.000000e+00  1.800000e+02  1.297040e+01  3.000000e+00 
  422   423   464   463     1  1.800000e+02  1.297040e+01  3.000000e+00  1.800000e+02  1.297040e+01  3.000000e+00 
  422   423   464   465     1  3.600000e+02  1.297040e+01  3.000000e+00  3.600000e+02  1.297040e+01  3.000000e+00 
  424   423   464   463     1  3.600000e+02  1.297040e+01  3.000000e+00  3.600000e+02  1.297040e+01  3.000000e+00 
  424   423   464   465     1  1.800000e+02  1.297040e+01  3.000000e+00  1.800000e+02  1.297040e+01  3.000000e+00 
  383   424   425   386     1  1.800000e+02  1.297040e+01  3.000000e+00  1.800000e+02  1.297040e+01  3.000000e+00 
  383   424   425   426     1  3.600000e+02  1.297040e+01  3.000000e+00  3.600000e+02  1.297040e+01  3.000000e+00 
  423   424   425   386     1  3.600000e+02  1.297040e+01  3.000000e+00  3.600000e+02  1.297040e+01  3.000000e+00 
  423   424   425   426     1  1.800000e+02  1.297040e+01  3.000000e+00  1.800000e+02  1.297040e+01  3.000000e+00 
  386   425   426   427     1  1.800000e+02  1.297040e+01  3.000000e+00  1.800000e+02  1.297040e+01  3.000000e+00 
  386   425   426   465     1  3.600000e+02  1.297040e+01  3.000000e+00  3.600000e+02  1.297040e+01  3.000000e+00 
  424   425   426   427     1  3.600000e+02  1.297040e+01  3.000000e+00  3.600000e+02  1.297040e+01  3.000000e+00 
  424   425   426   465     1  1.800000e+02  1.297040e+01  3.000000e+00  1.800000e+02  1.297040e+01  3.000000e+00 
  425   426   427   428     1  1.800000e+02  1.297040e+01  3.000000e+00  1.800000e+02  1.297040e+01  3.000000e+00 
  425   426   427   468     1  3.600000e+02  1.297040e+01  3.000000e+00  3.600000e+02  1.297040e+01  3.000000e+00 
  465   426   427   428     1  3.600000e+02  1.297040e+01  3.000000e+00  3.600000e+02  1.297040e+01  3.000000e+00 
  465   426   427   468     1  1.800000e+02  1.297040e+01  3.000000e+00  1.800000e+02  1.297040e+01  3.000000e+00 
  425   426   465   464     1  1.800000e+02  1.297040e+01  3.000000e+00  1.800000e+02  1.297040e+01  3.000000e+00 
  425   426   465   466     1  3.600000e+02  1.297040e+01  3.000000e+00  3.600000e+02  1.297040e+01  3.000000e+00 
  427   426   465   464     1  3.600000e+02  1.297040e+01  3.000000e+00  3.600000e+02  1.297040e+01  3.000000e+00 
  427   426   465   466     1  1.800000e+02  1.297040e+01  3.000000e+00  1.800000e+02  1.297040e+01  3.000000e+00 
  426   427   428   387     1  1.800000e+02  1.297040e+01  3.000000e+00  1.800000e+02  1.297040e+01  3.000000e+00 
  426   427   428   429     1  3.600000e+02  1.297040e+01  3.000000e+00  3.600000e+02  1.297040e+01  3.000000e+00 
  468   427   428   387     1  3.600000e+02  1.297040e+01  3.000000e+00  3.600000e+02  1.297040e+01  3.000000e+00 
  468   427   428   429     1  1.800000e+02  1.297040e+01  3.000000e+00  1.800000e+02  1.297040e+01  3.000000e+00 
  426   427   468   467     1  1.800000e+02  1.297040e+01  3.000000e+00  1.800000e+02  1.297040e+01  3.000000e+00 
  426   427   468   469     1  3.600000e+02  1.297040e+01  3.000000e+00  3.600000e+02  1.297040e+01  3.000000e+00 
  428   427   468   467     1  3.600000e+02  1.297040e+01  3.000000e+00  3.600000e+02  1.297040e+01  3.000000e+00 
  428   427   468   469     1  1.800000e+02  1.297040e+01  3.000000e+00  1.800000e+02  1.297040e+01  3.000000e+00 
  387   428   429   390     1  1.800000e+02  1.297040e+01  3.000000e+00  1.800000e+02  1.297040e+01  3.000000e+00 
  387   428   429   430     1  3.600000e+02  1.297040e+01  3.000000e+00  3.600000e+02  1.297040e+01  3.000000e+00 
  427   428   429   390     1  3.600000e+02  1.297040e+01  3.000000e+00  3.600000e+02  1.297040e+01  3.000000e+00 
  427   428   429   430     1  1.800000e+02  1.297040e+01  3.000000e+00  1.800000e+02  1.297040e+01  3.000000e+00 
  390   429   430   431     1  1.800000e+02  1.297040e+01  3.000000e+00  1.800000e+02  1.297040e+01  3.000000e+00 
  390   429   430   469     1  3.600000e+02  1.297040e+01  3.000000e+00  3.600000e+02  1.297040e+01  3.000000e+00 
  428   429   430   431     1  3.600000e+02  1.297040e+01  3.000000e+00  3.600000e+02  1.297040e+01  3.000000e+00 
  428   429   430   469     1  1.800000e+02  1.297040e+01  3.000000e+00  1.800000e+02  1.297040e+01  3.000000e+00 
  429   430   431   432     1  1.800000e+02  1.297040e+01  3.000000e+00  1.800000e+02  1.297040e+01  3.000000e+00 
  429   430   431   472     1  3.600000e+02  1.297040e+01  3.000000e+00  3.600000e+02  1.297040e+01  3.000000e+00 
  469   430   431   432     1  3.600000e+02  1.297040e+01  3.000000e+00  3.600000e+02  1.297040e+01  3.000000e+00 
  469   430   431   472     1  1.800000e+02  1.297040e+01  3.000000e+00  1.800000e+02  1.297040e+01  3.000000e+00 
  429   430   469   468     1  1.800000e+02  1.297040e+01  3.000000e+00  1.800000e+02  1.297040e+01  3.000000e+00 
  429   430   469   470     1  3.600000e+02  1.297040e+01  3.000000e+00  3.600000e+02  1.297040e+01  3.000000e+00 
  431   430   469   468     1  3.600000e+02  1.297040e+01  3.000000e+00  3.600000e+02  1.297040e+01  3.000000e+00 
  431   430   469   470     1  1.800000e+02  1.297040e+01  3.000000e+00  1.800000e+02  1.297040e+01  3.000000e+00 
  430   431   432   391     1  1.800000e+02  1.297040e+01  3.000000e+00  1.800000e+02  1.297040e+01  3.000000e+00 
  430   431   432   433     1  3.600000e+02  1.297040e+01  3.000000e+00  3.600000e+02  1.297040e+01  3.000000e+00 
  472   431   432   391     1  3.600000e+02  1.297040e+01  3.000000e+00  3.600000e+02  1.297040e+01  3.000000e+00 
  472   431   432   433     1  1.800000e+02  1.297040e+01  3.000000e+00  1.800000e+02  1.297040e+01  3.000000e+00 
  430   431   472   471     1  1.800000e+02  1.297040e+01  3.000000e+00  1.800000e+02  1.297040e+01  3.000000e+00 
  430   431   472   473     1  3.600000e+02  1.297040e+01  3.000000e+00  3.600000e+02  1.297040e+01  3.000000e+00 
  432   431   472   471     1  3.600000e+02  1.297040e+01  3.000000e+00  3.600000e+02  1.297040e+01  3.000000e+00 
  432   431   472   473     1  1.800000e+02  1.297040e+01  3.000000e+00  1.800000e+02  1.297040e+01  3.000000e+00 
  391   432   433   394     1  1.800000e+02  1.297040e+01  3.000000e+00  1.800000e+02  1.297040e+01  3.000000e+00 
  391   432   433   434     1  3.600000e+02  1.297040e+01  3.000000e+00  3.600000e+02  1.297040e+01  3.000000e+00 
  431   432   433   394     1  3.600000e+02  1.297040e+01  3.000000e+00  3.600000e+02  1.297040e+01  3.000000e+00 
  431   432   433   434     1  1.800000e+02  1.297040e+01  3.000000e+00  1.800000e+02  1.297040e+01  3.000000e+00 
  394   433   434   435     1  1.800000e+02  1.297040e+01  3.000000e+00  1.800000e+02  1.297040e+01  3.000000e+00 
  394   433   434   473     1  3.600000e+02  1.297040e+01  3.000000e+00  3.600000e+02  1.297040e+01  3.000000e+00 
  432   433   434   435     1  3.600000e+02  1.297040e+01  3.000000e+00  3.600000e+02  1.297040e+01  3.000000e+00 
  432   433   434   473     1  1.800000e+02  1.297040e+01  3.000000e+00  1.800000e+02  1.297040e+01  3.000000e+00 
  433   434   435   436     1  1.800000e+02  1.297040e+01  3.000000e+00  1.800000e+02  1.297040e+01  3.000000e+00 
  433   434   435   476     1  3.600000e+02  1.297040e+01  3.000000e+00  3.600000e+02  1.297040e+01  3.000000e+00 
  473   434   435   436     1  3.600000e+02  1.297040e+01  3.000000e+00  3.600000e+02  1.297040e+01  3.000000e+00 
  473   434   435   476     1  1.800000e+02  1.297040e+01  3.000000e+00  1.800000e+02  1.297040e+01  3.000000e+00 
  433   434   473   472     1  1.800000e+02  1.297040e+01  3.000000e+00  1.800000e+02  1.297040e+01  3.000000e+00 
  433   434   473   474     1  3.600000e+02  1.297040e+01  3.000000e+00  3.600000e+02  1.297040e+01  3.000000e+00 
  435   434   473   472     1  3.600000e+02  1.297040e+01  3.000000e+00  3.600000e+02  1.297040e+01  3.000000e+00 
  435   434   473   474     1  1.800000e+02  1.297040e+01  3.000000e+00  1.800000e+02  1.297040e+01  3.000000e+00 
  434   435   436   395     1  1.800000e+02  1.297040e+01  3.000000e+00  1.800000e+02  1.297040e+01  3.000000e+00 
  434   435   436   437     1  3.600000e+02  1.297040e+01  3.000000e+00  3.600000e+02  1.297040e+01  3.000000e+00 
  476   435   436   395     1  3.600000e+02  1.297040e+01  3.000000e+00  3.600000e+02  1.297040e+01  3.000000e+00 
  476   435   436   437     1  1.800000e+02  1.297040e+01  3.000000e+00  1.800000e+02  1.297040e+01  3.000000e+00 
  434   435   476   475     1  1.800000e+02  1.297040e+01  3.000000e+00  1.800000e+02  1.297040e+01  3.000000e+00 
  434   435   476   477     1  3.600000e+02  1.297040e+01  3.000000e+00  3.600000e+02  1.297040e+01  3.000000e+00 
  436   435   476   475     1  3.600000e+02  1.297040e+01  3.000000e+00  3.600000e+02  1.297040e+01  3.000000e+00 
  436   435   476   477     1  1.800000e+02  1.297040e+01  3.000000e+00  1.800000e+02  1.297040e+01  3.000000e+00 
  395   436   437   398     1  1.800000e+02  1.297040e+01  3.000000e+00  1.800000e+02  1.297040e+01  3.000000e+00 
  395   436   437   438     1  3.600000e+02  1.297040e+01  3.000000e+00  3.600000e+02  1.297040e+01  3.000000e+00 
  435   436   437   398     1  3.600000e+02  1.297040e+01  3.000000e+00  3.600000e+02  1.297040e+01  3.000000e+00 
  435   436   437   438     1  1.800000e+02  1.297040e+01  3.000000e+00  1.800000e+02  1.297040e+01  3.000000e+00 
  398   437   438   439     1  1.800000e+02  1.297040e+01  3.000000e+00  1.800000e+02  1.297040e+01  3.000000e+00 
  398   437   438   477     1  3.600000e+02  1.297040e+01  3.000000e+00  3.600000e+02  1.297040e+01  3.000000e+00 
  436   437   438   439     1  3.600000e+02  1.297040e+01  3.000000e+00  3.600000e+02  1.297040e+01  3.000000e+00 
  436   437   438   477     1  1.800000e+02  1.297040e+01  3.000000e+00  1.800000e+02  1.297040e+01  3.000000e+00 
  437   438   439   440     1  1.800000e+02  1.297040e+01  3.000000e+00  1.800000e+02  1.297040e+01  3.000000e+00 
  437   438   439   480     1  3.600000e+02  1.297040e+01  3.000000e+00  3.600000e+02  1.297040e+01  3.000000e+00 
  477   438   439   440     1  3.600000e+02  1.297040e+01  3.000000e+00  3.600000e+02  1.297040e+01  3.000000e+00 
  477   438   439   480     1  1.800000e+02  1.297040e+01  3.000000e+00  1.800000e+02  1.297040e+01  3.000000e+00 
  437   438   477   476     1  1.800000e+02  1.297040e+01  3.000000e+00  1.800000e+02  1.297040e+01  3.000000e+00 
  437   438   477   478     1  3.600000e+02  1.297040e+01  3.000000e+00  3.600000e+02  1.297040e+01  3.000000e+00 
  439   438   477   476     1  3.600000e+02  1.297040e+01  3.000000e+00  3.600000e+02  1.297040e+01  3.000000e+00 
  439   438   477   478     1  1.800000e+02  1.297040e+01  3.000000e+00  1.800000e+02  1.297040e+01  3.000000e+00 
  438   439   440   399     1  1.800000e+02  1.297040e+01  3.000000e+00  1.800000e+02  1.297040e+01  3.000000e+00 
  438   439   440   401     1  3.600000e+02  1.297040e+01  3.000000e+00  3.600000e+02  1.297040e+01  3.000000e+00 
  480   439   440   399     1  3.600000e+02  1.297040e+01  3.000000e+00  3.600000e+02  1.297040e+01  3.000000e+00 
  480   439   440   401     1  1.800000e+02  1.297040e+01  3.000000e+00  1.800000e+02  1.297040e+01  3.000000e+00 
  438   439   480   441     1  3.600000e+02  1.297040e+01  3.000000e+00  3.600000e+02  1.297040e+01  3.000000e+00 
  438   439   480   479     1  1.800000e+02  1.297040e+01  3.000000e+00  1.800000e+02  1.297040e+01  3.000000e+00 
  440   439   480   441     1  1.800000e+02  1.297040e+01  3.000000e+00  1.800000e+02  1.297040e+01  3.000000e+00 
  440   439   480   479     1  3.600000e+02  1.297040e+01  3.000000e+00  3.600000e+02  1.297040e+01  3.000000e+00 
  402   441   442   443     1  1.800000e+02  1.297040e+01  3.000000e+00  1.800000e+02  1.297040e+01  3.000000e+00 
  402   441   442   481     1  3.600000e+02  1.297040e+01  3.000000e+00  3.600000e+02  1.297040e+01  3.000000e+00 
  480   441   442   443     1  3.600000e+02  1.297040e+01  3.000000e+00  3.600000e+02  1.297040e+01  3.000000e+00 
  480   441   442   481     1  1.800000e+02  1.297040e+01  3.000000e+00  1.800000e+02  1.297040e+01  3.000000e+00 
  402   441   480   439     1  1.800000e+02  1.297040e+01  3.000000e+00  1.800000e+02  1.297040e+01  3.000000e+00 
  402   441   480   479     1  3.600000e+02  1.297040e+01  3.000000e+00  3.600000e+02  1.297040e+01  3.000000e+00 
  442   441   480   439     1  3.600000e+02  1.297040e+01  3.000000e+00  3.600000e+02  1.297040e+01  3.000000e+00 
  442   441   480   479     1  1.800000e+02  1.297040e+01  3.000000e+00  1.800000e+02  1.297040e+01  3.000000e+00 
  441   442   443   444     1  1.800000e+02  1.297040e+01  3.000000e+00  1.800000e+02  1.297040e+01  3.000000e+00 
  441   442   443   484     1  3.600000e+02  1.297040e+01  3.000000e+00  3.600000e+02  1.297040e+01  3.000000e+00 
  481   442   443   444     1  3.600000e+02  1.297040e+01  3.000000e+00  3.600000e+02  1.297040e+01  3.000000e+00 
  481   442   443   484     1  1.800000e+02  1.297040e+01  3.000000e+00  1.800000e+02  1.297040e+01  3.000000e+00 
  441   442   481   482     1  3.600000e+02  1.297040e+01  3.000000e+00  3.600000e+02  1.297040e+01  3.000000e+00 
  441   442   481   520     1  1.800000e+02  1.297040e+01  3.000000e+00  1.800000e+02  1.297040e+01  3.000000e+00 
  443   442   481   482     1  1.800000e+02  1.297040e+01  3.000000e+00  1.800000e+02  1.297040e+01  3.000000e+00 
  443   442   481   520     1  3.600000e+02  1.297040e+01  3.000000e+00  3.600000e+02  1.297040e+01  3.000000e+00 
  442   443   444   403     1  1.800000e+02  1.297040e+01  3.000000e+00  1.800000e+02  1.297040e+01  3.000000e+00 
  442   443   444   445     1  3.600000e+02  1.297040e+01  3.000000e+00  3.600000e+02  1.297040e+01  3.000000e+00 
  484   443   444   403     1  3.600000e+02  1.297040e+01  3.000000e+00  3.600000e+02  1.297040e+01  3.000000e+00 
  484   443   444   445     1  1.800000e+02  1.297040e+01  3.000000e+00  1.800000e+02  1.297040e+01  3.000000e+00 
  442   443   484   483     1  1.800000e+02  1.297040e+01  3.000000e+00  1.800000e+02  1.297040e+01  3.000000e+00 
  442   443   484   485     1  3.600000e+02  1.297040e+01  3.000000e+00  3.600000e+02  1.297040e+01  3.000000e+00 
  444   443   484   483     1  3.600000e+02  1.297040e+01  3.000000e+00  3.600000e+02  1.297040e+01  3.000000e+00 
  444   443   484   485     1  1.800000e+02  1.297040e+01  3.000000e+00  1.800000e+02  1.297040e+01  3.000000e+00 
  403   444   445   406     1  1.800000e+02  1.297040e+01  3.000000e+00  1.800000e+02  1.297040e+01  3.000000e+00 
  403   444   445   446     1  3.600000e+02  1.297040e+01  3.000000e+00  3.600000e+02  1.297040e+01  3.000000e+00 
  443   444   445   406     1  3.600000e+02  1.297040e+01  3.000000e+00  3.600000e+02  1.297040e+01  3.000000e+00 
  443   444   445   446     1  1.800000e+02  1.297040e+01  3.000000e+00  1.800000e+02  1.297040e+01  3.000000e+00 
  406   445   446   447     1  1.800000e+02  1.297040e+01  3.000000e+00  1.800000e+02  1.297040e+01  3.000000e+00 
  406   445   446   485     1  3.600000e+02  1.297040e+01  3.000000e+00  3.600000e+02  1.297040e+01  3.000000e+00 
  444   445   446   447     1  3.600000e+02  1.297040e+01  3.000000e+00  3.600000e+02  1.297040e+01  3.000000e+00 
  444   445   446   485     1  1.800000e+02  1.297040e+01  3.000000e+00  1.800000e+02  1.297040e+01  3.000000e+00 
  445   446   447   448     1  1.800000e+02  1.297040e+01  3.000000e+00  1.800000e+02  1.297040e+01  3.000000e+00 
  445   446   447   488     1  3.600000e+02  1.297040e+01  3.000000e+00  3.600000e+02  1.297040e+01  3.000000e+00 
  485   446   447   448     1  3.600000e+02  1.297040e+01  3.000000e+00  3.600000e+02  1.297040e+01  3.000000e+00 
  485   446   447   488     1  1.800000e+02  1.297040e+01  3.000000e+00  1.800000e+02  1.297040e+01  3.000000e+00 
  445   446   485   484     1  1.800000e+02  1.297040e+01  3.000000e+00  1.800000e+02  1.297040e+01  3.000000e+00 
  445   446   485   486     1  3.600000e+02  1.297040e+01  3.000000e+00  3.600000e+02  1.297040e+01  3.000000e+00 
  447   446   485   484     1  3.600000e+02  1.297040e+01  3.000000e+00  3.600000e+02  1.297040e+01  3.000000e+00 
  447   446   485   486     1  1.800000e+02  1.297040e+01  3.000000e+00  1.800000e+02  1.297040e+01  3.000000e+00 
  446   447   448   407     1  1.800000e+02  1.297040e+01  3.000000e+00  1.800000e+02  1.297040e+01  3.000000e+00 
  446   447   448   449     1  3.600000e+02  1.297040e+01  3.000000e+00  3.600000e+02  1.297040e+01  3.000000e+00 
  488   447   448   407     1  3.600000e+02  1.297040e+01  3.000000e+00  3.600000e+02  1.297040e+01  3.000000e+00 
  488   447   448   449     1  1.800000e+02  1.297040e+01  3.000000e+00  1.800000e+02  1.297040e+01  3.000000e+00 
  446   447   488   487     1  1.800000e+02  1.297040e+01  3.000000e+00  1.800000e+02  1.297040e+01  3.000000e+00 
  446   447   488   489     1  3.600000e+02  1.297040e+01  3.000000e+00  3.600000e+02  1.297040e+01  3.000000e+00 
  448   447   488   487     1  3.600000e+02  1.297040e+01  3.000000e+00  3.600000e+02  1.297040e+01  3.000000e+00 
  448   447   488   489     1  1.800000e+02  1.297040e+01  3.000000e+00  1.800000e+02  1.297040e+01  3.000000e+00 
  407   448   449   410     1  1.800000e+02  1.297040e+01  3.000000e+00  1.800000e+02  1.297040e+01  3.000000e+00 
  407   448   449   450     1  3.600000e+02  1.297040e+01  3.000000e+00  3.600000e+02  1.297040e+01  3.000000e+00 
  447   448   449   410     1  3.600000e+02  1.297040e+01  3.000000e+00  3.600000e+02  1.297040e+01  3.000000e+00 
  447   448   449   450     1  1.800000e+02  1.297040e+01  3.000000e+00  1.800000e+02  1.297040e+01  3.000000e+00 
  410   449   450   451     1  1.800000e+02  1.297040e+01  3.000000e+00  1.800000e+02  1.297040e+01  3.000000e+00 
  410   449   450   489     1  3.600000e+02  1.297040e+01  3.000000e+00  3.600000e+02  1.297040e+01  3.000000e+00 
  448   449   450   451     1  3.600000e+02  1.297040e+01  3.000000e+00  3.600000e+02  1.297040e+01  3.000000e+00 
  448   449   450   489     1  1.800000e+02  1.297040e+01  3.000000e+00  1.800000e+02  1.297040e+01  3.000000e+00 
  449   450   451   452     1  1.800000e+02  1.297040e+01  3.000000e+00  1.800000e+02  1.297040e+01  3.000000e+00 
  449   450   451   492     1  3.600000e+02  1.297040e+01  3.000000e+00  3.600000e+02  1.297040e+01  3.000000e+00 
  489   450   451   452     1  3.600000e+02  1.297040e+01  3.000000e+00  3.600000e+02  1.297040e+01  3.000000e+00 
  489   450   451   492     1  1.800000e+02  1.297040e+01  3.000000e+00  1.800000e+02  1.297040e+01  3.000000e+00 
  449   450   489   488     1  1.800000e+02  1.297040e+01  3.000000e+00  1.800000e+02  1.297040e+01  3.000000e+00 
  449   450   489   490     1  3.600000e+02  1.297040e+01  3.000000e+00  3.600000e+02  1.297040e+01  3.000000e+00 
  451   450   489   488     1  3.600000e+02  1.297040e+01  3.000000e+00  3.600000e+02  1.297040e+01  3.000000e+00 
  451   450   489   490     1  1.800000e+02  1.297040e+01  3.000000e+00  1.800000e+02  1.297040e+01  3.000000e+00 
  450   451   452   411     1  1.800000e+02  1.297040e+01  3.000000e+00  1.800000e+02  1.297040e+01  3.000000e+00 
  450   451   452   453     1  3.600000e+02  1.297040e+01  3.000000e+00  3.600000e+02  1.297040e+01  3.000000e+00 
  492   451   452   411     1  3.600000e+02  1.297040e+01  3.000000e+00  3.600000e+02  1.297040e+01  3.000000e+00 
  492   451   452   453     1  1.800000e+02  1.297040e+01  3.000000e+00  1.800000e+02  1.297040e+01  3.000000e+00 
  450   451   492   491     1  1.800000e+02  1.297040e+01  3.000000e+00  1.800000e+02  1.297040e+01  3.000000e+00 
  450   451   492   493     1  3.600000e+02  1.297040e+01  3.000000e+00  3.600000e+02  1.297040e+01  3.000000e+00 
  452   451   492   491     1  3.600000e+02  1.297040e+01  3.000000e+00  3.600000e+02  1.297040e+01  3.000000e+00 
  452   451   492   493     1  1.800000e+02  1.297040e+01  3.000000e+00  1.800000e+02  1.297040e+01  3.000000e+00 
  411   452   453   414     1  1.800000e+02  1.297040e+01  3.000000e+00  1.800000e+02  1.297040e+01  3.000000e+00 
  411   452   453   454     1  3.600000e+02  1.297040e+01  3.000000e+00  3.600000e+02  1.297040e+01  3.000000e+00 
  451   452   453   414     1  3.600000e+02  1.297040e+01  3.000000e+00  3.600000e+02  1.297040e+01  3.000000e+00 
  451   452   453   454     1  1.800000e+02  1.297040e+01  3.000000e+00  1.800000e+02  1.297040e+01  3.000000e+00 
  414   453   454   455     1  1.800000e+02  1.297040e+01  3.000000e+00  1.800000e+02  1.297040e+01  3.000000e+00 
  414   453   454   493     1  3.600000e+02  1.297040e+01  3.000000e+00  3.600000e+02  1.297040e+01  3.000000e+00 
  452   453   454   455     1  3.600000e+02  1.297040e+01  3.000000e+00  3.600000e+02  1.297040e+01  3.000000e+00 
  452   453   454   493     1  1.800000e+02  1.297040e+01  3.000000e+00  1.800000e+02  1.297040e+01  3.000000e+00 
  453   454   455   456     1  1.800000e+02  1.297040e+01  3.000000e+00  1.800000e+02  1.297040e+01  3.000000e+00 
  453   454   455   496     1  3.600000e+02  1.297040e+01  3.000000e+00  3.600000e+02  1.297040e+01  3.000000e+00 
  493   454   455   456     1  3.600000e+02  1.297040e+01  3.000000e+00  3.600000e+02  1.297040e+01  3.000000e+00 
  493   454   455   496     1  1.800000e+02  1.297040e+01  3.000000e+00  1.800000e+02  1.297040e+01  3.000000e+00 
  453   454   493   492     1  1.800000e+02  1.297040e+01  3.000000e+00  1.800000e+02  1.297040e+01  3.000000e+00 
  453   454   493   494     1  3.600000e+02  1.297040e+01  3.000000e+00  3.600000e+02  1.297040e+01  3.000000e+00 
  455   454   493   492     1  3.600000e+02  1.297040e+01  3.000000e+00  3.600000e+02  1.297040e+01  3.000000e+00 
  455   454   493   494     1  1.800000e+02  1.297040e+01  3.000000e+00  1.800000e+02  1.297040e+01  3.000000e+00 
  454   455   456   415     1  1.800000e+02  1.297040e+01  3.000000e+00  1.800000e+02  1.297040e+01  3.000000e+00 
  454   455   456   457     1  3.600000e+02  1.297040e+01  3.000000e+00  3.600000e+02  1.297040e+01  3.000000e+00 
  496   455   456   415     1  3.600000e+02  1.297040e+01  3.000000e+00  3.600000e+02  1.297040e+01  3.000000e+00 
  496   455   456   457     1  1.800000e+02  1.297040e+01  3.000000e+00  1.800000e+02  1.297040e+01  3.000000e+00 
  454   455   496   495     1  1.800000e+02  1.297040e+01  3.000000e+00  1.800000e+02  1.297040e+01  3.000000e+00 
  454   455   496   497     1  3.600000e+02  1.297040e+01  3.000000e+00  3.600000e+02  1.297040e+01  3.000000e+00 
  456   455   496   495     1  3.600000e+02  1.297040e+01  3.000000e+00  3.600000e+02  1.297040e+01  3.000000e+00 
  456   455   496   497     1  1.800000e+02  1.297040e+01  3.000000e+00  1.800000e+02  1.297040e+01  3.000000e+00 
  415   456   457   418     1  1.800000e+02  1.297040e+01  3.000000e+00  1.800000e+02  1.297040e+01  3.000000e+00 
  415   456   457   458     1  3.600000e+02  1.297040e+01  3.000000e+00  3.600000e+02  1.297040e+01  3.000000e+00 
  455   456   457   418     1  3.600000e+02  1.297040e+01  3.000000e+00  3.600000e+02  1.297040e+01  3.000000e+00 
  455   456   457   458     1  1.800000e+02  1.297040e+01  3.000000e+00  1.800000e+02  1.297040e+01  3.000000e+00 
  418   457   458   459     1  1.800000e+02  1.297040e+01  3.000000e+00  1.800000e+02  1.297040e+01  3.000000e+00 
  418   457   458   497     1  3.600000e+02  1.297040e+01  3.000000e+00  3.600000e+02  1.297040e+01  3.000000e+00 
  456   457   458   459     1  3.600000e+02  1.297040e+01  3.000000e+00  3.600000e+02  1.297040e+01  3.000000e+00 
  456   457   458   497     1  1.800000e+02  1.297040e+01  3.000000e+00  1.800000e+02  1.297040e+01  3.000000e+00 
  457   458   459   460     1  1.800000e+02  1.297040e+01  3.000000e+00  1.800000e+02  1.297040e+01  3.000000e+00 
  457   458   459   500     1  3.600000e+02  1.297040e+01  3.000000e+00  3.600000e+02  1.297040e+01  3.000000e+00 
  497   458   459   460     1  3.600000e+02  1.297040e+01  3.000000e+00  3.600000e+02  1.297040e+01  3.000000e+00 
  497   458   459   500     1  1.800000e+02  1.297040e+01  3.000000e+00  1.800000e+02  1.297040e+01  3.000000e+00 
  457   458   497   496     1  1.800000e+02  1.297040e+01  3.000000e+00  1.800000e+02  1.297040e+01  3.000000e+00 
  457   458   497   498     1  3.600000e+02  1.297040e+01  3.000000e+00  3.600000e+02  1.297040e+01  3.000000e+00 
  459   458   497   496     1  3.600000e+02  1.297040e+01  3.000000e+00  3.600000e+02  1.297040e+01  3.000000e+00 
  459   458   497   498     1  1.800000e+02  1.297040e+01  3.000000e+00  1.800000e+02  1.297040e+01  3.000000e+00 
  458   459   460   419     1  1.800000e+02  1.297040e+01  3.000000e+00  1.800000e+02  1.297040e+01  3.000000e+00 
  458   459   460   461     1  3.600000e+02  1.297040e+01  3.000000e+00  3.600000e+02  1.297040e+01  3.000000e+00 
  500   459   460   419     1  3.600000e+02  1.297040e+01  3.000000e+00  3.600000e+02  1.297040e+01  3.000000e+00 
  500   459   460   461     1  1.800000e+02  1.297040e+01  3.000000e+00  1.800000e+02  1.297040e+01  3.000000e+00 
  458   459   500   499     1  1.800000e+02  1.297040e+01  3.000000e+00  1.800000e+02  1.297040e+01  3.000000e+00 
  458   459   500   501     1  3.600000e+02  1.297040e+01  3.000000e+00  3.600000e+02  1.297040e+01  3.000000e+00 
  460   459   500   499     1  3.600000e+02  1.297040e+01  3.000000e+00  3.600000e+02  1.297040e+01  3.000000e+00 
  460   459   500   501     1  1.800000e+02  1.297040e+01  3.000000e+00  1.800000e+02  1.297040e+01  3.000000e+00 
  419   460   461   422     1  1.800000e+02  1.297040e+01  3.000000e+00  1.800000e+02  1.297040e+01  3.000000e+00 
  419   460   461   462     1  3.600000e+02  1.297040e+01  3.000000e+00  3.600000e+02  1.297040e+01  3.000000e+00 
  459   460   461   422     1  3.600000e+02  1.297040e+01  3.000000e+00  3.600000e+02  1.297040e+01  3.000000e+00 
  459   460   461   462     1  1.800000e+02  1.297040e+01  3.000000e+00  1.800000e+02  1.297040e+01  3.000000e+00 
  422   461   462   463     1  1.800000e+02  1.297040e+01  3.000000e+00  1.800000e+02  1.297040e+01  3.000000e+00 
  422   461   462   501     1  3.600000e+02  1.297040e+01  3.000000e+00  3.600000e+02  1.297040e+01  3.000000e+00 
  460   461   462   463     1  3.600000e+02  1.297040e+01  3.000000e+00  3.600000e+02  1.297040e+01  3.000000e+00 
  460   461   462   501     1  1.800000e+02  1.297040e+01  3.000000e+00  1.800000e+02  1.297040e+01  3.000000e+00 
  461   462   463   464     1  1.800000e+02  1.297040e+01  3.000000e+00  1.800000e+02  1.297040e+01  3.000000e+00 
  461   462   463   504     1  3.600000e+02  1.297040e+01  3.000000e+00  3.600000e+02  1.297040e+01  3.000000e+00 
  501   462   463   464     1  3.600000e+02  1.297040e+01  3.000000e+00  3.600000e+02  1.297040e+01  3.000000e+00 
  501   462   463   504     1  1.800000e+02  1.297040e+01  3.000000e+00  1.800000e+02  1.297040e+01  3.000000e+00 
  461   462   501   500     1  1.800000e+02  1.297040e+01  3.000000e+00  1.800000e+02  1.297040e+01  3.000000e+00 
  461   462   501   502     1  3.600000e+02  1.297040e+01  3.000000e+00  3.600000e+02  1.297040e+01  3.000000e+00 
  463   462   501   500     1  3.600000e+02  1.297040e+01  3.000000e+00  3.600000e+02  1.297040e+01  3.000000e+00 
  463   462   501   502     1  1.800000e+02  1.297040e+01  3.000000e+00  1.800000e+02  1.297040e+01  3.000000e+00 
  462   463   464   423     1  1.800000e+02  1.297040e+01  3.000000e+00  1.800000e+02  1.297040e+01  3.000000e+00 
  462   463   464   465     1  3.600000e+02  1.297040e+01  3.000000e+00  3.600000e+02  1.297040e+01  3.000000e+00 
  504   463   464   423     1  3.600000e+02  1.297040e+01  3.000000e+00  3.600000e+02  1.297040e+01  3.000000e+00 
  504   463   464   465     1  1.800000e+02  1.297040e+01  3.000000e+00  1.800000e+02  1.297040e+01  3.000000e+00 
  462   463   504   503     1  1.800000e+02  1.297040e+01  3.000000e+00  1.800000e+02  1.297040e+01  3.000000e+00 
  462   463   504   505     1  3.600000e+02  1.297040e+01  3.000000e+00  3.600000e+02  1.297040e+01  3.000000e+00 
  464   463   504   503     1  3.600000e+02  1.297040e+01  3.000000e+00  3.600000e+02  1.297040e+01  3.000000e+00 
  464   463   504   505     1  1.800000e+02  1.297040e+01  3.000000e+00  1.800000e+02  1.297040e+01  3.000000e+00 
  423   464   465   426     1  1.800000e+02  1.297040e+01  3.000000e+00  1.800000e+02  1.297040e+01  3.000000e+00 
  423   464   465   466     1  3.600000e+02  1.297040e+01  3.000000e+00  3.600000e+02  1.297040e+01  3.000000e+00 
  463   464   465   426     1  3.600000e+02  1.297040e+01  3.000000e+00  3.600000e+02  1.297040e+01  3.000000e+00 
  463   464   465   466     1  1.800000e+02  1.297040e+01  3.000000e+00  1.800000e+02  1.297040e+01  3.000000e+00 
  426   465   466   467     1  1.800000e+02  1.297040e+01  3.000000e+00  1.800000e+02  1.297040e+01  3.000000e+00 
  426   465   466   505     1  3.600000e+02  1.297040e+01  3.000000e+00  3.600000e+02  1.297040e+01  3.000000e+00 
  464   465   466   467     1  3.600000e+02  1.297040e+01  3.000000e+00  3.600000e+02  1.297040e+01  3.000000e+00 
  464   465   466   505     1  1.800000e+02  1.297040e+01  3.000000e+00  1.800000e+02  1.297040e+01  3.000000e+00 
  465   466   467   468     1  1.800000e+02  1.297040e+01  3.000000e+00  1.800000e+02  1.297040e+01  3.000000e+00 
  465   466   467   508     1  3.600000e+02  1.297040e+01  3.000000e+00  3.600000e+02  1.297040e+01  3.000000e+00 
  505   466   467   468     1  3.600000e+02  1.297040e+01  3.000000e+00  3.600000e+02  1.297040e+01  3.000000e+00 
  505   466   467   508     1  1.800000e+02  1.297040e+01  3.000000e+00  1.800000e+02  1.297040e+01  3.000000e+00 
  465   466   505   504     1  1.800000e+02  1.297040e+01  3.000000e+00  1.800000e+02  1.297040e+01  3.000000e+00 
  465   466   505   506     1  3.600000e+02  1.297040e+01  3.000000e+00  3.600000e+02  1.297040e+01  3.000000e+00 
  467   466   505   504     1  3.600000e+02  1.297040e+01  3.000000e+00  3.600000e+02  1.297040e+01  3.000000e+00 
  467   466   505   506     1  1.800000e+02  1.297040e+01  3.000000e+00  1.800000e+02  1.297040e+01  3.000000e+00 
  466   467   468   427     1  1.800000e+02  1.297040e+01  3.000000e+00  1.800000e+02  1.297040e+01  3.000000e+00 
  466   467   468   469     1  3.600000e+02  1.297040e+01  3.000000e+00  3.600000e+02  1.297040e+01  3.000000e+00 
  508   467   468   427     1  3.600000e+02  1.297040e+01  3.000000e+00  3.600000e+02  1.297040e+01  3.000000e+00 
  508   467   468   469     1  1.800000e+02  1.297040e+01  3.000000e+00  1.800000e+02  1.297040e+01  3.000000e+00 
  466   467   508   507     1  1.800000e+02  1.297040e+01  3.000000e+00  1.800000e+02  1.297040e+01  3.000000e+00 
  466   467   508   509     1  3.600000e+02  1.297040e+01  3.000000e+00  3.600000e+02  1.297040e+01  3.000000e+00 
  468   467   508   507     1  3.600000e+02  1.297040e+01  3.000000e+00  3.600000e+02  1.297040e+01  3.000000e+00 
  468   467   508   509     1  1.800000e+02  1.297040e+01  3.000000e+00  1.800000e+02  1.297040e+01  3.000000e+00 
  427   468   469   430     1  1.800000e+02  1.297040e+01  3.000000e+00  1.800000e+02  1.297040e+01  3.000000e+00 
  427   468   469   470     1  3.600000e+02  1.297040e+01  3.000000e+00  3.600000e+02  1.297040e+01  3.000000e+00 
  467   468   469   430     1  3.600000e+02  1.297040e+01  3.000000e+00  3.600000e+02  1.297040e+01  3.000000e+00 
  467   468   469   470     1  1.800000e+02  1.297040e+01  3.000000e+00  1.800000e+02  1.297040e+01  3.000000e+00 
  430   469   470   471     1  1.800000e+02  1.297040e+01  3.000000e+00  1.800000e+02  1.297040e+01  3.000000e+00 
  430   469   470   509     1  3.600000e+02  1.297040e+01  3.000000e+00  3.600000e+02  1.297040e+01  3.000000e+00 
  468   469   470   471     1  3.600000e+02  1.297040e+01  3.000000e+00  3.600000e+02  1.297040e+01  3.000000e+00 
  468   469   470   509     1  1.800000e+02  1.297040e+01  3.000000e+00  1.800000e+02  1.297040e+01  3.000000e+00 
  469   470   471   472     1  1.800000e+02  1.297040e+01  3.000000e+00  1.800000e+02  1.297040e+01  3.000000e+00 
  469   470   471   512     1  3.600000e+02  1.297040e+01  3.000000e+00  3.600000e+02  1.297040e+01  3.000000e+00 
  509   470   471   472     1  3.600000e+02  1.297040e+01  3.000000e+00  3.600000e+02  1.297040e+01  3.000000e+00 
  509   470   471   512     1  1.800000e+02  1.297040e+01  3.000000e+00  1.800000e+02  1.297040e+01  3.000000e+00 
  469   470   509   508     1  1.800000e+02  1.297040e+01  3.000000e+00  1.800000e+02  1.297040e+01  3.000000e+00 
  469   470   509   510     1  3.600000e+02  1.297040e+01  3.000000e+00  3.600000e+02  1.297040e+01  3.000000e+00 
  471   470   509   508     1  3.600000e+02  1.297040e+01  3.000000e+00  3.600000e+02  1.297040e+01  3.000000e+00 
  471   470   509   510     1  1.800000e+02  1.297040e+01  3.000000e+00  1.800000e+02  1.297040e+01  3.000000e+00 
  470   471   472   431     1  1.800000e+02  1.297040e+01  3.000000e+00  1.800000e+02  1.297040e+01  3.000000e+00 
  470   471   472   473     1  3.600000e+02  1.297040e+01  3.000000e+00  3.600000e+02  1.297040e+01  3.000000e+00 
  512   471   472   431     1  3.600000e+02  1.297040e+01  3.000000e+00  3.600000e+02  1.297040e+01  3.000000e+00 
  512   471   472   473     1  1.800000e+02  1.297040e+01  3.000000e+00  1.800000e+02  1.297040e+01  3.000000e+00 
  470   471   512   511     1  1.800000e+02  1.297040e+01  3.000000e+00  1.800000e+02  1.297040e+01  3.000000e+00 
  470   471   512   513     1  3.600000e+02  1.297040e+01  3.000000e+00  3.600000e+02  1.297040e+01  3.000000e+00 
  472   471   512   511     1  3.600000e+02  1.297040e+01  3.000000e+00  3.600000e+02  1.297040e+01  3.000000e+00 
  472   471   512   513     1  1.800000e+02  1.297040e+01  3.000000e+00  1.800000e+02  1.297040e+01  3.000000e+00 
  431   472   473   434     1  1.800000e+02  1.297040e+01  3.000000e+00  1.800000e+02  1.297040e+01  3.000000e+00 
  431   472   473   474     1  3.600000e+02  1.297040e+01  3.000000e+00  3.600000e+02  1.297040e+01  3.000000e+00 
  471   472   473   434     1  3.600000e+02  1.297040e+01  3.000000e+00  3.600000e+02  1.297040e+01  3.000000e+00 
  471   472   473   474     1  1.800000e+02  1.297040e+01  3.000000e+00  1.800000e+02  1.297040e+01  3.000000e+00 
  434   473   474   475     1  1.800000e+02  1.297040e+01  3.000000e+00  1.800000e+02  1.297040e+01  3.000000e+00 
  434   473   474   513     1  3.600000e+02  1.297040e+01  3.000000e+00  3.600000e+02  1.297040e+01  3.000000e+00 
  472   473   474   475     1  3.600000e+02  1.297040e+01  3.000000e+00  3.600000e+02  1.297040e+01  3.000000e+00 
  472   473   474   513     1  1.800000e+02  1.297040e+01  3.000000e+00  1.800000e+02  1.297040e+01  3.000000e+00 
  473   474   475   476     1  1.800000e+02  1.297040e+01  3.000000e+00  1.800000e+02  1.297040e+01  3.000000e+00 
  473   474   475   516     1  3.600000e+02  1.297040e+01  3.000000e+00  3.600000e+02  1.297040e+01  3.000000e+00 
  513   474   475   476     1  3.600000e+02  1.297040e+01  3.000000e+00  3.600000e+02  1.297040e+01  3.000000e+00 
  513   474   475   516     1  1.800000e+02  1.297040e+01  3.000000e+00  1.800000e+02  1.297040e+01  3.000000e+00 
  473   474   513   512     1  1.800000e+02  1.297040e+01  3.000000e+00  1.800000e+02  1.297040e+01  3.000000e+00 
  473   474   513   514     1  3.600000e+02  1.297040e+01  3.000000e+00  3.600000e+02  1.297040e+01  3.000000e+00 
  475   474   513   512     1  3.600000e+02  1.297040e+01  3.000000e+00  3.600000e+02  1.297040e+01  3.000000e+00 
  475   474   513   514     1  1.800000e+02  1.297040e+01  3.000000e+00  1.800000e+02  1.297040e+01  3.000000e+00 
  474   475   476   435     1  1.800000e+02  1.297040e+01  3.000000e+00  1.800000e+02  1.297040e+01  3.000000e+00 
  474   475   476   477     1  3.600000e+02  1.297040e+01  3.000000e+00  3.600000e+02  1.297040e+01  3.000000e+00 
  516   475   476   435     1  3.600000e+02  1.297040e+01  3.000000e+00  3.600000e+02  1.297040e+01  3.000000e+00 
  516   475   476   477     1  1.800000e+02  1.297040e+01  3.000000e+00  1.800000e+02  1.297040e+01  3.000000e+00 
  474   475   516   515     1  1.800000e+02  1.297040e+01  3.000000e+00  1.800000e+02  1.297040e+01  3.000000e+00 
  474   475   516   517     1  3.600000e+02  1.297040e+01  3.000000e+00  3.600000e+02  1.297040e+01  3.000000e+00 
  476   475   516   515     1  3.600000e+02  1.297040e+01  3.000000e+00  3.600000e+02  1.297040e+01  3.000000e+00 
  476   475   516   517     1  1.800000e+02  1.297040e+01  3.000000e+00  1.800000e+02  1.297040e+01  3.000000e+00 
  435   476   477   438     1  1.800000e+02  1.297040e+01  3.000000e+00  1.800000e+02  1.297040e+01  3.000000e+00 
  435   476   477   478     1  3.600000e+02  1.297040e+01  3.000000e+00  3.600000e+02  1.297040e+01  3.000000e+00 
  475   476   477   438     1  3.600000e+02  1.297040e+01  3.000000e+00  3.600000e+02  1.297040e+01  3.000000e+00 
  475   476   477   478     1  1.800000e+02  1.297040e+01  3.000000e+00  1.800000e+02  1.297040e+01  3.000000e+00 
  438   477   478   479     1  1.800000e+02  1.297040e+01  3.000000e+00  1.800000e+02  1.297040e+01  3.000000e+00 
  438   477   478   517     1  3.600000e+02  1.297040e+01  3.000000e+00  3.600000e+02  1.297040e+01  3.000000e+00 
  476   477   478   479     1  3.600000e+02  1.297040e+01  3.000000e+00  3.600000e+02  1.297040e+01  3.000000e+00 
  476   477   478   517     1  1.800000e+02  1.297040e+01  3.000000e+00  1.800000e+02  1.297040e+01  3.000000e+00 
  477   478   479   480     1  1.800000e+02  1.297040e+01  3.000000e+00  1.800000e+02  1.297040e+01  3.000000e+00 
  477   478   479   520     1  3.600000e+02  1.297040e+01  3.000000e+00  3.600000e+02  1.297040e+01  3.000000e+00 
  517   478   479   480     1  3.600000e+02  1.297040e+01  3.000000e+00  3.600000e+02  1.297040e+01  3.000000e+00 
  517   478   479   520     1  1.800000e+02  1.297040e+01  3.000000e+00  1.800000e+02  1.297040e+01  3.000000e+00 
  477   478   517   516     1  1.800000e+02  1.297040e+01  3.000000e+00  1.800000e+02  1.297040e+01  3.000000e+00 
  477   478   517   518     1  3.600000e+02  1.297040e+01  3.000000e+00  3.600000e+02  1.297040e+01  3.000000e+00 
  479   478   517   516     1  3.600000e+02  1.297040e+01  3.000000e+00  3.600000e+02  1.297040e+01  3.000000e+00 
  479   478   517   518     1  1.800000e+02  1.297040e+01  3.000000e+00  1.800000e+02  1.297040e+01  3.000000e+00 
  478   479   480   439     1  1.800000e+02  1.297040e+01  3.000000e+00  1.800000e+02  1.297040e+01  3.000000e+00 
  478   479   480   441     1  3.600000e+02  1.297040e+01  3.000000e+00  3.600000e+02  1.297040e+01  3.000000e+00 
  520   479   480   439     1  3.600000e+02  1.297040e+01  3.000000e+00  3.600000e+02  1.297040e+01  3.000000e+00 
  520   479   480   441     1  1.800000e+02  1.297040e+01  3.000000e+00  1.800000e+02  1.297040e+01  3.000000e+00 
  478   479   520   481     1  3.600000e+02  1.297040e+01  3.000000e+00  3.600000e+02  1.297040e+01  3.000000e+00 
  478   479   520   519     1  1.800000e+02  1.297040e+01  3.000000e+00  1.800000e+02  1.297040e+01  3.000000e+00 
  480   479   520   481     1  1.800000e+02  1.297040e+01  3.000000e+00  1.800000e+02  1.297040e+01  3.000000e+00 
  480   479   520   519     1  3.600000e+02  1.297040e+01  3.000000e+00  3.600000e+02  1.297040e+01  3.000000e+00 
  442   481   482   483     1  1.800000e+02  1.297040e+01  3.000000e+00  1.800000e+02  1.297040e+01  3.000000e+00 
  442   481   482   521     1  3.600000e+02  1.297040e+01  3.000000e+00  3.600000e+02  1.297040e+01  3.000000e+00 
  520   481   482   483     1  3.600000e+02  1.297040e+01  3.000000e+00  3.600000e+02  1.297040e+01  3.000000e+00 
  520   481   482   521     1  1.800000e+02  1.297040e+01  3.000000e+00  1.800000e+02  1.297040e+01  3.000000e+00 
  442   481   520   479     1  1.800000e+02  1.297040e+01  3.000000e+00  1.800000e+02  1.297040e+01  3.000000e+00 
  442   481   520   519     1  3.600000e+02  1.297040e+01  3.000000e+00  3.600000e+02  1.297040e+01  3.000000e+00 
  482   481   520   479     1  3.600000e+02  1.297040e+01  3.000000e+00  3.600000e+02  1.297040e+01  3.000000e+00 
  482   481   520   519     1  1.800000e+02  1.297040e+01  3.000000e+00  1.800000e+02  1.297040e+01  3.000000e+00 
  481   482   483   484     1  1.800000e+02  1.297040e+01  3.000000e+00  1.800000e+02  1.297040e+01  3.000000e+00 
  481   482   483   524     1  3.600000e+02  1.297040e+01  3.000000e+00  3.600000e+02  1.297040e+01  3.000000e+00 
  521   482   483   484     1  3.600000e+02  1.297040e+01  3.000000e+00  3.600000e+02  1.297040e+01  3.000000e+00 
  521   482   483   524     1  1.800000e+02  1.297040e+01  3.000000e+00  1.800000e+02  1.297040e+01  3.000000e+00 
  481   482   521   522     1  3.600000e+02  1.297040e+01  3.000000e+00  3.600000e+02  1.297040e+01  3.000000e+00 
  481   482   521   560     1  1.800000e+02  1.297040e+01  3.000000e+00  1.800000e+02  1.297040e+01  3.000000e+00 
  483   482   521   522     1  1.800000e+02  1.297040e+01  3.000000e+00  1.800000e+02  1.297040e+01  3.000000e+00 
  483   482   521   560     1  3.600000e+02  1.297040e+01  3.000000e+00  3.600000e+02  1.297040e+01  3.000000e+00 
  482   483   484   443     1  1.800000e+02  1.297040e+01  3.000000e+00  1.800000e+02  1.297040e+01  3.000000e+00 
  482   483   484   485     1  3.600000e+02  1.297040e+01  3.000000e+00  3.600000e+02  1.297040e+01  3.000000e+00 
  524   483   484   443     1  3.600000e+02  1.297040e+01  3.000000e+00  3.600000e+02  1.297040e+01  3.000000e+00 
  524   483   484   485     1  1.800000e+02  1.297040e+01  3.000000e+00  1.800000e+02  1.297040e+01  3.000000e+00 
  482   483   524   523     1  1.800000e+02  1.297040e+01  3.000000e+00  1.800000e+02  1.297040e+01  3.000000e+00 
  482   483   524   525     1  3.600000e+02  1.297040e+01  3.000000e+00  3.600000e+02  1.297040e+01  3.000000e+00 
  484   483   524   523     1  3.600000e+02  1.297040e+01  3.000000e+00  3.600000e+02  1.297040e+01  3.000000e+00 
  484   483   524   525     1  1.800000e+02  1.297040e+01  3.000000e+00  1.800000e+02  1.297040e+01  3.000000e+00 
  443   484   485   446     1  1.800000e+02  1.297040e+01  3.000000e+00  1.800000e+02  1.297040e+01  3.000000e+00 
  443   484   485   486     1  3.600000e+02  1.297040e+01  3.000000e+00  3.600000e+02  1.297040e+01  3.000000e+00 
  483   484   485   446     1  3.600000e+02  1.297040e+01  3.000000e+00  3.600000e+02  1.297040e+01  3.000000e+00 
  483   484   485   486     1  1.800000e+02  1.297040e+01  3.000000e+00  1.800000e+02  1.297040e+01  3.000000e+00 
  446   485   486   487     1  1.800000e+02  1.297040e+01  3.000000e+00  1.800000e+02  1.297040e+01  3.000000e+00 
  446   485   486   525     1  3.600000e+02  1.297040e+01  3.000000e+00  3.600000e+02  1.297040e+01  3.000000e+00 
  484   485   486   487     1  3.600000e+02  1.297040e+01  3.000000e+00  3.600000e+02  1.297040e+01  3.000000e+00 
  484   485   486   525     1  1.800000e+02  1.297040e+01  3.000000e+00  1.800000e+02  1.297040e+01  3.000000e+00 
  485   486   487   488     1  1.800000e+02  1.297040e+01  3.000000e+00  1.800000e+02  1.297040e+01  3.000000e+00 
  485   486   487   528     1  3.600000e+02  1.297040e+01  3.000000e+00  3.600000e+02  1.297040e+01  3.000000e+00 
  525   486   487   488     1  3.600000e+02  1.297040e+01  3.000000e+00  3.600000e+02  1.297040e+01  3.000000e+00 
  525   486   487   528     1  1.800000e+02  1.297040e+01  3.000000e+00  1.800000e+02  1.297040e+01  3.000000e+00 
  485   486   525   524     1  1.800000e+02  1.297040e+01  3.000000e+00  1.800000e+02  1.297040e+01  3.000000e+00 
  485   486   525   526     1  3.600000e+02  1.297040e+01  3.000000e+00  3.600000e+02  1.297040e+01  3.000000e+00 
  487   486   525   524     1  3.600000e+02  1.297040e+01  3.000000e+00  3.600000e+02  1.297040e+01  3.000000e+00 
  487   486   525   526     1  1.800000e+02  1.297040e+01  3.000000e+00  1.800000e+02  1.297040e+01  3.000000e+00 
  486   487   488   447     1  1.800000e+02  1.297040e+01  3.000000e+00  1.800000e+02  1.297040e+01  3.000000e+00 
  486   487   488   489     1  3.600000e+02  1.297040e+01  3.000000e+00  3.600000e+02  1.297040e+01  3.000000e+00 
  528   487   488   447     1  3.600000e+02  1.297040e+01  3.000000e+00  3.600000e+02  1.297040e+01  3.000000e+00 
  528   487   488   489     1  1.800000e+02  1.297040e+01  3.000000e+00  1.800000e+02  1.297040e+01  3.000000e+00 
  486   487   528   527     1  1.800000e+02  1.297040e+01  3.000000e+00  1.800000e+02  1.297040e+01  3.000000e+00 
  486   487   528   529     1  3.600000e+02  1.297040e+01  3.000000e+00  3.600000e+02  1.297040e+01  3.000000e+00 
  488   487   528   527     1  3.600000e+02  1.297040e+01  3.000000e+00  3.600000e+02  1.297040e+01  3.000000e+00 
  488   487   528   529     1  1.800000e+02  1.297040e+01  3.000000e+00  1.800000e+02  1.297040e+01  3.000000e+00 
  447   488   489   450     1  1.800000e+02  1.297040e+01  3.000000e+00  1.800000e+02  1.297040e+01  3.000000e+00 
  447   488   489   490     1  3.600000e+02  1.297040e+01  3.000000e+00  3.600000e+02  1.297040e+01  3.000000e+00 
  487   488   489   450     1  3.600000e+02  1.297040e+01  3.000000e+00  3.600000e+02  1.297040e+01  3.000000e+00 
  487   488   489   490     1  1.800000e+02  1.297040e+01  3.000000e+00  1.800000e+02  1.297040e+01  3.000000e+00 
  450   489   490   491     1  1.800000e+02  1.297040e+01  3.000000e+00  1.800000e+02  1.297040e+01  3.000000e+00 
  450   489   490   529     1  3.600000e+02  1.297040e+01  3.000000e+00  3.600000e+02  1.297040e+01  3.000000e+00 
  488   489   490   491     1  3.600000e+02  1.297040e+01  3.000000e+00  3.600000e+02  1.297040e+01  3.000000e+00 
  488   489   490   529     1  1.800000e+02  1.297040e+01  3.000000e+00  1.800000e+02  1.297040e+01  3.000000e+00 
  489   490   491   492     1  1.800000e+02  1.297040e+01  3.000000e+00  1.800000e+02  1.297040e+01  3.000000e+00 
  489   490   491   532     1  3.600000e+02  1.297040e+01  3.000000e+00  3.600000e+02  1.297040e+01  3.000000e+00 
  529   490   491   492     1  3.600000e+02  1.297040e+01  3.000000e+00  3.600000e+02  1.297040e+01  3.000000e+00 
  529   490   491   532     1  1.800000e+02  1.297040e+01  3.000000e+00  1.800000e+02  1.297040e+01  3.000000e+00 
  489   490   529   528     1  1.800000e+02  1.297040e+01  3.000000e+00  1.800000e+02  1.297040e+01  3.000000e+00 
  489   490   529   530     1  3.600000e+02  1.297040e+01  3.000000e+00  3.600000e+02  1.297040e+01  3.000000e+00 
  491   490   529   528     1  3.600000e+02  1.297040e+01  3.000000e+00  3.600000e+02  1.297040e+01  3.000000e+00 
  491   490   529   530     1  1.800000e+02  1.297040e+01  3.000000e+00  1.800000e+02  1.297040e+01  3.000000e+00 
  490   491   492   451     1  1.800000e+02  1.297040e+01  3.000000e+00  1.800000e+02  1.297040e+01  3.000000e+00 
  490   491   492   493     1  3.600000e+02  1.297040e+01  3.000000e+00  3.600000e+02  1.297040e+01  3.000000e+00 
  532   491   492   451     1  3.600000e+02  1.297040e+01  3.000000e+00  3.600000e+02  1.297040e+01  3.000000e+00 
  532   491   492   493     1  1.800000e+02  1.297040e+01  3.000000e+00  1.800000e+02  1.297040e+01  3.000000e+00 
  490   491   532   531     1  1.800000e+02  1.297040e+01  3.000000e+00  1.800000e+02  1.297040e+01  3.000000e+00 
  490   491   532   533     1  3.600000e+02  1.297040e+01  3.000000e+00  3.600000e+02  1.297040e+01  3.000000e+00 
  492   491   532   531     1  3.600000e+02  1.297040e+01  3.000000e+00  3.600000e+02  1.297040e+01  3.000000e+00 
  492   491   532   533     1  1.800000e+02  1.297040e+01  3.000000e+00  1.800000e+02  1.297040e+01  3.000000e+00 
  451   492   493   454     1  1.800000e+02  1.297040e+01  3.000000e+00  1.800000e+02  1.297040e+01  3.000000e+00 
  451   492   493   494     1  3.600000e+02  1.297040e+01  3.000000e+00  3.600000e+02  1.297040e+01  3.000000e+00 
  491   492   493   454     1  3.600000e+02  1.297040e+01  3.000000e+00  3.600000e+02  1.297040e+01  3.000000e+00 
  491   492   493   494     1  1.800000e+02  1.297040e+01  3.000000e+00  1.800000e+02  1.297040e+01  3.000000e+00 
  454   493   494   495     1  1.800000e+02  1.297040e+01  3.000000e+00  1.800000e+02  1.297040e+01  3.000000e+00 
  454   493   494   533     1  3.600000e+02  1.297040e+01  3.000000e+00  3.600000e+02  1.297040e+01  3.000000e+00 
  492   493   494   495     1  3.600000e+02  1.297040e+01  3.000000e+00  3.600000e+02  1.297040e+01  3.000000e+00 
  492   493   494   533     1  1.800000e+02  1.297040e+01  3.000000e+00  1.800000e+02  1.297040e+01  3.000000e+00 
  493   494   495   496     1  1.800000e+02  1.297040e+01  3.000000e+00  1.800000e+02  1.297040e+01  3.000000e+00 
  493   494   495   536     1  3.600000e+02  1.297040e+01  3.000000e+00  3.600000e+02  1.297040e+01  3.000000e+00 
  533   494   495   496     1  3.600000e+02  1.297040e+01  3.000000e+00  3.600000e+02  1.297040e+01  3.000000e+00 
  533   494   495   536     1  1.800000e+02  1.297040e+01  3.000000e+00  1.800000e+02  1.297040e+01  3.000000e+00 
  493   494   533   532     1  1.800000e+02  1.297040e+01  3.000000e+00  1.800000e+02  1.297040e+01  3.000000e+00 
  493   494   533   534     1  3.600000e+02  1.297040e+01  3.000000e+00  3.600000e+02  1.297040e+01  3.000000e+00 
  495   494   533   532     1  3.600000e+02  1.297040e+01  3.000000e+00  3.600000e+02  1.297040e+01  3.000000e+00 
  495   494   533   534     1  1.800000e+02  1.297040e+01  3.000000e+00  1.800000e+02  1.297040e+01  3.000000e+00 
  494   495   496   455     1  1.800000e+02  1.297040e+01  3.000000e+00  1.800000e+02  1.297040e+01  3.000000e+00 
  494   495   496   497     1  3.600000e+02  1.297040e+01  3.000000e+00  3.600000e+02  1.297040e+01  3.000000e+00 
  536   495   496   455     1  3.600000e+02  1.297040e+01  3.000000e+00  3.600000e+02  1.297040e+01  3.000000e+00 
  536   495   496   497     1  1.800000e+02  1.297040e+01  3.000000e+00  1.800000e+02  1.297040e+01  3.000000e+00 
  494   495   536   535     1  1.800000e+02  1.297040e+01  3.000000e+00  1.800000e+02  1.297040e+01  3.000000e+00 
  494   495   536   537     1  3.600000e+02  1.297040e+01  3.000000e+00  3.600000e+02  1.297040e+01  3.000000e+00 
  496   495   536   535     1  3.600000e+02  1.297040e+01  3.000000e+00  3.600000e+02  1.297040e+01  3.000000e+00 
  496   495   536   537     1  1.800000e+02  1.297040e+01  3.000000e+00  1.800000e+02  1.297040e+01  3.000000e+00 
  455   496   497   458     1  1.800000e+02  1.297040e+01  3.000000e+00  1.800000e+02  1.297040e+01  3.000000e+00 
  455   496   497   498     1  3.600000e+02  1.297040e+01  3.000000e+00  3.600000e+02  1.297040e+01  3.000000e+00 
  495   496   497   458     1  3.600000e+02  1.297040e+01  3.000000e+00  3.600000e+02  1.297040e+01  3.000000e+00 
  495   496   497   498     1  1.800000e+02  1.297040e+01  3.000000e+00  1.800000e+02  1.297040e+01  3.000000e+00 
  458   497   498   499     1  1.800000e+02  1.297040e+01  3.000000e+00  1.800000e+02  1.297040e+01  3.000000e+00 
  458   497   498   537     1  3.600000e+02  1.297040e+01  3.000000e+00  3.600000e+02  1.297040e+01  3.000000e+00 
  496   497   498   499     1  3.600000e+02  1.297040e+01  3.000000e+00  3.600000e+02  1.297040e+01  3.000000e+00 
  496   497   498   537     1  1.800000e+02  1.297040e+01  3.000000e+00  1.800000e+02  1.297040e+01  3.000000e+00 
  497   498   499   500     1  1.800000e+02  1.297040e+01  3.000000e+00  1.800000e+02  1.297040e+01  3.000000e+00 
  497   498   499   540     1  3.600000e+02  1.297040e+01  3.000000e+00  3.600000e+02  1.297040e+01  3.000000e+00 
  537   498   499   500     1  3.600000e+02  1.297040e+01  3.000000e+00  3.600000e+02  1.297040e+01  3.000000e+00 
  537   498   499   540     1  1.800000e+02  1.297040e+01  3.000000e+00  1.800000e+02  1.297040e+01  3.000000e+00 
  497   498   537   536     1  1.800000e+02  1.297040e+01  3.000000e+00  1.800000e+02  1.297040e+01  3.000000e+00 
  497   498   537   538     1  3.600000e+02  1.297040e+01  3.000000e+00  3.600000e+02  1.297040e+01  3.000000e+00 
  499   498   537   536     1  3.600000e+02  1.297040e+01  3.000000e+00  3.600000e+02  1.297040e+01  3.000000e+00 
  499   498   537   538     1  1.800000e+02  1.297040e+01  3.000000e+00  1.800000e+02  1.297040e+01  3.000000e+00 
  498   499   500   459     1  1.800000e+02  1.297040e+01  3.000000e+00  1.800000e+02  1.297040e+01  3.000000e+00 
  498   499   500   501     1  3.600000e+02  1.297040e+01  3.000000e+00  3.600000e+02  1.297040e+01  3.000000e+00 
  540   499   500   459     1  3.600000e+02  1.297040e+01  3.000000e+00  3.600000e+02  1.297040e+01  3.000000e+00 
  540   499   500   501     1  1.800000e+02  1.297040e+01  3.000000e+00  1.800000e+02  1.297040e+01  3.000000e+00 
  498   499   540   539     1  1.800000e+02  1.297040e+01  3.000000e+00  1.800000e+02  1.297040e+01  3.000000e+00 
  498   499   540   541     1  3.600000e+02  1.297040e+01  3.000000e+00  3.600000e+02  1.297040e+01  3.000000e+00 
  500   499   540   539     1  3.600000e+02  1.297040e+01  3.000000e+00  3.600000e+02  1.297040e+01  3.000000e+00 
  500   499   540   541     1  1.800000e+02  1.297040e+01  3.000000e+00  1.800000e+02  1.297040e+01  3.000000e+00 
  459   500   501   462     1  1.800000e+02  1.297040e+01  3.000000e+00  1.800000e+02  1.297040e+01  3.000000e+00 
  459   500   501   502     1  3.600000e+02  1.297040e+01  3.000000e+00  3.600000e+02  1.297040e+01  3.000000e+00 
  499   500   501   462     1  3.600000e+02  1.297040e+01  3.000000e+00  3.600000e+02  1.297040e+01  3.000000e+00 
  499   500   501   502     1  1.800000e+02  1.297040e+01  3.000000e+00  1.800000e+02  1.297040e+01  3.000000e+00 
  462   501   502   503     1  1.800000e+02  1.297040e+01  3.000000e+00  1.800000e+02  1.297040e+01  3.000000e+00 
  462   501   502   541     1  3.600000e+02  1.297040e+01  3.000000e+00  3.600000e+02  1.297040e+01  3.000000e+00 
  500   501   502   503     1  3.600000e+02  1.297040e+01  3.000000e+00  3.600000e+02  1.297040e+01  3.000000e+00 
  500   501   502   541     1  1.800000e+02  1.297040e+01  3.000000e+00  1.800000e+02  1.297040e+01  3.000000e+00 
  501   502   503   504     1  1.800000e+02  1.297040e+01  3.000000e+00  1.800000e+02  1.297040e+01  3.000000e+00 
  501   502   503   544     1  3.600000e+02  1.297040e+01  3.000000e+00  3.600000e+02  1.297040e+01  3.000000e+00 
  541   502   503   504     1  3.600000e+02  1.297040e+01  3.000000e+00  3.600000e+02  1.297040e+01  3.000000e+00 
  541   502   503   544     1  1.800000e+02  1.297040e+01  3.000000e+00  1.800000e+02  1.297040e+01  3.000000e+00 
  501   502   541   540     1  1.800000e+02  1.297040e+01  3.000000e+00  1.800000e+02  1.297040e+01  3.000000e+00 
  501   502   541   542     1  3.600000e+02  1.297040e+01  3.000000e+00  3.600000e+02  1.297040e+01  3.000000e+00 
  503   502   541   540     1  3.600000e+02  1.297040e+01  3.000000e+00  3.600000e+02  1.297040e+01  3.000000e+00 
  503   502   541   542     1  1.800000e+02  1.297040e+01  3.000000e+00  1.800000e+02  1.297040e+01  3.000000e+00 
  502   503   504   463     1  1.800000e+02  1.297040e+01  3.000000e+00  1.800000e+02  1.297040e+01  3.000000e+00 
  502   503   504   505     1  3.600000e+02  1.297040e+01  3.000000e+00  3.600000e+02  1.297040e+01  3.000000e+00 
  544   503   504   463     1  3.600000e+02  1.297040e+01  3.000000e+00  3.600000e+02  1.297040e+01  3.000000e+00 
  544   503   504   505     1  1.800000e+02  1.297040e+01  3.000000e+00  1.800000e+02  1.297040e+01  3.000000e+00 
  502   503   544   543     1  1.800000e+02  1.297040e+01  3.000000e+00  1.800000e+02  1.297040e+01  3.000000e+00 
  502   503   544   545     1  3.600000e+02  1.297040e+01  3.000000e+00  3.600000e+02  1.297040e+01  3.000000e+00 
  504   503   544   543     1  3.600000e+02  1.297040e+01  3.000000e+00  3.600000e+02  1.297040e+01  3.000000e+00 
  504   503   544   545     1  1.800000e+02  1.297040e+01  3.000000e+00  1.800000e+02  1.297040e+01  3.000000e+00 
  463   504   505   466     1  1.800000e+02  1.297040e+01  3.000000e+00  1.800000e+02  1.297040e+01  3.000000e+00 
  463   504   505   506     1  3.600000e+02  1.297040e+01  3.000000e+00  3.600000e+02  1.297040e+01  3.000000e+00 
  503   504   505   466     1  3.600000e+02  1.297040e+01  3.000000e+00  3.600000e+02  1.297040e+01  3.000000e+00 
  503   504   505   506     1  1.800000e+02  1.297040e+01  3.000000e+00  1.800000e+02  1.297040e+01  3.000000e+00 
  466   505   506   507     1  1.800000e+02  1.297040e+01  3.000000e+00  1.800000e+02  1.297040e+01  3.000000e+00 
  466   505   506   545     1  3.600000e+02  1.297040e+01  3.000000e+00  3.600000e+02  1.297040e+01  3.000000e+00 
  504   505   506   507     1  3.600000e+02  1.297040e+01  3.000000e+00  3.600000e+02  1.297040e+01  3.000000e+00 
  504   505   506   545     1  1.800000e+02  1.297040e+01  3.000000e+00  1.800000e+02  1.297040e+01  3.000000e+00 
  505   506   507   508     1  1.800000e+02  1.297040e+01  3.000000e+00  1.800000e+02  1.297040e+01  3.000000e+00 
  505   506   507   548     1  3.600000e+02  1.297040e+01  3.000000e+00  3.600000e+02  1.297040e+01  3.000000e+00 
  545   506   507   508     1  3.600000e+02  1.297040e+01  3.000000e+00  3.600000e+02  1.297040e+01  3.000000e+00 
  545   506   507   548     1  1.800000e+02  1.297040e+01  3.000000e+00  1.800000e+02  1.297040e+01  3.000000e+00 
  505   506   545   544     1  1.800000e+02  1.297040e+01  3.000000e+00  1.800000e+02  1.297040e+01  3.000000e+00 
  505   506   545   546     1  3.600000e+02  1.297040e+01  3.000000e+00  3.600000e+02  1.297040e+01  3.000000e+00 
  507   506   545   544     1  3.600000e+02  1.297040e+01  3.000000e+00  3.600000e+02  1.297040e+01  3.000000e+00 
  507   506   545   546     1  1.800000e+02  1.297040e+01  3.000000e+00  1.800000e+02  1.297040e+01  3.000000e+00 
  506   507   508   467     1  1.800000e+02  1.297040e+01  3.000000e+00  1.800000e+02  1.297040e+01  3.000000e+00 
  506   507   508   509     1  3.600000e+02  1.297040e+01  3.000000e+00  3.600000e+02  1.297040e+01  3.000000e+00 
  548   507   508   467     1  3.600000e+02  1.297040e+01  3.000000e+00  3.600000e+02  1.297040e+01  3.000000e+00 
  548   507   508   509     1  1.800000e+02  1.297040e+01  3.000000e+00  1.800000e+02  1.297040e+01  3.000000e+00 
  506   507   548   547     1  1.800000e+02  1.297040e+01  3.000000e+00  1.800000e+02  1.297040e+01  3.000000e+00 
  506   507   548   549     1  3.600000e+02  1.297040e+01  3.000000e+00  3.600000e+02  1.297040e+01  3.000000e+00 
  508   507   548   547     1  3.600000e+02  1.297040e+01  3.000000e+00  3.600000e+02  1.297040e+01  3.000000e+00 
  508   507   548   549     1  1.800000e+02  1.297040e+01  3.000000e+00  1.800000e+02  1.297040e+01  3.000000e+00 
  467   508   509   470     1  1.800000e+02  1.297040e+01  3.000000e+00  1.800000e+02  1.297040e+01  3.000000e+00 
  467   508   509   510     1  3.600000e+02  1.297040e+01  3.000000e+00  3.600000e+02  1.297040e+01  3.000000e+00 
  507   508   509   470     1  3.600000e+02  1.297040e+01  3.000000e+00  3.600000e+02  1.297040e+01  3.000000e+00 
  507   508   509   510     1  1.800000e+02  1.297040e+01  3.000000e+00  1.800000e+02  1.297040e+01  3.000000e+00 
  470   509   510   511     1  1.800000e+02  1.297040e+01  3.000000e+00  1.800000e+02  1.297040e+01  3.000000e+00 
  470   509   510   549     1  3.600000e+02  1.297040e+01  3.000000e+00  3.600000e+02  1.297040e+01  3.000000e+00 
  508   509   510   511     1  3.600000e+02  1.297040e+01  3.000000e+00  3.600000e+02  1.297040e+01  3.000000e+00 
  508   509   510   549     1  1.800000e+02  1.297040e+01  3.000000e+00  1.800000e+02  1.297040e+01  3.000000e+00 
  509   510   511   512     1  1.800000e+02  1.297040e+01  3.000000e+00  1.800000e+02  1.297040e+01  3.000000e+00 
  509   510   511   552     1  3.600000e+02  1.297040e+01  3.000000e+00  3.600000e+02  1.297040e+01  3.000000e+00 
  549   510   511   512     1  3.600000e+02  1.297040e+01  3.000000e+00  3.600000e+02  1.297040e+01  3.000000e+00 
  549   510   511   552     1  1.800000e+02  1.297040e+01  3.000000e+00  1.800000e+02  1.297040e+01  3.000000e+00 
  509   510   549   548     1  1.800000e+02  1.297040e+01  3.000000e+00  1.800000e+02  1.297040e+01  3.000000e+00 
  509   510   549   550     1  3.600000e+02  1.297040e+01  3.000000e+00  3.600000e+02  1.297040e+01  3.000000e+00 
  511   510   549   548     1  3.600000e+02  1.297040e+01  3.000000e+00  3.600000e+02  1.297040e+01  3.000000e+00 
  511   510   549   550     1  1.800000e+02  1.297040e+01  3.000000e+00  1.800000e+02  1.297040e+01  3.000000e+00 
  510   511   512   471     1  1.800000e+02  1.297040e+01  3.000000e+00  1.800000e+02  1.297040e+01  3.000000e+00 
  510   511   512   513     1  3.600000e+02  1.297040e+01  3.000000e+00  3.600000e+02  1.297040e+01  3.000000e+00 
  552   511   512   471     1  3.600000e+02  1.297040e+01  3.000000e+00  3.600000e+02  1.297040e+01  3.000000e+00 
  552   511   512   513     1  1.800000e+02  1.297040e+01  3.000000e+00  1.800000e+02  1.297040e+01  3.000000e+00 
  510   511   552   551     1  1.800000e+02  1.297040e+01  3.000000e+00  1.800000e+02  1.297040e+01  3.000000e+00 
  510   511   552   553     1  3.600000e+02  1.297040e+01  3.000000e+00  3.600000e+02  1.297040e+01  3.000000e+00 
  512   511   552   551     1  3.600000e+02  1.297040e+01  3.000000e+00  3.600000e+02  1.297040e+01  3.000000e+00 
  512   511   552   553     1  1.800000e+02  1.297040e+01  3.000000e+00  1.800000e+02  1.297040e+01  3.000000e+00 
  471   512   513   474     1  1.800000e+02  1.297040e+01  3.000000e+00  1.800000e+02  1.297040e+01  3.000000e+00 
  471   512   513   514     1  3.600000e+02  1.297040e+01  3.000000e+00  3.600000e+02  1.297040e+01  3.000000e+00 
  511   512   513   474     1  3.600000e+02  1.297040e+01  3.000000e+00  3.600000e+02  1.297040e+01  3.000000e+00 
  511   512   513   514     1  1.800000e+02  1.297040e+01  3.000000e+00  1.800000e+02  1.297040e+01  3.000000e+00 
  474   513   514   515     1  1.800000e+02  1.297040e+01  3.000000e+00  1.800000e+02  1.297040e+01  3.000000e+00 
  474   513   514   553     1  3.600000e+02  1.297040e+01  3.000000e+00  3.600000e+02  1.297040e+01  3.000000e+00 
  512   513   514   515     1  3.600000e+02  1.297040e+01  3.000000e+00  3.600000e+02  1.297040e+01  3.000000e+00 
  512   513   514   553     1  1.800000e+02  1.297040e+01  3.000000e+00  1.800000e+02  1.297040e+01  3.000000e+00 
  513   514   515   516     1  1.800000e+02  1.297040e+01  3.000000e+00  1.800000e+02  1.297040e+01  3.000000e+00 
  513   514   515   556     1  3.600000e+02  1.297040e+01  3.000000e+00  3.600000e+02  1.297040e+01  3.000000e+00 
  553   514   515   516     1  3.600000e+02  1.297040e+01  3.000000e+00  3.600000e+02  1.297040e+01  3.000000e+00 
  553   514   515   556     1  1.800000e+02  1.297040e+01  3.000000e+00  1.800000e+02  1.297040e+01  3.000000e+00 
  513   514   553   552     1  1.800000e+02  1.297040e+01  3.000000e+00  1.800000e+02  1.297040e+01  3.000000e+00 
  513   514   553   554     1  3.600000e+02  1.297040e+01  3.000000e+00  3.600000e+02  1.297040e+01  3.000000e+00 
  515   514   553   552     1  3.600000e+02  1.297040e+01  3.000000e+00  3.600000e+02  1.297040e+01  3.000000e+00 
  515   514   553   554     1  1.800000e+02  1.297040e+01  3.000000e+00  1.800000e+02  1.297040e+01  3.000000e+00 
  514   515   516   475     1  1.800000e+02  1.297040e+01  3.000000e+00  1.800000e+02  1.297040e+01  3.000000e+00 
  514   515   516   517     1  3.600000e+02  1.297040e+01  3.000000e+00  3.600000e+02  1.297040e+01  3.000000e+00 
  556   515   516   475     1  3.600000e+02  1.297040e+01  3.000000e+00  3.600000e+02  1.297040e+01  3.000000e+00 
  556   515   516   517     1  1.800000e+02  1.297040e+01  3.000000e+00  1.800000e+02  1.297040e+01  3.000000e+00 
  514   515   556   555     1  1.800000e+02  1.297040e+01  3.000000e+00  1.800000e+02  1.297040e+01  3.000000e+00 
  514   515   556   557     1  3.600000e+02  1.297040e+01  3.000000e+00  3.600000e+02  1.297040e+01  3.000000e+00 
  516   515   556   555     1  3.600000e+02  1.297040e+01  3.000000e+00  3.600000e+02  1.297040e+01  3.000000e+00 
  516   515   556   557     1  1.800000e+02  1.297040e+01  3.000000e+00  1.800000e+02  1.297040e+01  3.000000e+00 
  475   516   517   478     1  1.800000e+02  1.297040e+01  3.000000e+00  1.800000e+02  1.297040e+01  3.000000e+00 
  475   516   517   518     1  3.600000e+02  1.297040e+01  3.000000e+00  3.600000e+02  1.297040e+01  3.000000e+00 
  515   516   517   478     1  3.600000e+02  1.297040e+01  3.000000e+00  3.600000e+02  1.297040e+01  3.000000e+00 
  515   516   517   518     1  1.800000e+02  1.297040e+01  3.000000e+00  1.800000e+02  1.297040e+01  3.000000e+00 
  478   517   518   519     1  1.800000e+02  1.297040e+01  3.000000e+00  1.800000e+02  1.297040e+01  3.000000e+00 
  478   517   518   557     1  3.600000e+02  1.297040e+01  3.000000e+00  3.600000e+02  1.297040e+01  3.000000e+00 
  516   517   518   519     1  3.600000e+02  1.297040e+01  3.000000e+00  3.600000e+02  1.297040e+01  3.000000e+00 
  516   517   518   557     1  1.800000e+02  1.297040e+01  3.000000e+00  1.800000e+02  1.297040e+01  3.000000e+00 
  517   518   519   520     1  1.800000e+02  1.297040e+01  3.000000e+00  1.800000e+02  1.297040e+01  3.000000e+00 
  517   518   519   560     1  3.600000e+02  1.297040e+01  3.000000e+00  3.600000e+02  1.297040e+01  3.000000e+00 
  557   518   519   520     1  3.600000e+02  1.297040e+01  3.000000e+00  3.600000e+02  1.297040e+01  3.000000e+00 
  557   518   519   560     1  1.800000e+02  1.297040e+01  3.000000e+00  1.800000e+02  1.297040e+01  3.000000e+00 
  517   518   557   556     1  1.800000e+02  1.297040e+01  3.000000e+00  1.800000e+02  1.297040e+01  3.000000e+00 
  517   518   557   558     1  3.600000e+02  1.297040e+01  3.000000e+00  3.600000e+02  1.297040e+01  3.000000e+00 
  519   518   557   556     1  3.600000e+02  1.297040e+01  3.000000e+00  3.600000e+02  1.297040e+01  3.000000e+00 
  519   518   557   558     1  1.800000e+02  1.297040e+01  3.000000e+00  1.800000e+02  1.297040e+01  3.000000e+00 
  518   519   520   479     1  1.800000e+02  1.297040e+01  3.000000e+00  1.800000e+02  1.297040e+01  3.000000e+00 
  518   519   520   481     1  3.600000e+02  1.297040e+01  3.000000e+00  3.600000e+02  1.297040e+01  3.000000e+00 
  560   519   520   479     1  3.600000e+02  1.297040e+01  3.000000e+00  3.600000e+02  1.297040e+01  3.000000e+00 
  560   519   520   481     1  1.800000e+02  1.297040e+01  3.000000e+00  1.800000e+02  1.297040e+01  3.000000e+00 
  518   519   560   521     1  3.600000e+02  1.297040e+01  3.000000e+00  3.600000e+02  1.297040e+01  3.000000e+00 
  518   519   560   559     1  1.800000e+02  1.297040e+01  3.000000e+00  1.800000e+02  1.297040e+01  3.000000e+00 
  520   519   560   521     1  1.800000e+02  1.297040e+01  3.000000e+00  1.800000e+02  1.297040e+01  3.000000e+00 
  520   519   560   559     1  3.600000e+02  1.297040e+01  3.000000e+00  3.600000e+02  1.297040e+01  3.000000e+00 
  482   521   522   523     1  1.800000e+02  1.297040e+01  3.000000e+00  1.800000e+02  1.297040e+01  3.000000e+00 
  482   521   522   561     1  3.600000e+02  1.297040e+01  3.000000e+00  3.600000e+02  1.297040e+01  3.000000e+00 
  560   521   522   523     1  3.600000e+02  1.297040e+01  3.000000e+00  3.600000e+02  1.297040e+01  3.000000e+00 
  560   521   522   561     1  1.800000e+02  1.297040e+01  3.000000e+00  1.800000e+02  1.297040e+01  3.000000e+00 
  482   521   560   519     1  1.800000e+02  1.297040e+01  3.000000e+00  1.800000e+02  1.297040e+01  3.000000e+00 
  482   521   560   559     1  3.600000e+02  1.297040e+01  3.000000e+00  3.600000e+02  1.297040e+01  3.000000e+00 
  522   521   560   519     1  3.600000e+02  1.297040e+01  3.000000e+00  3.600000e+02  1.297040e+01  3.000000e+00 
  522   521   560   559     1  1.800000e+02  1.297040e+01  3.000000e+00  1.800000e+02  1.297040e+01  3.000000e+00 
  521   522   523   524     1  1.800000e+02  1.297040e+01  3.000000e+00  1.800000e+02  1.297040e+01  3.000000e+00 
  521   522   523   564     1  3.600000e+02  1.297040e+01  3.000000e+00  3.600000e+02  1.297040e+01  3.000000e+00 
  561   522   523   524     1  3.600000e+02  1.297040e+01  3.000000e+00  3.600000e+02  1.297040e+01  3.000000e+00 
  561   522   523   564     1  1.800000e+02  1.297040e+01  3.000000e+00  1.800000e+02  1.297040e+01  3.000000e+00 
  521   522   561   562     1  3.600000e+02  1.297040e+01  3.000000e+00  3.600000e+02  1.297040e+01  3.000000e+00 
  521   522   561   600     1  1.800000e+02  1.297040e+01  3.000000e+00  1.800000e+02  1.297040e+01  3.000000e+00 
  523   522   561   562     1  1.800000e+02  1.297040e+01  3.000000e+00  1.800000e+02  1.297040e+01  3.000000e+00 
  523   522   561   600     1  3.600000e+02  1.297040e+01  3.000000e+00  3.600000e+02  1.297040e+01  3.000000e+00 
  522   523   524   483     1  1.800000e+02  1.297040e+01  3.000000e+00  1.800000e+02  1.297040e+01  3.000000e+00 
  522   523   524   525     1  3.600000e+02  1.297040e+01  3.000000e+00  3.600000e+02  1.297040e+01  3.000000e+00 
  564   523   524   483     1  3.600000e+02  1.297040e+01  3.000000e+00  3.600000e+02  1.297040e+01  3.000000e+00 
  564   523   524   525     1  1.800000e+02  1.297040e+01  3.000000e+00  1.800000e+02  1.297040e+01  3.000000e+00 
  522   523   564   563     1  1.800000e+02  1.297040e+01  3.000000e+00  1.800000e+02  1.297040e+01  3.000000e+00 
  522   523   564   565     1  3.600000e+02  1.297040e+01  3.000000e+00  3.600000e+02  1.297040e+01  3.000000e+00 
  524   523   564   563     1  3.600000e+02  1.297040e+01  3.000000e+00  3.600000e+02  1.297040e+01  3.000000e+00 
  524   523   564   565     1  1.800000e+02  1.297040e+01  3.000000e+00  1.800000e+02  1.297040e+01  3.000000e+00 
  483   524   525   486     1  1.800000e+02  1.297040e+01  3.000000e+00  1.800000e+02  1.297040e+01  3.000000e+00 
  483   524   525   526     1  3.600000e+02  1.297040e+01  3.000000e+00  3.600000e+02  1.297040e+01  3.000000e+00 
  523   524   525   486     1  3.600000e+02  1.297040e+01  3.000000e+00  3.600000e+02  1.297040e+01  3.000000e+00 
  523   524   525   526     1  1.800000e+02  1.297040e+01  3.000000e+00  1.800000e+02  1.297040e+01  3.000000e+00 
  486   525   526   527     1  1.800000e+02  1.297040e+01  3.000000e+00  1.800000e+02  1.297040e+01  3.000000e+00 
  486   525   526   565     1  3.600000e+02  1.297040e+01  3.000000e+00  3.600000e+02  1.297040e+01  3.000000e+00 
  524   525   526   527     1  3.600000e+02  1.297040e+01  3.000000e+00  3.600000e+02  1.297040e+01  3.000000e+00 
  524   525   526   565     1  1.800000e+02  1.297040e+01  3.000000e+00  1.800000e+02  1.297040e+01  3.000000e+00 
  525   526   527   528     1  1.800000e+02  1.297040e+01  3.000000e+00  1.800000e+02  1.297040e+01  3.000000e+00 
  525   526   527   568     1  3.600000e+02  1.297040e+01  3.000000e+00  3.600000e+02  1.297040e+01  3.000000e+00 
  565   526   527   528     1  3.600000e+02  1.297040e+01  3.000000e+00  3.600000e+02  1.297040e+01  3.000000e+00 
  565   526   527   568     1  1.800000e+02  1.297040e+01  3.000000e+00  1.800000e+02  1.297040e+01  3.000000e+00 
  525   526   565   564     1  1.800000e+02  1.297040e+01  3.000000e+00  1.800000e+02  1.297040e+01  3.000000e+00 
  525   526   565   566     1  3.600000e+02  1.297040e+01  3.000000e+00  3.600000e+02  1.297040e+01  3.000000e+00 
  527   526   565   564     1  3.600000e+02  1.297040e+01  3.000000e+00  3.600000e+02  1.297040e+01  3.000000e+00 
  527   526   565   566     1  1.800000e+02  1.297040e+01  3.000000e+00  1.800000e+02  1.297040e+01  3.000000e+00 
  526   527   528   487     1  1.800000e+02  1.297040e+01  3.000000e+00  1.800000e+02  1.297040e+01  3.000000e+00 
  526   527   528   529     1  3.600000e+02  1.297040e+01  3.000000e+00  3.600000e+02  1.297040e+01  3.000000e+00 
  568   527   528   487     1  3.600000e+02  1.297040e+01  3.000000e+00  3.600000e+02  1.297040e+01  3.000000e+00 
  568   527   528   529     1  1.800000e+02  1.297040e+01  3.000000e+00  1.800000e+02  1.297040e+01  3.000000e+00 
  526   527   568   567     1  1.800000e+02  1.297040e+01  3.000000e+00  1.800000e+02  1.297040e+01  3.000000e+00 
  526   527   568   569     1  3.600000e+02  1.297040e+01  3.000000e+00  3.600000e+02  1.297040e+01  3.000000e+00 
  528   527   568   567     1  3.600000e+02  1.297040e+01  3.000000e+00  3.600000e+02  1.297040e+01  3.000000e+00 
  528   527   568   569     1  1.800000e+02  1.297040e+01  3.000000e+00  1.800000e+02  1.297040e+01  3.000000e+00 
  487   528   529   490     1  1.800000e+02  1.297040e+01  3.000000e+00  1.800000e+02  1.297040e+01  3.000000e+00 
  487   528   529   530     1  3.600000e+02  1.297040e+01  3.000000e+00  3.600000e+02  1.297040e+01  3.000000e+00 
  527   528   529   490     1  3.600000e+02  1.297040e+01  3.000000e+00  3.600000e+02  1.297040e+01  3.000000e+00 
  527   528   529   530     1  1.800000e+02  1.297040e+01  3.000000e+00  1.800000e+02  1.297040e+01  3.000000e+00 
  490   529   530   531     1  1.800000e+02  1.297040e+01  3.000000e+00  1.800000e+02  1.297040e+01  3.000000e+00 
  490   529   530   569     1  3.600000e+02  1.297040e+01  3.000000e+00  3.600000e+02  1.297040e+01  3.000000e+00 
  528   529   530   531     1  3.600000e+02  1.297040e+01  3.000000e+00  3.600000e+02  1.297040e+01  3.000000e+00 
  528   529   530   569     1  1.800000e+02  1.297040e+01  3.000000e+00  1.800000e+02  1.297040e+01  3.000000e+00 
  529   530   531   532     1  1.800000e+02  1.297040e+01  3.000000e+00  1.800000e+02  1.297040e+01  3.000000e+00 
  529   530   531   572     1  3.600000e+02  1.297040e+01  3.000000e+00  3.600000e+02  1.297040e+01  3.000000e+00 
  569   530   531   532     1  3.600000e+02  1.297040e+01  3.000000e+00  3.600000e+02  1.297040e+01  3.000000e+00 
  569   530   531   572     1  1.800000e+02  1.297040e+01  3.000000e+00  1.800000e+02  1.297040e+01  3.000000e+00 
  529   530   569   568     1  1.800000e+02  1.297040e+01  3.000000e+00  1.800000e+02  1.297040e+01  3.000000e+00 
  529   530   569   570     1  3.600000e+02  1.297040e+01  3.000000e+00  3.600000e+02  1.297040e+01  3.000000e+00 
  531   530   569   568     1  3.600000e+02  1.297040e+01  3.000000e+00  3.600000e+02  1.297040e+01  3.000000e+00 
  531   530   569   570     1  1.800000e+02  1.297040e+01  3.000000e+00  1.800000e+02  1.297040e+01  3.000000e+00 
  530   531   532   491     1  1.800000e+02  1.297040e+01  3.000000e+00  1.800000e+02  1.297040e+01  3.000000e+00 
  530   531   532   533     1  3.600000e+02  1.297040e+01  3.000000e+00  3.600000e+02  1.297040e+01  3.000000e+00 
  572   531   532   491     1  3.600000e+02  1.297040e+01  3.000000e+00  3.600000e+02  1.297040e+01  3.000000e+00 
  572   531   532   533     1  1.800000e+02  1.297040e+01  3.000000e+00  1.800000e+02  1.297040e+01  3.000000e+00 
  530   531   572   571     1  1.800000e+02  1.297040e+01  3.000000e+00  1.800000e+02  1.297040e+01  3.000000e+00 
  530   531   572   573     1  3.600000e+02  1.297040e+01  3.000000e+00  3.600000e+02  1.297040e+01  3.000000e+00 
  532   531   572   571     1  3.600000e+02  1.297040e+01  3.000000e+00  3.600000e+02  1.297040e+01  3.000000e+00 
  532   531   572   573     1  1.800000e+02  1.297040e+01  3.000000e+00  1.800000e+02  1.297040e+01  3.000000e+00 
  491   532   533   494     1  1.800000e+02  1.297040e+01  3.000000e+00  1.800000e+02  1.297040e+01  3.000000e+00 
  491   532   533   534     1  3.600000e+02  1.297040e+01  3.000000e+00  3.600000e+02  1.297040e+01  3.000000e+00 
  531   532   533   494     1  3.600000e+02  1.297040e+01  3.000000e+00  3.600000e+02  1.297040e+01  3.000000e+00 
  531   532   533   534     1  1.800000e+02  1.297040e+01  3.000000e+00  1.800000e+02  1.297040e+01  3.000000e+00 
  494   533   534   535     1  1.800000e+02  1.297040e+01  3.000000e+00  1.800000e+02  1.297040e+01  3.000000e+00 
  494   533   534   573     1  3.600000e+02  1.297040e+01  3.000000e+00  3.600000e+02  1.297040e+01  3.000000e+00 
  532   533   534   535     1  3.600000e+02  1.297040e+01  3.000000e+00  3.600000e+02  1.297040e+01  3.000000e+00 
  532   533   534   573     1  1.800000e+02  1.297040e+01  3.000000e+00  1.800000e+02  1.297040e+01  3.000000e+00 
  533   534   535   536     1  1.800000e+02  1.297040e+01  3.000000e+00  1.800000e+02  1.297040e+01  3.000000e+00 
  533   534   535   576     1  3.600000e+02  1.297040e+01  3.000000e+00  3.600000e+02  1.297040e+01  3.000000e+00 
  573   534   535   536     1  3.600000e+02  1.297040e+01  3.000000e+00  3.600000e+02  1.297040e+01  3.000000e+00 
  573   534   535   576     1  1.800000e+02  1.297040e+01  3.000000e+00  1.800000e+02  1.297040e+01  3.000000e+00 
  533   534   573   572     1  1.800000e+02  1.297040e+01  3.000000e+00  1.800000e+02  1.297040e+01  3.000000e+00 
  533   534   573   574     1  3.600000e+02  1.297040e+01  3.000000e+00  3.600000e+02  1.297040e+01  3.000000e+00 
  535   534   573   572     1  3.600000e+02  1.297040e+01  3.000000e+00  3.600000e+02  1.297040e+01  3.000000e+00 
  535   534   573   574     1  1.800000e+02  1.297040e+01  3.000000e+00  1.800000e+02  1.297040e+01  3.000000e+00 
  534   535   536   495     1  1.800000e+02  1.297040e+01  3.000000e+00  1.800000e+02  1.297040e+01  3.000000e+00 
  534   535   536   537     1  3.600000e+02  1.297040e+01  3.000000e+00  3.600000e+02  1.297040e+01  3.000000e+00 
  576   535   536   495     1  3.600000e+02  1.297040e+01  3.000000e+00  3.600000e+02  1.297040e+01  3.000000e+00 
  576   535   536   537     1  1.800000e+02  1.297040e+01  3.000000e+00  1.800000e+02  1.297040e+01  3.000000e+00 
  534   535   576   575     1  1.800000e+02  1.297040e+01  3.000000e+00  1.800000e+02  1.297040e+01  3.000000e+00 
  534   535   576   577     1  3.600000e+02  1.297040e+01  3.000000e+00  3.600000e+02  1.297040e+01  3.000000e+00 
  536   535   576   575     1  3.600000e+02  1.297040e+01  3.000000e+00  3.600000e+02  1.297040e+01  3.000000e+00 
  536   535   576   577     1  1.800000e+02  1.297040e+01  3.000000e+00  1.800000e+02  1.297040e+01  3.000000e+00 
  495   536   537   498     1  1.800000e+02  1.297040e+01  3.000000e+00  1.800000e+02  1.297040e+01  3.000000e+00 
  495   536   537   538     1  3.600000e+02  1.297040e+01  3.000000e+00  3.600000e+02  1.297040e+01  3.000000e+00 
  535   536   537   498     1  3.600000e+02  1.297040e+01  3.000000e+00  3.600000e+02  1.297040e+01  3.000000e+00 
  535   536   537   538     1  1.800000e+02  1.297040e+01  3.000000e+00  1.800000e+02  1.297040e+01  3.000000e+00 
  498   537   538   539     1  1.800000e+02  1.297040e+01  3.000000e+00  1.800000e+02  1.297040e+01  3.000000e+00 
  498   537   538   577     1  3.600000e+02  1.297040e+01  3.000000e+00  3.600000e+02  1.297040e+01  3.000000e+00 
  536   537   538   539     1  3.600000e+02  1.297040e+01  3.000000e+00  3.600000e+02  1.297040e+01  3.000000e+00 
  536   537   538   577     1  1.800000e+02  1.297040e+01  3.000000e+00  1.800000e+02  1.297040e+01  3.000000e+00 
  537   538   539   540     1  1.800000e+02  1.297040e+01  3.000000e+00  1.800000e+02  1.297040e+01  3.000000e+00 
  537   538   539   580     1  3.600000e+02  1.297040e+01  3.000000e+00  3.600000e+02  1.297040e+01  3.000000e+00 
  577   538   539   540     1  3.600000e+02  1.297040e+01  3.000000e+00  3.600000e+02  1.297040e+01  3.000000e+00 
  577   538   539   580     1  1.800000e+02  1.297040e+01  3.000000e+00  1.800000e+02  1.297040e+01  3.000000e+00 
  537   538   577   576     1  1.800000e+02  1.297040e+01  3.000000e+00  1.800000e+02  1.297040e+01  3.000000e+00 
  537   538   577   578     1  3.600000e+02  1.297040e+01  3.000000e+00  3.600000e+02  1.297040e+01  3.000000e+00 
  539   538   577   576     1  3.600000e+02  1.297040e+01  3.000000e+00  3.600000e+02  1.297040e+01  3.000000e+00 
  539   538   577   578     1  1.800000e+02  1.297040e+01  3.000000e+00  1.800000e+02  1.297040e+01  3.000000e+00 
  538   539   540   499     1  1.800000e+02  1.297040e+01  3.000000e+00  1.800000e+02  1.297040e+01  3.000000e+00 
  538   539   540   541     1  3.600000e+02  1.297040e+01  3.000000e+00  3.600000e+02  1.297040e+01  3.000000e+00 
  580   539   540   499     1  3.600000e+02  1.297040e+01  3.000000e+00  3.600000e+02  1.297040e+01  3.000000e+00 
  580   539   540   541     1  1.800000e+02  1.297040e+01  3.000000e+00  1.800000e+02  1.297040e+01  3.000000e+00 
  538   539   580   579     1  1.800000e+02  1.297040e+01  3.000000e+00  1.800000e+02  1.297040e+01  3.000000e+00 
  538   539   580   581     1  3.600000e+02  1.297040e+01  3.000000e+00  3.600000e+02  1.297040e+01  3.000000e+00 
  540   539   580   579     1  3.600000e+02  1.297040e+01  3.000000e+00  3.600000e+02  1.297040e+01  3.000000e+00 
  540   539   580   581     1  1.800000e+02  1.297040e+01  3.000000e+00  1.800000e+02  1.297040e+01  3.000000e+00 
  499   540   541   502     1  1.800000e+02  1.297040e+01  3.000000e+00  1.800000e+02  1.297040e+01  3.000000e+00 
  499   540   541   542     1  3.600000e+02  1.297040e+01  3.000000e+00  3.600000e+02  1.297040e+01  3.000000e+00 
  539   540   541   502     1  3.600000e+02  1.297040e+01  3.000000e+00  3.600000e+02  1.297040e+01  3.000000e+00 
  539   540   541   542     1  1.800000e+02  1.297040e+01  3.000000e+00  1.800000e+02  1.297040e+01  3.000000e+00 
  502   541   542   543     1  1.800000e+02  1.297040e+01  3.000000e+00  1.800000e+02  1.297040e+01  3.000000e+00 
  502   541   542   581     1  3.600000e+02  1.297040e+01  3.000000e+00  3.600000e+02  1.297040e+01  3.000000e+00 
  540   541   542   543     1  3.600000e+02  1.297040e+01  3.000000e+00  3.600000e+02  1.297040e+01  3.000000e+00 
  540   541   542   581     1  1.800000e+02  1.297040e+01  3.000000e+00  1.800000e+02  1.297040e+01  3.000000e+00 
  541   542   543   544     1  1.800000e+02  1.297040e+01  3.000000e+00  1.800000e+02  1.297040e+01  3.000000e+00 
  541   542   543   584     1  3.600000e+02  1.297040e+01  3.000000e+00  3.600000e+02  1.297040e+01  3.000000e+00 
  581   542   543   544     1  3.600000e+02  1.297040e+01  3.000000e+00  3.600000e+02  1.297040e+01  3.000000e+00 
  581   542   543   584     1  1.800000e+02  1.297040e+01  3.000000e+00  1.800000e+02  1.297040e+01  3.000000e+00 
  541   542   581   580     1  1.800000e+02  1.297040e+01  3.000000e+00  1.800000e+02  1.297040e+01  3.000000e+00 
  541   542   581   582     1  3.600000e+02  1.297040e+01  3.000000e+00  3.600000e+02  1.297040e+01  3.000000e+00 
  543   542   581   580     1  3.600000e+02  1.297040e+01  3.000000e+00  3.600000e+02  1.297040e+01  3.000000e+00 
  543   542   581   582     1  1.800000e+02  1.297040e+01  3.000000e+00  1.800000e+02  1.297040e+01  3.000000e+00 
  542   543   544   503     1  1.800000e+02  1.297040e+01  3.000000e+00  1.800000e+02  1.297040e+01  3.000000e+00 
  542   543   544   545     1  3.600000e+02  1.297040e+01  3.000000e+00  3.600000e+02  1.297040e+01  3.000000e+00 
  584   543   544   503     1  3.600000e+02  1.297040e+01  3.000000e+00  3.600000e+02  1.297040e+01  3.000000e+00 
  584   543   544   545     1  1.800000e+02  1.297040e+01  3.000000e+00  1.800000e+02  1.297040e+01  3.000000e+00 
  542   543   584   583     1  1.800000e+02  1.297040e+01  3.000000e+00  1.800000e+02  1.297040e+01  3.000000e+00 
  542   543   584   585     1  3.600000e+02  1.297040e+01  3.000000e+00  3.600000e+02  1.297040e+01  3.000000e+00 
  544   543   584   583     1  3.600000e+02  1.297040e+01  3.000000e+00  3.600000e+02  1.297040e+01  3.000000e+00 
  544   543   584   585     1  1.800000e+02  1.297040e+01  3.000000e+00  1.800000e+02  1.297040e+01  3.000000e+00 
  503   544   545   506     1  1.800000e+02  1.297040e+01  3.000000e+00  1.800000e+02  1.297040e+01  3.000000e+00 
  503   544   545   546     1  3.600000e+02  1.297040e+01  3.000000e+00  3.600000e+02  1.297040e+01  3.000000e+00 
  543   544   545   506     1  3.600000e+02  1.297040e+01  3.000000e+00  3.600000e+02  1.297040e+01  3.000000e+00 
  543   544   545   546     1  1.800000e+02  1.297040e+01  3.000000e+00  1.800000e+02  1.297040e+01  3.000000e+00 
  506   545   546   547     1  1.800000e+02  1.297040e+01  3.000000e+00  1.800000e+02  1.297040e+01  3.000000e+00 
  506   545   546   585     1  3.600000e+02  1.297040e+01  3.000000e+00  3.600000e+02  1.297040e+01  3.000000e+00 
  544   545   546   547     1  3.600000e+02  1.297040e+01  3.000000e+00  3.600000e+02  1.297040e+01  3.000000e+00 
  544   545   546   585     1  1.800000e+02  1.297040e+01  3.000000e+00  1.800000e+02  1.297040e+01  3.000000e+00 
  545   546   547   548     1  1.800000e+02  1.297040e+01  3.000000e+00  1.800000e+02  1.297040e+01  3.000000e+00 
  545   546   547   588     1  3.600000e+02  1.297040e+01  3.000000e+00  3.600000e+02  1.297040e+01  3.000000e+00 
  585   546   547   548     1  3.600000e+02  1.297040e+01  3.000000e+00  3.600000e+02  1.297040e+01  3.000000e+00 
  585   546   547   588     1  1.800000e+02  1.297040e+01  3.000000e+00  1.800000e+02  1.297040e+01  3.000000e+00 
  545   546   585   584     1  1.800000e+02  1.297040e+01  3.000000e+00  1.800000e+02  1.297040e+01  3.000000e+00 
  545   546   585   586     1  3.600000e+02  1.297040e+01  3.000000e+00  3.600000e+02  1.297040e+01  3.000000e+00 
  547   546   585   584     1  3.600000e+02  1.297040e+01  3.000000e+00  3.600000e+02  1.297040e+01  3.000000e+00 
  547   546   585   586     1  1.800000e+02  1.297040e+01  3.000000e+00  1.800000e+02  1.297040e+01  3.000000e+00 
  546   547   548   507     1  1.800000e+02  1.297040e+01  3.000000e+00  1.800000e+02  1.297040e+01  3.000000e+00 
  546   547   548   549     1  3.600000e+02  1.297040e+01  3.000000e+00  3.600000e+02  1.297040e+01  3.000000e+00 
  588   547   548   507     1  3.600000e+02  1.297040e+01  3.000000e+00  3.600000e+02  1.297040e+01  3.000000e+00 
  588   547   548   549     1  1.800000e+02  1.297040e+01  3.000000e+00  1.800000e+02  1.297040e+01  3.000000e+00 
  546   547   588   587     1  1.800000e+02  1.297040e+01  3.000000e+00  1.800000e+02  1.297040e+01  3.000000e+00 
  546   547   588   589     1  3.600000e+02  1.297040e+01  3.000000e+00  3.600000e+02  1.297040e+01  3.000000e+00 
  548   547   588   587     1  3.600000e+02  1.297040e+01  3.000000e+00  3.600000e+02  1.297040e+01  3.000000e+00 
  548   547   588   589     1  1.800000e+02  1.297040e+01  3.000000e+00  1.800000e+02  1.297040e+01  3.000000e+00 
  507   548   549   510     1  1.800000e+02  1.297040e+01  3.000000e+00  1.800000e+02  1.297040e+01  3.000000e+00 
  507   548   549   550     1  3.600000e+02  1.297040e+01  3.000000e+00  3.600000e+02  1.297040e+01  3.000000e+00 
  547   548   549   510     1  3.600000e+02  1.297040e+01  3.000000e+00  3.600000e+02  1.297040e+01  3.000000e+00 
  547   548   549   550     1  1.800000e+02  1.297040e+01  3.000000e+00  1.800000e+02  1.297040e+01  3.000000e+00 
  510   549   550   551     1  1.800000e+02  1.297040e+01  3.000000e+00  1.800000e+02  1.297040e+01  3.000000e+00 
  510   549   550   589     1  3.600000e+02  1.297040e+01  3.000000e+00  3.600000e+02  1.297040e+01  3.000000e+00 
  548   549   550   551     1  3.600000e+02  1.297040e+01  3.000000e+00  3.600000e+02  1.297040e+01  3.000000e+00 
  548   549   550   589     1  1.800000e+02  1.297040e+01  3.000000e+00  1.800000e+02  1.297040e+01  3.000000e+00 
  549   550   551   552     1  1.800000e+02  1.297040e+01  3.000000e+00  1.800000e+02  1.297040e+01  3.000000e+00 
  549   550   551   592     1  3.600000e+02  1.297040e+01  3.000000e+00  3.600000e+02  1.297040e+01  3.000000e+00 
  589   550   551   552     1  3.600000e+02  1.297040e+01  3.000000e+00  3.600000e+02  1.297040e+01  3.000000e+00 
  589   550   551   592     1  1.800000e+02  1.297040e+01  3.000000e+00  1.800000e+02  1.297040e+01  3.000000e+00 
  549   550   589   588     1  1.800000e+02  1.297040e+01  3.000000e+00  1.800000e+02  1.297040e+01  3.000000e+00 
  549   550   589   590     1  3.600000e+02  1.297040e+01  3.000000e+00  3.600000e+02  1.297040e+01  3.000000e+00 
  551   550   589   588     1  3.600000e+02  1.297040e+01  3.000000e+00  3.600000e+02  1.297040e+01  3.000000e+00 
  551   550   589   590     1  1.800000e+02  1.297040e+01  3.000000e+00  1.800000e+02  1.297040e+01  3.000000e+00 
  550   551   552   511     1  1.800000e+02  1.297040e+01  3.000000e+00  1.800000e+02  1.297040e+01  3.000000e+00 
  550   551   552   553     1  3.600000e+02  1.297040e+01  3.000000e+00  3.600000e+02  1.297040e+01  3.000000e+00 
  592   551   552   511     1  3.600000e+02  1.297040e+01  3.000000e+00  3.600000e+02  1.297040e+01  3.000000e+00 
  592   551   552   553     1  1.800000e+02  1.297040e+01  3.000000e+00  1.800000e+02  1.297040e+01  3.000000e+00 
  550   551   592   591     1  1.800000e+02  1.297040e+01  3.000000e+00  1.800000e+02  1.297040e+01  3.000000e+00 
  550   551   592   593     1  3.600000e+02  1.297040e+01  3.000000e+00  3.600000e+02  1.297040e+01  3.000000e+00 
  552   551   592   591     1  3.600000e+02  1.297040e+01  3.000000e+00  3.600000e+02  1.297040e+01  3.000000e+00 
  552   551   592   593     1  1.800000e+02  1.297040e+01  3.000000e+00  1.800000e+02  1.297040e+01  3.000000e+00 
  511   552   553   514     1  1.800000e+02  1.297040e+01  3.000000e+00  1.800000e+02  1.297040e+01  3.000000e+00 
  511   552   553   554     1  3.600000e+02  1.297040e+01  3.000000e+00  3.600000e+02  1.297040e+01  3.000000e+00 
  551   552   553   514     1  3.600000e+02  1.297040e+01  3.000000e+00  3.600000e+02  1.297040e+01  3.000000e+00 
  551   552   553   554     1  1.800000e+02  1.297040e+01  3.000000e+00  1.800000e+02  1.297040e+01  3.000000e+00 
  514   553   554   555     1  1.800000e+02  1.297040e+01  3.000000e+00  1.800000e+02  1.297040e+01  3.000000e+00 
  514   553   554   593     1  3.600000e+02  1.297040e+01  3.000000e+00  3.600000e+02  1.297040e+01  3.000000e+00 
  552   553   554   555     1  3.600000e+02  1.297040e+01  3.000000e+00  3.600000e+02  1.297040e+01  3.000000e+00 
  552   553   554   593     1  1.800000e+02  1.297040e+01  3.000000e+00  1.800000e+02  1.297040e+01  3.000000e+00 
  553   554   555   556     1  1.800000e+02  1.297040e+01  3.000000e+00  1.800000e+02  1.297040e+01  3.000000e+00 
  553   554   555   596     1  3.600000e+02  1.297040e+01  3.000000e+00  3.600000e+02  1.297040e+01  3.000000e+00 
  593   554   555   556     1  3.600000e+02  1.297040e+01  3.000000e+00  3.600000e+02  1.297040e+01  3.000000e+00 
  593   554   555   596     1  1.800000e+02  1.297040e+01  3.000000e+00  1.800000e+02  1.297040e+01  3.000000e+00 
  553   554   593   592     1  1.800000e+02  1.297040e+01  3.000000e+00  1.800000e+02  1.297040e+01  3.000000e+00 
  553   554   593   594     1  3.600000e+02  1.297040e+01  3.000000e+00  3.600000e+02  1.297040e+01  3.000000e+00 
  555   554   593   592     1  3.600000e+02  1.297040e+01  3.000000e+00  3.600000e+02  1.297040e+01  3.000000e+00 
  555   554   593   594     1  1.800000e+02  1.297040e+01  3.000000e+00  1.800000e+02  1.297040e+01  3.000000e+00 
  554   555   556   515     1  1.800000e+02  1.297040e+01  3.000000e+00  1.800000e+02  1.297040e+01  3.000000e+00 
  554   555   556   557     1  3.600000e+02  1.297040e+01  3.000000e+00  3.600000e+02  1.297040e+01  3.000000e+00 
  596   555   556   515     1  3.600000e+02  1.297040e+01  3.000000e+00  3.600000e+02  1.297040e+01  3.000000e+00 
  596   555   556   557     1  1.800000e+02  1.297040e+01  3.000000e+00  1.800000e+02  1.297040e+01  3.000000e+00 
  554   555   596   595     1  1.800000e+02  1.297040e+01  3.000000e+00  1.800000e+02  1.297040e+01  3.000000e+00 
  554   555   596   597     1  3.600000e+02  1.297040e+01  3.000000e+00  3.600000e+02  1.297040e+01  3.000000e+00 
  556   555   596   595     1  3.600000e+02  1.297040e+01  3.000000e+00  3.600000e+02  1.297040e+01  3.000000e+00 
  556   555   596   597     1  1.800000e+02  1.297040e+01  3.000000e+00  1.800000e+02  1.297040e+01  3.000000e+00 
  515   556   557   518     1  1.800000e+02  1.297040e+01  3.000000e+00  1.800000e+02  1.297040e+01  3.000000e+00 
  515   556   557   558     1  3.600000e+02  1.297040e+01  3.000000e+00  3.600000e+02  1.297040e+01  3.000000e+00 
  555   556   557   518     1  3.600000e+02  1.297040e+01  3.000000e+00  3.600000e+02  1.297040e+01  3.000000e+00 
  555   556   557   558     1  1.800000e+02  1.297040e+01  3.000000e+00  1.800000e+02  1.297040e+01  3.000000e+00 
  518   557   558   559     1  1.800000e+02  1.297040e+01  3.000000e+00  1.800000e+02  1.297040e+01  3.000000e+00 
  518   557   558   597     1  3.600000e+02  1.297040e+01  3.000000e+00  3.600000e+02  1.297040e+01  3.000000e+00 
  556   557   558   559     1  3.600000e+02  1.297040e+01  3.000000e+00  3.600000e+02  1.297040e+01  3.000000e+00 
  556   557   558   597     1  1.800000e+02  1.297040e+01  3.000000e+00  1.800000e+02  1.297040e+01  3.000000e+00 
  557   558   559   560     1  1.800000e+02  1.297040e+01  3.000000e+00  1.800000e+02  1.297040e+01  3.000000e+00 
  557   558   559   600     1  3.600000e+02  1.297040e+01  3.000000e+00  3.600000e+02  1.297040e+01  3.000000e+00 
  597   558   559   560     1  3.600000e+02  1.297040e+01  3.000000e+00  3.600000e+02  1.297040e+01  3.000000e+00 
  597   558   559   600     1  1.800000e+02  1.297040e+01  3.000000e+00  1.800000e+02  1.297040e+01  3.000000e+00 
  557   558   597   596     1  1.800000e+02  1.297040e+01  3.000000e+00  1.800000e+02  1.297040e+01  3.000000e+00 
  557   558   597   598     1  3.600000e+02  1.297040e+01  3.000000e+00  3.600000e+02  1.297040e+01  3.000000e+00 
  559   558   597   596     1  3.600000e+02  1.297040e+01  3.000000e+00  3.600000e+02  1.297040e+01  3.000000e+00 
  559   558   597   598     1  1.800000e+02  1.297040e+01  3.000000e+00  1.800000e+02  1.297040e+01  3.000000e+00 
  558   559   560   519     1  1.800000e+02  1.297040e+01  3.000000e+00  1.800000e+02  1.297040e+01  3.000000e+00 
  558   559   560   521     1  3.600000e+02  1.297040e+01  3.000000e+00  3.600000e+02  1.297040e+01  3.000000e+00 
  600   559   560   519     1  3.600000e+02  1.297040e+01  3.000000e+00  3.600000e+02  1.297040e+01  3.000000e+00 
  600   559   560   521     1  1.800000e+02  1.297040e+01  3.000000e+00  1.800000e+02  1.297040e+01  3.000000e+00 
  558   559   600   561     1  3.600000e+02  1.297040e+01  3.000000e+00  3.600000e+02  1.297040e+01  3.000000e+00 
  558   559   600   599     1  1.800000e+02  1.297040e+01  3.000000e+00  1.800000e+02  1.297040e+01  3.000000e+00 
  560   559   600   561     1  1.800000e+02  1.297040e+01  3.000000e+00  1.800000e+02  1.297040e+01  3.000000e+00 
  560   559   600   599     1  3.600000e+02  1.297040e+01  3.000000e+00  3.600000e+02  1.297040e+01  3.000000e+00 
  522   561   562     1     1  3.600000e+02  1.297040e+01  3.000000e+00  3.600000e+02  1.297040e+01  3.000000e+00 
  522   561   562   563     1  1.800000e+02  1.297040e+01  3.000000e+00  1.800000e+02  1.297040e+01  3.000000e+00 
  600   561   562     1     1  1.800000e+02  1.297040e+01  3.000000e+00  1.800000e+02  1.297040e+01  3.000000e+00 
  600   561   562   563     1  3.600000e+02  1.297040e+01  3.000000e+00  3.600000e+02  1.297040e+01  3.000000e+00 
  522   561   600   559     1  1.800000e+02  1.297040e+01  3.000000e+00  1.800000e+02  1.297040e+01  3.000000e+00 
  522   561   600   599     1  3.600000e+02  1.297040e+01  3.000000e+00  3.600000e+02  1.297040e+01  3.000000e+00 
  562   561   600   559     1  3.600000e+02  1.297040e+01  3.000000e+00  3.600000e+02  1.297040e+01  3.000000e+00 
  562   561   600   599     1  1.800000e+02  1.297040e+01  3.000000e+00  1.800000e+02  1.297040e+01  3.000000e+00 
    1   562   563     4     1  1.800000e+02  1.297040e+01  3.000000e+00  1.800000e+02  1.297040e+01  3.000000e+00 
    1   562   563   564     1  3.600000e+02  1.297040e+01  3.000000e+00  3.600000e+02  1.297040e+01  3.000000e+00 
  561   562   563     4     1  3.600000e+02  1.297040e+01  3.000000e+00  3.600000e+02  1.297040e+01  3.000000e+00 
  561   562   563   564     1  1.800000e+02  1.297040e+01  3.000000e+00  1.800000e+02  1.297040e+01  3.000000e+00 
    4   563   564   523     1  3.600000e+02  1.297040e+01  3.000000e+00  3.600000e+02  1.297040e+01  3.000000e+00 
    4   563   564   565     1  1.800000e+02  1.297040e+01  3.000000e+00  1.800000e+02  1.297040e+01  3.000000e+00 
  562   563   564   523     1  1.800000e+02  1.297040e+01  3.000000e+00  1.800000e+02  1.297040e+01  3.000000e+00 
  562   563   564   565     1  3.600000e+02  1.297040e+01  3.000000e+00  3.600000e+02  1.297040e+01  3.000000e+00 
  523   564   565   526     1  1.800000e+02  1.297040e+01  3.000000e+00  1.800000e+02  1.297040e+01  3.000000e+00 
  523   564   565   566     1  3.600000e+02  1.297040e+01  3.000000e+00  3.600000e+02  1.297040e+01  3.000000e+00 
  563   564   565   526     1  3.600000e+02  1.297040e+01  3.000000e+00  3.600000e+02  1.297040e+01  3.000000e+00 
  563   564   565   566     1  1.800000e+02  1.297040e+01  3.000000e+00  1.800000e+02  1.297040e+01  3.000000e+00 
  526   565   566     5     1  3.600000e+02  1.297040e+01  3.000000e+00  3.600000e+02  1.297040e+01  3.000000e+00 
  526   565   566   567     1  1.800000e+02  1.297040e+01  3.000000e+00  1.800000e+02  1.297040e+01  3.000000e+00 
  564   565   566     5     1  1.800000e+02  1.297040e+01  3.000000e+00  1.800000e+02  1.297040e+01  3.000000e+00 
  564   565   566   567     1  3.600000e+02  1.297040e+01  3.000000e+00  3.600000e+02  1.297040e+01  3.000000e+00 
    5   566   567     8     1  1.800000e+02  1.297040e+01  3.000000e+00  1.800000e+02  1.297040e+01  3.000000e+00 
    5   566   567   568     1  3.600000e+02  1.297040e+01  3.000000e+00  3.600000e+02  1.297040e+01  3.000000e+00 
  565   566   567     8     1  3.600000e+02  1.297040e+01  3.000000e+00  3.600000e+02  1.297040e+01  3.000000e+00 
  565   566   567   568     1  1.800000e+02  1.297040e+01  3.000000e+00  1.800000e+02  1.297040e+01  3.000000e+00 
    8   567   568   527     1  3.600000e+02  1.297040e+01  3.000000e+00  3.600000e+02  1.297040e+01  3.000000e+00 
    8   567   568   569     1  1.800000e+02  1.297040e+01  3.000000e+00  1.800000e+02  1.297040e+01  3.000000e+00 
  566   567   568   527     1  1.800000e+02  1.297040e+01  3.000000e+00  1.800000e+02  1.297040e+01  3.000000e+00 
  566   567   568   569     1  3.600000e+02  1.297040e+01  3.000000e+00  3.600000e+02  1.297040e+01  3.000000e+00 
  527   568   569   530     1  1.800000e+02  1.297040e+01  3.000000e+00  1.800000e+02  1.297040e+01  3.000000e+00 
  527   568   569   570     1  3.600000e+02  1.297040e+01  3.000000e+00  3.600000e+02  1.297040e+01  3.000000e+00 
  567   568   569   530     1  3.600000e+02  1.297040e+01  3.000000e+00  3.600000e+02  1.297040e+01  3.000000e+00 
  567   568   569   570     1  1.800000e+02  1.297040e+01  3.000000e+00  1.800000e+02  1.297040e+01  3.000000e+00 
  530   569   570     9     1  3.600000e+02  1.297040e+01  3.000000e+00  3.600000e+02  1.297040e+01  3.000000e+00 
  530   569   570   571     1  1.800000e+02  1.297040e+01  3.000000e+00  1.800000e+02  1.297040e+01  3.000000e+00 
  568   569   570     9     1  1.800000e+02  1.297040e+01  3.000000e+00  1.800000e+02  1.297040e+01  3.000000e+00 
  568   569   570   571     1  3.600000e+02  1.297040e+01  3.000000e+00  3.600000e+02  1.297040e+01  3.000000e+00 
    9   570   571    12     1  1.800000e+02  1.297040e+01  3.000000e+00  1.800000e+02  1.297040e+01  3.000000e+00 
    9   570   571   572     1  3.600000e+02  1.297040e+01  3.000000e+00  3.600000e+02  1.297040e+01  3.000000e+00 
  569   570   571    12     1  3.600000e+02  1.297040e+01  3.000000e+00  3.600000e+02  1.297040e+01  3.000000e+00 
  569   570   571   572     1  1.800000e+02  1.297040e+01  3.000000e+00  1.800000e+02  1.297040e+01  3.000000e+00 
   12   571   572   531     1  3.600000e+02  1.297040e+01  3.000000e+00  3.600000e+02  1.297040e+01  3.000000e+00 
   12   571   572   573     1  1.800000e+02  1.297040e+01  3.000000e+00  1.800000e+02  1.297040e+01  3.000000e+00 
  570   571   572   531     1  1.800000e+02  1.297040e+01  3.000000e+00  1.800000e+02  1.297040e+01  3.000000e+00 
  570   571   572   573     1  3.600000e+02  1.297040e+01  3.000000e+00  3.600000e+02  1.297040e+01  3.000000e+00 
  531   572   573   534     1  1.800000e+02  1.297040e+01  3.000000e+00  1.800000e+02  1.297040e+01  3.000000e+00 
  531   572   573   574     1  3.600000e+02  1.297040e+01  3.000000e+00  3.600000e+02  1.297040e+01  3.000000e+00 
  571   572   573   534     1  3.600000e+02  1.297040e+01  3.000000e+00  3.600000e+02  1.297040e+01  3.000000e+00 
  571   572   573   574     1  1.800000e+02  1.297040e+01  3.000000e+00  1.800000e+02  1.297040e+01  3.000000e+00 
  534   573   574    13     1  3.600000e+02  1.297040e+01  3.000000e+00  3.600000e+02  1.297040e+01  3.000000e+00 
  534   573   574   575     1  1.800000e+02  1.297040e+01  3.000000e+00  1.800000e+02  1.297040e+01  3.000000e+00 
  572   573   574    13     1  1.800000e+02  1.297040e+01  3.000000e+00  1.800000e+02  1.297040e+01  3.000000e+00 
  572   573   574   575     1  3.600000e+02  1.297040e+01  3.000000e+00  3.600000e+02  1.297040e+01  3.000000e+00 
   13   574   575    16     1  1.800000e+02  1.297040e+01  3.000000e+00  1.800000e+02  1.297040e+01  3.000000e+00 
   13   574   575   576     1  3.600000e+02  1.297040e+01  3.000000e+00  3.600000e+02  1.297040e+01  3.000000e+00 
  573   574   575    16     1  3.600000e+02  1.297040e+01  3.000000e+00  3.600000e+02  1.297040e+01  3.000000e+00 
  573   574   575   576     1  1.800000e+02  1.297040e+01  3.000000e+00  1.800000e+02  1.297040e+01  3.000000e+00 
   16   575   576   535     1  3.600000e+02  1.297040e+01  3.000000e+00  3.600000e+02  1.297040e+01  3.000000e+00 
   16   575   576   577     1  1.800000e+02  1.297040e+01  3.000000e+00  1.800000e+02  1.297040e+01  3.000000e+00 
  574   575   576   535     1  1.800000e+02  1.297040e+01  3.000000e+00  1.800000e+02  1.297040e+01  3.000000e+00 
  574   575   576   577     1  3.600000e+02  1.297040e+01  3.000000e+00  3.600000e+02  1.297040e+01  3.000000e+00 
  535   576   577   538     1  1.800000e+02  1.297040e+01  3.000000e+00  1.800000e+02  1.297040e+01  3.000000e+00 
  535   576   577   578     1  3.600000e+02  1.297040e+01  3.000000e+00  3.600000e+02  1.297040e+01  3.000000e+00 
  575   576   577   538     1  3.600000e+02  1.297040e+01  3.000000e+00  3.600000e+02  1.297040e+01  3.000000e+00 
  575   576   577   578     1  1.800000e+02  1.297040e+01  3.000000e+00  1.800000e+02  1.297040e+01  3.000000e+00 
  538   577   578    17     1  3.600000e+02  1.297040e+01  3.000000e+00  3.600000e+02  1.297040e+01  3.000000e+00 
  538   577   578   579     1  1.800000e+02  1.297040e+01  3.000000e+00  1.800000e+02  1.297040e+01  3.000000e+00 
  576   577   578    17     1  1.800000e+02  1.297040e+01  3.000000e+00  1.800000e+02  1.297040e+01  3.000000e+00 
  576   577   578   579     1  3.600000e+02  1.297040e+01  3.000000e+00  3.600000e+02  1.297040e+01  3.000000e+00 
   17   578   579    20     1  1.800000e+02  1.297040e+01  3.000000e+00  1.800000e+02  1.297040e+01  3.000000e+00 
   17   578   579   580     1  3.600000e+02  1.297040e+01  3.000000e+00  3.600000e+02  1.297040e+01  3.000000e+00 
  577   578   579    20     1  3.600000e+02  1.297040e+01  3.000000e+00  3.600000e+02  1.297040e+01  3.000000e+00 
  577   578   579   580     1  1.800000e+02  1.297040e+01  3.000000e+00  1.800000e+02  1.297040e+01  3.000000e+00 
   20   579   580   539     1  3.600000e+02  1.297040e+01  3.000000e+00  3.600000e+02  1.297040e+01  3.000000e+00 
   20   579   580   581     1  1.800000e+02  1.297040e+01  3.000000e+00  1.800000e+02  1.297040e+01  3.000000e+00 
  578   579   580   539     1  1.800000e+02  1.297040e+01  3.000000e+00  1.800000e+02  1.297040e+01  3.000000e+00 
  578   579   580   581     1  3.600000e+02  1.297040e+01  3.000000e+00  3.600000e+02  1.297040e+01  3.000000e+00 
  539   580   581   542     1  1.800000e+02  1.297040e+01  3.000000e+00  1.800000e+02  1.297040e+01  3.000000e+00 
  539   580   581   582     1  3.600000e+02  1.297040e+01  3.000000e+00  3.600000e+02  1.297040e+01  3.000000e+00 
  579   580   581   542     1  3.600000e+02  1.297040e+01  3.000000e+00  3.600000e+02  1.297040e+01  3.000000e+00 
  579   580   581   582     1  1.800000e+02  1.297040e+01  3.000000e+00  1.800000e+02  1.297040e+01  3.000000e+00 
  542   581   582    21     1  3.600000e+02  1.297040e+01  3.000000e+00  3.600000e+02  1.297040e+01  3.000000e+00 
  542   581   582   583     1  1.800000e+02  1.297040e+01  3.000000e+00  1.800000e+02  1.297040e+01  3.000000e+00 
  580   581   582    21     1  1.800000e+02  1.297040e+01  3.000000e+00  1.800000e+02  1.297040e+01  3.000000e+00 
  580   581   582   583     1  3.600000e+02  1.297040e+01  3.000000e+00  3.600000e+02  1.297040e+01  3.000000e+00 
   21   582   583    24     1  1.800000e+02  1.297040e+01  3.000000e+00  1.800000e+02  1.297040e+01  3.000000e+00 
   21   582   583   584     1  3.600000e+02  1.297040e+01  3.000000e+00  3.600000e+02  1.297040e+01  3.000000e+00 
  581   582   583    24     1  3.600000e+02  1.297040e+01  3.000000e+00  3.600000e+02  1.297040e+01  3.000000e+00 
  581   582   583   584     1  1.800000e+02  1.297040e+01  3.000000e+00  1.800000e+02  1.297040e+01  3.000000e+00 
   24   583   584   543     1  3.600000e+02  1.297040e+01  3.000000e+00  3.600000e+02  1.297040e+01  3.000000e+00 
   24   583   584   585     1  1.800000e+02  1.297040e+01  3.000000e+00  1.800000e+02  1.297040e+01  3.000000e+00 
  582   583   584   543     1  1.800000e+02  1.297040e+01  3.000000e+00  1.800000e+02  1.297040e+01  3.000000e+00 
  582   583   584   585     1  3.600000e+02  1.297040e+01  3.000000e+00  3.600000e+02  1.297040e+01  3.000000e+00 
  543   584   585   546     1  1.800000e+02  1.297040e+01  3.000000e+00  1.800000e+02  1.297040e+01  3.000000e+00 
  543   584   585   586     1  3.600000e+02  1.297040e+01  3.000000e+00  3.600000e+02  1.297040e+01  3.000000e+00 
  583   584   585   546     1  3.600000e+02  1.297040e+01  3.000000e+00  3.600000e+02  1.297040e+01  3.000000e+00 
  583   584   585   586     1  1.800000e+02  1.297040e+01  3.000000e+00  1.800000e+02  1.297040e+01  3.000000e+00 
  546   585   586    25     1  3.600000e+02  1.297040e+01  3.000000e+00  3.600000e+02  1.297040e+01  3.000000e+00 
  546   585   586   587     1  1.800000e+02  1.297040e+01  3.000000e+00  1.800000e+02  1.297040e+01  3.000000e+00 
  584   585   586    25     1  1.800000e+02  1.297040e+01  3.000000e+00  1.800000e+02  1.297040e+01  3.000000e+00 
  584   585   586   587     1  3.600000e+02  1.297040e+01  3.000000e+00  3.600000e+02  1.297040e+01  3.000000e+00 
   25   586   587    28     1  1.800000e+02  1.297040e+01  3.000000e+00  1.800000e+02  1.297040e+01  3.000000e+00 
   25   586   587   588     1  3.600000e+02  1.297040e+01  3.000000e+00  3.600000e+02  1.297040e+01  3.000000e+00 
  585   586   587    28     1  3.600000e+02  1.297040e+01  3.000000e+00  3.600000e+02  1.297040e+01  3.000000e+00 
  585   586   587   588     1  1.800000e+02  1.297040e+01  3.000000e+00  1.800000e+02  1.297040e+01  3.000000e+00 
   28   587   588   547     1  3.600000e+02  1.297040e+01  3.000000e+00  3.600000e+02  1.297040e+01  3.000000e+00 
   28   587   588   589     1  1.800000e+02  1.297040e+01  3.000000e+00  1.800000e+02  1.297040e+01  3.000000e+00 
  586   587   588   547     1  1.800000e+02  1.297040e+01  3.000000e+00  1.800000e+02  1.297040e+01  3.000000e+00 
  586   587   588   589     1  3.600000e+02  1.297040e+01  3.000000e+00  3.600000e+02  1.297040e+01  3.000000e+00 
  547   588   589   550     1  1.800000e+02  1.297040e+01  3.000000e+00  1.800000e+02  1.297040e+01  3.000000e+00 
  547   588   589   590     1  3.600000e+02  1.297040e+01  3.000000e+00  3.600000e+02  1.297040e+01  3.000000e+00 
  587   588   589   550     1  3.600000e+02  1.297040e+01  3.000000e+00  3.600000e+02  1.297040e+01  3.000000e+00 
  587   588   589   590     1  1.800000e+02  1.297040e+01  3.000000e+00  1.800000e+02  1.297040e+01  3.000000e+00 
  550   589   590    29     1  3.600000e+02  1.297040e+01  3.000000e+00  3.600000e+02  1.297040e+01  3.000000e+00 
  550   589   590   591     1  1.800000e+02  1.297040e+01  3.000000e+00  1.800000e+02  1.297040e+01  3.000000e+00 
  588   589   590    29     1  1.800000e+02  1.297040e+01  3.000000e+00  1.800000e+02  1.297040e+01  3.000000e+00 
  588   589   590   591     1  3.600000e+02  1.297040e+01  3.000000e+00  3.600000e+02  1.297040e+01  3.000000e+00 
   29   590   591    32     1  1.800000e+02  1.297040e+01  3.000000e+00  1.800000e+02  1.297040e+01  3.000000e+00 
   29   590   591   592     1  3.600000e+02  1.297040e+01  3.000000e+00  3.600000e+02  1.297040e+01  3.000000e+00 
  589   590   591    32     1  3.600000e+02  1.297040e+01  3.000000e+00  3.600000e+02  1.297040e+01  3.000000e+00 
  589   590   591   592     1  1.800000e+02  1.297040e+01  3.000000e+00  1.800000e+02  1.297040e+01  3.000000e+00 
   32   591   592   551     1  3.600000e+02  1.297040e+01  3.000000e+00  3.600000e+02  1.297040e+01  3.000000e+00 
   32   591   592   593     1  1.800000e+02  1.297040e+01  3.000000e+00  1.800000e+02  1.297040e+01  3.000000e+00 
  590   591   592   551     1  1.800000e+02  1.297040e+01  3.000000e+00  1.800000e+02  1.297040e+01  3.000000e+00 
  590   591   592   593     1  3.600000e+02  1.297040e+01  3.000000e+00  3.600000e+02  1.297040e+01  3.000000e+00 
  551   592   593   554     1  1.800000e+02  1.297040e+01  3.000000e+00  1.800000e+02  1.297040e+01  3.000000e+00 
  551   592   593   594     1  3.600000e+02  1.297040e+01  3.000000e+00  3.600000e+02  1.297040e+01  3.000000e+00 
  591   592   593   554     1  3.600000e+02  1.297040e+01  3.000000e+00  3.600000e+02  1.297040e+01  3.000000e+00 
  591   592   593   594     1  1.800000e+02  1.297040e+01  3.000000e+00  1.800000e+02  1.297040e+01  3.000000e+00 
  554   593   594    33     1  3.600000e+02  1.297040e+01  3.000000e+00  3.600000e+02  1.297040e+01  3.000000e+00 
  554   593   594   595     1  1.800000e+02  1.297040e+01  3.000000e+00  1.800000e+02  1.297040e+01  3.000000e+00 
  592   593   594    33     1  1.800000e+02  1.297040e+01  3.000000e+00  1.800000e+02  1.297040e+01  3.000000e+00 
  592   593   594   595     1  3.600000e+02  1.297040e+01  3.000000e+00  3.600000e+02  1.297040e+01  3.000000e+00 
   33   594   595    36     1  1.800000e+02  1.297040e+01  3.000000e+00  1.800000e+02  1.297040e+01  3.000000e+00 
   33   594   595   596     1  3.600000e+02  1.297040e+01  3.000000e+00  3.600000e+02  1.297040e+01  3.000000e+00 
  593   594   595    36     1  3.600000e+02  1.297040e+01  3.000000e+00  3.600000e+02  1.297040e+01  3.000000e+00 
  593   594   595   596     1  1.800000e+02  1.297040e+01  3.000000e+00  1.800000e+02  1.297040e+01  3.000000e+00 
   36   595   596   555     1  3.600000e+02  1.297040e+01  3.000000e+00  3.600000e+02  1.297040e+01  3.000000e+00 
   36   595   596   597     1  1.800000e+02  1.297040e+01  3.000000e+00  1.800000e+02  1.297040e+01  3.000000e+00 
  594   595   596   555     1  1.800000e+02  1.297040e+01  3.000000e+00  1.800000e+02  1.297040e+01  3.000000e+00 
  594   595   596   597     1  3.600000e+02  1.297040e+01  3.000000e+00  3.600000e+02  1.297040e+01  3.000000e+00 
  555   596   597   558     1  1.800000e+02  1.297040e+01  3.000000e+00  1.800000e+02  1.297040e+01  3.000000e+00 
  555   596   597   598     1  3.600000e+02  1.297040e+01  3.000000e+00  3.600000e+02  1.297040e+01  3.000000e+00 
  595   596   597   558     1  3.600000e+02  1.297040e+01  3.000000e+00  3.600000e+02  1.297040e+01  3.000000e+00 
  595   596   597   598     1  1.800000e+02  1.297040e+01  3.000000e+00  1.800000e+02  1.297040e+01  3.000000e+00 
  558   597   598    37     1  3.600000e+02  1.297040e+01  3.000000e+00  3.600000e+02  1.297040e+01  3.000000e+00 
  558   597   598   599     1  1.800000e+02  1.297040e+01  3.000000e+00  1.800000e+02  1.297040e+01  3.000000e+00 
  596   597   598    37     1  1.800000e+02  1.297040e+01  3.000000e+00  1.800000e+02  1.297040e+01  3.000000e+00 
  596   597   598   599     1  3.600000e+02  1.297040e+01  3.000000e+00  3.600000e+02  1.297040e+01  3.000000e+00 
   37   598   599    40     1  1.800000e+02  1.297040e+01  3.000000e+00  1.800000e+02  1.297040e+01  3.000000e+00 
   37   598   599   600     1  3.600000e+02  1.297040e+01  3.000000e+00  3.600000e+02  1.297040e+01  3.000000e+00 
  597   598   599    40     1  3.600000e+02  1.297040e+01  3.000000e+00  3.600000e+02  1.297040e+01  3.000000e+00 
  597   598   599   600     1  1.800000e+02  1.297040e+01  3.000000e+00  1.800000e+02  1.297040e+01  3.000000e+00 
   40   599   600   559     1  3.600000e+02  1.297040e+01  3.000000e+00  3.600000e+02  1.297040e+01  3.000000e+00 
   40   599   600   561     1  1.800000e+02  1.297040e+01  3.000000e+00  1.800000e+02  1.297040e+01  3.000000e+00 
  598   599   600   559     1  1.800000e+02  1.297040e+01  3.000000e+00  1.800000e+02  1.297040e+01  3.000000e+00 
  598   599   600   561     1  3.600000e+02  1.297040e+01  3.000000e+00  3.600000e+02  1.297040e+01  3.000000e+00 

#include "./charmm36-mar2019.ff/tip3p.itp"

[ system ]
; Name
GRA in water

[ molecules ]
; Compound        #mols
GRA                 1
SOL              6876
