UNNAMED in water
 2651
    1SER      N    1   1.320   1.494   1.520
    1SER     H1    2   1.271   1.495   1.429
    1SER     H2    3   1.280   1.415   1.577
    1SER     H3    4   1.305   1.581   1.574
    1SER     CA    5   1.467   1.468   1.510
    1SER     HA    6   1.481   1.373   1.462
    1SER     CB    7   1.537   1.579   1.425
    1SER    HB1    8   1.474   1.602   1.336
    1SER    HB2    9   1.550   1.672   1.484
    1SER     OG   10   1.661   1.533   1.372
    1SER    HG1   11   1.722   1.608   1.369
    1SER      C   12   1.529   1.453   1.650
    1SER    OT1   13   1.460   1.489   1.750
    1SER    OT2   14   1.638   1.394   1.661
    2SOL     OW   15   0.236   0.661   0.106
    2SOL    HW1   16   0.169   0.613   0.155
    2SOL    HW2   17   0.250   0.608   0.027
    3SOL     OW   18   0.205   0.271   1.001
    3SOL    HW1   19   0.243   0.247   1.085
    3SOL    HW2   20   0.111   0.253   1.010
    4SOL     OW   21   0.008   0.386   0.658
    4SOL    HW1   22   2.925   0.426   0.685
    4SOL    HW2   23   2.983   0.314   0.601
    5SOL     OW   24   0.569   1.283   1.171
    5SOL    HW1   25   0.479   1.280   1.139
    5SOL    HW2   26   0.579   1.371   1.207
    6SOL     OW   27   1.558   1.511   0.704
    6SOL    HW1   28   1.513   1.494   0.788
    6SOL    HW2   29   1.487   1.517   0.640
    7SOL     OW   30   1.130   0.699   0.702
    7SOL    HW1   31   1.181   0.780   0.690
    7SOL    HW2   32   1.082   0.713   0.784
    8SOL     OW   33   1.766   0.593   0.232
    8SOL    HW1   34   1.744   0.580   0.140
    8SOL    HW2   35   1.727   0.519   0.277
    9SOL     OW   36   0.763   1.146   1.039
    9SOL    HW1   37   0.691   1.177   1.094
    9SOL    HW2   38   0.793   1.224   0.992
   10SOL     OW   39   0.859   0.782   1.820
   10SOL    HW1   40   0.853   0.854   1.884
   10SOL    HW2   41   0.885   0.825   1.739
   11SOL     OW   42   0.686   1.007   0.650
   11SOL    HW1   43   0.749   0.993   0.721
   11SOL    HW2   44   0.615   1.056   0.691
   12SOL     OW   45   0.707   1.152   1.808
   12SOL    HW1   46   0.754   1.232   1.833
   12SOL    HW2   47   0.623   1.183   1.776
   13SOL     OW   48   0.332   1.430   1.071
   13SOL    HW1   49   0.266   1.382   1.021
   13SOL    HW2   50   0.383   1.477   1.005
   14SOL     OW   51   0.450   0.402   1.493
   14SOL    HW1   52   0.525   0.341   1.496
   14SOL    HW2   53   0.374   0.346   1.506
   15SOL     OW   54   1.612   0.457   0.735
   15SOL    HW1   55   1.536   0.482   0.682
   15SOL    HW2   56   1.629   0.532   0.791
   16SOL     OW   57   0.218   1.715   0.480
   16SOL    HW1   58   0.240   1.797   0.525
   16SOL    HW2   59   0.288   1.704   0.415
   17SOL     OW   60   1.145   1.336   1.686
   17SOL    HW1   61   1.183   1.338   1.774
   17SOL    HW2   62   1.088   1.259   1.686
   18SOL     OW   63   0.248   1.450   0.530
   18SOL    HW1   64   0.211   1.538   0.525
   18SOL    HW2   65   0.187   1.400   0.585
   19SOL     OW   66   0.258   1.082   0.893
   19SOL    HW1   67   0.253   0.996   0.933
   19SOL    HW2   68   0.196   1.136   0.943
   20SOL     OW   69   0.622   1.788   1.437
   20SOL    HW1   70   0.536   1.770   1.476
   20SOL    HW2   71   0.638   1.880   1.457
   21SOL     OW   72   0.591   0.975   0.149
   21SOL    HW1   73   0.605   1.048   0.088
   21SOL    HW2   74   0.632   1.004   0.230
   22SOL     OW   75   1.551   0.144   1.461
   22SOL    HW1   76   1.589   0.217   1.412
   22SOL    HW2   77   1.619   0.116   1.521
   23SOL     OW   78   0.124   0.628   0.571
   23SOL    HW1   79   0.083   0.551   0.611
   23SOL    HW2   80   0.119   0.695   0.638
   24SOL     OW   81   1.844   1.760   0.336
   24SOL    HW1   82   1.901   1.726   0.405
   24SOL    HW2   83   1.870   1.851   0.326
   25SOL     OW   84   0.021   1.599   0.116
   25SOL    HW1   85   0.021   1.505   0.131
   25SOL    HW2   86   2.989   1.636   0.199
   26SOL     OW   87   1.689   0.918   0.637
   26SOL    HW1   88   1.775   0.879   0.619
   26SOL    HW2   89   1.668   0.969   0.559
   27SOL     OW   90   1.646   1.108   0.432
   27SOL    HW1   91   1.732   1.114   0.389
   27SOL    HW2   92   1.652   1.169   0.506
   28SOL     OW   93   0.129   0.747   1.590
   28SOL    HW1   94   0.224   0.758   1.596
   28SOL    HW2   95   0.094   0.836   1.590
   29SOL     OW   96   0.612   1.382   0.735
   29SOL    HW1   97   0.565   1.299   0.744
   29SOL    HW2   98   0.595   1.410   0.646
   30SOL     OW   99   1.292   1.217   1.425
   30SOL    HW1  100   1.316   1.153   1.359
   30SOL    HW2  101   1.341   1.191   1.503
   31SOL     OW  102   0.819   0.011   0.512
   31SOL    HW1  103   0.848   0.101   0.498
   31SOL    HW2  104   0.724   0.015   0.499
   32SOL     OW  105   0.188   0.958   1.274
   32SOL    HW1  106   0.272   0.918   1.251
   32SOL    HW2  107   0.125   0.912   1.219
   33SOL     OW  108   1.507   1.006   0.209
   33SOL    HW1  109   1.442   0.946   0.247
   33SOL    HW2  110   1.561   1.034   0.284
   34SOL     OW  111   1.209   1.787   1.597
   34SOL    HW1  112   1.202   1.868   1.547
   34SOL    HW2  113   1.128   1.739   1.576
   35SOL     OW  114   0.331   0.253   1.795
   35SOL    HW1  115   0.382   0.329   1.821
   35SOL    HW2  116   0.248   0.262   1.841
   36SOL     OW  117   1.466   1.417   0.953
   36SOL    HW1  118   1.394   1.431   1.016
   36SOL    HW2  119   1.454   1.327   0.923
   37SOL     OW  120   1.662   1.733   0.578
   37SOL    HW1  121   1.638   1.705   0.489
   37SOL    HW2  122   1.636   1.659   0.633
   38SOL     OW  123   0.591   0.720   0.265
   38SOL    HW1  124   0.601   0.802   0.218
   38SOL    HW2  125   0.529   0.740   0.335
   39SOL     OW  126   1.286   0.342   0.930
   39SOL    HW1  127   1.194   0.316   0.938
   39SOL    HW2  128   1.331   0.292   0.998
   40SOL     OW  129   1.583   1.667   0.310
   40SOL    HW1  130   1.672   1.702   0.303
   40SOL    HW2  131   1.557   1.647   0.220
   41SOL     OW  132   0.793   0.618   1.455
   41SOL    HW1  133   0.765   0.595   1.543
   41SOL    HW2  134   0.751   0.553   1.399
   42SOL     OW  135   1.397   0.478   1.677
   42SOL    HW1  136   1.397   0.521   1.763
   42SOL    HW2  137   1.454   0.402   1.688
   43SOL     OW  138   0.959   0.889   1.581
   43SOL    HW1  139   1.013   0.817   1.547
   43SOL    HW2  140   0.910   0.920   1.505
   44SOL     OW  141   0.995   0.423   1.229
   44SOL    HW1  142   0.917   0.436   1.284
   44SOL    HW2  143   0.963   0.371   1.155
   45SOL     OW  144   1.048   0.705   0.425
   45SOL    HW1  145   1.065   0.695   0.519
   45SOL    HW2  146   0.968   0.655   0.409
   46SOL     OW  147   0.103   0.817   0.762
   46SOL    HW1  148   0.180   0.813   0.818
   46SOL    HW2  149   0.040   0.870   0.811
   47SOL     OW  150   0.139   1.834   1.571
   47SOL    HW1  151   0.125   1.814   1.664
   47SOL    HW2  152   0.053   1.863   1.540
   48SOL     OW  153   0.929   0.338   0.220
   48SOL    HW1  154   0.936   0.399   0.147
   48SOL    HW2  155   0.881   0.263   0.184
   49SOL     OW  156   1.712   0.579   1.829
   49SOL    HW1  157   1.674   0.655   1.786
   49SOL    HW2  158   1.734   0.519   1.757
   50SOL     OW  159   1.375   1.141   0.541
   50SOL    HW1  160   1.454   1.129   0.489
   50SOL    HW2  161   1.323   1.204   0.492
   51SOL     OW  162   0.513   0.195   0.914
   51SOL    HW1  163   0.536   0.211   1.006
   51SOL    HW2  164   0.547   0.272   0.868
   52SOL     OW  165   1.010   1.449   0.475
   52SOL    HW1  166   0.967   1.517   0.424
   52SOL    HW2  167   0.989   1.470   0.566
   53SOL     OW  168   0.354   1.805   0.855
   53SOL    HW1  169   0.400   1.723   0.867
   53SOL    HW2  170   0.419   1.873   0.872
   54SOL     OW  171   1.799   1.059   0.866
   54SOL    HW1  172   1.743   1.044   0.790
   54SOL    HW2  173   1.739   1.063   0.940
   55SOL     OW  174   0.320   0.950   0.233
   55SOL    HW1  175   0.411   0.957   0.205
   55SOL    HW2  176   0.293   0.862   0.204
   56SOL     OW  177   1.475   0.739   0.728
   56SOL    HW1  178   1.464   0.694   0.812
   56SOL    HW2  179   1.552   0.794   0.741
   57SOL     OW  180   0.465   1.260   1.734
   57SOL    HW1  181   0.436   1.267   1.643
   57SOL    HW2  182   0.385   1.266   1.786
   58SOL     OW  183   1.110   1.776   0.225
   58SOL    HW1  184   1.051   1.728   0.282
   58SOL    HW2  185   1.141   1.711   0.161
   59SOL     OW  186   0.201   0.297   1.495
   59SOL    HW1  187   0.117   0.342   1.492
   59SOL    HW2  188   0.186   0.223   1.555
   60SOL     OW  189   1.627   1.363   0.084
   60SOL    HW1  190   1.599   1.454   0.076
   60SOL    HW2  191   1.545   1.313   0.078
   61SOL     OW  192   0.467   1.724   0.334
   61SOL    HW1  193   0.499   1.793   0.392
   61SOL    HW2  194   0.533   1.719   0.264
   62SOL     OW  195   1.409   0.107   0.436
   62SOL    HW1  196   1.390   0.081   0.346
   62SOL    HW2  197   1.503   0.126   0.437
   63SOL     OW  198   0.266   1.797   1.233
   63SOL    HW1  199   0.302   1.723   1.282
   63SOL    HW2  200   0.228   1.758   1.155
   64SOL     OW  201   0.938   1.697   0.900
   64SOL    HW1  202   1.016   1.644   0.916
   64SOL    HW2  203   0.891   1.650   0.832
   65SOL     OW  204   0.392   0.692   0.474
   65SOL    HW1  205   0.423   0.603   0.490
   65SOL    HW2  206   0.299   0.691   0.499
   66SOL     OW  207   1.539   0.249   1.734
   66SOL    HW1  208   1.541   0.257   1.830
   66SOL    HW2  209   1.484   0.172   1.719
   67SOL     OW  210   0.610   0.110   0.107
   67SOL    HW1  211   0.705   0.109   0.119
   67SOL    HW2  212   0.597   0.143   0.018
   68SOL     OW  213   0.765   0.270   1.748
   68SOL    HW1  214   0.841   0.213   1.765
   68SOL    HW2  215   0.722   0.278   1.833
   69SOL     OW  216   0.879   1.522   1.193
   69SOL    HW1  217   0.861   1.486   1.106
   69SOL    HW2  218   0.947   1.464   1.229
   70SOL     OW  219   1.342   0.588   1.433
   70SOL    HW1  220   1.372   0.556   1.517
   70SOL    HW2  221   1.378   0.677   1.427
   71SOL     OW  222   0.813   1.398   0.935
   71SOL    HW1  223   0.896   1.389   0.888
   71SOL    HW2  224   0.747   1.396   0.867
   72SOL     OW  225   0.927   0.510   0.903
   72SOL    HW1  226   0.905   0.503   0.810
   72SOL    HW2  227   0.959   0.424   0.927
   73SOL     OW  228   0.541   0.048   0.497
   73SOL    HW1  229   0.454   0.040   0.538
   73SOL    HW2  230   0.534   0.126   0.442
   74SOL     OW  231   1.412   1.208   0.049
   74SOL    HW1  232   1.432   1.133   0.104
   74SOL    HW2  233   1.323   1.233   0.074
   75SOL     OW  234   0.300   0.082   0.196
   75SOL    HW1  235   0.382   0.131   0.190
   75SOL    HW2  236   0.327   2.990   0.200
   76SOL     OW  237   0.945   0.252   0.474
   76SOL    HW1  238   0.921   0.289   0.389
   76SOL    HW2  239   1.040   0.261   0.478
   77SOL     OW  240   1.080   0.679   1.459
   77SOL    HW1  241   1.010   0.614   1.466
   77SOL    HW2  242   1.160   0.627   1.452
   78SOL     OW  243   1.225   1.572   0.797
   78SOL    HW1  244   1.239   1.637   0.727
   78SOL    HW2  245   1.299   1.585   0.857
   79SOL     OW  246   0.467   1.147   0.738
   79SOL    HW1  247   0.395   1.128   0.799
   79SOL    HW2  248   0.430   1.134   0.651
   80SOL     OW  249   1.270   1.795   0.605
   80SOL    HW1  250   1.316   1.856   0.547
   80SOL    HW2  251   1.206   1.849   0.651
   81SOL     OW  252   1.044   0.500   0.029
   81SOL    HW1  253   1.001   0.585   0.020
   81SOL    HW2  254   1.111   0.515   0.096
   82SOL     OW  255   0.081   0.564   1.391
   82SOL    HW1  256   0.170   0.560   1.356
   82SOL    HW2  257   0.085   0.629   1.461
   83SOL     OW  258   0.579   0.214   1.177
   83SOL    HW1  259   0.613   0.165   1.252
   83SOL    HW2  260   0.486   0.224   1.196
   84SOL     OW  261   0.877   0.470   0.638
   84SOL    HW1  262   0.821   0.516   0.576
   84SOL    HW2  263   0.885   0.382   0.603
   85SOL     OW  264   0.999   0.054   0.766
   85SOL    HW1  265   0.963   0.063   0.677
   85SOL    HW2  266   0.975   2.966   0.793
   86SOL     OW  267   1.434   1.164   0.857
   86SOL    HW1  268   1.369   1.094   0.853
   86SOL    HW2  269   1.460   1.177   0.766
   87SOL     OW  270   1.469   0.601   0.980
   87SOL    HW1  271   1.419   0.520   0.987
   87SOL    HW2  272   1.529   0.599   1.054
   88SOL     OW  273   1.845   0.819   0.383
   88SOL    HW1  274   1.902   0.761   0.435
   88SOL    HW2  275   1.820   0.765   0.308
   89SOL     OW  276   0.490   1.406   0.153
   89SOL    HW1  277   0.424   1.375   0.216
   89SOL    HW2  278   0.442   1.413   0.070
   90SOL     OW  279   1.668   1.265   0.651
   90SOL    HW1  280   1.763   1.270   0.662
   90SOL    HW2  281   1.637   1.353   0.670
   91SOL     OW  282   1.413   0.576   0.098
   91SOL    HW1  283   1.342   0.567   0.161
   91SOL    HW2  284   1.461   0.493   0.104
   92SOL     OW  285   0.528   0.263   0.326
   92SOL    HW1  286   0.569   0.213   0.255
   92SOL    HW2  287   0.503   0.346   0.285
   93SOL     OW  288   1.066   1.354   1.347
   93SOL    HW1  289   0.985   1.327   1.389
   93SOL    HW2  290   1.133   1.296   1.384
   94SOL     OW  291   1.128   1.211   1.105
   94SOL    HW1  292   1.059   1.232   1.168
   94SOL    HW2  293   1.090   1.230   1.020
   95SOL     OW  294   1.630   1.094   1.074
   95SOL    HW1  295   1.626   1.155   1.148
   95SOL    HW2  296   1.549   1.111   1.025
   96SOL     OW  297   0.901   0.109   1.388
   96SOL    HW1  298   0.940   0.091   1.303
   96SOL    HW2  299   0.966   0.163   1.434
   97SOL     OW  300   0.983   1.118   1.718
   97SOL    HW1  301   0.891   1.130   1.741
   97SOL    HW2  302   0.985   1.038   1.665
   98SOL     OW  303   0.704   1.063   0.378
   98SOL    HW1  304   0.690   1.049   0.472
   98SOL    HW2  305   0.784   1.013   0.359
   99SOL     OW  306   0.419   0.812   1.248
   99SOL    HW1  307   0.487   0.823   1.315
   99SOL    HW2  308   0.383   0.726   1.265
  100SOL     OW  309   1.272   0.388   1.259
  100SOL    HW1  310   1.300   0.459   1.316
  100SOL    HW2  311   1.178   0.401   1.248
  101SOL     OW  312   0.068   1.572   1.310
  101SOL    HW1  313   0.027   1.654   1.336
  101SOL    HW2  314   0.155   1.575   1.349
  102SOL     OW  315   0.361   1.109   0.490
  102SOL    HW1  316   0.349   1.183   0.430
  102SOL    HW2  317   0.355   1.032   0.435
  103SOL     OW  318   0.554   0.541   0.863
  103SOL    HW1  319   0.573   0.596   0.786
  103SOL    HW2  320   0.618   0.569   0.928
  104SOL     OW  321   1.248   1.346   0.396
  104SOL    HW1  322   1.303   1.419   0.423
  104SOL    HW2  323   1.160   1.369   0.427
  105SOL     OW  324   1.275   1.447   1.148
  105SOL    HW1  325   1.318   1.414   1.227
  105SOL    HW2  326   1.211   1.380   1.125
  106SOL     OW  327   1.584   0.627   0.477
  106SOL    HW1  328   1.540   0.684   0.540
  106SOL    HW2  329   1.630   0.687   0.419
  107SOL     OW  330   0.350   1.527   1.322
  107SOL    HW1  331   0.331   1.486   1.237
  107SOL    HW2  332   0.445   1.538   1.322
  108SOL     OW  333   0.411   0.741   1.602
  108SOL    HW1  334   0.468   0.791   1.543
  108SOL    HW2  335   0.459   0.660   1.618
  109SOL     OW  336   1.598   0.776   1.679
  109SOL    HW1  337   1.510   0.812   1.673
  109SOL    HW2  338   1.648   0.822   1.612
  110SOL     OW  339   1.004   0.110   1.762
  110SOL    HW1  340   1.046   0.192   1.737
  110SOL    HW2  341   1.027   0.049   1.692
  111SOL     OW  342   0.503   0.051   1.750
  111SOL    HW1  343   0.471   2.991   1.683
  111SOL    HW2  344   0.434   0.117   1.758
  112SOL     OW  345   0.584   0.871   1.032
  112SOL    HW1  346   0.609   0.964   1.027
  112SOL    HW2  347   0.526   0.866   1.107
  113SOL     OW  348   1.360   0.858   1.031
  113SOL    HW1  349   1.279   0.849   0.982
  113SOL    HW2  350   1.398   0.770   1.032
  114SOL     OW  351   1.205   0.531   0.271
  114SOL    HW1  352   1.214   0.450   0.322
  114SOL    HW2  353   1.164   0.593   0.332
  115SOL     OW  354   0.325   0.207   1.248
  115SOL    HW1  355   0.290   0.251   1.326
  115SOL    HW2  356   0.274   0.125   1.242
  116SOL     OW  357   0.033   1.305   1.279
  116SOL    HW1  358   0.067   1.259   1.356
  116SOL    HW2  359   0.044   1.398   1.300
  117SOL     OW  360   0.727   0.632   1.060
  117SOL    HW1  361   0.799   0.614   1.000
  117SOL    HW2  362   0.698   0.721   1.038
  118SOL     OW  363   1.735   0.957   1.853
  118SOL    HW1  364   1.685   0.907   1.789
  118SOL    HW2  365   1.674   0.971   1.925
  119SOL     OW  366   0.309   0.070   0.641
  119SOL    HW1  367   0.304   0.156   0.683
  119SOL    HW2  368   0.284   0.008   0.711
  120SOL     OW  369   1.614   0.373   0.368
  120SOL    HW1  370   1.646   0.310   0.432
  120SOL    HW2  371   1.589   0.450   0.420
  121SOL     OW  372   1.027   0.760   0.963
  121SOL    HW1  373   1.027   0.777   1.057
  121SOL    HW2  374   1.000   0.668   0.955
  122SOL     OW  375   0.998   1.570   1.706
  122SOL    HW1  376   0.965   1.604   1.623
  122SOL    HW2  377   1.025   1.480   1.686
  123SOL     OW  378   1.890   1.578   1.602
  123SOL    HW1  379   1.889   1.538   1.514
  123SOL    HW2  380   1.973   1.550   1.640
  124SOL     OW  381   0.355   0.915   1.808
  124SOL    HW1  382   0.437   0.934   1.854
  124SOL    HW2  383   0.380   0.852   1.741
  125SOL     OW  384   1.503   0.301   0.125
  125SOL    HW1  385   1.463   0.215   0.142
  125SOL    HW2  386   1.560   0.316   0.201
  126SOL     OW  387   1.293   0.824   0.034
  126SOL    HW1  388   1.335   0.739   0.049
  126SOL    HW2  389   1.323   0.851   2.948
  127SOL     OW  390   1.067   1.335   0.853
  127SOL    HW1  391   1.068   1.262   0.791
  127SOL    HW2  392   1.128   1.399   0.815
  128SOL     OW  393   0.311   0.808   0.948
  128SOL    HW1  394   0.404   0.828   0.943
  128SOL    HW2  395   0.307   0.721   0.987
  129SOL     OW  396   0.336   0.514   1.016
  129SOL    HW1  397   0.295   0.431   0.991
  129SOL    HW2  398   0.409   0.524   0.956
  130SOL     OW  399   1.141   0.382   1.699
  130SOL    HW1  400   1.096   0.437   1.763
  130SOL    HW2  401   1.228   0.421   1.691
  131SOL     OW  402   1.100   0.255   1.471
  131SOL    HW1  403   1.122   0.306   1.549
  131SOL    HW2  404   1.185   0.235   1.431
  132SOL     OW  405   0.008   1.315   0.172
  132SOL    HW1  406   2.916   1.330   0.151
  132SOL    HW2  407   0.007   1.239   0.231
  133SOL     OW  408   0.098   1.806   0.967
  133SOL    HW1  409   0.056   1.740   0.911
  133SOL    HW2  410   0.184   1.821   0.927
  134SOL     OW  411   0.497   1.572   0.903
  134SOL    HW1  412   0.566   1.634   0.929
  134SOL    HW2  413   0.542   1.507   0.849
  135SOL     OW  414   0.988   0.797   1.229
  135SOL    HW1  415   1.041   0.769   1.304
  135SOL    HW2  416   0.902   0.757   1.244
  136SOL     OW  417   0.045   0.560   1.106
  136SOL    HW1  418   0.133   0.533   1.082
  136SOL    HW2  419   0.039   0.543   1.200
  137SOL     OW  420   0.193   0.517   1.719
  137SOL    HW1  421   0.265   0.493   1.662
  137SOL    HW2  422   0.158   0.598   1.681
  138SOL     OW  423   1.368   0.926   1.658
  138SOL    HW1  424   1.400   1.016   1.663
  138SOL    HW2  425   1.371   0.904   1.565
  139SOL     OW  426   0.819   0.577   0.347
  139SOL    HW1  427   0.821   0.498   0.294
  139SOL    HW2  428   0.737   0.620   0.323
  140SOL     OW  429   1.643   0.602   1.189
  140SOL    HW1  430   1.630   0.544   1.263
  140SOL    HW2  431   1.730   0.579   1.155
  141SOL     OW  432   0.282   1.560   1.747
  141SOL    HW1  433   0.221   1.618   1.794
  141SOL    HW2  434   0.252   1.472   1.767
  142SOL     OW  435   0.693   0.457   1.264
  142SOL    HW1  436   0.648   0.380   1.231
  142SOL    HW2  437   0.695   0.518   1.190
  143SOL     OW  438   0.949   1.686   1.462
  143SOL    HW1  439   0.913   1.645   1.384
  143SOL    HW2  440   0.927   1.779   1.454
  144SOL     OW  441   0.448   0.495   0.200
  144SOL    HW1  442   0.512   0.564   0.219
  144SOL    HW2  443   0.365   0.541   0.190
  145SOL     OW  444   0.161   1.144   1.465
  145SOL    HW1  445   0.145   1.095   1.546
  145SOL    HW2  446   0.168   1.076   1.397
  146SOL     OW  447   1.329   1.049   1.218
  146SOL    HW1  448   1.354   0.984   1.153
  146SOL    HW2  449   1.257   1.097   1.178
  147SOL     OW  450   1.307   0.851   0.311
  147SOL    HW1  451   1.229   0.821   0.359
  147SOL    HW2  452   1.284   0.840   0.219
  148SOL     OW  453   1.764   1.751   1.146
  148SOL    HW1  454   1.828   1.773   1.078
  148SOL    HW2  455   1.743   1.659   1.129
  149SOL     OW  456   1.245   1.730   1.124
  149SOL    HW1  457   1.324   1.752   1.075
  149SOL    HW2  458   1.245   1.634   1.128
  150SOL     OW  459   0.093   1.245   1.026
  150SOL    HW1  460   0.076   1.259   1.120
  150SOL    HW2  461   0.008   1.261   0.985
  151SOL     OW  462   0.681   1.666   1.725
  151SOL    HW1  463   0.622   1.741   1.728
  151SOL    HW2  464   0.732   1.679   1.645
  152SOL     OW  465   0.881   0.081   0.143
  152SOL    HW1  466   0.941   0.065   0.070
  152SOL    HW2  467   0.915   0.028   0.214
  153SOL     OW  468   1.715   0.141   0.507
  153SOL    HW1  469   1.786   0.139   0.442
  153SOL    HW2  470   1.727   0.060   0.558
  154SOL     OW  471   1.390   1.568   0.483
  154SOL    HW1  472   1.451   1.599   0.416
  154SOL    HW2  473   1.343   1.648   0.511
  155SOL     OW  474   0.124   1.799   1.843
  155SOL    HW1  475   0.082   1.729   1.894
  155SOL    HW2  476   0.182   1.842   1.906
  156SOL     OW  477   1.277   0.925   0.671
  156SOL    HW1  478   1.350   0.863   0.676
  156SOL    HW2  479   1.311   0.998   0.619
  157SOL     OW  480   0.819   1.275   1.428
  157SOL    HW1  481   0.793   1.311   1.513
  157SOL    HW2  482   0.744   1.293   1.371
  158SOL     OW  483   0.673   1.608   0.159
  158SOL    HW1  484   0.671   1.627   0.065
  158SOL    HW2  485   0.618   1.531   0.169
  159SOL     OW  486   1.849   0.157   0.967
  159SOL    HW1  487   1.854   0.075   0.918
  159SOL    HW2  488   1.767   0.197   0.939
  160SOL     OW  489   0.268   0.334   0.742
  160SOL    HW1  490   0.178   0.365   0.728
  160SOL    HW2  491   0.268   0.303   0.833
  161SOL     OW  492   1.204   1.604   0.033
  161SOL    HW1  493   1.199   1.514   0.066
  161SOL    HW2  494   1.152   1.604   2.953
  162SOL     OW  495   0.823   1.006   1.373
  162SOL    HW1  496   0.864   1.001   1.287
  162SOL    HW2  497   0.825   1.100   1.395
  163SOL     OW  498   0.920   0.926   0.304
  163SOL    HW1  499   0.985   0.962   0.244
  163SOL    HW2  500   0.967   0.860   0.354
  164SOL     OW  501   1.488   1.601   0.050
  164SOL    HW1  502   1.393   1.614   0.053
  164SOL    HW2  503   1.515   1.637   2.965
  165SOL     OW  504   0.375   1.303   1.489
  165SOL    HW1  505   0.356   1.383   1.440
  165SOL    HW2  506   0.298   1.248   1.476
  166SOL     OW  507   1.615   1.274   1.275
  166SOL    HW1  508   1.701   1.270   1.317
  166SOL    HW2  509   1.582   1.361   1.297
  167SOL     OW  510   1.048   1.105   0.706
  167SOL    HW1  511   0.978   1.054   0.745
  167SOL    HW2  512   1.109   1.041   0.671
  168SOL     OW  513   1.018   0.243   0.965
  168SOL    HW1  514   1.011   0.191   0.884
  168SOL    HW2  515   1.020   0.177   1.035
  169SOL     OW  516   0.602   1.492   0.485
  169SOL    HW1  517   0.640   1.440   0.414
  169SOL    HW2  518   0.537   1.547   0.442
  170SOL     OW  519   1.719   0.391   1.379
  170SOL    HW1  520   1.791   0.454   1.377
  170SOL    HW2  521   1.747   0.321   1.321
  171SOL     OW  522   0.265   1.335   0.293
  171SOL    HW1  523   0.176   1.340   0.259
  171SOL    HW2  524   0.261   1.380   0.377
  172SOL     OW  525   0.125   1.012   1.707
  172SOL    HW1  526   0.050   0.973   1.753
  172SOL    HW2  527   0.201   0.978   1.754
  173SOL     OW  528   0.664   0.209   1.493
  173SOL    HW1  529   0.746   0.180   1.453
  173SOL    HW2  530   0.686   0.225   1.584
  174SOL     OW  531   0.070   0.316   0.050
  174SOL    HW1  532   2.977   0.326   0.032
  174SOL    HW2  533   0.109   0.399   0.023
  175SOL     OW  534   1.431   0.858   1.400
  175SOL    HW1  535   1.385   0.916   1.340
  175SOL    HW2  536   1.523   0.863   1.372
  176SOL     OW  537   0.038   0.185   0.291
  176SOL    HW1  538   0.044   0.243   0.215
  176SOL    HW2  539   0.126   0.150   0.301
  177SOL     OW  540   1.184   1.348   0.124
  177SOL    HW1  541   1.090   1.333   0.114
  177SOL    HW2  542   1.200   1.338   0.218
  178SOL     OW  543   0.617   0.831   1.433
  178SOL    HW1  544   0.672   0.908   1.419
  178SOL    HW2  545   0.678   0.758   1.441
  179SOL     OW  546   1.486   1.771   0.976
  179SOL    HW1  547   1.510   1.829   0.905
  179SOL    HW2  548   1.567   1.761   1.027
  180SOL     OW  549   0.715   0.566   1.708
  180SOL    HW1  550   0.753   0.631   1.767
  180SOL    HW2  551   0.757   0.483   1.734
  181SOL     OW  552   1.465   1.174   1.638
  181SOL    HW1  553   1.439   1.188   1.729
  181SOL    HW2  554   1.547   1.223   1.628
  182SOL     OW  555   0.388   1.737   1.563
  182SOL    HW1  556   0.302   1.776   1.549
  182SOL    HW2  557   0.371   1.656   1.611
  183SOL     OW  558   1.673   0.882   1.255
  183SOL    HW1  559   1.664   0.795   1.214
  183SOL    HW2  560   1.664   0.943   1.182
  184SOL     OW  561   1.226   0.317   0.454
  184SOL    HW1  562   1.287   0.244   0.453
  184SOL    HW2  563   1.249   0.367   0.532
  185SOL     OW  564   0.593   0.741   0.665
  185SOL    HW1  565   0.631   0.828   0.651
  185SOL    HW2  566   0.521   0.736   0.603
  186SOL     OW  567   1.766   0.352   1.645
  186SOL    HW1  568   1.745   0.376   1.555
  186SOL    HW2  569   1.684   0.317   1.681
  187SOL     OW  570   1.737   0.936   1.514
  187SOL    HW1  571   1.778   1.022   1.526
  187SOL    HW2  572   1.727   0.928   1.419
  188SOL     OW  573   0.906   1.387   0.061
  188SOL    HW1  574   0.832   1.387   0.123
  188SOL    HW2  575   0.868   1.416   2.978
  189SOL     OW  576   0.658   1.794   0.949
  189SOL    HW1  577   0.635   1.883   0.924
  189SOL    HW2  578   0.754   1.790   0.939
  190SOL     OW  579   0.866   0.965   0.857
  190SOL    HW1  580   0.915   0.894   0.897
  190SOL    HW2  581   0.833   1.016   0.930
  191SOL     OW  582   1.100   1.020   0.099
  191SOL    HW1  583   1.064   1.055   0.018
  191SOL    HW2  584   1.165   0.956   0.071
  192SOL     OW  585   1.860   1.555   0.842
  192SOL    HW1  586   1.780   1.546   0.790
  192SOL    HW2  587   1.850   1.492   0.913
  193SOL     OW  588   0.225   1.304   1.855
  193SOL    HW1  589   0.175   1.226   1.831
  193SOL    HW2  590   0.210   1.314   1.949
  194SOL     OW  591   0.127   1.251   0.665
  194SOL    HW1  592   0.078   1.185   0.715
  194SOL    HW2  593   0.174   1.201   0.598
  195SOL     OW  594   0.681   1.402   1.625
  195SOL    HW1  595   0.601   1.355   1.651
  195SOL    HW2  596   0.672   1.488   1.665
  196SOL     OW  597   1.797   0.177   1.235
  196SOL    HW1  598   1.842   0.101   1.271
  196SOL    HW2  599   1.823   0.180   1.143
  197SOL     OW  600   0.461   0.433   0.545
  197SOL    HW1  601   0.453   0.371   0.473
  197SOL    HW2  602   0.403   0.399   0.613
  198SOL     OW  603   1.706   1.491   1.085
  198SOL    HW1  604   1.625   1.456   1.048
  198SOL    HW2  605   1.726   1.433   1.159
  199SOL     OW  606   0.332   0.554   1.290
  199SOL    HW1  607   0.388   0.499   1.345
  199SOL    HW2  608   0.351   0.526   1.201
  200SOL     OW  609   0.826   1.577   0.679
  200SOL    HW1  610   0.819   1.626   0.597
  200SOL    HW2  611   0.746   1.523   0.682
  201SOL     OW  612   1.428   0.215   1.127
  201SOL    HW1  613   1.451   0.145   1.188
  201SOL    HW2  614   1.379   0.277   1.180
  202SOL     OW  615   1.013   0.028   1.149
  202SOL    HW1  616   0.935   2.991   1.108
  202SOL    HW2  617   1.081   2.961   1.136
  203SOL     OW  618   0.765   1.329   0.313
  203SOL    HW1  619   0.733   1.240   0.329
  203SOL    HW2  620   0.852   1.330   0.352
  204SOL     OW  621   0.621   1.558   1.284
  204SOL    HW1  622   0.623   1.639   1.335
  204SOL    HW2  623   0.708   1.553   1.244
  205SOL     OW  624   1.357   0.056   0.171
  205SOL    HW1  625   1.412   2.984   0.141
  205SOL    HW2  626   1.268   0.025   0.155
  206SOL     OW  627   1.297   0.460   0.682
  206SOL    HW1  628   1.242   0.537   0.690
  206SOL    HW2  629   1.295   0.419   0.769
  207SOL     OW  630   1.605   0.230   0.887
  207SOL    HW1  631   1.525   0.228   0.939
  207SOL    HW2  632   1.595   0.306   0.829
  208SOL     OW  633   0.070   1.089   0.342
  208SOL    HW1  634   0.148   1.050   0.302
  208SOL    HW2  635   0.004   1.021   0.337
  209SOL     OW  636   0.881   1.651   0.345
  209SOL    HW1  637   0.811   1.629   0.284
  209SOL    HW2  638   0.848   1.726   0.395
  210SOL     OW  639   0.240   0.646   1.973
  210SOL    HW1  640   0.171   0.609   2.028
  210SOL    HW2  641   0.227   0.606   1.887
  211SOL     OW  642   0.236   0.248   2.850
  211SOL    HW1  643   0.251   0.235   2.944
  211SOL    HW2  644   0.141   0.238   2.840
  212SOL     OW  645   0.007   0.385   2.522
  212SOL    HW1  646   2.923   0.424   2.546
  212SOL    HW2  647   2.985   0.313   2.463
  213SOL     OW  648   1.557   1.509   2.567
  213SOL    HW1  649   1.510   1.493   2.648
  213SOL    HW2  650   1.489   1.516   2.500
  214SOL     OW  651   1.132   0.698   2.565
  214SOL    HW1  652   1.183   0.779   2.551
  214SOL    HW2  653   1.083   0.715   2.646
  215SOL     OW  654   1.764   0.607   2.093
  215SOL    HW1  655   1.746   0.599   2.000
  215SOL    HW2  656   1.731   0.525   2.131
  216SOL     OW  657   0.751   1.145   2.895
  216SOL    HW1  658   0.684   1.191   2.946
  216SOL    HW2  659   0.802   1.215   2.855
  217SOL     OW  660   0.685   1.008   2.510
  217SOL    HW1  661   0.749   0.993   2.579
  217SOL    HW2  662   0.614   1.057   2.553
  218SOL     OW  663   0.330   1.452   2.933
  218SOL    HW1  664   0.278   1.387   2.886
  218SOL    HW2  665   0.386   1.491   2.866
  219SOL     OW  666   1.615   0.456   2.593
  219SOL    HW1  667   1.540   0.480   2.539
  219SOL    HW2  668   1.617   0.522   2.662
  220SOL     OW  669   0.221   1.712   2.347
  220SOL    HW1  670   0.242   1.795   2.388
  220SOL    HW2  671   0.279   1.707   2.271
  221SOL     OW  672   0.250   1.446   2.388
  221SOL    HW1  673   0.217   1.536   2.388
  221SOL    HW2  674   0.188   1.399   2.444
  222SOL     OW  675   0.239   1.084   2.749
  222SOL    HW1  676   0.257   1.003   2.796
  222SOL    HW2  677   0.193   1.139   2.812
  223SOL     OW  678   0.588   0.980   1.994
  223SOL    HW1  679   0.631   1.032   1.926
  223SOL    HW2  680   0.630   1.008   2.075
  224SOL     OW  681   0.130   0.624   2.436
  224SOL    HW1  682   0.085   0.549   2.474
  224SOL    HW2  683   0.122   0.693   2.501
  225SOL     OW  684   1.841   1.762   2.202
  225SOL    HW1  685   1.903   1.733   2.269
  225SOL    HW2  686   1.869   1.852   2.181
  226SOL     OW  687   0.031   1.598   1.998
  226SOL    HW1  688   0.021   1.503   2.006
  226SOL    HW2  689   2.977   1.634   2.069
  227SOL     OW  690   1.689   0.917   2.498
  227SOL    HW1  691   1.775   0.880   2.479
  227SOL    HW2  692   1.668   0.969   2.420
  228SOL     OW  693   1.645   1.107   2.293
  228SOL    HW1  694   1.728   1.117   2.247
  228SOL    HW2  695   1.650   1.168   2.366
  229SOL     OW  696   0.609   1.380   2.593
  229SOL    HW1  697   0.562   1.297   2.602
  229SOL    HW2  698   0.593   1.407   2.503
  230SOL     OW  699   0.820   0.010   2.372
  230SOL    HW1  700   0.850   0.099   2.353
  230SOL    HW2  701   0.725   0.013   2.359
  231SOL     OW  702   1.533   0.990   2.060
  231SOL    HW1  703   1.462   0.933   2.090
  231SOL    HW2  704   1.571   1.025   2.141
  232SOL     OW  705   1.435   1.422   2.801
  232SOL    HW1  706   1.415   1.420   2.895
  232SOL    HW2  707   1.443   1.330   2.777
  233SOL     OW  708   1.659   1.734   2.442
  233SOL    HW1  709   1.639   1.706   2.353
  233SOL    HW2  710   1.635   1.660   2.497
  234SOL     OW  711   0.596   0.723   2.125
  234SOL    HW1  712   0.605   0.803   2.073
  234SOL    HW2  713   0.532   0.745   2.192
  235SOL     OW  714   1.294   0.335   2.808
  235SOL    HW1  715   1.199   0.323   2.801
  235SOL    HW2  716   1.317   0.298   2.893
  236SOL     OW  717   1.584   1.669   2.178
  236SOL    HW1  718   1.674   1.703   2.172
  236SOL    HW2  719   1.555   1.661   2.088
  237SOL     OW  720   1.048   0.699   2.290
  237SOL    HW1  721   1.064   0.691   2.384
  237SOL    HW2  722   0.967   0.651   2.275
  238SOL     OW  723   0.104   0.816   2.624
  238SOL    HW1  724   0.182   0.813   2.679
  238SOL    HW2  725   0.047   0.879   2.668
  239SOL     OW  726   0.871   0.353   2.046
  239SOL    HW1  727   0.931   0.412   2.001
  239SOL    HW2  728   0.908   0.266   2.031
  240SOL     OW  729   1.375   1.143   2.404
  240SOL    HW1  730   1.454   1.128   2.351
  240SOL    HW2  731   1.323   1.205   2.352
  241SOL     OW  732   0.557   0.197   2.834
  241SOL    HW1  733   0.506   0.269   2.871
  241SOL    HW2  734   0.576   0.225   2.745
  242SOL     OW  735   1.008   1.445   2.336
  242SOL    HW1  736   0.968   1.517   2.288
  242SOL    HW2  737   0.994   1.467   2.428
  243SOL     OW  738   0.353   1.800   2.713
  243SOL    HW1  739   0.400   1.719   2.728
  243SOL    HW2  740   0.415   1.869   2.738
  244SOL     OW  741   1.805   1.059   2.720
  244SOL    HW1  742   1.745   1.044   2.647
  244SOL    HW2  743   1.749   1.061   2.798
  245SOL     OW  744   0.315   0.949   2.107
  245SOL    HW1  745   0.398   0.976   2.066
  245SOL    HW2  746   0.295   0.864   2.067
  246SOL     OW  747   1.473   0.744   2.589
  246SOL    HW1  748   1.470   0.690   2.668
  246SOL    HW2  749   1.554   0.794   2.597
  247SOL     OW  750   1.118   1.780   2.094
  247SOL    HW1  751   1.049   1.735   2.142
  247SOL    HW2  752   1.143   1.719   2.024
  248SOL     OW  753   1.618   1.377   1.967
  248SOL    HW1  754   1.616   1.445   1.899
  248SOL    HW2  755   1.559   1.309   1.935
  249SOL     OW  756   0.467   1.740   2.182
  249SOL    HW1  757   0.506   1.795   2.250
  249SOL    HW2  758   0.540   1.712   2.127
  250SOL     OW  759   1.408   0.110   2.296
  250SOL    HW1  760   1.392   0.078   2.207
  250SOL    HW2  761   1.502   0.128   2.298
  251SOL     OW  762   0.264   1.799   0.099
  251SOL    HW1  763   0.301   1.728   0.152
  251SOL    HW2  764   0.205   1.755   0.038
  252SOL     OW  765   0.942   1.691   2.757
  252SOL    HW1  766   1.022   1.639   2.760
  252SOL    HW2  767   0.887   1.648   2.691
  253SOL     OW  768   0.393   0.693   2.337
  253SOL    HW1  769   0.425   0.604   2.352
  253SOL    HW2  770   0.300   0.689   2.361
  254SOL     OW  771   0.625   0.120   1.975
  254SOL    HW1  772   0.715   0.088   1.969
  254SOL    HW2  773   0.587   0.102   1.889
  255SOL     OW  774   0.805   1.400   2.791
  255SOL    HW1  775   0.891   1.392   2.752
  255SOL    HW2  776   0.744   1.393   2.717
  256SOL     OW  777   0.920   0.519   2.759
  256SOL    HW1  778   0.903   0.499   2.667
  256SOL    HW2  779   0.951   0.436   2.796
  257SOL     OW  780   0.544   0.061   2.367
  257SOL    HW1  781   0.456   0.043   2.401
  257SOL    HW2  782   0.533   0.130   2.303
  258SOL     OW  783   1.418   1.184   1.900
  258SOL    HW1  784   1.454   1.117   1.959
  258SOL    HW2  785   1.345   1.221   1.949
  259SOL     OW  786   0.291   0.034   2.051
  259SOL    HW1  787   0.343   0.109   2.021
  259SOL    HW2  788   0.355   2.972   2.084
  260SOL     OW  789   0.938   0.253   2.325
  260SOL    HW1  790   0.910   0.298   2.245
  260SOL    HW2  791   1.033   0.264   2.326
  261SOL     OW  792   1.219   1.584   2.669
  261SOL    HW1  793   1.244   1.642   2.597
  261SOL    HW2  794   1.301   1.568   2.716
  262SOL     OW  795   0.462   1.146   2.602
  262SOL    HW1  796   0.389   1.129   2.662
  262SOL    HW2  797   0.426   1.129   2.515
  263SOL     OW  798   1.271   1.795   2.466
  263SOL    HW1  799   1.316   1.856   2.407
  263SOL    HW2  800   1.207   1.849   2.513
  264SOL     OW  801   1.023   0.549   1.884
  264SOL    HW1  802   0.984   0.635   1.865
  264SOL    HW2  803   1.089   0.567   1.951
  265SOL     OW  804   0.874   0.467   2.497
  265SOL    HW1  805   0.823   0.515   2.432
  265SOL    HW2  806   0.886   0.380   2.459
  266SOL     OW  807   0.999   0.049   2.624
  266SOL    HW1  808   0.965   0.056   2.535
  266SOL    HW2  809   0.976   2.960   2.651
  267SOL     OW  810   1.438   1.160   2.713
  267SOL    HW1  811   1.364   1.100   2.705
  267SOL    HW2  812   1.465   1.177   2.623
  268SOL     OW  813   1.489   0.585   2.820
  268SOL    HW1  814   1.424   0.514   2.826
  268SOL    HW2  815   1.509   0.607   2.911
  269SOL     OW  816   1.849   0.818   2.245
  269SOL    HW1  817   1.906   0.764   2.300
  269SOL    HW2  818   1.818   0.758   2.177
  270SOL     OW  819   0.492   1.412   2.024
  270SOL    HW1  820   0.416   1.383   2.075
  270SOL    HW2  821   0.467   1.398   1.933
  271SOL     OW  822   1.668   1.264   2.512
  271SOL    HW1  823   1.763   1.271   2.523
  271SOL    HW2  824   1.636   1.353   2.531
  272SOL     OW  825   1.394   0.571   1.933
  272SOL    HW1  826   1.333   0.553   2.005
  272SOL    HW2  827   1.478   0.537   1.964
  273SOL     OW  828   0.526   0.263   2.183
  273SOL    HW1  829   0.565   0.211   2.113
  273SOL    HW2  830   0.508   0.348   2.143
  274SOL     OW  831   1.648   1.104   2.931
  274SOL    HW1  832   1.648   1.171   3.000
  274SOL    HW2  833   1.562   1.112   2.890
  275SOL     OW  834   0.708   1.060   2.234
  275SOL    HW1  835   0.695   1.046   2.328
  275SOL    HW2  836   0.784   1.007   2.212
  276SOL     OW  837   0.351   1.107   2.354
  276SOL    HW1  838   0.356   1.180   2.292
  276SOL    HW2  839   0.356   1.029   2.299
  277SOL     OW  840   0.546   0.546   2.731
  277SOL    HW1  841   0.568   0.593   2.651
  277SOL    HW2  842   0.617   0.567   2.791
  278SOL     OW  843   1.247   1.347   2.251
  278SOL    HW1  844   1.303   1.419   2.281
  278SOL    HW2  845   1.160   1.369   2.285
  279SOL     OW  846   1.584   0.627   2.339
  279SOL    HW1  847   1.539   0.685   2.400
  279SOL    HW2  848   1.627   0.686   2.277
  280SOL     OW  849   0.576   0.872   2.880
  280SOL    HW1  850   0.617   0.955   2.856
  280SOL    HW2  851   0.552   0.883   2.972
  281SOL     OW  852   1.210   0.534   2.133
  281SOL    HW1  853   1.215   0.453   2.183
  281SOL    HW2  854   1.165   0.596   2.191
  282SOL     OW  855   0.731   0.641   2.918
  282SOL    HW1  856   0.798   0.615   2.855
  282SOL    HW2  857   0.699   0.725   2.885
  283SOL     OW  858   0.308   0.069   2.504
  283SOL    HW1  859   0.301   0.155   2.546
  283SOL    HW2  860   0.282   0.007   2.572
  284SOL     OW  861   1.607   0.373   2.232
  284SOL    HW1  862   1.647   0.312   2.295
  284SOL    HW2  863   1.589   0.452   2.284
  285SOL     OW  864   1.021   0.763   2.819
  285SOL    HW1  865   1.024   0.771   2.915
  285SOL    HW2  866   0.995   0.672   2.803
  286SOL     OW  867   1.530   0.274   1.995
  286SOL    HW1  868   1.467   0.207   2.024
  286SOL    HW2  869   1.564   0.311   2.076
  287SOL     OW  870   1.294   0.826   1.898
  287SOL    HW1  871   1.336   0.740   1.901
  287SOL    HW2  872   1.321   0.863   1.815
  288SOL     OW  873   1.052   1.347   2.698
  288SOL    HW1  874   1.063   1.265   2.650
  288SOL    HW2  875   1.128   1.400   2.675
  289SOL     OW  876   0.311   0.811   2.811
  289SOL    HW1  877   0.404   0.830   2.809
  289SOL    HW2  878   0.305   0.722   2.847
  290SOL     OW  879   0.320   0.519   2.873
  290SOL    HW1  880   0.290   0.431   2.850
  290SOL    HW2  881   0.399   0.532   2.820
  291SOL     OW  882   2.995   1.319   2.041
  291SOL    HW1  883   2.902   1.323   2.019
  291SOL    HW2  884   0.004   1.238   2.091
  292SOL     OW  885   0.094   1.819   2.810
  292SOL    HW1  886   0.057   1.740   2.771
  292SOL    HW2  887   0.184   1.821   2.779
  293SOL     OW  888   0.504   1.574   2.761
  293SOL    HW1  889   0.573   1.635   2.785
  293SOL    HW2  890   0.548   1.507   2.709
  294SOL     OW  891   0.977   0.752   0.087
  294SOL    HW1  892   1.027   0.752   0.169
  294SOL    HW2  893   0.888   0.773   0.114
  295SOL     OW  894   0.814   0.569   2.216
  295SOL    HW1  895   0.817   0.495   2.155
  295SOL    HW2  896   0.740   0.621   2.186
  296SOL     OW  897   0.699   0.438   0.092
  296SOL    HW1  898   0.604   0.429   0.098
  296SOL    HW2  899   0.712   0.515   0.036
  297SOL     OW  900   0.467   0.494   2.049
  297SOL    HW1  901   0.528   0.566   2.067
  297SOL    HW2  902   0.381   0.537   2.041
  298SOL     OW  903   1.308   0.857   2.171
  298SOL    HW1  904   1.231   0.826   2.218
  298SOL    HW2  905   1.287   0.842   2.078
  299SOL     OW  906   1.736   1.767   2.971
  299SOL    HW1  907   1.813   1.789   2.919
  299SOL    HW2  908   1.762   1.690   0.022
  300SOL     OW  909   0.073   1.247   2.902
  300SOL    HW1  910   0.046   1.275   2.990
  300SOL    HW2  911   0.002   1.277   2.845
  301SOL     OW  912   1.721   0.143   2.368
  301SOL    HW1  913   1.783   0.137   2.295
  301SOL    HW2  914   1.731   0.061   2.415
  302SOL     OW  915   1.389   1.567   2.346
  302SOL    HW1  916   1.452   1.595   2.280
  302SOL    HW2  917   1.344   1.647   2.372
  303SOL     OW  918   1.277   0.926   2.532
  303SOL    HW1  919   1.349   0.864   2.539
  303SOL    HW2  920   1.311   0.998   2.479
  304SOL     OW  921   0.672   1.616   2.017
  304SOL    HW1  922   0.679   1.627   1.923
  304SOL    HW2  923   0.619   1.537   2.028
  305SOL     OW  924   1.853   0.162   2.815
  305SOL    HW1  925   1.852   0.076   2.773
  305SOL    HW2  926   1.767   0.199   2.795
  306SOL     OW  927   0.270   0.335   2.600
  306SOL    HW1  928   0.181   0.367   2.590
  306SOL    HW2  929   0.274   0.302   2.689
  307SOL     OW  930   1.195   1.610   1.900
  307SOL    HW1  931   1.207   1.517   1.920
  307SOL    HW2  932   1.132   1.611   1.828
  308SOL     OW  933   0.915   0.910   2.152
  308SOL    HW1  934   0.976   0.941   2.085
  308SOL    HW2  935   0.962   0.839   2.196
  309SOL     OW  936   1.486   1.681   1.921
  309SOL    HW1  937   1.398   1.645   1.922
  309SOL    HW2  938   1.531   1.633   1.852
  310SOL     OW  939   1.050   1.104   2.570
  310SOL    HW1  940   0.978   1.053   2.605
  310SOL    HW2  941   1.110   1.039   2.533
  311SOL     OW  942   1.016   0.246   2.810
  311SOL    HW1  943   1.010   0.182   2.740
  311SOL    HW2  944   1.043   0.196   2.887
  312SOL     OW  945   0.602   1.490   2.343
  312SOL    HW1  946   0.640   1.439   2.271
  312SOL    HW2  947   0.532   1.541   2.302
  313SOL     OW  948   0.254   1.345   2.144
  313SOL    HW1  949   0.160   1.344   2.128
  313SOL    HW2  950   0.263   1.384   2.231
  314SOL     OW  951   0.097   0.326   1.912
  314SOL    HW1  952   0.013   0.297   1.877
  314SOL    HW2  953   0.111   0.412   1.872
  315SOL     OW  954   0.020   0.215   2.146
  315SOL    HW1  955   0.064   0.262   2.075
  315SOL    HW2  956   0.079   0.143   2.167
  316SOL     OW  957   1.179   1.341   1.979
  316SOL    HW1  958   1.088   1.311   1.985
  316SOL    HW2  959   1.210   1.342   2.069
  317SOL     OW  960   1.504   1.780   2.830
  317SOL    HW1  961   1.517   1.832   2.751
  317SOL    HW2  962   1.585   1.788   2.879
  318SOL     OW  963   1.718   0.851   0.065
  318SOL    HW1  964   1.638   0.812   0.099
  318SOL    HW2  965   1.694   0.942   0.045
  319SOL     OW  966   1.223   0.317   2.317
  319SOL    HW1  967   1.285   0.244   2.316
  319SOL    HW2  968   1.246   0.368   2.395
  320SOL     OW  969   0.592   0.741   2.528
  320SOL    HW1  970   0.632   0.827   2.512
  320SOL    HW2  971   0.521   0.735   2.464
  321SOL     OW  972   0.861   1.371   1.891
  321SOL    HW1  973   0.823   1.388   1.977
  321SOL    HW2  974   0.881   1.457   1.855
  322SOL     OW  975   0.662   1.796   2.821
  322SOL    HW1  976   0.639   1.883   2.790
  322SOL    HW2  977   0.756   1.789   2.805
  323SOL     OW  978   0.862   0.964   2.716
  323SOL    HW1  979   0.914   0.894   2.755
  323SOL    HW2  980   0.832   1.017   2.791
  324SOL     OW  981   1.077   0.986   1.948
  324SOL    HW1  982   1.061   1.039   1.871
  324SOL    HW2  983   1.155   0.935   1.927
  325SOL     OW  984   1.856   1.558   2.711
  325SOL    HW1  985   1.780   1.544   2.655
  325SOL    HW2  986   1.861   1.477   2.763
  326SOL     OW  987   0.126   1.249   2.523
  326SOL    HW1  988   0.089   1.184   2.583
  326SOL    HW2  989   0.183   1.199   2.465
  327SOL     OW  990   1.812   0.190   0.083
  327SOL    HW1  991   1.832   0.104   0.121
  327SOL    HW2  992   1.829   0.178   2.989
  328SOL     OW  993   0.462   0.434   2.402
  328SOL    HW1  994   0.454   0.370   2.332
  328SOL    HW2  995   0.407   0.399   2.473
  329SOL     OW  996   0.819   1.583   2.539
  329SOL    HW1  997   0.817   1.624   2.452
  329SOL    HW2  998   0.743   1.525   2.540
  330SOL     OW  999   0.774   1.331   2.169
  330SOL    HW1 1000   0.739   1.242   2.178
  330SOL    HW2 1001   0.854   1.330   2.221
  331SOL     OW 1002   1.346   0.048   2.029
  331SOL    HW1 1003   1.411   2.987   1.992
  331SOL    HW2 1004   1.266   2.996   2.036
  332SOL     OW 1005   1.298   0.456   2.548
  332SOL    HW1 1006   1.243   0.535   2.555
  332SOL    HW2 1007   1.295   0.417   2.635
  333SOL     OW 1008   1.600   0.235   2.750
  333SOL    HW1 1009   1.509   0.229   2.780
  333SOL    HW2 1010   1.601   0.309   2.689
  334SOL     OW 1011   0.063   1.081   2.161
  334SOL    HW1 1012   0.152   1.045   2.163
  334SOL    HW2 1013   0.009   1.014   2.201
  335SOL     OW 1014   0.880   1.649   2.208
  335SOL    HW1 1015   0.809   1.631   2.146
  335SOL    HW2 1016   0.851   1.726   2.256
  336SOL     OW 1017   0.235   2.517   0.099
  336SOL    HW1 1018   0.169   2.471   0.151
  336SOL    HW2 1019   0.248   2.461   0.022
  337SOL     OW 1020   0.212   2.137   0.990
  337SOL    HW1 1021   0.245   2.108   1.075
  337SOL    HW2 1022   0.125   2.096   0.983
  338SOL     OW 1023   0.015   2.248   0.646
  338SOL    HW1 1024   2.929   2.283   0.669
  338SOL    HW2 1025   2.996   2.165   0.601
  339SOL     OW 1026   1.134   2.568   0.703
  339SOL    HW1 1027   1.180   2.651   0.694
  339SOL    HW2 1028   1.081   2.578   0.782
  340SOL     OW 1029   1.762   2.455   0.228
  340SOL    HW1 1030   1.746   2.436   0.136
  340SOL    HW2 1031   1.726   2.380   0.275
  341SOL     OW 1032   0.759   0.011   1.032
  341SOL    HW1 1033   0.677   0.044   1.069
  341SOL    HW2 1034   0.784   0.076   0.967
  342SOL     OW 1035   0.866   2.639   1.822
  342SOL    HW1 1036   0.844   2.704   1.889
  342SOL    HW2 1037   0.888   2.691   1.745
  343SOL     OW 1038   0.651   2.851   0.710
  343SOL    HW1 1039   0.746   2.855   0.724
  343SOL    HW2 1040   0.629   2.933   0.665
  344SOL     OW 1041   0.473   2.272   1.489
  344SOL    HW1 1042   0.542   2.205   1.492
  344SOL    HW2 1043   0.392   2.223   1.504
  345SOL     OW 1044   1.613   2.310   0.739
  345SOL    HW1 1045   1.537   2.337   0.687
  345SOL    HW2 1046   1.635   2.388   0.791
  346SOL     OW 1047   0.215   0.315   0.464
  346SOL    HW1 1048   0.215   0.387   0.526
  346SOL    HW2 1049   0.197   0.237   0.517
  347SOL     OW 1050   0.232   2.944   0.877
  347SOL    HW1 1051   0.258   2.864   0.922
  347SOL    HW2 1052   0.202   0.002   0.948
  348SOL     OW 1053   0.615   2.833   0.148
  348SOL    HW1 1054   0.600   2.924   0.126
  348SOL    HW2 1055   0.678   2.835   0.220
  349SOL     OW 1056   1.583   1.977   1.468
  349SOL    HW1 1057   1.598   2.055   1.415
  349SOL    HW2 1058   1.584   2.009   1.558
  350SOL     OW 1059   0.119   2.496   0.565
  350SOL    HW1 1060   0.094   2.411   0.602
  350SOL    HW2 1061   0.115   2.557   0.639
  351SOL     OW 1062   1.700   2.805   0.622
  351SOL    HW1 1063   1.777   2.750   0.633
  351SOL    HW2 1064   1.693   2.819   0.528
  352SOL     OW 1065   0.128   2.608   1.588
  352SOL    HW1 1066   0.223   2.621   1.597
  352SOL    HW2 1067   0.090   2.694   1.607
  353SOL     OW 1068   0.660   0.241   0.685
  353SOL    HW1 1069   0.595   0.176   0.715
  353SOL    HW2 1070   0.611   0.297   0.625
  354SOL     OW 1071   1.303   0.052   1.446
  354SOL    HW1 1072   1.326   2.995   1.372
  354SOL    HW2 1073   1.385   0.098   1.465
  355SOL     OW 1074   0.813   1.861   0.508
  355SOL    HW1 1075   0.852   1.947   0.492
  355SOL    HW2 1076   0.719   1.879   0.515
  356SOL     OW 1077   0.190   2.835   1.256
  356SOL    HW1 1078   0.274   2.789   1.249
  356SOL    HW2 1079   0.125   2.770   1.231
  357SOL     OW 1080   1.523   2.841   0.204
  357SOL    HW1 1081   1.453   2.797   0.251
  357SOL    HW2 1082   1.588   2.862   0.272
  358SOL     OW 1083   0.336   2.112   1.806
  358SOL    HW1 1084   0.383   2.193   1.825
  358SOL    HW2 1085   0.250   2.124   1.846
  359SOL     OW 1086   0.593   2.582   0.269
  359SOL    HW1 1087   0.597   2.662   0.216
  359SOL    HW2 1088   0.527   2.601   0.335
  360SOL     OW 1089   1.280   2.210   0.933
  360SOL    HW1 1090   1.190   2.177   0.940
  360SOL    HW2 1091   1.330   2.158   0.995
  361SOL     OW 1092   0.793   2.478   1.454
  361SOL    HW1 1093   0.765   2.456   1.543
  361SOL    HW2 1094   0.751   2.412   1.398
  362SOL     OW 1095   1.393   2.335   1.678
  362SOL    HW1 1096   1.395   2.379   1.763
  362SOL    HW2 1097   1.456   2.263   1.687
  363SOL     OW 1098   0.962   2.758   1.590
  363SOL    HW1 1099   1.013   2.687   1.553
  363SOL    HW2 1100   0.909   2.790   1.517
  364SOL     OW 1101   0.992   2.275   1.239
  364SOL    HW1 1102   0.908   2.299   1.280
  364SOL    HW2 1103   0.967   2.228   1.160
  365SOL     OW 1104   1.049   2.567   0.423
  365SOL    HW1 1105   1.063   2.560   0.518
  365SOL    HW2 1106   0.968   2.519   0.407
  366SOL     OW 1107   0.102   2.670   0.768
  366SOL    HW1 1108   0.179   2.675   0.825
  366SOL    HW2 1109   0.048   2.744   0.795
  367SOL     OW 1110   0.929   2.194   0.221
  367SOL    HW1 1111   0.934   2.257   0.149
  367SOL    HW2 1112   0.894   2.114   0.181
  368SOL     OW 1113   1.711   2.439   1.828
  368SOL    HW1 1114   1.674   2.514   1.782
  368SOL    HW2 1115   1.734   2.378   1.758
  369SOL     OW 1116   0.548   2.045   0.892
  369SOL    HW1 1117   0.551   2.073   0.984
  369SOL    HW2 1118   0.551   2.127   0.842
  370SOL     OW 1119   1.796   2.908   0.867
  370SOL    HW1 1120   1.740   2.892   0.791
  370SOL    HW2 1121   1.736   2.916   0.941
  371SOL     OW 1122   1.481   2.599   0.727
  371SOL    HW1 1123   1.461   2.549   0.806
  371SOL    HW2 1124   1.553   2.657   0.753
  372SOL     OW 1125   0.234   2.163   1.506
  372SOL    HW1 1126   0.153   2.209   1.482
  372SOL    HW2 1127   0.204   2.088   1.558
  373SOL     OW 1128   1.402   1.968   0.430
  373SOL    HW1 1129   1.392   1.948   0.337
  373SOL    HW2 1130   1.497   1.978   0.442
  374SOL     OW 1131   0.388   2.556   0.474
  374SOL    HW1 1132   0.413   2.464   0.484
  374SOL    HW2 1133   0.295   2.559   0.496
  375SOL     OW 1134   1.538   2.090   1.726
  375SOL    HW1 1135   1.546   2.111   1.819
  375SOL    HW2 1136   1.476   2.017   1.723
  376SOL     OW 1137   0.626   1.983   0.118
  376SOL    HW1 1138   0.720   1.962   0.118
  376SOL    HW2 1139   0.592   1.939   0.040
  377SOL     OW 1140   0.767   2.138   1.751
  377SOL    HW1 1141   0.840   2.076   1.759
  377SOL    HW2 1142   0.717   2.126   1.832
  378SOL     OW 1143   1.340   2.451   1.433
  378SOL    HW1 1144   1.372   2.417   1.517
  378SOL    HW2 1145   1.378   2.538   1.427
  379SOL     OW 1146   0.928   2.371   0.902
  379SOL    HW1 1147   0.904   2.362   0.810
  379SOL    HW2 1148   0.960   2.285   0.927
  380SOL     OW 1149   0.548   1.924   0.506
  380SOL    HW1 1150   0.467   1.926   0.555
  380SOL    HW2 1151   0.544   2.001   0.449
  381SOL     OW 1152   0.941   2.104   0.473
  381SOL    HW1 1153   0.917   2.141   0.388
  381SOL    HW2 1154   1.036   2.116   0.477
  382SOL     OW 1155   1.078   2.545   1.458
  382SOL    HW1 1156   1.008   2.481   1.468
  382SOL    HW2 1157   1.158   2.492   1.454
  383SOL     OW 1158   1.050   2.360   0.026
  383SOL    HW1 1159   1.000   2.441   0.016
  383SOL    HW2 1160   1.110   2.378   0.098
  384SOL     OW 1161   0.087   2.415   1.400
  384SOL    HW1 1162   0.172   2.421   1.356
  384SOL    HW2 1163   0.087   2.487   1.463
  385SOL     OW 1164   0.561   2.089   1.163
  385SOL    HW1 1165   0.598   2.008   1.199
  385SOL    HW2 1166   0.470   2.088   1.191
  386SOL     OW 1167   0.871   2.322   0.639
  386SOL    HW1 1168   0.821   2.376   0.578
  386SOL    HW2 1169   0.890   2.242   0.591
  387SOL     OW 1170   1.015   1.914   0.754
  387SOL    HW1 1171   0.956   1.909   0.678
  387SOL    HW2 1172   0.992   1.838   0.807
  388SOL     OW 1173   1.426   2.993   0.872
  388SOL    HW1 1174   1.360   2.937   0.832
  388SOL    HW2 1175   1.447   0.057   0.805
  389SOL     OW 1176   1.467   2.464   0.981
  389SOL    HW1 1177   1.421   2.381   0.985
  389SOL    HW2 1178   1.529   2.461   1.055
  390SOL     OW 1179   1.832   2.666   0.390
  390SOL    HW1 1180   1.895   2.618   0.443
  390SOL    HW2 1181   1.816   2.610   0.314
  391SOL     OW 1182   1.413   2.438   0.099
  391SOL    HW1 1183   1.341   2.428   0.161
  391SOL    HW2 1184   1.461   2.355   0.105
  392SOL     OW 1185   0.521   2.124   0.326
  392SOL    HW1 1186   0.557   2.073   0.253
  392SOL    HW2 1187   0.502   2.210   0.288
  393SOL     OW 1188   1.780   0.077   1.591
  393SOL    HW1 1189   1.869   0.043   1.577
  393SOL    HW2 1190   1.793   0.161   1.634
  394SOL     OW 1191   1.625   2.956   1.074
  394SOL    HW1 1192   1.639   0.039   1.120
  394SOL    HW2 1193   1.549   2.971   1.018
  395SOL     OW 1194   0.918   1.958   1.400
  395SOL    HW1 1195   0.939   1.941   1.308
  395SOL    HW2 1196   0.996   2.002   1.435
  396SOL     OW 1197   0.415   2.679   1.253
  396SOL    HW1 1198   0.485   2.685   1.318
  396SOL    HW2 1199   0.380   2.590   1.263
  397SOL     OW 1200   1.267   2.240   1.273
  397SOL    HW1 1201   1.299   2.317   1.320
  397SOL    HW2 1202   1.177   2.263   1.248
  398SOL     OW 1203   0.556   2.398   0.861
  398SOL    HW1 1204   0.572   2.453   0.785
  398SOL    HW2 1205   0.619   2.429   0.926
  399SOL     OW 1206   1.580   2.487   0.475
  399SOL    HW1 1207   1.540   2.544   0.541
  399SOL    HW2 1208   1.636   2.546   0.424
  400SOL     OW 1209   0.412   2.599   1.603
  400SOL    HW1 1210   0.469   2.648   1.544
  400SOL    HW2 1211   0.459   2.517   1.619
  401SOL     OW 1212   1.595   2.636   1.679
  401SOL    HW1 1213   1.508   2.676   1.670
  401SOL    HW2 1214   1.648   2.679   1.612
  402SOL     OW 1215   0.995   1.981   1.754
  402SOL    HW1 1216   1.048   2.055   1.726
  402SOL    HW2 1217   1.051   1.905   1.742
  403SOL     OW 1218   0.501   1.904   1.745
  403SOL    HW1 1219   0.458   1.848   1.679
  403SOL    HW2 1220   0.440   1.976   1.758
  404SOL     OW 1221   0.592   2.729   1.038
  404SOL    HW1 1222   0.597   2.821   1.012
  404SOL    HW2 1223   0.526   2.727   1.107
  405SOL     OW 1224   1.349   2.714   1.035
  405SOL    HW1 1225   1.281   2.707   0.968
  405SOL    HW2 1226   1.394   2.629   1.032
  406SOL     OW 1227   1.205   2.395   0.272
  406SOL    HW1 1228   1.211   2.311   0.317
  406SOL    HW2 1229   1.160   2.452   0.333
  407SOL     OW 1230   0.300   2.065   1.243
  407SOL    HW1 1231   0.281   2.095   1.331
  407SOL    HW2 1232   0.284   1.971   1.245
  408SOL     OW 1233   0.055   0.171   1.269
  408SOL    HW1 1234   0.084   0.136   1.353
  408SOL    HW2 1235   0.014   0.255   1.289
  409SOL     OW 1236   0.729   2.493   1.062
  409SOL    HW1 1237   0.798   2.477   0.997
  409SOL    HW2 1238   0.698   2.581   1.041
  410SOL     OW 1239   1.736   2.819   1.845
  410SOL    HW1 1240   1.686   2.763   1.786
  410SOL    HW2 1241   1.679   2.828   1.922
  411SOL     OW 1242   0.302   1.931   0.622
  411SOL    HW1 1243   0.285   2.022   0.649
  411SOL    HW2 1244   0.308   1.882   0.704
  412SOL     OW 1245   1.618   2.234   0.369
  412SOL    HW1 1246   1.643   2.169   0.435
  412SOL    HW2 1247   1.590   2.311   0.420
  413SOL     OW 1248   1.027   2.618   0.966
  413SOL    HW1 1249   1.027   2.633   1.061
  413SOL    HW2 1250   1.000   2.527   0.956
  414SOL     OW 1251   0.356   2.786   1.798
  414SOL    HW1 1252   0.420   2.784   1.869
  414SOL    HW2 1253   0.381   2.713   1.741
  415SOL     OW 1254   1.505   2.166   0.126
  415SOL    HW1 1255   1.468   2.078   0.138
  415SOL    HW2 1256   1.559   2.180   0.204
  416SOL     OW 1257   1.295   2.685   0.037
  416SOL    HW1 1258   1.336   2.599   0.049
  416SOL    HW2 1259   1.325   2.714   2.951
  417SOL     OW 1260   0.313   2.678   0.952
  417SOL    HW1 1261   0.407   2.687   0.935
  417SOL    HW2 1262   0.303   2.589   0.986
  418SOL     OW 1263   0.337   2.378   1.014
  418SOL    HW1 1264   0.296   2.295   0.992
  418SOL    HW2 1265   0.411   2.385   0.954
  419SOL     OW 1266   1.135   2.239   1.680
  419SOL    HW1 1267   1.089   2.295   1.743
  419SOL    HW2 1268   1.223   2.275   1.676
  420SOL     OW 1269   1.159   2.064   1.472
  420SOL    HW1 1270   1.151   2.128   1.543
  420SOL    HW2 1271   1.199   2.112   1.400
  421SOL     OW 1272   0.984   2.668   1.232
  421SOL    HW1 1273   1.038   2.637   1.305
  421SOL    HW2 1274   0.902   2.619   1.242
  422SOL     OW 1275   0.048   2.441   1.116
  422SOL    HW1 1276   0.121   2.393   1.077
  422SOL    HW2 1277   0.034   2.398   1.201
  423SOL     OW 1278   0.196   2.381   1.721
  423SOL    HW1 1279   0.265   2.353   1.660
  423SOL    HW2 1280   0.161   2.460   1.682
  424SOL     OW 1281   1.378   2.807   1.661
  424SOL    HW1 1282   1.402   2.900   1.658
  424SOL    HW2 1283   1.371   2.781   1.569
  425SOL     OW 1284   0.819   2.438   0.349
  425SOL    HW1 1285   0.818   2.360   0.292
  425SOL    HW2 1286   0.739   2.485   0.326
  426SOL     OW 1287   1.643   2.464   1.190
  426SOL    HW1 1288   1.632   2.404   1.263
  426SOL    HW2 1289   1.730   2.444   1.155
  427SOL     OW 1290   0.699   2.313   1.261
  427SOL    HW1 1291   0.646   2.240   1.231
  427SOL    HW2 1292   0.697   2.376   1.189
  428SOL     OW 1293   0.440   2.358   0.208
  428SOL    HW1 1294   0.512   2.421   0.221
  428SOL    HW2 1295   0.364   2.413   0.189
  429SOL     OW 1296   0.161   0.008   1.469
  429SOL    HW1 1297   0.149   2.955   1.548
  429SOL    HW2 1298   0.173   2.944   1.399
  430SOL     OW 1299   1.350   2.908   1.221
  430SOL    HW1 1300   1.365   2.845   1.150
  430SOL    HW2 1301   1.277   2.962   1.190
  431SOL     OW 1302   1.300   2.723   0.313
  431SOL    HW1 1303   1.228   2.677   0.358
  431SOL    HW2 1304   1.289   2.700   0.221
  432SOL     OW 1305   0.898   1.937   0.124
  432SOL    HW1 1306   0.956   1.924   0.049
  432SOL    HW2 1307   0.945   1.897   0.197
  433SOL     OW 1308   1.714   2.004   0.513
  433SOL    HW1 1309   1.793   1.995   0.460
  433SOL    HW2 1310   1.701   1.917   0.552
  434SOL     OW 1311   1.293   2.795   0.683
  434SOL    HW1 1312   1.360   2.727   0.680
  434SOL    HW2 1313   1.305   2.845   0.602
  435SOL     OW 1314   1.840   2.036   0.967
  435SOL    HW1 1315   1.869   1.949   0.939
  435SOL    HW2 1316   1.753   2.045   0.928
  436SOL     OW 1317   0.268   2.180   0.722
  436SOL    HW1 1318   0.184   2.217   0.694
  436SOL    HW2 1319   0.258   2.168   0.817
  437SOL     OW 1320   0.813   2.858   1.373
  437SOL    HW1 1321   0.868   2.837   1.298
  437SOL    HW2 1322   0.833   2.950   1.393
  438SOL     OW 1323   0.901   2.789   0.285
  438SOL    HW1 1324   0.980   2.818   0.241
  438SOL    HW2 1325   0.932   2.738   0.360
  439SOL     OW 1326   1.019   2.102   0.965
  439SOL    HW1 1327   1.014   2.054   0.883
  439SOL    HW2 1328   1.014   2.035   1.033
  440SOL     OW 1329   1.719   2.254   1.379
  440SOL    HW1 1330   1.791   2.317   1.379
  440SOL    HW2 1331   1.749   2.182   1.324
  441SOL     OW 1332   0.117   2.865   1.695
  441SOL    HW1 1333   0.047   2.844   1.757
  441SOL    HW2 1334   0.198   2.851   1.744
  442SOL     OW 1335   0.673   2.058   1.498
  442SOL    HW1 1336   0.757   2.040   1.457
  442SOL    HW2 1337   0.695   2.085   1.587
  443SOL     OW 1338   0.054   2.170   0.053
  443SOL    HW1 1339   2.967   2.199   0.026
  443SOL    HW2 1340   0.113   2.238   0.018
  444SOL     OW 1341   1.434   2.718   1.404
  444SOL    HW1 1342   1.391   2.777   1.342
  444SOL    HW2 1343   1.527   2.719   1.378
  445SOL     OW 1344   0.062   2.059   0.321
  445SOL    HW1 1345   0.050   2.099   0.235
  445SOL    HW2 1346   0.126   1.990   0.306
  446SOL     OW 1347   1.141   0.212   0.094
  446SOL    HW1 1348   1.069   0.253   0.143
  446SOL    HW2 1349   1.217   0.221   0.151
  447SOL     OW 1350   0.613   2.689   1.436
  447SOL    HW1 1351   0.670   2.765   1.419
  447SOL    HW2 1352   0.673   2.615   1.444
  448SOL     OW 1353   0.717   2.427   1.706
  448SOL    HW1 1354   0.754   2.491   1.767
  448SOL    HW2 1355   0.752   2.343   1.735
  449SOL     OW 1356   1.676   2.745   1.254
  449SOL    HW1 1357   1.666   2.658   1.215
  449SOL    HW2 1358   1.659   2.806   1.182
  450SOL     OW 1359   1.221   2.181   0.460
  450SOL    HW1 1360   1.285   2.111   0.449
  450SOL    HW2 1361   1.251   2.230   0.536
  451SOL     OW 1362   0.592   2.588   0.663
  451SOL    HW1 1363   0.617   2.680   0.672
  451SOL    HW2 1364   0.522   2.588   0.598
  452SOL     OW 1365   1.764   2.223   1.648
  452SOL    HW1 1366   1.746   2.235   1.555
  452SOL    HW2 1367   1.695   2.166   1.679
  453SOL     OW 1368   1.733   2.796   1.516
  453SOL    HW1 1369   1.751   2.888   1.534
  453SOL    HW2 1370   1.727   2.791   1.420
  454SOL     OW 1371   0.888   2.831   0.862
  454SOL    HW1 1372   0.924   2.750   0.899
  454SOL    HW2 1373   0.827   2.862   0.929
  455SOL     OW 1374   1.110   2.888   0.085
  455SOL    HW1 1375   1.062   2.888   0.002
  455SOL    HW2 1376   1.171   2.815   0.077
  456SOL     OW 1377   1.812   2.047   1.238
  456SOL    HW1 1378   1.813   1.953   1.256
  456SOL    HW2 1379   1.824   2.054   1.143
  457SOL     OW 1380   0.430   2.295   0.527
  457SOL    HW1 1381   0.460   2.225   0.470
  457SOL    HW2 1382   0.384   2.251   0.598
  458SOL     OW 1383   0.334   2.417   1.290
  458SOL    HW1 1384   0.393   2.363   1.342
  458SOL    HW2 1385   0.349   2.389   1.199
  459SOL     OW 1386   1.430   2.083   1.118
  459SOL    HW1 1387   1.470   2.012   1.169
  459SOL    HW2 1388   1.379   2.133   1.182
  460SOL     OW 1389   1.008   1.883   1.146
  460SOL    HW1 1390   0.954   1.814   1.106
  460SOL    HW2 1391   1.096   1.846   1.149
  461SOL     OW 1392   1.354   1.914   0.164
  461SOL    HW1 1393   1.380   1.865   0.085
  461SOL    HW2 1394   1.268   1.879   0.187
  462SOL     OW 1395   1.300   2.324   0.684
  462SOL    HW1 1396   1.243   2.401   0.692
  462SOL    HW2 1397   1.295   2.282   0.770
  463SOL     OW 1398   1.587   2.066   0.877
  463SOL    HW1 1399   1.522   2.085   0.945
  463SOL    HW2 1400   1.587   2.145   0.823
  464SOL     OW 1401   3.000   2.885   0.286
  464SOL    HW1 1402   0.084   2.918   0.255
  464SOL    HW2 1403   0.019   2.850   0.373
  465SOL     OW 1404   0.230   2.505   1.971
  465SOL    HW1 1405   0.165   2.459   2.024
  465SOL    HW2 1406   0.223   2.465   1.884
  466SOL     OW 1407   0.235   2.124   2.837
  466SOL    HW1 1408   0.271   2.101   2.923
  466SOL    HW2 1409   0.147   2.086   2.837
  467SOL     OW 1410   0.015   2.247   2.506
  467SOL    HW1 1411   2.929   2.282   2.532
  467SOL    HW2 1412   2.996   2.162   2.468
  468SOL     OW 1413   1.136   2.568   2.565
  468SOL    HW1 1414   1.182   2.651   2.556
  468SOL    HW2 1415   1.083   2.579   2.645
  469SOL     OW 1416   1.761   2.467   2.092
  469SOL    HW1 1417   1.744   2.458   1.998
  469SOL    HW2 1418   1.730   2.385   2.130
  470SOL     OW 1419   0.776   0.012   2.876
  470SOL    HW1 1420   0.685   0.028   2.901
  470SOL    HW2 1421   0.802   0.088   2.825
  471SOL     OW 1422   0.650   2.847   2.567
  471SOL    HW1 1423   0.743   2.849   2.590
  471SOL    HW2 1424   0.633   2.934   2.530
  472SOL     OW 1425   1.617   2.311   2.594
  472SOL    HW1 1426   1.540   2.335   2.543
  472SOL    HW2 1427   1.623   2.377   2.663
  473SOL     OW 1428   0.213   0.313   2.326
  473SOL    HW1 1429   0.220   0.386   2.387
  473SOL    HW2 1430   0.200   0.236   2.381
  474SOL     OW 1431   0.232   2.946   2.743
  474SOL    HW1 1432   0.257   2.862   2.781
  474SOL    HW2 1433   0.210   0.000   2.819
  475SOL     OW 1434   0.607   2.823   1.992
  475SOL    HW1 1435   0.596   2.908   1.948
  475SOL    HW2 1436   0.666   2.842   2.065
  476SOL     OW 1437   0.121   2.494   2.426
  476SOL    HW1 1438   0.095   2.411   2.465
  476SOL    HW2 1439   0.119   2.557   2.498
  477SOL     OW 1440   1.700   2.805   2.484
  477SOL    HW1 1441   1.777   2.751   2.496
  477SOL    HW2 1442   1.694   2.817   2.389
  478SOL     OW 1443   0.627   0.242   2.572
  478SOL    HW1 1444   0.593   0.158   2.543
  478SOL    HW2 1445   0.614   0.301   2.497
  479SOL     OW 1446   0.812   1.861   2.367
  479SOL    HW1 1447   0.853   1.946   2.351
  479SOL    HW2 1448   0.719   1.880   2.378
  480SOL     OW 1449   0.213   2.806   0.102
  480SOL    HW1 1450   0.277   2.734   0.100
  480SOL    HW2 1451   0.128   2.763   0.093
  481SOL     OW 1452   1.537   2.841   2.046
  481SOL    HW1 1453   1.469   2.787   2.086
  481SOL    HW2 1454   1.592   2.869   2.119
  482SOL     OW 1455   0.596   2.580   2.127
  482SOL    HW1 1456   0.602   2.659   2.073
  482SOL    HW2 1457   0.532   2.601   2.194
  483SOL     OW 1458   1.297   2.198   2.808
  483SOL    HW1 1459   1.203   2.181   2.801
  483SOL    HW2 1460   1.321   2.164   2.894
  484SOL     OW 1461   1.051   2.562   2.289
  484SOL    HW1 1462   1.063   2.557   2.384
  484SOL    HW2 1463   0.969   2.517   2.272
  485SOL     OW 1464   0.106   2.671   2.625
  485SOL    HW1 1465   0.182   2.673   2.684
  485SOL    HW2 1466   0.046   2.737   2.662
  486SOL     OW 1467   0.885   2.207   2.055
  486SOL    HW1 1468   0.930   2.269   1.997
  486SOL    HW2 1469   0.906   2.121   2.020
  487SOL     OW 1470   0.552   2.048   2.766
  487SOL    HW1 1471   0.517   2.082   2.849
  487SOL    HW2 1472   0.560   2.124   2.710
  488SOL     OW 1473   1.797   2.910   2.728
  488SOL    HW1 1474   1.739   2.891   2.655
  488SOL    HW2 1475   1.740   2.913   2.805
  489SOL     OW 1476   1.480   2.603   2.586
  489SOL    HW1 1477   1.465   2.547   2.662
  489SOL    HW2 1478   1.556   2.656   2.609
  490SOL     OW 1479   1.401   1.970   2.291
  490SOL    HW1 1480   1.389   1.946   2.200
  490SOL    HW2 1481   1.496   1.976   2.302
  491SOL     OW 1482   0.395   2.555   2.336
  491SOL    HW1 1483   0.412   2.462   2.350
  491SOL    HW2 1484   0.302   2.565   2.355
  492SOL     OW 1485   0.629   1.988   1.968
  492SOL    HW1 1486   0.704   1.929   1.980
  492SOL    HW2 1487   0.584   1.954   1.891
  493SOL     OW 1488   0.922   2.381   2.757
  493SOL    HW1 1489   0.902   2.358   2.666
  493SOL    HW2 1490   0.958   2.300   2.795
  494SOL     OW 1491   0.548   1.925   2.368
  494SOL    HW1 1492   0.467   1.926   2.417
  494SOL    HW2 1493   0.543   2.003   2.312
  495SOL     OW 1494   0.291   1.905   2.042
  495SOL    HW1 1495   0.350   1.975   2.013
  495SOL    HW2 1496   0.348   1.841   2.085
  496SOL     OW 1497   0.936   2.105   2.325
  496SOL    HW1 1498   0.907   2.149   2.245
  496SOL    HW2 1499   1.031   2.118   2.326
  497SOL     OW 1500   1.026   2.407   1.880
  497SOL    HW1 1501   0.982   2.490   1.861
  497SOL    HW2 1502   1.089   2.428   1.950
  498SOL     OW 1503   0.870   2.318   2.499
  498SOL    HW1 1504   0.822   2.375   2.438
  498SOL    HW2 1505   0.888   2.239   2.449
  499SOL     OW 1506   1.012   1.911   2.613
  499SOL    HW1 1507   0.955   1.904   2.537
  499SOL    HW2 1508   0.992   1.833   2.665
  500SOL     OW 1509   1.422   2.998   2.736
  500SOL    HW1 1510   1.355   2.941   2.698
  500SOL    HW2 1511   1.448   0.056   2.665
  501SOL     OW 1512   1.486   2.448   2.819
  501SOL    HW1 1513   1.423   2.378   2.828
  501SOL    HW2 1514   1.510   2.470   2.909
  502SOL     OW 1515   1.837   2.668   2.253
  502SOL    HW1 1516   1.898   2.618   2.308
  502SOL    HW2 1517   1.815   2.608   2.181
  503SOL     OW 1518   1.394   2.435   1.934
  503SOL    HW1 1519   1.335   2.413   2.006
  503SOL    HW2 1520   1.479   2.400   1.961
  504SOL     OW 1521   0.527   2.124   2.183
  504SOL    HW1 1522   0.566   2.075   2.111
  504SOL    HW2 1523   0.509   2.210   2.145
  505SOL     OW 1524   1.626   2.966   2.935
  505SOL    HW1 1525   1.631   0.043   2.991
  505SOL    HW2 1526   1.550   2.983   2.878
  506SOL     OW 1527   0.554   2.396   2.726
  506SOL    HW1 1528   0.569   2.451   2.649
  506SOL    HW2 1529   0.615   2.428   2.792
  507SOL     OW 1530   1.578   2.486   2.335
  507SOL    HW1 1531   1.540   2.544   2.401
  507SOL    HW2 1532   1.634   2.544   2.282
  508SOL     OW 1533   0.575   2.726   2.884
  508SOL    HW1 1534   0.614   2.807   2.852
  508SOL    HW2 1535   0.559   2.742   2.977
  509SOL     OW 1536   1.207   2.392   2.132
  509SOL    HW1 1537   1.216   2.313   2.185
  509SOL    HW2 1538   1.162   2.454   2.189
  510SOL     OW 1539   0.327   2.062   0.080
  510SOL    HW1 1540   0.314   2.104   0.165
  510SOL    HW2 1541   0.304   1.970   0.095
  511SOL     OW 1542   0.730   2.501   2.915
  511SOL    HW1 1543   0.797   2.479   2.850
  511SOL    HW2 1544   0.695   2.585   2.887
  512SOL     OW 1545   0.303   1.931   2.482
  512SOL    HW1 1546   0.285   2.021   2.509
  512SOL    HW2 1547   0.307   1.882   2.565
  513SOL     OW 1548   1.613   2.233   2.231
  513SOL    HW1 1549   1.642   2.170   2.298
  513SOL    HW2 1550   1.590   2.312   2.281
  514SOL     OW 1551   1.024   2.621   2.822
  514SOL    HW1 1552   1.027   2.627   2.918
  514SOL    HW2 1553   0.996   2.532   2.804
  515SOL     OW 1554   1.529   2.139   1.989
  515SOL    HW1 1555   1.468   2.070   2.014
  515SOL    HW2 1556   1.563   2.172   2.073
  516SOL     OW 1557   1.293   2.687   1.895
  516SOL    HW1 1558   1.335   2.601   1.900
  516SOL    HW2 1559   1.325   2.725   1.813
  517SOL     OW 1560   0.311   2.675   2.809
  517SOL    HW1 1561   0.406   2.691   2.810
  517SOL    HW2 1562   0.302   2.586   2.844
  518SOL     OW 1563   0.321   2.385   2.867
  518SOL    HW1 1564   0.290   2.296   2.852
  518SOL    HW2 1565   0.401   2.392   2.815
  519SOL     OW 1566   0.983   2.615   0.088
  519SOL    HW1 1567   1.027   2.606   0.173
  519SOL    HW2 1568   0.893   2.637   0.110
  520SOL     OW 1569   0.817   2.431   2.217
  520SOL    HW1 1570   0.817   2.356   2.157
  520SOL    HW2 1571   0.742   2.484   2.189
  521SOL     OW 1572   0.704   2.310   0.102
  521SOL    HW1 1573   0.619   2.268   0.091
  521SOL    HW2 1574   0.705   2.381   0.039
  522SOL     OW 1575   0.465   2.356   2.048
  522SOL    HW1 1576   0.527   2.425   2.069
  522SOL    HW2 1577   0.380   2.399   2.045
  523SOL     OW 1578   1.303   2.725   2.171
  523SOL    HW1 1579   1.230   2.685   2.218
  523SOL    HW2 1580   1.287   2.703   2.079
  524SOL     OW 1581   1.718   2.004   2.375
  524SOL    HW1 1582   1.792   1.991   2.315
  524SOL    HW2 1583   1.703   1.918   2.414
  525SOL     OW 1584   1.294   2.799   2.544
  525SOL    HW1 1585   1.359   2.729   2.544
  525SOL    HW2 1586   1.306   2.843   2.461
  526SOL     OW 1587   1.840   2.041   2.822
  526SOL    HW1 1588   1.870   1.953   2.798
  526SOL    HW2 1589   1.751   2.046   2.789
  527SOL     OW 1590   0.270   2.181   2.577
  527SOL    HW1 1591   0.185   2.219   2.554
  527SOL    HW2 1592   0.265   2.167   2.671
  528SOL     OW 1593   0.904   2.759   2.114
  528SOL    HW1 1594   0.979   2.809   2.082
  528SOL    HW2 1595   0.937   2.711   2.190
  529SOL     OW 1596   1.034   2.106   2.807
  529SOL    HW1 1597   1.022   2.051   2.729
  529SOL    HW2 1598   1.006   2.050   2.880
  530SOL     OW 1599   0.093   2.182   1.918
  530SOL    HW1 1600   0.010   2.152   1.880
  530SOL    HW2 1601   0.106   2.269   1.881
  531SOL     OW 1602   0.065   2.059   2.177
  531SOL    HW1 1603   0.071   2.107   2.094
  531SOL    HW2 1604   0.132   1.991   2.170
  532SOL     OW 1605   1.128   0.242   2.004
  532SOL    HW1 1606   1.104   0.160   1.961
  532SOL    HW2 1607   1.211   0.223   2.048
  533SOL     OW 1608   1.729   2.710   0.053
  533SOL    HW1 1609   1.655   2.667   0.097
  533SOL    HW2 1610   1.700   2.801   0.042
  534SOL     OW 1611   1.219   2.182   2.319
  534SOL    HW1 1612   1.282   2.111   2.309
  534SOL    HW2 1613   1.247   2.229   2.397
  535SOL     OW 1614   0.595   2.585   2.525
  535SOL    HW1 1615   0.619   2.677   2.535
  535SOL    HW2 1616   0.524   2.585   2.460
  536SOL     OW 1617   0.882   2.824   2.716
  536SOL    HW1 1618   0.925   2.749   2.757
  536SOL    HW2 1619   0.844   2.874   2.789
  537SOL     OW 1620   1.104   2.875   1.953
  537SOL    HW1 1621   1.061   2.899   1.871
  537SOL    HW2 1622   1.160   2.800   1.930
  538SOL     OW 1623   1.825   2.051   0.096
  538SOL    HW1 1624   1.796   1.960   0.103
  538SOL    HW2 1625   1.831   2.067   0.001
  539SOL     OW 1626   0.426   2.294   2.382
  539SOL    HW1 1627   0.459   2.220   2.330
  539SOL    HW2 1628   0.383   2.253   2.456
  540SOL     OW 1629   1.353   1.917   2.024
  540SOL    HW1 1630   1.394   1.848   1.971
  540SOL    HW2 1631   1.267   1.883   2.046
  541SOL     OW 1632   1.298   2.320   2.548
  541SOL    HW1 1633   1.244   2.398   2.557
  541SOL    HW2 1634   1.297   2.280   2.636
  542SOL     OW 1635   1.583   2.075   2.739
  542SOL    HW1 1636   1.500   2.094   2.782
  542SOL    HW2 1637   1.597   2.147   2.678
  543SOL     OW 1638   0.018   2.931   2.154
  543SOL    HW1 1639   0.113   2.925   2.141
  543SOL    HW2 1640   0.001   2.873   2.228
  544SOL     OW 1641   2.092   0.636   0.121
  544SOL    HW1 1642   1.998   0.628   0.137
  544SOL    HW2 1643   2.104   0.603   0.032
  545SOL     OW 1644   2.079   0.285   1.007
  545SOL    HW1 1645   2.111   0.249   1.090
  545SOL    HW2 1646   1.994   0.242   0.994
  546SOL     OW 1647   1.865   0.380   0.643
  546SOL    HW1 1648   1.784   0.407   0.685
  546SOL    HW2 1649   1.841   0.305   0.588
  547SOL     OW 1650   2.427   1.281   1.171
  547SOL    HW1 1651   2.339   1.287   1.134
  547SOL    HW2 1652   2.444   1.368   1.206
  548SOL     OW 1653   2.618   1.144   1.035
  548SOL    HW1 1654   2.550   1.177   1.093
  548SOL    HW2 1655   2.657   1.222   0.995
  549SOL     OW 1656   2.719   0.779   1.817
  549SOL    HW1 1657   2.712   0.848   1.883
  549SOL    HW2 1658   2.744   0.824   1.736
  550SOL     OW 1659   2.547   1.007   0.650
  550SOL    HW1 1660   2.608   0.991   0.721
  550SOL    HW2 1661   2.476   1.058   0.690
  551SOL     OW 1662   2.569   1.153   1.810
  551SOL    HW1 1663   2.616   1.233   1.834
  551SOL    HW2 1664   2.485   1.184   1.775
  552SOL     OW 1665   2.193   1.429   1.068
  552SOL    HW1 1666   2.121   1.394   1.016
  552SOL    HW2 1667   2.245   1.480   1.006
  553SOL     OW 1668   2.313   0.401   1.488
  553SOL    HW1 1669   2.387   0.341   1.494
  553SOL    HW2 1670   2.236   0.346   1.503
  554SOL     OW 1671   2.083   1.714   0.473
  554SOL    HW1 1672   2.105   1.790   0.527
  554SOL    HW2 1673   2.158   1.704   0.414
  555SOL     OW 1674   2.981   1.346   1.687
  555SOL    HW1 1675   0.030   1.347   1.769
  555SOL    HW2 1676   2.936   1.262   1.687
  556SOL     OW 1677   2.085   1.441   0.534
  556SOL    HW1 1678   2.073   1.536   0.542
  556SOL    HW2 1679   2.026   1.404   0.600
  557SOL     OW 1680   2.114   1.090   0.889
  557SOL    HW1 1681   2.114   1.005   0.933
  557SOL    HW2 1682   2.058   1.145   0.944
  558SOL     OW 1683   2.478   1.789   1.434
  558SOL    HW1 1684   2.394   1.772   1.477
  558SOL    HW2 1685   2.498   1.880   1.455
  559SOL     OW 1686   2.455   0.978   0.145
  559SOL    HW1 1687   2.478   1.050   0.087
  559SOL    HW2 1688   2.490   1.003   0.231
  560SOL     OW 1689   1.980   0.644   0.563
  560SOL    HW1 1690   1.936   0.563   0.588
  560SOL    HW2 1691   1.972   0.700   0.640
  561SOL     OW 1692   1.876   1.590   0.121
  561SOL    HW1 1693   1.889   1.499   0.148
  561SOL    HW2 1694   1.878   1.640   0.202
  562SOL     OW 1695   1.985   0.742   1.585
  562SOL    HW1 1696   2.078   0.760   1.600
  562SOL    HW2 1697   1.942   0.826   1.601
  563SOL     OW 1698   2.474   1.382   0.735
  563SOL    HW1 1699   2.428   1.298   0.743
  563SOL    HW2 1700   2.457   1.410   0.645
  564SOL     OW 1701   2.682   0.014   0.516
  564SOL    HW1 1702   2.707   0.105   0.499
  564SOL    HW2 1703   2.587   0.013   0.501
  565SOL     OW 1704   2.053   0.967   1.264
  565SOL    HW1 1705   2.138   0.925   1.252
  565SOL    HW2 1706   1.990   0.905   1.227
  566SOL     OW 1707   2.187   0.253   1.800
  566SOL    HW1 1708   2.237   0.332   1.823
  566SOL    HW2 1709   2.101   0.267   1.841
  567SOL     OW 1710   2.453   0.721   0.265
  567SOL    HW1 1711   2.460   0.804   0.217
  567SOL    HW2 1712   2.390   0.740   0.335
  568SOL     OW 1713   2.655   0.627   1.454
  568SOL    HW1 1714   2.629   0.600   1.542
  568SOL    HW2 1715   2.617   0.560   1.396
  569SOL     OW 1716   2.830   0.883   1.574
  569SOL    HW1 1717   2.856   0.796   1.541
  569SOL    HW2 1718   2.782   0.922   1.501
  570SOL     OW 1719   2.845   0.375   1.260
  570SOL    HW1 1720   2.771   0.429   1.289
  570SOL    HW2 1721   2.838   0.375   1.164
  571SOL     OW 1722   2.892   0.715   0.410
  571SOL    HW1 1723   2.928   0.700   0.497
  571SOL    HW2 1724   2.817   0.656   0.405
  572SOL     OW 1725   1.952   0.820   0.774
  572SOL    HW1 1726   2.033   0.811   0.824
  572SOL    HW2 1727   1.910   0.898   0.809
  573SOL     OW 1728   1.992   1.854   1.578
  573SOL    HW1 1729   1.992   1.824   1.668
  573SOL    HW2 1730   1.905   1.833   1.545
  574SOL     OW 1731   2.783   0.343   0.219
  574SOL    HW1 1732   2.765   0.396   0.141
  574SOL    HW2 1733   2.772   0.253   0.189
  575SOL     OW 1734   2.381   0.196   0.910
  575SOL    HW1 1735   2.397   0.212   1.003
  575SOL    HW2 1736   2.403   0.279   0.868
  576SOL     OW 1737   2.863   1.442   0.470
  576SOL    HW1 1738   2.828   1.518   0.423
  576SOL    HW2 1739   2.860   1.468   0.562
  577SOL     OW 1740   2.216   1.806   0.858
  577SOL    HW1 1741   2.261   1.722   0.867
  577SOL    HW2 1742   2.284   1.871   0.874
  578SOL     OW 1743   2.180   0.952   0.243
  578SOL    HW1 1744   2.264   0.969   0.199
  578SOL    HW2 1745   2.152   0.867   0.210
  579SOL     OW 1746   2.326   1.260   1.737
  579SOL    HW1 1747   2.298   1.267   1.646
  579SOL    HW2 1748   2.245   1.262   1.787
  580SOL     OW 1749   2.063   0.294   1.498
  580SOL    HW1 1750   1.979   0.341   1.498
  580SOL    HW2 1751   2.051   0.226   1.564
  581SOL     OW 1752   2.328   1.725   0.333
  581SOL    HW1 1753   2.362   1.793   0.391
  581SOL    HW2 1754   2.395   1.716   0.265
  582SOL     OW 1755   2.119   1.794   1.231
  582SOL    HW1 1756   2.172   1.731   1.280
  582SOL    HW2 1757   2.109   1.755   1.144
  583SOL     OW 1758   2.800   1.695   0.900
  583SOL    HW1 1759   2.864   1.629   0.927
  583SOL    HW2 1760   2.752   1.654   0.828
  584SOL     OW 1761   2.255   0.691   0.476
  584SOL    HW1 1762   2.286   0.602   0.493
  584SOL    HW2 1763   2.162   0.689   0.497
  585SOL     OW 1764   2.476   0.108   0.107
  585SOL    HW1 1765   2.571   0.113   0.119
  585SOL    HW2 1766   2.461   0.144   0.019
  586SOL     OW 1767   2.633   0.276   1.752
  586SOL    HW1 1768   2.701   0.211   1.769
  586SOL    HW2 1769   2.579   0.274   1.831
  587SOL     OW 1770   2.741   1.517   1.194
  587SOL    HW1 1771   2.721   1.483   1.107
  587SOL    HW2 1772   2.804   1.454   1.230
  588SOL     OW 1773   2.669   1.403   0.938
  588SOL    HW1 1774   2.753   1.390   0.894
  588SOL    HW2 1775   2.604   1.397   0.868
  589SOL     OW 1776   2.784   0.505   0.905
  589SOL    HW1 1777   2.757   0.494   0.814
  589SOL    HW2 1778   2.824   0.421   0.928
  590SOL     OW 1779   2.401   0.047   0.496
  590SOL    HW1 1780   2.316   0.039   0.538
  590SOL    HW2 1781   2.394   0.127   0.444
  591SOL     OW 1782   0.319   1.153   0.044
  591SOL    HW1 1783   0.310   1.099   0.122
  591SOL    HW2 1784   0.252   1.221   0.054
  592SOL     OW 1785   2.161   0.088   0.185
  592SOL    HW1 1786   2.245   0.133   0.194
  592SOL    HW2 1787   2.182   2.996   0.200
  593SOL     OW 1788   2.825   0.247   0.468
  593SOL    HW1 1789   2.783   0.296   0.396
  593SOL    HW2 1790   2.901   0.207   0.427
  594SOL     OW 1791   0.084   1.582   0.797
  594SOL    HW1 1792   0.110   1.620   0.713
  594SOL    HW2 1793   0.166   1.552   0.837
  595SOL     OW 1794   2.328   1.147   0.736
  595SOL    HW1 1795   2.257   1.129   0.798
  595SOL    HW2 1796   2.289   1.131   0.650
  596SOL     OW 1797   2.896   0.512   0.021
  596SOL    HW1 1798   2.844   0.591   0.007
  596SOL    HW2 1799   2.943   0.528   0.103
  597SOL     OW 1800   1.937   0.556   1.391
  597SOL    HW1 1801   2.029   0.553   1.364
  597SOL    HW2 1802   1.934   0.627   1.455
  598SOL     OW 1803   2.428   0.216   1.179
  598SOL    HW1 1804   2.463   0.165   1.253
  598SOL    HW2 1805   2.335   0.226   1.199
  599SOL     OW 1806   2.745   0.468   0.635
  599SOL    HW1 1807   2.678   0.519   0.588
  599SOL    HW2 1808   2.737   0.380   0.600
  600SOL     OW 1809   2.862   0.056   0.761
  600SOL    HW1 1810   2.823   0.059   0.673
  600SOL    HW2 1811   2.837   2.970   0.795
  601SOL     OW 1812   2.353   1.401   0.152
  601SOL    HW1 1813   2.287   1.373   0.215
  601SOL    HW2 1814   2.306   1.409   0.069
  602SOL     OW 1815   2.392   0.262   0.324
  602SOL    HW1 1816   2.434   0.213   0.253
  602SOL    HW2 1817   2.365   0.345   0.284
  603SOL     OW 1818   2.779   0.112   1.401
  603SOL    HW1 1819   2.806   0.098   1.310
  603SOL    HW2 1820   2.842   0.176   1.435
  604SOL     OW 1821   2.841   1.109   1.729
  604SOL    HW1 1822   2.748   1.131   1.739
  604SOL    HW2 1823   2.842   1.042   1.661
  605SOL     OW 1824   2.563   1.062   0.379
  605SOL    HW1 1825   2.549   1.049   0.472
  605SOL    HW2 1826   2.646   1.019   0.360
  606SOL     OW 1827   2.278   0.813   1.251
  606SOL    HW1 1828   2.347   0.824   1.317
  606SOL    HW2 1829   2.244   0.725   1.268
  607SOL     OW 1830   1.946   1.576   1.327
  607SOL    HW1 1831   1.929   1.662   1.288
  607SOL    HW2 1832   2.041   1.573   1.338
  608SOL     OW 1833   2.216   1.108   0.490
  608SOL    HW1 1834   2.215   1.182   0.430
  608SOL    HW2 1835   2.213   1.031   0.433
  609SOL     OW 1836   2.418   0.542   0.863
  609SOL    HW1 1837   2.435   0.596   0.787
  609SOL    HW2 1838   2.483   0.570   0.928
  610SOL     OW 1839   2.215   1.523   1.318
  610SOL    HW1 1840   2.201   1.482   1.233
  610SOL    HW2 1841   2.309   1.537   1.324
  611SOL     OW 1842   2.275   0.744   1.602
  611SOL    HW1 1843   2.334   0.792   1.544
  611SOL    HW2 1844   2.317   0.660   1.616
  612SOL     OW 1845   2.867   0.116   1.762
  612SOL    HW1 1846   2.900   0.192   1.712
  612SOL    HW2 1847   2.902   0.040   1.716
  613SOL     OW 1848   2.366   0.055   1.748
  613SOL    HW1 1849   2.331   2.989   1.689
  613SOL    HW2 1850   2.295   0.118   1.758
  614SOL     OW 1851   2.442   0.874   1.030
  614SOL    HW1 1852   2.476   0.963   1.029
  614SOL    HW2 1853   2.387   0.870   1.108
  615SOL     OW 1854   0.063   0.532   0.270
  615SOL    HW1 1855   0.084   0.450   0.313
  615SOL    HW2 1856   0.035   0.590   0.341
  616SOL     OW 1857   2.161   0.199   1.251
  616SOL    HW1 1858   2.130   0.240   1.332
  616SOL    HW2 1859   2.138   0.106   1.261
  617SOL     OW 1860   1.895   1.310   1.282
  617SOL    HW1 1861   1.938   1.259   1.351
  617SOL    HW2 1862   1.913   1.401   1.305
  618SOL     OW 1863   2.590   0.634   1.060
  618SOL    HW1 1864   2.665   0.617   1.004
  618SOL    HW2 1865   2.563   0.723   1.038
  619SOL     OW 1866   2.168   0.061   0.640
  619SOL    HW1 1867   2.169   0.152   0.669
  619SOL    HW2 1868   2.152   0.011   0.720
  620SOL     OW 1869   2.867   0.769   0.972
  620SOL    HW1 1870   2.897   0.774   1.063
  620SOL    HW2 1871   2.873   0.676   0.950
  621SOL     OW 1872   2.831   1.569   1.704
  621SOL    HW1 1873   2.826   1.609   1.617
  621SOL    HW2 1874   2.888   1.492   1.691
  622SOL     OW 1875   2.216   0.914   1.811
  622SOL    HW1 1876   2.300   0.936   1.851
  622SOL    HW2 1877   2.238   0.853   1.740
  623SOL     OW 1878   2.906   1.344   0.834
  623SOL    HW1 1879   2.910   1.266   0.780
  623SOL    HW2 1880   2.980   1.398   0.804
  624SOL     OW 1881   2.173   0.809   0.947
  624SOL    HW1 1882   2.265   0.833   0.944
  624SOL    HW2 1883   2.172   0.720   0.983
  625SOL     OW 1884   2.197   0.525   1.014
  625SOL    HW1 1885   2.159   0.439   0.997
  625SOL    HW2 1886   2.272   0.531   0.954
  626SOL     OW 1887   2.966   0.367   1.665
  626SOL    HW1 1888   2.909   0.430   1.708
  626SOL    HW2 1889   0.053   0.407   1.668
  627SOL     OW 1890   1.872   1.320   0.186
  627SOL    HW1 1891   1.781   1.333   0.160
  627SOL    HW2 1892   1.872   1.234   0.229
  628SOL     OW 1893   1.952   1.790   0.936
  628SOL    HW1 1894   1.922   1.709   0.893
  628SOL    HW2 1895   2.042   1.801   0.905
  629SOL     OW 1896   2.361   1.573   0.906
  629SOL    HW1 1897   2.430   1.635   0.930
  629SOL    HW2 1898   2.405   1.508   0.852
  630SOL     OW 1899   2.864   0.794   1.252
  630SOL    HW1 1900   2.908   0.729   1.307
  630SOL    HW2 1901   2.774   0.762   1.245
  631SOL     OW 1902   1.898   0.539   1.117
  631SOL    HW1 1903   1.980   0.526   1.068
  631SOL    HW2 1904   1.925   0.550   1.208
  632SOL     OW 1905   2.050   0.519   1.725
  632SOL    HW1 1906   2.109   0.483   1.658
  632SOL    HW2 1907   2.006   0.592   1.681
  633SOL     OW 1908   2.673   0.573   0.349
  633SOL    HW1 1909   2.678   0.493   0.295
  633SOL    HW2 1910   2.592   0.615   0.322
  634SOL     OW 1911   2.129   1.554   1.739
  634SOL    HW1 1912   2.085   1.616   1.797
  634SOL    HW2 1913   2.114   1.468   1.779
  635SOL     OW 1914   2.556   0.460   1.265
  635SOL    HW1 1915   2.511   0.382   1.233
  635SOL    HW2 1916   2.556   0.519   1.190
  636SOL     OW 1917   2.802   1.689   1.460
  636SOL    HW1 1918   2.771   1.640   1.383
  636SOL    HW2 1919   2.775   1.779   1.444
  637SOL     OW 1920   2.315   0.494   0.200
  637SOL    HW1 1921   2.372   0.567   0.222
  637SOL    HW2 1922   2.229   0.533   0.185
  638SOL     OW 1923   2.014   1.141   1.465
  638SOL    HW1 1924   2.009   1.091   1.547
  638SOL    HW2 1925   2.031   1.075   1.398
  639SOL     OW 1926   1.946   1.266   1.016
  639SOL    HW1 1927   1.931   1.276   1.110
  639SOL    HW2 1928   1.873   1.211   0.986
  640SOL     OW 1929   2.537   1.664   1.728
  640SOL    HW1 1930   2.486   1.744   1.719
  640SOL    HW2 1931   2.603   1.670   1.659
  641SOL     OW 1932   2.765   0.086   0.142
  641SOL    HW1 1933   2.805   0.042   0.067
  641SOL    HW2 1934   2.808   0.047   0.218
  642SOL     OW 1935   2.001   1.796   1.843
  642SOL    HW1 1936   1.948   1.731   1.888
  642SOL    HW2 1937   2.047   1.843   1.913
  643SOL     OW 1938   2.679   1.269   1.426
  643SOL    HW1 1939   2.669   1.314   1.510
  643SOL    HW2 1940   2.605   1.299   1.373
  644SOL     OW 1941   2.530   1.610   0.160
  644SOL    HW1 1942   2.535   1.628   0.066
  644SOL    HW2 1943   2.478   1.530   0.167
  645SOL     OW 1944   2.137   0.348   0.754
  645SOL    HW1 1945   2.047   0.368   0.727
  645SOL    HW2 1946   2.129   0.314   0.843
  646SOL     OW 1947   2.688   1.006   1.375
  646SOL    HW1 1948   2.733   1.001   1.290
  646SOL    HW2 1949   2.688   1.099   1.396
  647SOL     OW 1950   2.789   0.943   0.309
  647SOL    HW1 1951   2.839   0.954   0.228
  647SOL    HW2 1952   2.824   0.862   0.347
  648SOL     OW 1953   2.232   1.301   1.492
  648SOL    HW1 1954   2.219   1.379   1.438
  648SOL    HW2 1955   2.155   1.247   1.476
  649SOL     OW 1956   2.914   1.084   0.721
  649SOL    HW1 1957   2.838   1.042   0.762
  649SOL    HW2 1958   2.932   1.030   0.643
  650SOL     OW 1959   2.878   0.239   0.969
  650SOL    HW1 1960   2.876   0.188   0.888
  650SOL    HW2 1961   2.870   0.174   1.039
  651SOL     OW 1962   2.460   1.488   0.483
  651SOL    HW1 1963   2.503   1.439   0.413
  651SOL    HW2 1964   2.401   1.548   0.438
  652SOL     OW 1965   2.131   1.335   0.296
  652SOL    HW1 1966   2.045   1.339   0.254
  652SOL    HW2 1967   2.119   1.378   0.380
  653SOL     OW 1968   1.972   1.005   1.711
  653SOL    HW1 1969   1.897   0.993   1.770
  653SOL    HW2 1970   2.048   0.980   1.764
  654SOL     OW 1971   2.528   0.208   1.491
  654SOL    HW1 1972   2.611   0.182   1.452
  654SOL    HW2 1973   2.549   0.223   1.584
  655SOL     OW 1974   1.914   0.199   0.332
  655SOL    HW1 1975   1.885   0.233   0.247
  655SOL    HW2 1976   2.000   0.159   0.313
  656SOL     OW 1977   2.478   0.834   1.432
  656SOL    HW1 1978   2.534   0.911   1.418
  656SOL    HW2 1979   2.540   0.761   1.439
  657SOL     OW 1980   2.579   0.564   1.704
  657SOL    HW1 1981   2.612   0.628   1.767
  657SOL    HW2 1982   2.615   0.480   1.734
  658SOL     OW 1983   2.244   1.740   1.563
  658SOL    HW1 1984   2.158   1.781   1.553
  658SOL    HW2 1985   2.226   1.659   1.610
  659SOL     OW 1986   2.458   0.740   0.664
  659SOL    HW1 1987   2.493   0.828   0.652
  659SOL    HW2 1988   2.385   0.735   0.602
  660SOL     OW 1989   2.764   1.378   0.063
  660SOL    HW1 1990   2.692   1.386   0.125
  660SOL    HW2 1991   2.733   1.424   2.985
  661SOL     OW 1992   2.521   1.796   0.949
  661SOL    HW1 1993   2.499   1.885   0.923
  661SOL    HW2 1994   2.616   1.790   0.938
  662SOL     OW 1995   2.717   0.961   0.857
  662SOL    HW1 1996   2.765   0.890   0.898
  662SOL    HW2 1997   2.687   1.015   0.930
  663SOL     OW 1998   2.957   1.015   0.077
  663SOL    HW1 1999   2.929   1.054   2.995
  663SOL    HW2 2000   0.014   0.943   0.051
  664SOL     OW 2001   2.086   1.304   1.855
  664SOL    HW1 2002   2.010   1.257   1.820
  664SOL    HW2 2003   2.066   1.318   1.947
  665SOL     OW 2004   1.943   1.235   0.664
  665SOL    HW1 2005   1.949   1.185   0.745
  665SOL    HW2 2006   2.014   1.200   0.609
  666SOL     OW 2007   2.541   1.402   1.625
  666SOL    HW1 2008   2.461   1.357   1.653
  666SOL    HW2 2009   2.535   1.489   1.665
  667SOL     OW 2010   2.338   0.433   0.550
  667SOL    HW1 2011   2.325   0.376   0.474
  667SOL    HW2 2012   2.270   0.408   0.612
  668SOL     OW 2013   2.188   0.552   1.291
  668SOL    HW1 2014   2.246   0.499   1.346
  668SOL    HW2 2015   2.211   0.527   1.201
  669SOL     OW 2016   2.683   1.583   0.680
  669SOL    HW1 2017   2.681   1.619   0.591
  669SOL    HW2 2018   2.607   1.525   0.684
  670SOL     OW 2019   2.853   0.018   1.148
  670SOL    HW1 2020   2.820   2.945   1.097
  670SOL    HW2 2021   2.945   2.996   1.164
  671SOL     OW 2022   2.628   1.330   0.313
  671SOL    HW1 2023   2.600   1.240   0.331
  671SOL    HW2 2024   2.712   1.338   0.359
  672SOL     OW 2025   2.484   1.560   1.283
  672SOL    HW1 2026   2.487   1.640   1.335
  672SOL    HW2 2027   2.571   1.551   1.245
  673SOL     OW 2028   1.902   1.075   0.305
  673SOL    HW1 2029   1.996   1.068   0.287
  673SOL    HW2 2030   1.875   0.985   0.326
  674SOL     OW 2031   2.738   1.649   0.347
  674SOL    HW1 2032   2.668   1.632   0.284
  674SOL    HW2 2033   2.709   1.727   0.394
  675SOL     OW 2034   2.093   0.622   1.984
  675SOL    HW1 2035   2.003   0.623   2.017
  675SOL    HW2 2036   2.084   0.597   1.892
  676SOL     OW 2037   2.088   0.277   2.880
  676SOL    HW1 2038   2.104   0.238   2.966
  676SOL    HW2 2039   2.003   0.242   2.854
  677SOL     OW 2040   1.866   0.380   2.504
  677SOL    HW1 2041   1.785   0.410   2.546
  677SOL    HW2 2042   1.839   0.304   2.451
  678SOL     OW 2043   2.613   1.147   2.895
  678SOL    HW1 2044   2.551   1.192   2.952
  678SOL    HW2 2045   2.662   1.218   2.853
  679SOL     OW 2046   2.548   1.008   2.509
  679SOL    HW1 2047   2.607   0.991   2.582
  679SOL    HW2 2048   2.476   1.058   2.548
  680SOL     OW 2049   2.203   1.432   2.931
  680SOL    HW1 2050   2.125   1.399   2.885
  680SOL    HW2 2051   2.248   1.484   2.865
  681SOL     OW 2052   2.082   1.712   2.337
  681SOL    HW1 2053   2.105   1.790   2.389
  681SOL    HW2 2054   2.150   1.706   2.270
  682SOL     OW 2055   2.093   1.440   2.397
  682SOL    HW1 2056   2.076   1.534   2.401
  682SOL    HW2 2057   2.029   1.402   2.458
  683SOL     OW 2058   2.116   1.092   2.754
  683SOL    HW1 2059   2.110   1.005   2.793
  683SOL    HW2 2060   2.057   1.146   2.806
  684SOL     OW 2061   2.454   0.978   1.993
  684SOL    HW1 2062   2.494   1.033   1.926
  684SOL    HW2 2063   2.492   1.010   2.075
  685SOL     OW 2064   1.980   0.644   2.425
  685SOL    HW1 2065   1.934   0.564   2.449
  685SOL    HW2 2066   1.973   0.700   2.502
  686SOL     OW 2067   1.897   1.597   1.989
  686SOL    HW1 2068   1.874   1.505   2.003
  686SOL    HW2 2069   1.867   1.642   2.068
  687SOL     OW 2070   2.471   1.381   2.593
  687SOL    HW1 2071   2.423   1.298   2.601
  687SOL    HW2 2072   2.455   1.409   2.502
  688SOL     OW 2073   2.683   0.013   2.377
  688SOL    HW1 2074   2.708   0.104   2.357
  688SOL    HW2 2075   2.589   0.011   2.362
  689SOL     OW 2076   2.458   0.725   2.126
  689SOL    HW1 2077   2.463   0.804   2.073
  689SOL    HW2 2078   2.391   0.745   2.192
  690SOL     OW 2079   2.891   0.708   2.282
  690SOL    HW1 2080   2.918   0.693   2.372
  690SOL    HW2 2081   2.815   0.651   2.270
  691SOL     OW 2082   1.952   0.819   2.635
  691SOL    HW1 2083   2.032   0.811   2.688
  691SOL    HW2 2084   1.907   0.896   2.671
  692SOL     OW 2085   2.737   0.344   2.051
  692SOL    HW1 2086   2.790   0.406   2.000
  692SOL    HW2 2087   2.779   0.259   2.036
  693SOL     OW 2088   2.418   0.201   2.831
  693SOL    HW1 2089   2.361   0.265   2.874
  693SOL    HW2 2090   2.431   0.235   2.742
  694SOL     OW 2091   2.863   1.440   2.332
  694SOL    HW1 2092   2.828   1.516   2.285
  694SOL    HW2 2093   2.864   1.467   2.424
  695SOL     OW 2094   2.217   1.804   2.716
  695SOL    HW1 2095   2.260   1.720   2.729
  695SOL    HW2 2096   2.284   1.869   2.737
  696SOL     OW 2097   2.185   0.953   2.112
  696SOL    HW1 2098   2.264   0.976   2.063
  696SOL    HW2 2099   2.152   0.874   2.068
  697SOL     OW 2100   2.329   1.739   2.183
  697SOL    HW1 2101   2.369   1.795   2.250
  697SOL    HW2 2102   2.402   1.710   2.128
  698SOL     OW 2103   2.126   1.800   0.103
  698SOL    HW1 2104   2.167   1.731   0.155
  698SOL    HW2 2105   2.080   1.753   0.032
  699SOL     OW 2106   2.794   1.699   2.759
  699SOL    HW1 2107   2.859   1.638   2.795
  699SOL    HW2 2108   2.754   1.650   2.687
  700SOL     OW 2109   2.256   0.691   2.341
  700SOL    HW1 2110   2.285   0.601   2.354
  700SOL    HW2 2111   2.162   0.690   2.360
  701SOL     OW 2112   2.488   0.122   1.973
  701SOL    HW1 2113   2.576   0.086   1.969
  701SOL    HW2 2114   2.449   0.101   1.888
  702SOL     OW 2115   2.662   1.402   2.790
  702SOL    HW1 2116   2.748   1.394   2.749
  702SOL    HW2 2117   2.600   1.396   2.717
  703SOL     OW 2118   2.782   0.519   2.756
  703SOL    HW1 2119   2.757   0.495   2.667
  703SOL    HW2 2120   2.813   0.438   2.795
  704SOL     OW 2121   2.406   0.059   2.365
  704SOL    HW1 2122   2.318   0.043   2.400
  704SOL    HW2 2123   2.393   0.132   2.303
  705SOL     OW 2124   2.151   0.035   2.059
  705SOL    HW1 2125   2.195   0.110   2.018
  705SOL    HW2 2126   2.222   2.975   2.083
  706SOL     OW 2127   2.813   0.251   2.322
  706SOL    HW1 2128   2.762   0.293   2.253
  706SOL    HW2 2129   2.892   0.220   2.278
  707SOL     OW 2130   0.084   1.577   2.660
  707SOL    HW1 2131   0.112   1.622   2.581
  707SOL    HW2 2132   0.165   1.555   2.706
  708SOL     OW 2133   2.329   1.145   2.598
  708SOL    HW1 2134   2.258   1.129   2.660
  708SOL    HW2 2135   2.289   1.129   2.512
  709SOL     OW 2136   2.888   0.551   1.877
  709SOL    HW1 2137   2.841   0.633   1.857
  709SOL    HW2 2138   2.938   0.571   1.956
  710SOL     OW 2139   2.743   0.467   2.494
  710SOL    HW1 2140   2.678   0.518   2.445
  710SOL    HW2 2141   2.740   0.380   2.454
  711SOL     OW 2142   2.859   0.054   2.618
  711SOL    HW1 2143   2.821   0.052   2.530
  711SOL    HW2 2144   2.838   2.968   2.655
  712SOL     OW 2145   2.354   1.413   2.024
  712SOL    HW1 2146   2.279   1.384   2.075
  712SOL    HW2 2147   2.331   1.390   1.933
  713SOL     OW 2148   2.394   0.265   2.183
  713SOL    HW1 2149   2.428   0.212   2.111
  713SOL    HW2 2150   2.371   0.349   2.142
  714SOL     OW 2151   2.569   1.061   2.233
  714SOL    HW1 2152   2.554   1.047   2.327
  714SOL    HW2 2153   2.647   1.009   2.213
  715SOL     OW 2154   2.217   1.106   2.353
  715SOL    HW1 2155   2.218   1.180   2.293
  715SOL    HW2 2156   2.214   1.029   2.296
  716SOL     OW 2157   2.414   0.542   2.729
  716SOL    HW1 2158   2.433   0.593   2.650
  716SOL    HW2 2159   2.480   0.570   2.792
  717SOL     OW 2160   2.438   0.870   2.880
  717SOL    HW1 2161   2.480   0.953   2.855
  717SOL    HW2 2162   2.416   0.882   2.972
  718SOL     OW 2163   0.056   0.532   2.133
  718SOL    HW1 2164   0.083   0.454   2.182
  718SOL    HW2 2165   0.025   0.593   2.200
  719SOL     OW 2166   2.597   0.646   2.918
  719SOL    HW1 2167   2.661   0.620   2.852
  719SOL    HW2 2168   2.560   0.728   2.886
  720SOL     OW 2169   2.173   0.062   2.506
  720SOL    HW1 2170   2.163   0.152   2.535
  720SOL    HW2 2171   2.152   0.010   2.584
  721SOL     OW 2172   2.874   0.777   2.830
  721SOL    HW1 2173   2.883   0.769   2.925
  721SOL    HW2 2174   2.867   0.686   2.800
  722SOL     OW 2175   2.907   1.343   2.697
  722SOL    HW1 2176   2.914   1.268   2.639
  722SOL    HW2 2177   2.976   1.403   2.667
  723SOL     OW 2178   2.171   0.811   2.812
  723SOL    HW1 2179   2.264   0.831   2.809
  723SOL    HW2 2180   2.167   0.720   2.840
  724SOL     OW 2181   2.184   0.534   2.869
  724SOL    HW1 2182   2.150   0.445   2.865
  724SOL    HW2 2183   2.262   0.532   2.814
  725SOL     OW 2184   1.865   1.323   2.056
  725SOL    HW1 2185   1.776   1.338   2.026
  725SOL    HW2 2186   1.865   1.232   2.087
  726SOL     OW 2187   1.952   1.795   2.795
  726SOL    HW1 2188   1.921   1.712   2.759
  726SOL    HW2 2189   2.043   1.801   2.767
  727SOL     OW 2190   2.366   1.576   2.764
  727SOL    HW1 2191   2.436   1.637   2.786
  727SOL    HW2 2192   2.408   1.509   2.712
  728SOL     OW 2193   2.847   0.758   0.104
  728SOL    HW1 2194   2.886   0.741   0.190
  728SOL    HW2 2195   2.754   0.771   0.123
  729SOL     OW 2196   2.671   0.565   2.214
  729SOL    HW1 2197   2.670   0.489   2.156
  729SOL    HW2 2198   2.596   0.618   2.185
  730SOL     OW 2199   2.561   0.437   0.084
  730SOL    HW1 2200   2.467   0.432   0.104
  730SOL    HW2 2201   2.570   0.516   0.031
  731SOL     OW 2202   2.330   0.494   2.050
  731SOL    HW1 2203   2.385   0.570   2.070
  731SOL    HW2 2204   2.242   0.531   2.039
  732SOL     OW 2205   1.943   1.268   2.885
  732SOL    HW1 2206   1.930   1.276   2.980
  732SOL    HW2 2207   1.869   1.214   2.856
  733SOL     OW 2208   2.533   1.618   2.016
  733SOL    HW1 2209   2.541   1.628   1.922
  733SOL    HW2 2210   2.479   1.539   2.027
  734SOL     OW 2211   2.133   0.332   2.615
  734SOL    HW1 2212   2.047   0.365   2.591
  734SOL    HW2 2213   2.126   0.311   2.708
  735SOL     OW 2214   2.785   0.921   2.156
  735SOL    HW1 2215   2.834   0.929   2.074
  735SOL    HW2 2216   2.819   0.841   2.196
  736SOL     OW 2217   2.913   1.079   2.584
  736SOL    HW1 2218   2.834   1.039   2.620
  736SOL    HW2 2219   2.931   1.030   2.504
  737SOL     OW 2220   2.880   0.236   2.820
  737SOL    HW1 2221   2.874   0.189   2.737
  737SOL    HW2 2222   2.876   0.168   2.886
  738SOL     OW 2223   2.462   1.488   2.343
  738SOL    HW1 2224   2.503   1.439   2.272
  738SOL    HW2 2225   2.396   1.542   2.299
  739SOL     OW 2226   2.120   1.345   2.150
  739SOL    HW1 2227   2.027   1.346   2.127
  739SOL    HW2 2228   2.122   1.383   2.238
  740SOL     OW 2229   1.940   0.337   1.899
  740SOL    HW1 2230   1.850   0.317   1.872
  740SOL    HW2 2231   1.966   0.411   1.844
  741SOL     OW 2232   1.901   0.207   2.161
  741SOL    HW1 2233   1.921   0.266   2.088
  741SOL    HW2 2234   1.971   0.141   2.159
  742SOL     OW 2235   2.458   0.740   2.527
  742SOL    HW1 2236   2.493   0.828   2.512
  742SOL    HW2 2237   2.385   0.732   2.465
  743SOL     OW 2238   2.730   1.369   1.897
  743SOL    HW1 2239   2.681   1.401   1.972
  743SOL    HW2 2240   2.747   1.447   1.844
  744SOL     OW 2241   2.526   1.798   2.823
  744SOL    HW1 2242   2.504   1.885   2.789
  744SOL    HW2 2243   2.619   1.787   2.805
  745SOL     OW 2244   2.712   0.961   2.720
  745SOL    HW1 2245   2.766   0.892   2.759
  745SOL    HW2 2246   2.687   1.017   2.793
  746SOL     OW 2247   2.936   0.950   1.930
  746SOL    HW1 2248   2.907   1.026   1.880
  746SOL    HW2 2249   0.026   0.971   1.956
  747SOL     OW 2250   1.945   1.238   2.527
  747SOL    HW1 2251   1.944   1.183   2.605
  747SOL    HW2 2252   2.013   1.200   2.471
  748SOL     OW 2253   2.332   0.430   2.408
  748SOL    HW1 2254   2.320   0.373   2.332
  748SOL    HW2 2255   2.265   0.401   2.470
  749SOL     OW 2256   2.683   1.581   2.538
  749SOL    HW1 2257   2.683   1.619   2.450
  749SOL    HW2 2258   2.605   1.526   2.541
  750SOL     OW 2259   2.634   1.333   2.173
  750SOL    HW1 2260   2.603   1.243   2.182
  750SOL    HW2 2261   2.714   1.336   2.225
  751SOL     OW 2262   1.905   1.074   2.168
  751SOL    HW1 2263   1.998   1.065   2.150
  751SOL    HW2 2264   1.876   0.985   2.191
  752SOL     OW 2265   2.737   1.646   2.210
  752SOL    HW1 2266   2.668   1.632   2.145
  752SOL    HW2 2267   2.713   1.727   2.254
  753SOL     OW 2268   2.088   2.501   0.112
  753SOL    HW1 2269   1.999   2.476   0.134
  753SOL    HW2 2270   2.105   2.459   0.027
  754SOL     OW 2271   2.086   2.142   0.991
  754SOL    HW1 2272   2.115   2.110   1.077
  754SOL    HW2 2273   1.997   2.109   0.982
  755SOL     OW 2274   1.869   2.245   0.639
  755SOL    HW1 2275   1.784   2.266   0.680
  755SOL    HW2 2276   1.852   2.167   0.587
  756SOL     OW 2277   2.597   0.001   1.022
  756SOL    HW1 2278   2.527   0.048   1.067
  756SOL    HW2 2279   2.644   0.069   0.974
  757SOL     OW 2280   2.721   2.639   1.818
  757SOL    HW1 2281   2.719   2.699   1.892
  757SOL    HW2 2282   2.751   2.692   1.745
  758SOL     OW 2283   2.514   2.848   0.707
  758SOL    HW1 2284   2.608   2.855   0.724
  758SOL    HW2 2285   2.490   2.932   0.670
  759SOL     OW 2286   2.308   2.261   1.491
  759SOL    HW1 2287   2.383   2.201   1.494
  759SOL    HW2 2288   2.232   2.205   1.503
  760SOL     OW 2289   2.109   0.308   0.481
  760SOL    HW1 2290   2.060   0.387   0.503
  760SOL    HW2 2291   2.049   0.236   0.501
  761SOL     OW 2292   2.108   2.949   0.883
  761SOL    HW1 2293   2.125   2.862   0.919
  761SOL    HW2 2294   2.059   2.994   0.952
  762SOL     OW 2295   2.478   2.832   0.147
  762SOL    HW1 2296   2.463   2.924   0.128
  762SOL    HW2 2297   2.543   2.832   0.217
  763SOL     OW 2298   1.977   2.509   0.561
  763SOL    HW1 2299   1.948   2.421   0.583
  763SOL    HW2 2300   1.969   2.558   0.643
  764SOL     OW 2301   1.984   2.604   1.584
  764SOL    HW1 2302   2.077   2.621   1.602
  764SOL    HW2 2303   1.941   2.688   1.604
  765SOL     OW 2304   2.525   0.245   0.677
  765SOL    HW1 2305   2.467   0.182   0.719
  765SOL    HW2 2306   2.466   0.302   0.626
  766SOL     OW 2307   2.674   1.863   0.505
  766SOL    HW1 2308   2.712   1.950   0.493
  766SOL    HW2 2309   2.580   1.879   0.516
  767SOL     OW 2310   2.056   2.841   1.256
  767SOL    HW1 2311   2.138   2.792   1.249
  767SOL    HW2 2312   1.988   2.778   1.233
  768SOL     OW 2313   2.194   2.114   1.808
  768SOL    HW1 2314   2.237   2.197   1.824
  768SOL    HW2 2315   2.104   2.128   1.839
  769SOL     OW 2316   2.454   2.581   0.268
  769SOL    HW1 2317   2.463   2.661   0.217
  769SOL    HW2 2318   2.389   2.602   0.336
  770SOL     OW 2319   2.653   2.488   1.452
  770SOL    HW1 2320   2.630   2.462   1.541
  770SOL    HW2 2321   2.616   2.420   1.396
  771SOL     OW 2322   2.828   2.747   1.580
  771SOL    HW1 2323   2.857   2.662   1.546
  771SOL    HW2 2324   2.776   2.785   1.510
  772SOL     OW 2325   2.847   2.239   1.257
  772SOL    HW1 2326   2.770   2.287   1.287
  772SOL    HW2 2327   2.835   2.230   1.163
  773SOL     OW 2328   2.889   2.580   0.411
  773SOL    HW1 2329   2.927   2.563   0.497
  773SOL    HW2 2330   2.815   2.518   0.406
  774SOL     OW 2331   1.946   2.681   0.777
  774SOL    HW1 2332   2.031   2.672   0.821
  774SOL    HW2 2333   1.911   2.764   0.810
  775SOL     OW 2334   2.789   2.194   0.217
  775SOL    HW1 2335   2.782   2.261   0.150
  775SOL    HW2 2336   2.758   2.114   0.174
  776SOL     OW 2337   2.410   2.047   0.892
  776SOL    HW1 2338   2.413   2.072   0.984
  776SOL    HW2 2339   2.413   2.129   0.843
  777SOL     OW 2340   2.062   2.146   1.502
  777SOL    HW1 2341   1.978   2.192   1.496
  777SOL    HW2 2342   2.046   2.076   1.565
  778SOL     OW 2343   2.250   2.556   0.475
  778SOL    HW1 2344   2.274   2.464   0.485
  778SOL    HW2 2345   2.156   2.558   0.496
  779SOL     OW 2346   2.486   1.981   0.115
  779SOL    HW1 2347   2.580   1.965   0.117
  779SOL    HW2 2348   2.456   1.937   0.035
  780SOL     OW 2349   2.631   2.143   1.756
  780SOL    HW1 2350   2.701   2.079   1.766
  780SOL    HW2 2351   2.571   2.124   1.828
  781SOL     OW 2352   2.787   2.366   0.903
  781SOL    HW1 2353   2.760   2.355   0.812
  781SOL    HW2 2354   2.825   2.281   0.927
  782SOL     OW 2355   2.409   1.924   0.505
  782SOL    HW1 2356   2.329   1.926   0.557
  782SOL    HW2 2357   2.404   2.001   0.449
  783SOL     OW 2358   2.810   2.101   0.466
  783SOL    HW1 2359   2.775   2.149   0.391
  783SOL    HW2 2360   2.897   2.073   0.439
  784SOL     OW 2361   2.886   2.379   0.032
  784SOL    HW1 2362   2.844   2.463   0.011
  784SOL    HW2 2363   2.943   2.399   0.106
  785SOL     OW 2364   1.938   2.418   1.390
  785SOL    HW1 2365   2.030   2.415   1.363
  785SOL    HW2 2366   1.935   2.488   1.455
  786SOL     OW 2367   2.423   2.089   1.163
  786SOL    HW1 2368   2.462   2.009   1.200
  786SOL    HW2 2369   2.332   2.087   1.194
  787SOL     OW 2370   2.742   2.320   0.635
  787SOL    HW1 2371   2.685   2.379   0.586
  787SOL    HW2 2372   2.744   2.239   0.584
  788SOL     OW 2373   2.858   1.923   0.757
  788SOL    HW1 2374   2.811   1.903   0.675
  788SOL    HW2 2375   2.851   1.843   0.809
  789SOL     OW 2376   2.379   2.122   0.323
  789SOL    HW1 2377   2.421   2.073   0.252
  789SOL    HW2 2378   2.365   2.209   0.288
  790SOL     OW 2379   2.755   1.949   1.390
  790SOL    HW1 2380   2.780   1.934   1.299
  790SOL    HW2 2381   2.831   1.992   1.430
  791SOL     OW 2382   2.275   2.678   1.254
  791SOL    HW1 2383   2.346   2.685   1.317
  791SOL    HW2 2384   2.241   2.589   1.265
  792SOL     OW 2385   2.419   2.398   0.861
  792SOL    HW1 2386   2.434   2.455   0.786
  792SOL    HW2 2387   2.482   2.428   0.927
  793SOL     OW 2388   2.275   2.603   1.603
  793SOL    HW1 2389   2.336   2.648   1.545
  793SOL    HW2 2390   2.315   2.518   1.619
  794SOL     OW 2391   2.857   1.988   1.771
  794SOL    HW1 2392   2.899   2.043   1.705
  794SOL    HW2 2393   2.900   1.903   1.763
  795SOL     OW 2394   2.361   1.907   1.745
  795SOL    HW1 2395   2.319   1.851   1.680
  795SOL    HW2 2396   2.299   1.979   1.758
  796SOL     OW 2397   2.450   2.730   1.035
  796SOL    HW1 2398   2.467   2.822   1.017
  796SOL    HW2 2399   2.387   2.731   1.108
  797SOL     OW 2400   0.063   2.398   0.271
  797SOL    HW1 2401   0.078   2.318   0.320
  797SOL    HW2 2402   0.034   2.462   0.337
  798SOL     OW 2403   2.163   2.064   1.246
  798SOL    HW1 2404   2.126   2.096   1.328
  798SOL    HW2 2405   2.143   1.970   1.246
  799SOL     OW 2406   2.589   2.492   1.060
  799SOL    HW1 2407   2.666   2.479   1.005
  799SOL    HW2 2408   2.560   2.582   1.041
  800SOL     OW 2409   2.163   1.928   0.623
  800SOL    HW1 2410   2.146   2.019   0.648
  800SOL    HW2 2411   2.170   1.880   0.705
  801SOL     OW 2412   2.858   2.625   0.982
  801SOL    HW1 2413   2.909   2.621   1.062
  801SOL    HW2 2414   2.864   2.537   0.945
  802SOL     OW 2415   2.223   2.787   1.801
  802SOL    HW1 2416   2.290   2.779   1.869
  802SOL    HW2 2417   2.243   2.716   1.740
  803SOL     OW 2418   2.174   2.674   0.948
  803SOL    HW1 2419   2.267   2.692   0.936
  803SOL    HW2 2420   2.170   2.585   0.983
  804SOL     OW 2421   2.195   2.386   1.010
  804SOL    HW1 2422   2.159   2.298   0.995
  804SOL    HW2 2423   2.272   2.391   0.953
  805SOL     OW 2424   2.969   2.242   1.667
  805SOL    HW1 2425   2.912   2.301   1.716
  805SOL    HW2 2426   0.056   2.281   1.673
  806SOL     OW 2427   2.977   2.064   1.470
  806SOL    HW1 2428   2.964   2.135   1.533
  806SOL    HW2 2429   2.981   2.108   1.385
  807SOL     OW 2430   2.859   2.667   1.264
  807SOL    HW1 2431   2.908   2.598   1.308
  807SOL    HW2 2432   2.777   2.625   1.238
  808SOL     OW 2433   1.898   2.407   1.116
  808SOL    HW1 2434   1.978   2.388   1.068
  808SOL    HW2 2435   1.924   2.411   1.208
  809SOL     OW 2436   2.052   2.380   1.724
  809SOL    HW1 2437   2.108   2.343   1.656
  809SOL    HW2 2438   2.004   2.450   1.680
  810SOL     OW 2439   2.670   2.427   0.356
  810SOL    HW1 2440   2.672   2.358   0.290
  810SOL    HW2 2441   2.596   2.482   0.330
  811SOL     OW 2442   2.556   2.318   1.264
  811SOL    HW1 2443   2.508   2.241   1.232
  811SOL    HW2 2444   2.556   2.378   1.190
  812SOL     OW 2445   2.305   2.356   0.207
  812SOL    HW1 2446   2.372   2.423   0.222
  812SOL    HW2 2447   2.226   2.405   0.187
  813SOL     OW 2448   2.019   2.996   1.474
  813SOL    HW1 2449   2.023   2.939   1.550
  813SOL    HW2 2450   2.035   2.938   1.399
  814SOL     OW 2451   2.761   1.934   0.125
  814SOL    HW1 2452   2.819   1.909   0.053
  814SOL    HW2 2453   2.803   1.898   0.203
  815SOL     OW 2454   2.126   2.178   0.719
  815SOL    HW1 2455   2.042   2.216   0.694
  815SOL    HW2 2456   2.121   2.169   0.814
  816SOL     OW 2457   2.673   2.866   1.375
  816SOL    HW1 2458   2.729   2.842   1.302
  816SOL    HW2 2459   2.699   2.956   1.397
  817SOL     OW 2460   2.745   2.785   0.287
  817SOL    HW1 2461   2.824   2.835   0.270
  817SOL    HW2 2462   2.770   2.721   0.353
  818SOL     OW 2463   2.880   2.103   0.967
  818SOL    HW1 2464   2.875   2.054   0.885
  818SOL    HW2 2465   2.869   2.037   1.035
  819SOL     OW 2466   1.974   2.864   1.709
  819SOL    HW1 2467   1.899   2.856   1.767
  819SOL    HW2 2468   2.050   2.845   1.764
  820SOL     OW 2469   2.527   2.061   1.500
  820SOL    HW1 2470   2.609   2.041   1.454
  820SOL    HW2 2471   2.556   2.090   1.587
  821SOL     OW 2472   1.937   2.019   0.341
  821SOL    HW1 2473   1.901   2.065   0.265
  821SOL    HW2 2474   2.027   1.999   0.317
  822SOL     OW 2475   2.475   2.693   1.434
  822SOL    HW1 2476   2.532   2.768   1.418
  822SOL    HW2 2477   2.535   2.618   1.441
  823SOL     OW 2478   2.578   2.426   1.703
  823SOL    HW1 2479   2.612   2.491   1.764
  823SOL    HW2 2480   2.611   2.342   1.736
  824SOL     OW 2481   2.456   2.586   0.662
  824SOL    HW1 2482   2.481   2.678   0.672
  824SOL    HW2 2483   2.385   2.588   0.597
  825SOL     OW 2484   2.751   2.837   0.862
  825SOL    HW1 2485   2.780   2.753   0.898
  825SOL    HW2 2486   2.682   2.866   0.922
  826SOL     OW 2487   2.292   2.295   0.528
  826SOL    HW1 2488   2.320   2.224   0.470
  826SOL    HW2 2489   2.245   2.251   0.599
  827SOL     OW 2490   2.190   2.415   1.290
  827SOL    HW1 2491   2.244   2.360   1.346
  827SOL    HW2 2492   2.211   2.387   1.201
  828SOL     OW 2493   2.867   1.880   1.145
  828SOL    HW1 2494   2.814   1.811   1.105
  828SOL    HW2 2495   2.957   1.857   1.121
  829SOL     OW 2496   1.872   2.917   0.304
  829SOL    HW1 2497   1.956   2.920   0.259
  829SOL    HW2 2498   1.865   2.828   0.337
  830SOL     OW 2499   2.094   2.472   1.982
  830SOL    HW1 2500   2.006   2.489   2.015
  830SOL    HW2 2501   2.082   2.452   1.889
  831SOL     OW 2502   2.090   2.142   2.846
  831SOL    HW1 2503   2.117   2.115   2.933
  831SOL    HW2 2504   2.000   2.110   2.837
  832SOL     OW 2505   1.869   2.245   2.498
  832SOL    HW1 2506   1.786   2.269   2.539
  832SOL    HW2 2507   1.850   2.163   2.451
  833SOL     OW 2508   2.639   0.016   2.879
  833SOL    HW1 2509   2.549   0.024   2.910
  833SOL    HW2 2510   2.651   0.091   2.821
  834SOL     OW 2511   2.513   2.844   2.563
  834SOL    HW1 2512   2.604   2.848   2.591
  834SOL    HW2 2513   2.492   2.933   2.534
  835SOL     OW 2514   2.100   0.302   2.337
  835SOL    HW1 2515   2.055   0.383   2.361
  835SOL    HW2 2516   2.046   0.233   2.374
  836SOL     OW 2517   2.112   2.952   2.750
  836SOL    HW1 2518   2.125   2.863   2.781
  836SOL    HW2 2519   2.055   2.992   2.816
  837SOL     OW 2520   2.465   2.824   1.995
  837SOL    HW1 2521   2.461   2.907   1.947
  837SOL    HW2 2522   2.530   2.840   2.063
  838SOL     OW 2523   1.978   2.509   2.424
  838SOL    HW1 2524   1.949   2.421   2.445
  838SOL    HW2 2525   1.969   2.558   2.506
  839SOL     OW 2526   2.503   0.247   2.564
  839SOL    HW1 2527   2.460   0.163   2.549
  839SOL    HW2 2528   2.466   0.305   2.497
  840SOL     OW 2529   2.674   1.863   2.365
  840SOL    HW1 2530   2.713   1.949   2.353
  840SOL    HW2 2531   2.580   1.880   2.378
  841SOL     OW 2532   2.061   2.807   0.116
  841SOL    HW1 2533   2.130   2.740   0.106
  841SOL    HW2 2534   1.980   2.761   0.092
  842SOL     OW 2535   2.458   2.580   2.128
  842SOL    HW1 2536   2.464   2.658   2.073
  842SOL    HW2 2537   2.392   2.603   2.194
  843SOL     OW 2538   2.895   2.578   2.275
  843SOL    HW1 2539   2.924   2.567   2.365
  843SOL    HW2 2540   2.817   2.523   2.268
  844SOL     OW 2541   1.946   2.683   2.638
  844SOL    HW1 2542   2.029   2.670   2.685
  844SOL    HW2 2543   1.910   2.763   2.675
  845SOL     OW 2544   2.749   2.204   2.060
  845SOL    HW1 2545   2.788   2.267   2.000
  845SOL    HW2 2546   2.755   2.120   2.015
  846SOL     OW 2547   2.413   2.048   2.765
  846SOL    HW1 2548   2.381   2.083   2.848
  846SOL    HW2 2549   2.420   2.125   2.708
  847SOL     OW 2550   2.250   2.556   2.337
  847SOL    HW1 2551   2.275   2.464   2.347
  847SOL    HW2 2552   2.157   2.558   2.358
  848SOL     OW 2553   2.495   1.989   1.966
  848SOL    HW1 2554   2.562   1.922   1.982
  848SOL    HW2 2555   2.445   1.956   1.891
  849SOL     OW 2556   2.785   2.376   2.756
  849SOL    HW1 2557   2.761   2.354   2.667
  849SOL    HW2 2558   2.814   2.294   2.795
  850SOL     OW 2559   2.410   1.925   2.368
  850SOL    HW1 2560   2.328   1.926   2.418
  850SOL    HW2 2561   2.404   2.004   2.313
  851SOL     OW 2562   2.154   1.910   2.048
  851SOL    HW1 2563   2.212   1.974   2.008
  851SOL    HW2 2564   2.213   1.845   2.086
  852SOL     OW 2565   2.804   2.103   2.318
  852SOL    HW1 2566   2.767   2.149   2.243
  852SOL    HW2 2567   2.892   2.077   2.289
  853SOL     OW 2568   2.887   2.414   1.877
  853SOL    HW1 2569   2.840   2.494   1.856
  853SOL    HW2 2570   2.935   2.435   1.958
  854SOL     OW 2571   2.742   2.318   2.495
  854SOL    HW1 2572   2.683   2.378   2.448
  854SOL    HW2 2573   2.742   2.238   2.442
  855SOL     OW 2574   2.856   1.924   2.611
  855SOL    HW1 2575   2.807   1.897   2.533
  855SOL    HW2 2576   2.853   1.848   2.669
  856SOL     OW 2577   2.390   2.124   2.183
  856SOL    HW1 2578   2.429   2.076   2.110
  856SOL    HW2 2579   2.369   2.210   2.146
  857SOL     OW 2580   2.418   2.394   2.724
  857SOL    HW1 2581   2.432   2.451   2.648
  857SOL    HW2 2582   2.477   2.427   2.791
  858SOL     OW 2583   2.433   2.729   2.885
  858SOL    HW1 2584   2.479   2.806   2.854
  858SOL    HW2 2585   2.423   2.743   2.979
  859SOL     OW 2586   0.055   2.391   2.138
  859SOL    HW1 2587   0.087   2.318   2.190
  859SOL    HW2 2588   0.017   2.452   2.202
  860SOL     OW 2589   2.158   2.070   0.092
  860SOL    HW1 2590   2.190   2.101   0.177
  860SOL    HW2 2591   2.153   1.975   0.103
  861SOL     OW 2592   2.591   2.499   2.914
  861SOL    HW1 2593   2.662   2.480   2.853
  861SOL    HW2 2594   2.560   2.586   2.888
  862SOL     OW 2595   2.163   1.928   2.483
  862SOL    HW1 2596   2.145   2.019   2.509
  862SOL    HW2 2597   2.168   1.880   2.566
  863SOL     OW 2598   2.871   2.633   2.825
  863SOL    HW1 2599   2.894   2.634   2.918
  863SOL    HW2 2600   2.868   2.540   2.802
  864SOL     OW 2601   2.170   2.673   2.809
  864SOL    HW1 2602   2.264   2.694   2.812
  864SOL    HW2 2603   2.166   2.582   2.838
  865SOL     OW 2604   2.184   2.396   2.866
  865SOL    HW1 2605   2.149   2.307   2.858
  865SOL    HW2 2606   2.265   2.394   2.814
  866SOL     OW 2607   2.876   2.641   0.095
  866SOL    HW1 2608   2.916   2.634   0.182
  866SOL    HW2 2609   2.787   2.670   0.113
  867SOL     OW 2610   2.675   2.429   2.217
  867SOL    HW1 2611   2.673   2.353   2.159
  867SOL    HW2 2612   2.600   2.482   2.189
  868SOL     OW 2613   2.567   2.308   0.101
  868SOL    HW1 2614   2.479   2.272   0.091
  868SOL    HW2 2615   2.570   2.380   0.038
  869SOL     OW 2616   2.331   2.353   2.050
  869SOL    HW1 2617   2.386   2.429   2.073
  869SOL    HW2 2618   2.244   2.389   2.038
  870SOL     OW 2619   0.165   2.703   2.163
  870SOL    HW1 2620   0.106   2.647   2.214
  870SOL    HW2 2621   0.196   2.646   2.092
  871SOL     OW 2622   2.127   2.180   2.578
  871SOL    HW1 2623   2.042   2.216   2.553
  871SOL    HW2 2624   2.123   2.171   2.673
  872SOL     OW 2625   2.759   2.764   2.113
  872SOL    HW1 2626   2.835   2.815   2.089
  872SOL    HW2 2627   2.790   2.705   2.182
  873SOL     OW 2628   2.876   2.101   2.819
  873SOL    HW1 2629   2.872   2.056   2.734
  873SOL    HW2 2630   2.896   2.031   2.882
  874SOL     OW 2631   1.939   2.197   1.898
  874SOL    HW1 2632   1.852   2.176   1.862
  874SOL    HW2 2633   1.968   2.273   1.846
  875SOL     OW 2634   1.933   2.021   2.176
  875SOL    HW1 2635   1.918   2.100   2.124
  875SOL    HW2 2636   2.017   1.988   2.145
  876SOL     OW 2637   2.457   2.584   2.522
  876SOL    HW1 2638   2.482   2.675   2.532
  876SOL    HW2 2639   2.384   2.586   2.460
  877SOL     OW 2640   2.741   2.832   2.713
  877SOL    HW1 2641   2.784   2.755   2.750
  877SOL    HW2 2642   2.707   2.879   2.789
  878SOL     OW 2643   2.950   2.833   1.900
  878SOL    HW1 2644   2.916   2.922   1.909
  878SOL    HW2 2645   0.011   2.823   1.973
  879SOL     OW 2646   2.293   2.295   2.387
  879SOL    HW1 2647   2.319   2.222   2.330
  879SOL    HW2 2648   2.245   2.253   2.458
  880SOL     OW 2649   1.886   2.920   2.174
  880SOL    HW1 2650   1.971   2.930   2.132
  880SOL    HW2 2651   1.880   2.827   2.196
   3.00000   3.00000   3.00000
