UNNAMED in water
 2646
    1TRP      N    1   1.192   1.477   1.640
    1TRP     H1    2   1.138   1.493   1.553
    1TRP     H2    3   1.166   1.385   1.683
    1TRP     H3    4   1.166   1.549   1.712
    1TRP     CA    5   1.339   1.480   1.622
    1TRP     HA    6   1.366   1.396   1.561
    1TRP     CB    7   1.386   1.613   1.556
    1TRP    HB1    8   1.325   1.635   1.466
    1TRP    HB2    9   1.374   1.696   1.629
    1TRP     CG   10   1.531   1.612   1.513
    1TRP    CD1   11   1.641   1.676   1.563
    1TRP    HD1   12   1.638   1.747   1.645
    1TRP    NE1   13   1.756   1.634   1.498
    1TRP    HE1   14   1.848   1.659   1.519
    1TRP    CE2   15   1.718   1.540   1.404
    1TRP    CD2   16   1.580   1.523   1.412
    1TRP    CE3   17   1.513   1.431   1.332
    1TRP    HE3   18   1.408   1.414   1.342
    1TRP    CZ3   19   1.588   1.359   1.239
    1TRP    HZ3   20   1.535   1.292   1.174
    1TRP    CZ2   21   1.795   1.467   1.314
    1TRP    HZ2   22   1.901   1.478   1.308
    1TRP    CH2   23   1.726   1.377   1.230
    1TRP    HH2   24   1.781   1.319   1.159
    1TRP      C   25   1.411   1.467   1.757
    1TRP    OT1   26   1.347   1.485   1.863
    1TRP    OT2   27   1.536   1.449   1.755
    2SOL     OW   28   0.236   0.661   0.105
    2SOL    HW1   29   0.169   0.613   0.155
    2SOL    HW2   30   0.250   0.607   0.027
    3SOL     OW   31   0.205   0.271   1.000
    3SOL    HW1   32   0.243   0.247   1.085
    3SOL    HW2   33   0.111   0.253   1.010
    4SOL     OW   34   0.008   0.386   0.658
    4SOL    HW1   35   2.925   0.426   0.685
    4SOL    HW2   36   2.983   0.314   0.601
    5SOL     OW   37   0.569   1.282   1.171
    5SOL    HW1   38   0.479   1.280   1.139
    5SOL    HW2   39   0.579   1.371   1.207
    6SOL     OW   40   1.559   1.511   0.702
    6SOL    HW1   41   1.516   1.494   0.786
    6SOL    HW2   42   1.487   1.517   0.639
    7SOL     OW   43   1.131   0.699   0.702
    7SOL    HW1   44   1.180   0.780   0.691
    7SOL    HW2   45   1.082   0.713   0.784
    8SOL     OW   46   1.766   0.594   0.232
    8SOL    HW1   47   1.744   0.580   0.140
    8SOL    HW2   48   1.727   0.519   0.277
    9SOL     OW   49   0.763   1.146   1.039
    9SOL    HW1   50   0.691   1.177   1.093
    9SOL    HW2   51   0.793   1.224   0.991
   10SOL     OW   52   0.856   0.784   1.819
   10SOL    HW1   53   0.860   0.853   1.884
   10SOL    HW2   54   0.885   0.825   1.738
   11SOL     OW   55   0.686   1.007   0.650
   11SOL    HW1   56   0.749   0.993   0.721
   11SOL    HW2   57   0.615   1.056   0.691
   12SOL     OW   58   0.706   1.153   1.809
   12SOL    HW1   59   0.754   1.233   1.832
   12SOL    HW2   60   0.621   1.183   1.777
   13SOL     OW   61   0.332   1.430   1.071
   13SOL    HW1   62   0.266   1.383   1.021
   13SOL    HW2   63   0.383   1.477   1.005
   14SOL     OW   64   0.450   0.402   1.493
   14SOL    HW1   65   0.524   0.341   1.496
   14SOL    HW2   66   0.373   0.346   1.506
   15SOL     OW   67   1.612   0.456   0.735
   15SOL    HW1   68   1.536   0.482   0.682
   15SOL    HW2   69   1.629   0.532   0.791
   16SOL     OW   70   0.219   1.715   0.480
   16SOL    HW1   71   0.241   1.797   0.525
   16SOL    HW2   72   0.288   1.704   0.415
   17SOL     OW   73   0.248   1.450   0.530
   17SOL    HW1   74   0.211   1.538   0.526
   17SOL    HW2   75   0.187   1.400   0.585
   18SOL     OW   76   0.257   1.082   0.892
   18SOL    HW1   77   0.253   0.996   0.933
   18SOL    HW2   78   0.196   1.136   0.943
   19SOL     OW   79   0.622   1.788   1.437
   19SOL    HW1   80   0.536   1.770   1.476
   19SOL    HW2   81   0.638   1.880   1.457
   20SOL     OW   82   0.591   0.975   0.148
   20SOL    HW1   83   0.606   1.048   0.088
   20SOL    HW2   84   0.632   1.004   0.230
   21SOL     OW   85   1.550   0.144   1.461
   21SOL    HW1   86   1.589   0.217   1.412
   21SOL    HW2   87   1.619   0.116   1.522
   22SOL     OW   88   0.123   0.628   0.571
   22SOL    HW1   89   0.083   0.551   0.611
   22SOL    HW2   90   0.119   0.695   0.638
   23SOL     OW   91   1.844   1.760   0.336
   23SOL    HW1   92   1.900   1.727   0.406
   23SOL    HW2   93   1.870   1.851   0.325
   24SOL     OW   94   0.021   1.599   0.116
   24SOL    HW1   95   0.020   1.505   0.131
   24SOL    HW2   96   2.989   1.636   0.198
   25SOL     OW   97   1.692   0.921   0.639
   25SOL    HW1   98   1.775   0.878   0.617
   25SOL    HW2   99   1.669   0.970   0.560
   26SOL     OW  100   1.646   1.108   0.432
   26SOL    HW1  101   1.731   1.114   0.389
   26SOL    HW2  102   1.651   1.168   0.506
   27SOL     OW  103   0.128   0.747   1.590
   27SOL    HW1  104   0.223   0.758   1.596
   27SOL    HW2  105   0.094   0.836   1.590
   28SOL     OW  106   0.612   1.381   0.735
   28SOL    HW1  107   0.565   1.298   0.744
   28SOL    HW2  108   0.595   1.410   0.645
   29SOL     OW  109   1.279   1.211   1.432
   29SOL    HW1  110   1.308   1.151   1.363
   29SOL    HW2  111   1.340   1.197   1.503
   30SOL     OW  112   0.819   0.011   0.512
   30SOL    HW1  113   0.848   0.101   0.497
   30SOL    HW2  114   0.724   0.014   0.499
   31SOL     OW  115   0.188   0.958   1.273
   31SOL    HW1  116   0.273   0.918   1.251
   31SOL    HW2  117   0.125   0.912   1.219
   32SOL     OW  118   1.507   1.006   0.209
   32SOL    HW1  119   1.442   0.946   0.246
   32SOL    HW2  120   1.560   1.033   0.284
   33SOL     OW  121   1.164   1.824   1.616
   33SOL    HW1  122   1.180   1.899   1.558
   33SOL    HW2  123   1.180   1.747   1.562
   34SOL     OW  124   0.331   0.253   1.795
   34SOL    HW1  125   0.382   0.329   1.821
   34SOL    HW2  126   0.248   0.263   1.841
   35SOL     OW  127   1.453   1.423   0.935
   35SOL    HW1  128   1.395   1.438   1.010
   35SOL    HW2  129   1.446   1.329   0.919
   36SOL     OW  130   1.664   1.732   0.577
   36SOL    HW1  131   1.638   1.705   0.489
   36SOL    HW2  132   1.635   1.660   0.633
   37SOL     OW  133   0.591   0.720   0.265
   37SOL    HW1  134   0.601   0.802   0.218
   37SOL    HW2  135   0.529   0.740   0.335
   38SOL     OW  136   1.286   0.342   0.930
   38SOL    HW1  137   1.194   0.316   0.938
   38SOL    HW2  138   1.331   0.292   0.998
   39SOL     OW  139   1.583   1.667   0.310
   39SOL    HW1  140   1.672   1.702   0.302
   39SOL    HW2  141   1.557   1.647   0.220
   40SOL     OW  142   0.793   0.617   1.455
   40SOL    HW1  143   0.765   0.595   1.544
   40SOL    HW2  144   0.751   0.553   1.399
   41SOL     OW  145   1.397   0.478   1.677
   41SOL    HW1  146   1.397   0.521   1.762
   41SOL    HW2  147   1.455   0.402   1.688
   42SOL     OW  148   0.960   0.889   1.582
   42SOL    HW1  149   1.013   0.818   1.548
   42SOL    HW2  150   0.911   0.921   1.507
   43SOL     OW  151   0.995   0.423   1.229
   43SOL    HW1  152   0.918   0.436   1.284
   43SOL    HW2  153   0.963   0.371   1.155
   44SOL     OW  154   1.048   0.705   0.425
   44SOL    HW1  155   1.064   0.695   0.519
   44SOL    HW2  156   0.968   0.655   0.409
   45SOL     OW  157   0.103   0.817   0.762
   45SOL    HW1  158   0.180   0.813   0.818
   45SOL    HW2  159   0.041   0.871   0.811
   46SOL     OW  160   0.139   1.834   1.572
   46SOL    HW1  161   0.125   1.814   1.664
   46SOL    HW2  162   0.053   1.862   1.540
   47SOL     OW  163   0.929   0.338   0.220
   47SOL    HW1  164   0.936   0.399   0.147
   47SOL    HW2  165   0.881   0.263   0.184
   48SOL     OW  166   1.713   0.579   1.829
   48SOL    HW1  167   1.674   0.656   1.786
   48SOL    HW2  168   1.733   0.519   1.757
   49SOL     OW  169   1.375   1.141   0.541
   49SOL    HW1  170   1.453   1.128   0.488
   49SOL    HW2  171   1.322   1.205   0.492
   50SOL     OW  172   0.514   0.195   0.914
   50SOL    HW1  173   0.536   0.211   1.006
   50SOL    HW2  174   0.547   0.272   0.868
   51SOL     OW  175   1.010   1.448   0.475
   51SOL    HW1  176   0.967   1.517   0.424
   51SOL    HW2  177   0.991   1.470   0.566
   52SOL     OW  178   0.354   1.805   0.854
   52SOL    HW1  179   0.400   1.722   0.866
   52SOL    HW2  180   0.419   1.872   0.872
   53SOL     OW  181   1.802   1.066   0.865
   53SOL    HW1  182   1.749   1.046   0.787
   53SOL    HW2  183   1.741   1.061   0.938
   54SOL     OW  184   0.320   0.950   0.233
   54SOL    HW1  185   0.411   0.957   0.205
   54SOL    HW2  186   0.293   0.863   0.204
   55SOL     OW  187   1.475   0.740   0.728
   55SOL    HW1  188   1.463   0.693   0.811
   55SOL    HW2  189   1.552   0.794   0.742
   56SOL     OW  190   0.466   1.261   1.734
   56SOL    HW1  191   0.436   1.268   1.643
   56SOL    HW2  192   0.385   1.267   1.786
   57SOL     OW  193   1.111   1.776   0.224
   57SOL    HW1  194   1.052   1.728   0.282
   57SOL    HW2  195   1.141   1.711   0.161
   58SOL     OW  196   0.200   0.296   1.495
   58SOL    HW1  197   0.116   0.342   1.492
   58SOL    HW2  198   0.186   0.224   1.555
   59SOL     OW  199   1.627   1.363   0.084
   59SOL    HW1  200   1.599   1.454   0.076
   59SOL    HW2  201   1.545   1.313   0.078
   60SOL     OW  202   0.467   1.724   0.334
   60SOL    HW1  203   0.499   1.793   0.392
   60SOL    HW2  204   0.533   1.719   0.264
   61SOL     OW  205   1.409   0.107   0.436
   61SOL    HW1  206   1.390   0.081   0.346
   61SOL    HW2  207   1.503   0.126   0.437
   62SOL     OW  208   0.266   1.797   1.233
   62SOL    HW1  209   0.302   1.723   1.282
   62SOL    HW2  210   0.228   1.758   1.155
   63SOL     OW  211   0.938   1.697   0.901
   63SOL    HW1  212   1.017   1.645   0.916
   63SOL    HW2  213   0.892   1.649   0.832
   64SOL     OW  214   0.392   0.692   0.474
   64SOL    HW1  215   0.423   0.603   0.490
   64SOL    HW2  216   0.299   0.691   0.499
   65SOL     OW  217   1.539   0.248   1.734
   65SOL    HW1  218   1.542   0.257   1.830
   65SOL    HW2  219   1.483   0.172   1.719
   66SOL     OW  220   0.610   0.110   0.107
   66SOL    HW1  221   0.705   0.110   0.119
   66SOL    HW2  222   0.597   0.143   0.018
   67SOL     OW  223   0.765   0.269   1.748
   67SOL    HW1  224   0.841   0.213   1.765
   67SOL    HW2  225   0.722   0.279   1.833
   68SOL     OW  226   0.878   1.522   1.195
   68SOL    HW1  227   0.862   1.487   1.107
   68SOL    HW2  228   0.948   1.467   1.230
   69SOL     OW  229   1.343   0.588   1.432
   69SOL    HW1  230   1.372   0.556   1.518
   69SOL    HW2  231   1.377   0.677   1.428
   70SOL     OW  232   0.813   1.398   0.935
   70SOL    HW1  233   0.896   1.390   0.889
   70SOL    HW2  234   0.747   1.396   0.866
   71SOL     OW  235   0.927   0.510   0.903
   71SOL    HW1  236   0.905   0.502   0.810
   71SOL    HW2  237   0.959   0.424   0.927
   72SOL     OW  238   0.541   0.048   0.497
   72SOL    HW1  239   0.454   0.040   0.538
   72SOL    HW2  240   0.534   0.126   0.442
   73SOL     OW  241   1.412   1.208   0.049
   73SOL    HW1  242   1.433   1.133   0.104
   73SOL    HW2  243   1.323   1.233   0.074
   74SOL     OW  244   0.300   0.082   0.196
   74SOL    HW1  245   0.382   0.131   0.190
   74SOL    HW2  246   0.328   2.990   0.201
   75SOL     OW  247   0.945   0.252   0.474
   75SOL    HW1  248   0.921   0.289   0.389
   75SOL    HW2  249   1.040   0.260   0.478
   76SOL     OW  250   1.080   0.679   1.458
   76SOL    HW1  251   1.009   0.615   1.467
   76SOL    HW2  252   1.160   0.626   1.453
   77SOL     OW  253   1.221   1.572   0.796
   77SOL    HW1  254   1.241   1.638   0.729
   77SOL    HW2  255   1.296   1.576   0.856
   78SOL     OW  256   0.467   1.147   0.739
   78SOL    HW1  257   0.395   1.128   0.799
   78SOL    HW2  258   0.430   1.133   0.651
   79SOL     OW  259   1.271   1.795   0.603
   79SOL    HW1  260   1.316   1.857   0.546
   79SOL    HW2  261   1.207   1.848   0.651
   80SOL     OW  262   1.044   0.500   0.029
   80SOL    HW1  263   1.001   0.585   0.019
   80SOL    HW2  264   1.111   0.516   0.096
   81SOL     OW  265   0.081   0.564   1.391
   81SOL    HW1  266   0.170   0.560   1.356
   81SOL    HW2  267   0.085   0.629   1.461
   82SOL     OW  268   0.579   0.214   1.177
   82SOL    HW1  269   0.613   0.165   1.252
   82SOL    HW2  270   0.485   0.225   1.196
   83SOL     OW  271   0.877   0.470   0.638
   83SOL    HW1  272   0.821   0.516   0.576
   83SOL    HW2  273   0.885   0.382   0.602
   84SOL     OW  274   0.999   0.054   0.766
   84SOL    HW1  275   0.963   0.063   0.677
   84SOL    HW2  276   0.975   2.966   0.793
   85SOL     OW  277   1.438   1.158   0.861
   85SOL    HW1  278   1.368   1.094   0.854
   85SOL    HW2  279   1.462   1.177   0.771
   86SOL     OW  280   1.469   0.601   0.980
   86SOL    HW1  281   1.419   0.520   0.987
   86SOL    HW2  282   1.529   0.599   1.055
   87SOL     OW  283   1.845   0.819   0.384
   87SOL    HW1  284   1.902   0.761   0.435
   87SOL    HW2  285   1.820   0.766   0.308
   88SOL     OW  286   0.490   1.406   0.153
   88SOL    HW1  287   0.424   1.375   0.216
   88SOL    HW2  288   0.443   1.412   0.070
   89SOL     OW  289   1.668   1.265   0.651
   89SOL    HW1  290   1.763   1.272   0.661
   89SOL    HW2  291   1.635   1.353   0.669
   90SOL     OW  292   1.413   0.576   0.098
   90SOL    HW1  293   1.341   0.567   0.161
   90SOL    HW2  294   1.461   0.493   0.104
   91SOL     OW  295   0.528   0.263   0.326
   91SOL    HW1  296   0.568   0.213   0.255
   91SOL    HW2  297   0.503   0.346   0.285
   92SOL     OW  298   1.751   1.217   1.577
   92SOL    HW1  299   1.845   1.204   1.560
   92SOL    HW2  300   1.745   1.306   1.613
   93SOL     OW  301   1.066   1.360   1.354
   93SOL    HW1  302   0.985   1.322   1.389
   93SOL    HW2  303   1.135   1.299   1.382
   94SOL     OW  304   1.127   1.211   1.109
   94SOL    HW1  305   1.055   1.232   1.168
   94SOL    HW2  306   1.093   1.231   1.021
   95SOL     OW  307   1.632   1.084   1.070
   95SOL    HW1  308   1.627   1.148   1.141
   95SOL    HW2  309   1.553   1.099   1.019
   96SOL     OW  310   0.901   0.109   1.389
   96SOL    HW1  311   0.941   0.091   1.303
   96SOL    HW2  312   0.966   0.162   1.434
   97SOL     OW  313   0.982   1.128   1.710
   97SOL    HW1  314   0.891   1.131   1.740
   97SOL    HW2  315   0.989   1.044   1.664
   98SOL     OW  316   0.704   1.062   0.378
   98SOL    HW1  317   0.690   1.049   0.472
   98SOL    HW2  318   0.784   1.013   0.359
   99SOL     OW  319   0.419   0.812   1.248
   99SOL    HW1  320   0.487   0.823   1.315
   99SOL    HW2  321   0.383   0.725   1.265
  100SOL     OW  322   1.272   0.388   1.259
  100SOL    HW1  323   1.300   0.459   1.317
  100SOL    HW2  324   1.178   0.401   1.248
  101SOL     OW  325   0.068   1.572   1.309
  101SOL    HW1  326   0.026   1.654   1.336
  101SOL    HW2  327   0.155   1.575   1.349
  102SOL     OW  328   0.361   1.109   0.490
  102SOL    HW1  329   0.349   1.183   0.431
  102SOL    HW2  330   0.355   1.031   0.435
  103SOL     OW  331   0.554   0.541   0.862
  103SOL    HW1  332   0.573   0.596   0.786
  103SOL    HW2  333   0.618   0.569   0.928
  104SOL     OW  334   1.248   1.346   0.396
  104SOL    HW1  335   1.302   1.419   0.423
  104SOL    HW2  336   1.160   1.369   0.426
  105SOL     OW  337   1.266   1.454   1.134
  105SOL    HW1  338   1.301   1.452   1.223
  105SOL    HW2  339   1.212   1.375   1.128
  106SOL     OW  340   1.584   0.627   0.478
  106SOL    HW1  341   1.539   0.684   0.540
  106SOL    HW2  342   1.629   0.687   0.418
  107SOL     OW  343   0.350   1.527   1.322
  107SOL    HW1  344   0.331   1.486   1.238
  107SOL    HW2  345   0.445   1.538   1.322
  108SOL     OW  346   0.411   0.741   1.601
  108SOL    HW1  347   0.468   0.791   1.543
  108SOL    HW2  348   0.459   0.660   1.618
  109SOL     OW  349   1.598   0.774   1.678
  109SOL    HW1  350   1.511   0.814   1.673
  109SOL    HW2  351   1.649   0.820   1.611
  110SOL     OW  352   1.003   0.110   1.762
  110SOL    HW1  353   1.046   0.192   1.737
  110SOL    HW2  354   1.027   0.048   1.692
  111SOL     OW  355   0.503   0.051   1.750
  111SOL    HW1  356   0.471   2.991   1.682
  111SOL    HW2  357   0.434   0.117   1.758
  112SOL     OW  358   0.584   0.871   1.031
  112SOL    HW1  359   0.609   0.964   1.027
  112SOL    HW2  360   0.526   0.866   1.107
  113SOL     OW  361   1.360   0.859   1.033
  113SOL    HW1  362   1.279   0.850   0.983
  113SOL    HW2  363   1.397   0.771   1.033
  114SOL     OW  364   1.206   0.531   0.271
  114SOL    HW1  365   1.214   0.450   0.322
  114SOL    HW2  366   1.164   0.593   0.332
  115SOL     OW  367   0.324   0.207   1.248
  115SOL    HW1  368   0.290   0.251   1.326
  115SOL    HW2  369   0.274   0.125   1.242
  116SOL     OW  370   0.034   1.305   1.279
  116SOL    HW1  371   0.068   1.259   1.356
  116SOL    HW2  372   0.044   1.398   1.300
  117SOL     OW  373   0.727   0.632   1.060
  117SOL    HW1  374   0.799   0.614   1.000
  117SOL    HW2  375   0.698   0.721   1.038
  118SOL     OW  376   1.736   0.956   1.854
  118SOL    HW1  377   1.685   0.909   1.788
  118SOL    HW2  378   1.674   0.971   1.926
  119SOL     OW  379   0.308   0.069   0.641
  119SOL    HW1  380   0.304   0.156   0.683
  119SOL    HW2  381   0.284   0.008   0.711
  120SOL     OW  382   1.614   0.373   0.368
  120SOL    HW1  383   1.645   0.309   0.432
  120SOL    HW2  384   1.589   0.449   0.420
  121SOL     OW  385   1.027   0.760   0.963
  121SOL    HW1  386   1.027   0.777   1.057
  121SOL    HW2  387   1.000   0.668   0.955
  122SOL     OW  388   0.948   1.575   1.714
  122SOL    HW1  389   0.937   1.625   1.633
  122SOL    HW2  390   0.907   1.490   1.697
  123SOL     OW  391   0.355   0.915   1.808
  123SOL    HW1  392   0.436   0.934   1.854
  123SOL    HW2  393   0.380   0.852   1.741
  124SOL     OW  394   1.503   0.300   0.125
  124SOL    HW1  395   1.463   0.215   0.142
  124SOL    HW2  396   1.560   0.316   0.201
  125SOL     OW  397   1.293   0.824   0.034
  125SOL    HW1  398   1.335   0.739   0.048
  125SOL    HW2  399   1.323   0.851   2.947
  126SOL     OW  400   1.067   1.333   0.854
  126SOL    HW1  401   1.068   1.262   0.790
  126SOL    HW2  402   1.127   1.399   0.818
  127SOL     OW  403   0.311   0.808   0.948
  127SOL    HW1  404   0.405   0.828   0.943
  127SOL    HW2  405   0.307   0.721   0.987
  128SOL     OW  406   0.336   0.514   1.016
  128SOL    HW1  407   0.295   0.431   0.991
  128SOL    HW2  408   0.409   0.524   0.956
  129SOL     OW  409   1.140   0.383   1.698
  129SOL    HW1  410   1.096   0.437   1.763
  129SOL    HW2  411   1.228   0.421   1.691
  130SOL     OW  412   1.100   0.255   1.471
  130SOL    HW1  413   1.122   0.306   1.549
  130SOL    HW2  414   1.185   0.236   1.430
  131SOL     OW  415   0.008   1.315   0.173
  131SOL    HW1  416   2.916   1.330   0.151
  131SOL    HW2  417   0.007   1.239   0.231
  132SOL     OW  418   0.098   1.806   0.967
  132SOL    HW1  419   0.056   1.740   0.911
  132SOL    HW2  420   0.184   1.821   0.926
  133SOL     OW  421   0.497   1.572   0.903
  133SOL    HW1  422   0.566   1.634   0.929
  133SOL    HW2  423   0.543   1.507   0.849
  134SOL     OW  424   0.988   0.797   1.229
  134SOL    HW1  425   1.041   0.769   1.304
  134SOL    HW2  426   0.902   0.758   1.244
  135SOL     OW  427   0.045   0.560   1.106
  135SOL    HW1  428   0.133   0.533   1.082
  135SOL    HW2  429   0.039   0.543   1.200
  136SOL     OW  430   0.193   0.517   1.719
  136SOL    HW1  431   0.266   0.494   1.662
  136SOL    HW2  432   0.157   0.598   1.681
  137SOL     OW  433   1.372   0.929   1.660
  137SOL    HW1  434   1.398   1.021   1.666
  137SOL    HW2  435   1.372   0.910   1.567
  138SOL     OW  436   0.819   0.577   0.347
  138SOL    HW1  437   0.821   0.498   0.294
  138SOL    HW2  438   0.737   0.620   0.323
  139SOL     OW  439   1.644   0.603   1.190
  139SOL    HW1  440   1.629   0.544   1.263
  139SOL    HW2  441   1.730   0.579   1.156
  140SOL     OW  442   0.281   1.560   1.746
  140SOL    HW1  443   0.221   1.618   1.794
  140SOL    HW2  444   0.252   1.472   1.767
  141SOL     OW  445   0.693   0.457   1.264
  141SOL    HW1  446   0.647   0.380   1.231
  141SOL    HW2  447   0.695   0.518   1.191
  142SOL     OW  448   0.947   1.676   1.461
  142SOL    HW1  449   0.911   1.643   1.379
  142SOL    HW2  450   0.935   1.771   1.456
  143SOL     OW  451   0.448   0.495   0.200
  143SOL    HW1  452   0.512   0.564   0.219
  143SOL    HW2  453   0.365   0.542   0.190
  144SOL     OW  454   0.161   1.144   1.465
  144SOL    HW1  455   0.146   1.095   1.546
  144SOL    HW2  456   0.169   1.077   1.397
  145SOL     OW  457   1.336   1.055   1.216
  145SOL    HW1  458   1.356   0.987   1.152
  145SOL    HW2  459   1.260   1.100   1.180
  146SOL     OW  460   1.307   0.851   0.311
  146SOL    HW1  461   1.229   0.821   0.359
  146SOL    HW2  462   1.284   0.840   0.219
  147SOL     OW  463   1.735   1.757   1.117
  147SOL    HW1  464   1.818   1.770   1.071
  147SOL    HW2  465   1.740   1.669   1.153
  148SOL     OW  466   1.244   1.733   1.121
  148SOL    HW1  467   1.325   1.754   1.075
  148SOL    HW2  468   1.243   1.637   1.125
  149SOL     OW  469   0.093   1.245   1.027
  149SOL    HW1  470   0.076   1.259   1.120
  149SOL    HW2  471   0.008   1.261   0.985
  150SOL     OW  472   0.667   1.668   1.726
  150SOL    HW1  473   0.612   1.745   1.730
  150SOL    HW2  474   0.722   1.682   1.649
  151SOL     OW  475   0.882   0.081   0.142
  151SOL    HW1  476   0.941   0.065   0.069
  151SOL    HW2  477   0.916   0.028   0.214
  152SOL     OW  478   1.716   0.141   0.507
  152SOL    HW1  479   1.786   0.138   0.442
  152SOL    HW2  480   1.727   0.060   0.558
  153SOL     OW  481   1.389   1.569   0.482
  153SOL    HW1  482   1.451   1.600   0.416
  153SOL    HW2  483   1.343   1.647   0.511
  154SOL     OW  484   0.124   1.799   1.843
  154SOL    HW1  485   0.082   1.729   1.894
  154SOL    HW2  486   0.182   1.842   1.906
  155SOL     OW  487   1.277   0.925   0.671
  155SOL    HW1  488   1.350   0.863   0.676
  155SOL    HW2  489   1.311   0.998   0.619
  156SOL     OW  490   0.819   1.274   1.427
  156SOL    HW1  491   0.791   1.306   1.513
  156SOL    HW2  492   0.745   1.293   1.369
  157SOL     OW  493   0.673   1.608   0.159
  157SOL    HW1  494   0.671   1.627   0.065
  157SOL    HW2  495   0.618   1.531   0.169
  158SOL     OW  496   1.849   0.157   0.967
  158SOL    HW1  497   1.854   0.075   0.918
  158SOL    HW2  498   1.767   0.197   0.940
  159SOL     OW  499   0.268   0.334   0.742
  159SOL    HW1  500   0.178   0.365   0.728
  159SOL    HW2  501   0.268   0.303   0.833
  160SOL     OW  502   1.204   1.604   0.033
  160SOL    HW1  503   1.199   1.514   0.066
  160SOL    HW2  504   1.152   1.604   2.953
  161SOL     OW  505   0.823   1.005   1.373
  161SOL    HW1  506   0.865   1.001   1.287
  161SOL    HW2  507   0.826   1.098   1.396
  162SOL     OW  508   0.919   0.926   0.304
  162SOL    HW1  509   0.985   0.962   0.244
  162SOL    HW2  510   0.967   0.860   0.354
  163SOL     OW  511   1.488   1.601   0.050
  163SOL    HW1  512   1.393   1.614   0.053
  163SOL    HW2  513   1.515   1.636   2.965
  164SOL     OW  514   0.375   1.303   1.489
  164SOL    HW1  515   0.356   1.383   1.440
  164SOL    HW2  516   0.298   1.248   1.476
  165SOL     OW  517   1.048   1.105   0.706
  165SOL    HW1  518   0.978   1.054   0.745
  165SOL    HW2  519   1.109   1.040   0.670
  166SOL     OW  520   1.018   0.243   0.965
  166SOL    HW1  521   1.011   0.191   0.884
  166SOL    HW2  522   1.020   0.177   1.035
  167SOL     OW  523   0.602   1.492   0.485
  167SOL    HW1  524   0.640   1.440   0.414
  167SOL    HW2  525   0.537   1.547   0.441
  168SOL     OW  526   1.719   0.391   1.379
  168SOL    HW1  527   1.791   0.454   1.377
  168SOL    HW2  528   1.747   0.321   1.321
  169SOL     OW  529   0.265   1.335   0.293
  169SOL    HW1  530   0.175   1.340   0.259
  169SOL    HW2  531   0.261   1.380   0.377
  170SOL     OW  532   0.125   1.012   1.707
  170SOL    HW1  533   0.050   0.973   1.753
  170SOL    HW2  534   0.201   0.978   1.754
  171SOL     OW  535   0.664   0.209   1.493
  171SOL    HW1  536   0.746   0.180   1.453
  171SOL    HW2  537   0.686   0.225   1.584
  172SOL     OW  538   0.070   0.316   0.050
  172SOL    HW1  539   2.977   0.326   0.032
  172SOL    HW2  540   0.109   0.399   0.023
  173SOL     OW  541   1.431   0.858   1.400
  173SOL    HW1  542   1.385   0.917   1.340
  173SOL    HW2  543   1.522   0.861   1.371
  174SOL     OW  544   0.038   0.186   0.291
  174SOL    HW1  545   0.045   0.244   0.215
  174SOL    HW2  546   0.126   0.149   0.301
  175SOL     OW  547   1.184   1.349   0.124
  175SOL    HW1  548   1.090   1.333   0.114
  175SOL    HW2  549   1.200   1.338   0.218
  176SOL     OW  550   0.617   0.831   1.433
  176SOL    HW1  551   0.672   0.908   1.419
  176SOL    HW2  552   0.678   0.758   1.442
  177SOL     OW  553   1.488   1.774   0.978
  177SOL    HW1  554   1.513   1.831   0.905
  177SOL    HW2  555   1.568   1.766   1.030
  178SOL     OW  556   0.715   0.566   1.708
  178SOL    HW1  557   0.752   0.633   1.766
  178SOL    HW2  558   0.758   0.485   1.734
  179SOL     OW  559   1.469   1.182   1.626
  179SOL    HW1  560   1.457   1.201   1.719
  179SOL    HW2  561   1.561   1.203   1.608
  180SOL     OW  562   0.388   1.738   1.563
  180SOL    HW1  563   0.301   1.776   1.549
  180SOL    HW2  564   0.371   1.657   1.611
  181SOL     OW  565   1.672   0.880   1.255
  181SOL    HW1  566   1.664   0.792   1.219
  181SOL    HW2  567   1.663   0.938   1.179
  182SOL     OW  568   1.226   0.317   0.454
  182SOL    HW1  569   1.287   0.244   0.453
  182SOL    HW2  570   1.249   0.367   0.532
  183SOL     OW  571   0.593   0.741   0.665
  183SOL    HW1  572   0.631   0.828   0.651
  183SOL    HW2  573   0.521   0.736   0.602
  184SOL     OW  574   1.766   0.352   1.645
  184SOL    HW1  575   1.745   0.376   1.555
  184SOL    HW2  576   1.685   0.317   1.681
  185SOL     OW  577   1.742   0.934   1.515
  185SOL    HW1  578   1.747   1.027   1.532
  185SOL    HW2  579   1.729   0.928   1.420
  186SOL     OW  580   0.905   1.386   0.061
  186SOL    HW1  581   0.832   1.387   0.123
  186SOL    HW2  582   0.868   1.417   2.978
  187SOL     OW  583   0.658   1.794   0.949
  187SOL    HW1  584   0.636   1.883   0.924
  187SOL    HW2  585   0.753   1.789   0.939
  188SOL     OW  586   0.866   0.965   0.857
  188SOL    HW1  587   0.915   0.894   0.897
  188SOL    HW2  588   0.833   1.016   0.930
  189SOL     OW  589   1.100   1.020   0.099
  189SOL    HW1  590   1.064   1.054   0.017
  189SOL    HW2  591   1.165   0.956   0.071
  190SOL     OW  592   1.853   1.557   0.853
  190SOL    HW1  593   1.779   1.549   0.793
  190SOL    HW2  594   1.861   1.470   0.892
  191SOL     OW  595   0.225   1.304   1.855
  191SOL    HW1  596   0.175   1.226   1.831
  191SOL    HW2  597   0.210   1.314   1.949
  192SOL     OW  598   0.127   1.251   0.665
  192SOL    HW1  599   0.079   1.185   0.715
  192SOL    HW2  600   0.174   1.201   0.598
  193SOL     OW  601   0.684   1.404   1.628
  193SOL    HW1  602   0.606   1.353   1.650
  193SOL    HW2  603   0.666   1.491   1.665
  194SOL     OW  604   1.798   0.178   1.235
  194SOL    HW1  605   1.842   0.101   1.271
  194SOL    HW2  606   1.823   0.180   1.143
  195SOL     OW  607   0.461   0.433   0.544
  195SOL    HW1  608   0.453   0.371   0.473
  195SOL    HW2  609   0.403   0.399   0.613
  196SOL     OW  610   0.331   0.554   1.290
  196SOL    HW1  611   0.387   0.499   1.345
  196SOL    HW2  612   0.351   0.526   1.201
  197SOL     OW  613   0.825   1.577   0.679
  197SOL    HW1  614   0.819   1.625   0.597
  197SOL    HW2  615   0.746   1.523   0.682
  198SOL     OW  616   1.428   0.215   1.127
  198SOL    HW1  617   1.451   0.145   1.188
  198SOL    HW2  618   1.379   0.277   1.180
  199SOL     OW  619   1.013   0.028   1.150
  199SOL    HW1  620   0.935   2.991   1.108
  199SOL    HW2  621   1.081   2.962   1.136
  200SOL     OW  622   0.765   1.329   0.313
  200SOL    HW1  623   0.733   1.240   0.328
  200SOL    HW2  624   0.852   1.330   0.352
  201SOL     OW  625   0.621   1.558   1.284
  201SOL    HW1  626   0.623   1.640   1.335
  201SOL    HW2  627   0.708   1.553   1.244
  202SOL     OW  628   1.357   0.056   0.171
  202SOL    HW1  629   1.412   2.984   0.140
  202SOL    HW2  630   1.267   0.025   0.156
  203SOL     OW  631   1.298   0.460   0.682
  203SOL    HW1  632   1.242   0.537   0.691
  203SOL    HW2  633   1.295   0.419   0.769
  204SOL     OW  634   1.605   0.230   0.887
  204SOL    HW1  635   1.525   0.228   0.938
  204SOL    HW2  636   1.595   0.306   0.829
  205SOL     OW  637   0.070   1.089   0.342
  205SOL    HW1  638   0.148   1.051   0.302
  205SOL    HW2  639   0.004   1.020   0.337
  206SOL     OW  640   0.881   1.651   0.345
  206SOL    HW1  641   0.811   1.629   0.284
  206SOL    HW2  642   0.848   1.726   0.395
  207SOL     OW  643   0.239   0.647   1.973
  207SOL    HW1  644   0.171   0.609   2.028
  207SOL    HW2  645   0.227   0.605   1.887
  208SOL     OW  646   0.236   0.248   2.850
  208SOL    HW1  647   0.252   0.236   2.944
  208SOL    HW2  648   0.141   0.238   2.840
  209SOL     OW  649   0.007   0.385   2.522
  209SOL    HW1  650   2.923   0.424   2.546
  209SOL    HW2  651   2.985   0.313   2.463
  210SOL     OW  652   1.557   1.510   2.567
  210SOL    HW1  653   1.510   1.493   2.649
  210SOL    HW2  654   1.489   1.516   2.500
  211SOL     OW  655   1.133   0.698   2.566
  211SOL    HW1  656   1.183   0.778   2.551
  211SOL    HW2  657   1.083   0.715   2.646
  212SOL     OW  658   1.765   0.606   2.094
  212SOL    HW1  659   1.746   0.599   2.000
  212SOL    HW2  660   1.731   0.525   2.131
  213SOL     OW  661   0.751   1.145   2.895
  213SOL    HW1  662   0.684   1.191   2.946
  213SOL    HW2  663   0.803   1.215   2.855
  214SOL     OW  664   0.684   1.008   2.510
  214SOL    HW1  665   0.749   0.993   2.579
  214SOL    HW2  666   0.614   1.057   2.553
  215SOL     OW  667   0.330   1.452   2.933
  215SOL    HW1  668   0.278   1.387   2.886
  215SOL    HW2  669   0.386   1.491   2.866
  216SOL     OW  670   1.615   0.456   2.593
  216SOL    HW1  671   1.540   0.480   2.539
  216SOL    HW2  672   1.617   0.522   2.662
  217SOL     OW  673   0.221   1.712   2.347
  217SOL    HW1  674   0.242   1.795   2.388
  217SOL    HW2  675   0.279   1.707   2.271
  218SOL     OW  676   0.250   1.446   2.388
  218SOL    HW1  677   0.217   1.536   2.388
  218SOL    HW2  678   0.188   1.398   2.444
  219SOL     OW  679   0.238   1.084   2.749
  219SOL    HW1  680   0.257   1.003   2.796
  219SOL    HW2  681   0.193   1.139   2.812
  220SOL     OW  682   0.587   0.981   1.995
  220SOL    HW1  683   0.631   1.031   1.926
  220SOL    HW2  684   0.630   1.008   2.075
  221SOL     OW  685   0.130   0.624   2.435
  221SOL    HW1  686   0.084   0.549   2.474
  221SOL    HW2  687   0.122   0.693   2.501
  222SOL     OW  688   1.842   1.761   2.200
  222SOL    HW1  689   1.903   1.732   2.269
  222SOL    HW2  690   1.869   1.851   2.181
  223SOL     OW  691   0.031   1.598   1.998
  223SOL    HW1  692   0.021   1.503   2.006
  223SOL    HW2  693   2.977   1.634   2.069
  224SOL     OW  694   1.689   0.917   2.498
  224SOL    HW1  695   1.775   0.880   2.479
  224SOL    HW2  696   1.667   0.969   2.421
  225SOL     OW  697   1.645   1.106   2.294
  225SOL    HW1  698   1.727   1.118   2.247
  225SOL    HW2  699   1.649   1.168   2.367
  226SOL     OW  700   0.609   1.380   2.593
  226SOL    HW1  701   0.562   1.297   2.602
  226SOL    HW2  702   0.593   1.407   2.503
  227SOL     OW  703   0.820   0.010   2.372
  227SOL    HW1  704   0.850   0.099   2.353
  227SOL    HW2  705   0.725   0.013   2.360
  228SOL     OW  706   1.535   0.986   2.063
  228SOL    HW1  707   1.463   0.931   2.092
  228SOL    HW2  708   1.571   1.023   2.144
  229SOL     OW  709   1.435   1.422   2.801
  229SOL    HW1  710   1.415   1.420   2.895
  229SOL    HW2  711   1.443   1.330   2.777
  230SOL     OW  712   1.660   1.734   2.441
  230SOL    HW1  713   1.637   1.706   2.353
  230SOL    HW2  714   1.636   1.660   2.497
  231SOL     OW  715   0.596   0.723   2.125
  231SOL    HW1  716   0.606   0.802   2.073
  231SOL    HW2  717   0.532   0.746   2.192
  232SOL     OW  718   1.294   0.335   2.808
  232SOL    HW1  719   1.199   0.323   2.801
  232SOL    HW2  720   1.317   0.297   2.893
  233SOL     OW  721   1.584   1.671   2.177
  233SOL    HW1  722   1.674   1.704   2.172
  233SOL    HW2  723   1.557   1.661   2.086
  234SOL     OW  724   1.048   0.698   2.290
  234SOL    HW1  725   1.063   0.691   2.384
  234SOL    HW2  726   0.967   0.651   2.275
  235SOL     OW  727   0.104   0.816   2.624
  235SOL    HW1  728   0.182   0.813   2.679
  235SOL    HW2  729   0.047   0.880   2.668
  236SOL     OW  730   0.872   0.353   2.046
  236SOL    HW1  731   0.931   0.412   2.001
  236SOL    HW2  732   0.908   0.266   2.030
  237SOL     OW  733   1.375   1.143   2.404
  237SOL    HW1  734   1.453   1.128   2.350
  237SOL    HW2  735   1.323   1.205   2.354
  238SOL     OW  736   0.557   0.197   2.834
  238SOL    HW1  737   0.506   0.269   2.872
  238SOL    HW2  738   0.575   0.225   2.744
  239SOL     OW  739   1.007   1.446   2.336
  239SOL    HW1  740   0.967   1.519   2.288
  239SOL    HW2  741   0.994   1.468   2.428
  240SOL     OW  742   0.353   1.800   2.713
  240SOL    HW1  743   0.400   1.718   2.728
  240SOL    HW2  744   0.415   1.869   2.737
  241SOL     OW  745   1.805   1.059   2.720
  241SOL    HW1  746   1.745   1.044   2.647
  241SOL    HW2  747   1.749   1.061   2.797
  242SOL     OW  748   0.315   0.949   2.107
  242SOL    HW1  749   0.398   0.976   2.066
  242SOL    HW2  750   0.295   0.864   2.067
  243SOL     OW  751   1.473   0.743   2.588
  243SOL    HW1  752   1.470   0.690   2.668
  243SOL    HW2  753   1.554   0.793   2.597
  244SOL     OW  754   1.123   1.769   2.088
  244SOL    HW1  755   1.055   1.736   2.145
  244SOL    HW2  756   1.124   1.709   2.013
  245SOL     OW  757   1.621   1.369   1.988
  245SOL    HW1  758   1.605   1.439   1.924
  245SOL    HW2  759   1.562   1.298   1.960
  246SOL     OW  760   0.467   1.740   2.182
  246SOL    HW1  761   0.506   1.795   2.250
  246SOL    HW2  762   0.540   1.712   2.127
  247SOL     OW  763   1.408   0.109   2.296
  247SOL    HW1  764   1.392   0.078   2.207
  247SOL    HW2  765   1.502   0.128   2.298
  248SOL     OW  766   0.264   1.799   0.099
  248SOL    HW1  767   0.301   1.728   0.152
  248SOL    HW2  768   0.205   1.755   0.038
  249SOL     OW  769   0.942   1.692   2.757
  249SOL    HW1  770   1.022   1.639   2.761
  249SOL    HW2  771   0.887   1.649   2.692
  250SOL     OW  772   0.392   0.693   2.338
  250SOL    HW1  773   0.425   0.604   2.352
  250SOL    HW2  774   0.300   0.689   2.361
  251SOL     OW  775   0.624   0.120   1.976
  251SOL    HW1  776   0.715   0.088   1.969
  251SOL    HW2  777   0.587   0.102   1.889
  252SOL     OW  778   0.805   1.400   2.790
  252SOL    HW1  779   0.891   1.392   2.751
  252SOL    HW2  780   0.744   1.393   2.717
  253SOL     OW  781   0.920   0.519   2.759
  253SOL    HW1  782   0.903   0.499   2.667
  253SOL    HW2  783   0.951   0.436   2.795
  254SOL     OW  784   0.544   0.060   2.367
  254SOL    HW1  785   0.456   0.043   2.401
  254SOL    HW2  786   0.533   0.130   2.303
  255SOL     OW  787   1.424   1.178   1.894
  255SOL    HW1  788   1.449   1.112   1.959
  255SOL    HW2  789   1.347   1.220   1.932
  256SOL     OW  790   0.291   0.034   2.050
  256SOL    HW1  791   0.343   0.109   2.021
  256SOL    HW2  792   0.355   2.972   2.084
  257SOL     OW  793   0.938   0.253   2.325
  257SOL    HW1  794   0.910   0.298   2.245
  257SOL    HW2  795   1.033   0.264   2.326
  258SOL     OW  796   1.219   1.585   2.670
  258SOL    HW1  797   1.244   1.641   2.596
  258SOL    HW2  798   1.301   1.568   2.716
  259SOL     OW  799   0.462   1.146   2.602
  259SOL    HW1  800   0.389   1.129   2.662
  259SOL    HW2  801   0.426   1.129   2.515
  260SOL     OW  802   1.271   1.796   2.466
  260SOL    HW1  803   1.315   1.857   2.408
  260SOL    HW2  804   1.207   1.849   2.513
  261SOL     OW  805   1.023   0.550   1.884
  261SOL    HW1  806   0.984   0.635   1.865
  261SOL    HW2  807   1.089   0.568   1.951
  262SOL     OW  808   0.874   0.467   2.497
  262SOL    HW1  809   0.823   0.515   2.432
  262SOL    HW2  810   0.886   0.380   2.459
  263SOL     OW  811   0.999   0.048   2.624
  263SOL    HW1  812   0.965   0.056   2.535
  263SOL    HW2  813   0.976   2.960   2.651
  264SOL     OW  814   1.438   1.160   2.713
  264SOL    HW1  815   1.364   1.100   2.705
  264SOL    HW2  816   1.465   1.177   2.622
  265SOL     OW  817   1.489   0.585   2.820
  265SOL    HW1  818   1.424   0.514   2.826
  265SOL    HW2  819   1.509   0.607   2.911
  266SOL     OW  820   1.849   0.818   2.245
  266SOL    HW1  821   1.906   0.764   2.300
  266SOL    HW2  822   1.818   0.759   2.177
  267SOL     OW  823   0.492   1.412   2.025
  267SOL    HW1  824   0.416   1.383   2.075
  267SOL    HW2  825   0.468   1.398   1.934
  268SOL     OW  826   1.668   1.265   2.512
  268SOL    HW1  827   1.763   1.271   2.523
  268SOL    HW2  828   1.636   1.353   2.531
  269SOL     OW  829   1.394   0.570   1.933
  269SOL    HW1  830   1.333   0.553   2.005
  269SOL    HW2  831   1.478   0.538   1.964
  270SOL     OW  832   0.526   0.263   2.183
  270SOL    HW1  833   0.565   0.211   2.113
  270SOL    HW2  834   0.508   0.348   2.143
  271SOL     OW  835   1.648   1.104   2.931
  271SOL    HW1  836   1.647   1.171   3.000
  271SOL    HW2  837   1.562   1.112   2.889
  272SOL     OW  838   0.707   1.060   2.234
  272SOL    HW1  839   0.695   1.046   2.328
  272SOL    HW2  840   0.784   1.007   2.212
  273SOL     OW  841   0.351   1.107   2.354
  273SOL    HW1  842   0.356   1.180   2.292
  273SOL    HW2  843   0.357   1.029   2.299
  274SOL     OW  844   0.546   0.546   2.731
  274SOL    HW1  845   0.568   0.593   2.651
  274SOL    HW2  846   0.617   0.568   2.791
  275SOL     OW  847   1.248   1.346   2.260
  275SOL    HW1  848   1.303   1.421   2.284
  275SOL    HW2  849   1.160   1.370   2.289
  276SOL     OW  850   1.585   0.627   2.339
  276SOL    HW1  851   1.539   0.684   2.400
  276SOL    HW2  852   1.626   0.686   2.276
  277SOL     OW  853   0.576   0.872   2.880
  277SOL    HW1  854   0.617   0.955   2.856
  277SOL    HW2  855   0.551   0.883   2.972
  278SOL     OW  856   1.210   0.534   2.133
  278SOL    HW1  857   1.215   0.453   2.184
  278SOL    HW2  858   1.166   0.596   2.191
  279SOL     OW  859   0.731   0.641   2.918
  279SOL    HW1  860   0.798   0.615   2.855
  279SOL    HW2  861   0.699   0.725   2.885
  280SOL     OW  862   0.308   0.069   2.504
  280SOL    HW1  863   0.301   0.155   2.546
  280SOL    HW2  864   0.282   0.007   2.572
  281SOL     OW  865   1.606   0.373   2.233
  281SOL    HW1  866   1.647   0.312   2.295
  281SOL    HW2  867   1.589   0.452   2.284
  282SOL     OW  868   1.021   0.763   2.819
  282SOL    HW1  869   1.024   0.771   2.915
  282SOL    HW2  870   0.995   0.673   2.803
  283SOL     OW  871   1.531   0.273   1.994
  283SOL    HW1  872   1.467   0.208   2.024
  283SOL    HW2  873   1.565   0.311   2.075
  284SOL     OW  874   1.296   0.827   1.900
  284SOL    HW1  875   1.337   0.741   1.901
  284SOL    HW2  876   1.323   0.865   1.816
  285SOL     OW  877   1.052   1.347   2.698
  285SOL    HW1  878   1.063   1.265   2.650
  285SOL    HW2  879   1.128   1.400   2.674
  286SOL     OW  880   0.311   0.811   2.812
  286SOL    HW1  881   0.404   0.830   2.809
  286SOL    HW2  882   0.306   0.722   2.847
  287SOL     OW  883   0.321   0.519   2.873
  287SOL    HW1  884   0.291   0.431   2.849
  287SOL    HW2  885   0.399   0.532   2.820
  288SOL     OW  886   2.995   1.319   2.041
  288SOL    HW1  887   2.902   1.324   2.019
  288SOL    HW2  888   0.004   1.238   2.091
  289SOL     OW  889   0.094   1.819   2.810
  289SOL    HW1  890   0.057   1.740   2.770
  289SOL    HW2  891   0.184   1.821   2.779
  290SOL     OW  892   0.504   1.574   2.761
  290SOL    HW1  893   0.573   1.635   2.785
  290SOL    HW2  894   0.548   1.506   2.710
  291SOL     OW  895   0.978   0.752   0.087
  291SOL    HW1  896   1.027   0.752   0.169
  291SOL    HW2  897   0.888   0.773   0.114
  292SOL     OW  898   0.814   0.568   2.216
  292SOL    HW1  899   0.817   0.495   2.155
  292SOL    HW2  900   0.740   0.621   2.186
  293SOL     OW  901   0.699   0.438   0.092
  293SOL    HW1  902   0.604   0.428   0.097
  293SOL    HW2  903   0.712   0.515   0.036
  294SOL     OW  904   0.467   0.494   2.049
  294SOL    HW1  905   0.528   0.566   2.067
  294SOL    HW2  906   0.381   0.537   2.042
  295SOL     OW  907   1.309   0.855   2.171
  295SOL    HW1  908   1.230   0.827   2.217
  295SOL    HW2  909   1.289   0.843   2.079
  296SOL     OW  910   1.736   1.767   2.971
  296SOL    HW1  911   1.813   1.789   2.919
  296SOL    HW2  912   1.761   1.690   0.021
  297SOL     OW  913   0.073   1.247   2.902
  297SOL    HW1  914   0.047   1.275   2.990
  297SOL    HW2  915   0.002   1.277   2.845
  298SOL     OW  916   1.721   0.143   2.368
  298SOL    HW1  917   1.784   0.137   2.296
  298SOL    HW2  918   1.731   0.061   2.416
  299SOL     OW  919   1.390   1.568   2.348
  299SOL    HW1  920   1.451   1.595   2.279
  299SOL    HW2  921   1.344   1.649   2.372
  300SOL     OW  922   1.277   0.926   2.532
  300SOL    HW1  923   1.349   0.864   2.538
  300SOL    HW2  924   1.311   0.998   2.479
  301SOL     OW  925   0.672   1.616   2.017
  301SOL    HW1  926   0.676   1.628   1.922
  301SOL    HW2  927   0.619   1.537   2.029
  302SOL     OW  928   1.853   0.162   2.815
  302SOL    HW1  929   1.852   0.076   2.773
  302SOL    HW2  930   1.767   0.199   2.795
  303SOL     OW  931   0.270   0.335   2.600
  303SOL    HW1  932   0.181   0.367   2.590
  303SOL    HW2  933   0.274   0.302   2.690
  304SOL     OW  934   0.915   0.910   2.154
  304SOL    HW1  935   0.973   0.939   2.083
  304SOL    HW2  936   0.962   0.839   2.196
  305SOL     OW  937   1.507   1.684   1.914
  305SOL    HW1  938   1.437   1.618   1.918
  305SOL    HW2  939   1.568   1.650   1.848
  306SOL     OW  940   1.050   1.104   2.571
  306SOL    HW1  941   0.977   1.052   2.606
  306SOL    HW2  942   1.109   1.040   2.532
  307SOL     OW  943   1.016   0.246   2.810
  307SOL    HW1  944   1.010   0.182   2.740
  307SOL    HW2  945   1.043   0.195   2.887
  308SOL     OW  946   0.603   1.491   2.342
  308SOL    HW1  947   0.639   1.439   2.271
  308SOL    HW2  948   0.532   1.541   2.302
  309SOL     OW  949   0.254   1.345   2.144
  309SOL    HW1  950   0.160   1.344   2.128
  309SOL    HW2  951   0.263   1.384   2.231
  310SOL     OW  952   0.097   0.326   1.912
  310SOL    HW1  953   0.013   0.297   1.877
  310SOL    HW2  954   0.111   0.412   1.872
  311SOL     OW  955   0.020   0.215   2.146
  311SOL    HW1  956   0.064   0.262   2.075
  311SOL    HW2  957   0.080   0.143   2.168
  312SOL     OW  958   1.166   1.287   1.990
  312SOL    HW1  959   1.072   1.307   1.997
  312SOL    HW2  960   1.204   1.322   2.071
  313SOL     OW  961   1.504   1.780   2.830
  313SOL    HW1  962   1.518   1.832   2.751
  313SOL    HW2  963   1.585   1.788   2.879
  314SOL     OW  964   1.719   0.852   0.066
  314SOL    HW1  965   1.638   0.812   0.098
  314SOL    HW2  966   1.694   0.942   0.046
  315SOL     OW  967   1.223   0.317   2.317
  315SOL    HW1  968   1.285   0.244   2.317
  315SOL    HW2  969   1.246   0.368   2.395
  316SOL     OW  970   0.592   0.742   2.528
  316SOL    HW1  971   0.632   0.827   2.512
  316SOL    HW2  972   0.521   0.735   2.464
  317SOL     OW  973   0.851   1.377   1.893
  317SOL    HW1  974   0.818   1.378   1.983
  317SOL    HW2  975   0.874   1.469   1.875
  318SOL     OW  976   0.662   1.796   2.821
  318SOL    HW1  977   0.638   1.883   2.790
  318SOL    HW2  978   0.756   1.789   2.805
  319SOL     OW  979   0.861   0.964   2.716
  319SOL    HW1  980   0.913   0.894   2.755
  319SOL    HW2  981   0.832   1.017   2.791
  320SOL     OW  982   1.068   0.976   1.941
  320SOL    HW1  983   1.066   1.050   1.881
  320SOL    HW2  984   1.152   0.933   1.925
  321SOL     OW  985   1.856   1.558   2.711
  321SOL    HW1  986   1.780   1.544   2.655
  321SOL    HW2  987   1.862   1.477   2.763
  322SOL     OW  988   0.126   1.249   2.523
  322SOL    HW1  989   0.089   1.184   2.583
  322SOL    HW2  990   0.183   1.199   2.465
  323SOL     OW  991   1.813   0.190   0.083
  323SOL    HW1  992   1.832   0.104   0.121
  323SOL    HW2  993   1.829   0.179   2.989
  324SOL     OW  994   0.461   0.434   2.402
  324SOL    HW1  995   0.454   0.370   2.332
  324SOL    HW2  996   0.407   0.399   2.472
  325SOL     OW  997   0.819   1.584   2.539
  325SOL    HW1  998   0.817   1.623   2.452
  325SOL    HW2  999   0.743   1.525   2.541
  326SOL     OW 1000   0.776   1.330   2.166
  326SOL    HW1 1001   0.739   1.242   2.177
  326SOL    HW2 1002   0.855   1.329   2.220
  327SOL     OW 1003   1.347   0.048   2.029
  327SOL    HW1 1004   1.410   2.988   1.991
  327SOL    HW2 1005   1.266   2.997   2.036
  328SOL     OW 1006   1.298   0.456   2.548
  328SOL    HW1 1007   1.243   0.535   2.555
  328SOL    HW2 1008   1.295   0.417   2.635
  329SOL     OW 1009   1.600   0.235   2.751
  329SOL    HW1 1010   1.509   0.229   2.780
  329SOL    HW2 1011   1.601   0.309   2.689
  330SOL     OW 1012   0.063   1.081   2.161
  330SOL    HW1 1013   0.152   1.045   2.163
  330SOL    HW2 1014   0.009   1.013   2.201
  331SOL     OW 1015   0.881   1.651   2.206
  331SOL    HW1 1016   0.810   1.631   2.146
  331SOL    HW2 1017   0.851   1.727   2.256
  332SOL     OW 1018   0.235   2.517   0.099
  332SOL    HW1 1019   0.169   2.471   0.151
  332SOL    HW2 1020   0.248   2.461   0.022
  333SOL     OW 1021   0.212   2.137   0.990
  333SOL    HW1 1022   0.246   2.108   1.074
  333SOL    HW2 1023   0.125   2.096   0.983
  334SOL     OW 1024   0.015   2.248   0.646
  334SOL    HW1 1025   2.929   2.282   0.670
  334SOL    HW2 1026   2.996   2.165   0.601
  335SOL     OW 1027   1.134   2.568   0.703
  335SOL    HW1 1028   1.180   2.651   0.694
  335SOL    HW2 1029   1.081   2.578   0.782
  336SOL     OW 1030   1.762   2.455   0.228
  336SOL    HW1 1031   1.746   2.436   0.136
  336SOL    HW2 1032   1.726   2.380   0.275
  337SOL     OW 1033   0.759   0.011   1.032
  337SOL    HW1 1034   0.677   0.043   1.069
  337SOL    HW2 1035   0.784   0.076   0.967
  338SOL     OW 1036   0.866   2.640   1.822
  338SOL    HW1 1037   0.844   2.704   1.889
  338SOL    HW2 1038   0.888   2.692   1.745
  339SOL     OW 1039   0.651   2.851   0.710
  339SOL    HW1 1040   0.746   2.855   0.724
  339SOL    HW2 1041   0.629   2.933   0.666
  340SOL     OW 1042   0.473   2.272   1.489
  340SOL    HW1 1043   0.542   2.205   1.492
  340SOL    HW2 1044   0.392   2.223   1.504
  341SOL     OW 1045   1.613   2.311   0.739
  341SOL    HW1 1046   1.536   2.337   0.688
  341SOL    HW2 1047   1.635   2.388   0.791
  342SOL     OW 1048   0.215   0.315   0.464
  342SOL    HW1 1049   0.215   0.387   0.526
  342SOL    HW2 1050   0.197   0.237   0.517
  343SOL     OW 1051   0.232   2.944   0.877
  343SOL    HW1 1052   0.258   2.864   0.922
  343SOL    HW2 1053   0.202   0.002   0.948
  344SOL     OW 1054   0.615   2.833   0.148
  344SOL    HW1 1055   0.600   2.924   0.126
  344SOL    HW2 1056   0.677   2.835   0.220
  345SOL     OW 1057   1.581   1.984   1.473
  345SOL    HW1 1058   1.597   2.056   1.413
  345SOL    HW2 1059   1.582   2.024   1.560
  346SOL     OW 1060   0.119   2.496   0.565
  346SOL    HW1 1061   0.094   2.411   0.602
  346SOL    HW2 1062   0.115   2.557   0.639
  347SOL     OW 1063   1.700   2.806   0.622
  347SOL    HW1 1064   1.777   2.750   0.633
  347SOL    HW2 1065   1.693   2.819   0.528
  348SOL     OW 1066   0.128   2.608   1.588
  348SOL    HW1 1067   0.222   2.621   1.597
  348SOL    HW2 1068   0.090   2.694   1.606
  349SOL     OW 1069   0.660   0.241   0.685
  349SOL    HW1 1070   0.595   0.176   0.715
  349SOL    HW2 1071   0.611   0.297   0.625
  350SOL     OW 1072   1.303   0.052   1.446
  350SOL    HW1 1073   1.326   2.995   1.372
  350SOL    HW2 1074   1.384   0.098   1.466
  351SOL     OW 1075   0.813   1.861   0.507
  351SOL    HW1 1076   0.852   1.947   0.492
  351SOL    HW2 1077   0.719   1.879   0.515
  352SOL     OW 1078   0.190   2.835   1.256
  352SOL    HW1 1079   0.274   2.789   1.249
  352SOL    HW2 1080   0.125   2.770   1.231
  353SOL     OW 1081   1.524   2.841   0.204
  353SOL    HW1 1082   1.453   2.797   0.251
  353SOL    HW2 1083   1.588   2.862   0.272
  354SOL     OW 1084   0.336   2.112   1.806
  354SOL    HW1 1085   0.382   2.193   1.825
  354SOL    HW2 1086   0.249   2.124   1.846
  355SOL     OW 1087   0.593   2.582   0.268
  355SOL    HW1 1088   0.598   2.662   0.216
  355SOL    HW2 1089   0.527   2.601   0.335
  356SOL     OW 1090   1.280   2.211   0.933
  356SOL    HW1 1091   1.191   2.176   0.940
  356SOL    HW2 1092   1.330   2.158   0.995
  357SOL     OW 1093   0.793   2.478   1.454
  357SOL    HW1 1094   0.765   2.456   1.543
  357SOL    HW2 1095   0.751   2.412   1.399
  358SOL     OW 1096   1.393   2.335   1.678
  358SOL    HW1 1097   1.394   2.380   1.763
  358SOL    HW2 1098   1.457   2.265   1.687
  359SOL     OW 1099   0.962   2.758   1.590
  359SOL    HW1 1100   1.013   2.687   1.553
  359SOL    HW2 1101   0.909   2.790   1.517
  360SOL     OW 1102   0.991   2.275   1.240
  360SOL    HW1 1103   0.908   2.299   1.280
  360SOL    HW2 1104   0.967   2.227   1.160
  361SOL     OW 1105   1.049   2.567   0.423
  361SOL    HW1 1106   1.063   2.559   0.518
  361SOL    HW2 1107   0.968   2.519   0.407
  362SOL     OW 1108   0.102   2.670   0.768
  362SOL    HW1 1109   0.179   2.675   0.825
  362SOL    HW2 1110   0.048   2.744   0.795
  363SOL     OW 1111   0.929   2.194   0.221
  363SOL    HW1 1112   0.934   2.257   0.149
  363SOL    HW2 1113   0.894   2.114   0.181
  364SOL     OW 1114   1.711   2.439   1.828
  364SOL    HW1 1115   1.674   2.514   1.783
  364SOL    HW2 1116   1.735   2.378   1.757
  365SOL     OW 1117   0.548   2.046   0.892
  365SOL    HW1 1118   0.551   2.073   0.984
  365SOL    HW2 1119   0.551   2.127   0.842
  366SOL     OW 1120   1.796   2.908   0.867
  366SOL    HW1 1121   1.740   2.893   0.791
  366SOL    HW2 1122   1.736   2.917   0.941
  367SOL     OW 1123   1.481   2.599   0.727
  367SOL    HW1 1124   1.461   2.549   0.806
  367SOL    HW2 1125   1.553   2.657   0.753
  368SOL     OW 1126   0.234   2.163   1.507
  368SOL    HW1 1127   0.153   2.208   1.482
  368SOL    HW2 1128   0.204   2.087   1.557
  369SOL     OW 1129   1.402   1.969   0.430
  369SOL    HW1 1130   1.392   1.948   0.337
  369SOL    HW2 1131   1.497   1.979   0.442
  370SOL     OW 1132   0.388   2.556   0.474
  370SOL    HW1 1133   0.413   2.464   0.484
  370SOL    HW2 1134   0.295   2.559   0.496
  371SOL     OW 1135   1.540   2.092   1.728
  371SOL    HW1 1136   1.546   2.112   1.821
  371SOL    HW2 1137   1.475   2.021   1.723
  372SOL     OW 1138   0.626   1.983   0.117
  372SOL    HW1 1139   0.720   1.962   0.118
  372SOL    HW2 1140   0.592   1.939   0.040
  373SOL     OW 1141   0.767   2.138   1.751
  373SOL    HW1 1142   0.839   2.077   1.761
  373SOL    HW2 1143   0.715   2.127   1.831
  374SOL     OW 1144   1.340   2.451   1.433
  374SOL    HW1 1145   1.372   2.417   1.517
  374SOL    HW2 1146   1.378   2.538   1.426
  375SOL     OW 1147   0.928   2.371   0.902
  375SOL    HW1 1148   0.904   2.362   0.810
  375SOL    HW2 1149   0.960   2.285   0.927
  376SOL     OW 1150   0.548   1.924   0.506
  376SOL    HW1 1151   0.467   1.926   0.556
  376SOL    HW2 1152   0.544   2.001   0.449
  377SOL     OW 1153   0.941   2.104   0.473
  377SOL    HW1 1154   0.916   2.141   0.388
  377SOL    HW2 1155   1.036   2.115   0.477
  378SOL     OW 1156   1.078   2.545   1.458
  378SOL    HW1 1157   1.008   2.481   1.467
  378SOL    HW2 1158   1.158   2.492   1.453
  379SOL     OW 1159   1.051   2.361   0.025
  379SOL    HW1 1160   1.000   2.441   0.016
  379SOL    HW2 1161   1.110   2.378   0.098
  380SOL     OW 1162   0.087   2.415   1.400
  380SOL    HW1 1163   0.172   2.421   1.356
  380SOL    HW2 1164   0.087   2.487   1.463
  381SOL     OW 1165   0.561   2.089   1.163
  381SOL    HW1 1166   0.598   2.008   1.199
  381SOL    HW2 1167   0.470   2.088   1.191
  382SOL     OW 1168   0.871   2.322   0.639
  382SOL    HW1 1169   0.821   2.376   0.578
  382SOL    HW2 1170   0.890   2.242   0.591
  383SOL     OW 1171   1.014   1.914   0.754
  383SOL    HW1 1172   0.956   1.908   0.679
  383SOL    HW2 1173   0.993   1.838   0.807
  384SOL     OW 1174   1.426   2.994   0.872
  384SOL    HW1 1175   1.360   2.937   0.833
  384SOL    HW2 1176   1.447   0.057   0.804
  385SOL     OW 1177   1.467   2.464   0.982
  385SOL    HW1 1178   1.421   2.380   0.986
  385SOL    HW2 1179   1.529   2.461   1.055
  386SOL     OW 1180   1.832   2.667   0.390
  386SOL    HW1 1181   1.895   2.618   0.443
  386SOL    HW2 1182   1.817   2.611   0.314
  387SOL     OW 1183   1.413   2.438   0.099
  387SOL    HW1 1184   1.340   2.428   0.161
  387SOL    HW2 1185   1.462   2.356   0.105
  388SOL     OW 1186   0.521   2.124   0.326
  388SOL    HW1 1187   0.557   2.073   0.253
  388SOL    HW2 1188   0.502   2.210   0.288
  389SOL     OW 1189   1.780   0.077   1.591
  389SOL    HW1 1190   1.869   0.043   1.577
  389SOL    HW2 1191   1.793   0.161   1.634
  390SOL     OW 1192   1.625   2.956   1.075
  390SOL    HW1 1193   1.639   0.039   1.120
  390SOL    HW2 1194   1.549   2.971   1.019
  391SOL     OW 1195   0.919   1.956   1.401
  391SOL    HW1 1196   0.940   1.940   1.309
  391SOL    HW2 1197   0.997   2.000   1.435
  392SOL     OW 1198   0.415   2.679   1.253
  392SOL    HW1 1199   0.485   2.685   1.318
  392SOL    HW2 1200   0.380   2.590   1.263
  393SOL     OW 1201   1.267   2.240   1.273
  393SOL    HW1 1202   1.299   2.317   1.320
  393SOL    HW2 1203   1.178   2.263   1.247
  394SOL     OW 1204   0.556   2.398   0.861
  394SOL    HW1 1205   0.572   2.453   0.785
  394SOL    HW2 1206   0.619   2.430   0.927
  395SOL     OW 1207   1.580   2.488   0.475
  395SOL    HW1 1208   1.540   2.544   0.541
  395SOL    HW2 1209   1.636   2.546   0.424
  396SOL     OW 1210   0.412   2.599   1.603
  396SOL    HW1 1211   0.469   2.649   1.544
  396SOL    HW2 1212   0.458   2.517   1.619
  397SOL     OW 1213   1.595   2.635   1.678
  397SOL    HW1 1214   1.508   2.676   1.670
  397SOL    HW2 1215   1.648   2.679   1.612
  398SOL     OW 1216   0.993   1.985   1.762
  398SOL    HW1 1217   1.043   2.060   1.731
  398SOL    HW2 1218   1.042   1.909   1.730
  399SOL     OW 1219   0.500   1.904   1.745
  399SOL    HW1 1220   0.457   1.849   1.679
  399SOL    HW2 1221   0.440   1.977   1.758
  400SOL     OW 1222   0.592   2.729   1.038
  400SOL    HW1 1223   0.598   2.821   1.013
  400SOL    HW2 1224   0.526   2.727   1.107
  401SOL     OW 1225   1.350   2.714   1.035
  401SOL    HW1 1226   1.281   2.707   0.968
  401SOL    HW2 1227   1.394   2.629   1.033
  402SOL     OW 1228   1.205   2.395   0.272
  402SOL    HW1 1229   1.211   2.311   0.317
  402SOL    HW2 1230   1.160   2.452   0.334
  403SOL     OW 1231   0.300   2.065   1.242
  403SOL    HW1 1232   0.281   2.095   1.331
  403SOL    HW2 1233   0.284   1.971   1.244
  404SOL     OW 1234   0.055   0.170   1.269
  404SOL    HW1 1235   0.084   0.136   1.353
  404SOL    HW2 1236   0.015   0.255   1.289
  405SOL     OW 1237   0.730   2.493   1.062
  405SOL    HW1 1238   0.798   2.477   0.997
  405SOL    HW2 1239   0.698   2.581   1.041
  406SOL     OW 1240   1.736   2.818   1.846
  406SOL    HW1 1241   1.686   2.763   1.785
  406SOL    HW2 1242   1.679   2.828   1.922
  407SOL     OW 1243   0.301   1.931   0.622
  407SOL    HW1 1244   0.285   2.022   0.649
  407SOL    HW2 1245   0.308   1.882   0.704
  408SOL     OW 1246   1.618   2.234   0.369
  408SOL    HW1 1247   1.642   2.169   0.435
  408SOL    HW2 1248   1.590   2.310   0.420
  409SOL     OW 1249   1.027   2.618   0.966
  409SOL    HW1 1250   1.028   2.633   1.061
  409SOL    HW2 1251   1.000   2.527   0.956
  410SOL     OW 1252   0.356   2.786   1.798
  410SOL    HW1 1253   0.420   2.784   1.869
  410SOL    HW2 1254   0.381   2.713   1.741
  411SOL     OW 1255   1.506   2.165   0.126
  411SOL    HW1 1256   1.468   2.078   0.138
  411SOL    HW2 1257   1.559   2.180   0.204
  412SOL     OW 1258   1.295   2.685   0.037
  412SOL    HW1 1259   1.336   2.599   0.049
  412SOL    HW2 1260   1.325   2.714   2.951
  413SOL     OW 1261   0.313   2.678   0.952
  413SOL    HW1 1262   0.407   2.687   0.935
  413SOL    HW2 1263   0.303   2.589   0.986
  414SOL     OW 1264   0.337   2.378   1.014
  414SOL    HW1 1265   0.296   2.295   0.992
  414SOL    HW2 1266   0.411   2.385   0.954
  415SOL     OW 1267   1.134   2.240   1.680
  415SOL    HW1 1268   1.089   2.296   1.743
  415SOL    HW2 1269   1.223   2.276   1.676
  416SOL     OW 1270   1.161   2.065   1.472
  416SOL    HW1 1271   1.151   2.130   1.542
  416SOL    HW2 1272   1.200   2.114   1.399
  417SOL     OW 1273   0.984   2.668   1.232
  417SOL    HW1 1274   1.038   2.637   1.306
  417SOL    HW2 1275   0.902   2.619   1.241
  418SOL     OW 1276   0.048   2.441   1.116
  418SOL    HW1 1277   0.121   2.392   1.077
  418SOL    HW2 1278   0.033   2.398   1.200
  419SOL     OW 1279   0.196   2.380   1.721
  419SOL    HW1 1280   0.265   2.353   1.660
  419SOL    HW2 1281   0.160   2.460   1.682
  420SOL     OW 1282   1.378   2.807   1.661
  420SOL    HW1 1283   1.402   2.900   1.658
  420SOL    HW2 1284   1.371   2.782   1.569
  421SOL     OW 1285   0.819   2.437   0.349
  421SOL    HW1 1286   0.818   2.360   0.292
  421SOL    HW2 1287   0.739   2.484   0.326
  422SOL     OW 1288   1.643   2.464   1.190
  422SOL    HW1 1289   1.632   2.403   1.263
  422SOL    HW2 1290   1.730   2.444   1.155
  423SOL     OW 1291   0.699   2.314   1.262
  423SOL    HW1 1292   0.646   2.240   1.231
  423SOL    HW2 1293   0.696   2.377   1.190
  424SOL     OW 1294   0.440   2.358   0.208
  424SOL    HW1 1295   0.512   2.421   0.221
  424SOL    HW2 1296   0.364   2.413   0.189
  425SOL     OW 1297   0.161   0.008   1.469
  425SOL    HW1 1298   0.149   2.955   1.548
  425SOL    HW2 1299   0.173   2.943   1.399
  426SOL     OW 1300   1.351   2.908   1.221
  426SOL    HW1 1301   1.365   2.846   1.150
  426SOL    HW2 1302   1.277   2.961   1.191
  427SOL     OW 1303   1.300   2.723   0.313
  427SOL    HW1 1304   1.228   2.678   0.358
  427SOL    HW2 1305   1.289   2.700   0.221
  428SOL     OW 1306   0.898   1.937   0.124
  428SOL    HW1 1307   0.956   1.924   0.049
  428SOL    HW2 1308   0.945   1.897   0.198
  429SOL     OW 1309   1.713   2.003   0.512
  429SOL    HW1 1310   1.793   1.994   0.460
  429SOL    HW2 1311   1.701   1.917   0.553
  430SOL     OW 1312   1.293   2.795   0.683
  430SOL    HW1 1313   1.360   2.727   0.680
  430SOL    HW2 1314   1.305   2.845   0.602
  431SOL     OW 1315   1.840   2.037   0.967
  431SOL    HW1 1316   1.869   1.949   0.942
  431SOL    HW2 1317   1.753   2.045   0.929
  432SOL     OW 1318   0.268   2.180   0.722
  432SOL    HW1 1319   0.185   2.217   0.694
  432SOL    HW2 1320   0.258   2.168   0.817
  433SOL     OW 1321   0.813   2.858   1.373
  433SOL    HW1 1322   0.868   2.837   1.298
  433SOL    HW2 1323   0.833   2.950   1.393
  434SOL     OW 1324   0.901   2.789   0.285
  434SOL    HW1 1325   0.980   2.818   0.241
  434SOL    HW2 1326   0.932   2.737   0.360
  435SOL     OW 1327   1.019   2.102   0.966
  435SOL    HW1 1328   1.014   2.054   0.883
  435SOL    HW2 1329   1.014   2.035   1.033
  436SOL     OW 1330   1.719   2.253   1.380
  436SOL    HW1 1331   1.791   2.317   1.378
  436SOL    HW2 1332   1.749   2.182   1.324
  437SOL     OW 1333   0.117   2.865   1.695
  437SOL    HW1 1334   0.047   2.844   1.757
  437SOL    HW2 1335   0.198   2.851   1.744
  438SOL     OW 1336   0.673   2.058   1.498
  438SOL    HW1 1337   0.757   2.040   1.456
  438SOL    HW2 1338   0.696   2.085   1.587
  439SOL     OW 1339   0.054   2.171   0.052
  439SOL    HW1 1340   2.967   2.199   0.026
  439SOL    HW2 1341   0.113   2.238   0.018
  440SOL     OW 1342   1.435   2.718   1.404
  440SOL    HW1 1343   1.391   2.777   1.342
  440SOL    HW2 1344   1.527   2.719   1.378
  441SOL     OW 1345   0.062   2.059   0.321
  441SOL    HW1 1346   0.050   2.099   0.235
  441SOL    HW2 1347   0.126   1.990   0.306
  442SOL     OW 1348   1.141   0.212   0.095
  442SOL    HW1 1349   1.069   0.252   0.143
  442SOL    HW2 1350   1.217   0.221   0.152
  443SOL     OW 1351   0.613   2.689   1.435
  443SOL    HW1 1352   0.670   2.765   1.419
  443SOL    HW2 1353   0.673   2.615   1.444
  444SOL     OW 1354   0.717   2.428   1.707
  444SOL    HW1 1355   0.754   2.491   1.768
  444SOL    HW2 1356   0.753   2.344   1.735
  445SOL     OW 1357   1.676   2.745   1.254
  445SOL    HW1 1358   1.666   2.658   1.215
  445SOL    HW2 1359   1.659   2.806   1.182
  446SOL     OW 1360   1.221   2.181   0.459
  446SOL    HW1 1361   1.285   2.111   0.449
  446SOL    HW2 1362   1.251   2.230   0.536
  447SOL     OW 1363   0.592   2.588   0.663
  447SOL    HW1 1364   0.618   2.680   0.671
  447SOL    HW2 1365   0.522   2.588   0.598
  448SOL     OW 1366   1.767   2.221   1.647
  448SOL    HW1 1367   1.747   2.235   1.555
  448SOL    HW2 1368   1.694   2.167   1.679
  449SOL     OW 1369   1.733   2.796   1.516
  449SOL    HW1 1370   1.751   2.888   1.534
  449SOL    HW2 1371   1.727   2.791   1.420
  450SOL     OW 1372   0.888   2.831   0.862
  450SOL    HW1 1373   0.923   2.750   0.899
  450SOL    HW2 1374   0.827   2.863   0.929
  451SOL     OW 1375   1.110   2.888   0.085
  451SOL    HW1 1376   1.062   2.888   0.002
  451SOL    HW2 1377   1.171   2.815   0.077
  452SOL     OW 1378   1.813   2.047   1.239
  452SOL    HW1 1379   1.810   1.953   1.257
  452SOL    HW2 1380   1.824   2.053   1.144
  453SOL     OW 1381   0.430   2.295   0.527
  453SOL    HW1 1382   0.460   2.225   0.470
  453SOL    HW2 1383   0.384   2.251   0.598
  454SOL     OW 1384   0.334   2.417   1.290
  454SOL    HW1 1385   0.393   2.362   1.342
  454SOL    HW2 1386   0.349   2.389   1.199
  455SOL     OW 1387   1.432   2.084   1.118
  455SOL    HW1 1388   1.468   2.010   1.165
  455SOL    HW2 1389   1.380   2.132   1.183
  456SOL     OW 1390   1.008   1.883   1.146
  456SOL    HW1 1391   0.954   1.815   1.106
  456SOL    HW2 1392   1.096   1.846   1.147
  457SOL     OW 1393   1.354   1.914   0.163
  457SOL    HW1 1394   1.379   1.864   0.085
  457SOL    HW2 1395   1.269   1.879   0.187
  458SOL     OW 1396   1.300   2.324   0.685
  458SOL    HW1 1397   1.243   2.400   0.692
  458SOL    HW2 1398   1.295   2.282   0.770
  459SOL     OW 1399   1.587   2.067   0.876
  459SOL    HW1 1400   1.523   2.084   0.945
  459SOL    HW2 1401   1.586   2.146   0.823
  460SOL     OW 1402   0.000   2.885   0.286
  460SOL    HW1 1403   0.084   2.918   0.255
  460SOL    HW2 1404   0.019   2.850   0.373
  461SOL     OW 1405   0.230   2.505   1.971
  461SOL    HW1 1406   0.165   2.459   2.024
  461SOL    HW2 1407   0.223   2.465   1.884
  462SOL     OW 1408   0.235   2.124   2.838
  462SOL    HW1 1409   0.270   2.102   2.923
  462SOL    HW2 1410   0.147   2.086   2.837
  463SOL     OW 1411   0.015   2.247   2.506
  463SOL    HW1 1412   2.929   2.282   2.532
  463SOL    HW2 1413   2.996   2.162   2.468
  464SOL     OW 1414   1.136   2.568   2.566
  464SOL    HW1 1415   1.182   2.651   2.556
  464SOL    HW2 1416   1.083   2.579   2.645
  465SOL     OW 1417   1.761   2.467   2.092
  465SOL    HW1 1418   1.744   2.458   1.998
  465SOL    HW2 1419   1.730   2.385   2.130
  466SOL     OW 1420   0.776   0.012   2.877
  466SOL    HW1 1421   0.686   0.028   2.902
  466SOL    HW2 1422   0.801   0.088   2.825
  467SOL     OW 1423   0.650   2.847   2.567
  467SOL    HW1 1424   0.743   2.849   2.590
  467SOL    HW2 1425   0.633   2.934   2.531
  468SOL     OW 1426   1.617   2.311   2.594
  468SOL    HW1 1427   1.540   2.336   2.544
  468SOL    HW2 1428   1.623   2.377   2.663
  469SOL     OW 1429   0.213   0.313   2.326
  469SOL    HW1 1430   0.220   0.386   2.387
  469SOL    HW2 1431   0.200   0.236   2.382
  470SOL     OW 1432   0.232   2.946   2.743
  470SOL    HW1 1433   0.257   2.862   2.781
  470SOL    HW2 1434   0.209   0.000   2.819
  471SOL     OW 1435   0.607   2.824   1.992
  471SOL    HW1 1436   0.596   2.908   1.948
  471SOL    HW2 1437   0.666   2.842   2.065
  472SOL     OW 1438   0.121   2.494   2.426
  472SOL    HW1 1439   0.095   2.411   2.465
  472SOL    HW2 1440   0.119   2.557   2.498
  473SOL     OW 1441   1.699   2.805   2.484
  473SOL    HW1 1442   1.777   2.751   2.496
  473SOL    HW2 1443   1.693   2.817   2.389
  474SOL     OW 1444   0.628   0.242   2.572
  474SOL    HW1 1445   0.593   0.158   2.543
  474SOL    HW2 1446   0.614   0.300   2.497
  475SOL     OW 1447   0.812   1.861   2.366
  475SOL    HW1 1448   0.852   1.946   2.351
  475SOL    HW2 1449   0.719   1.880   2.378
  476SOL     OW 1450   0.213   2.806   0.102
  476SOL    HW1 1451   0.277   2.734   0.100
  476SOL    HW2 1452   0.128   2.763   0.093
  477SOL     OW 1453   1.537   2.840   2.046
  477SOL    HW1 1454   1.469   2.787   2.086
  477SOL    HW2 1455   1.591   2.870   2.119
  478SOL     OW 1456   0.596   2.580   2.127
  478SOL    HW1 1457   0.602   2.659   2.073
  478SOL    HW2 1458   0.532   2.602   2.194
  479SOL     OW 1459   1.297   2.198   2.808
  479SOL    HW1 1460   1.203   2.181   2.801
  479SOL    HW2 1461   1.322   2.164   2.894
  480SOL     OW 1462   1.052   2.562   2.289
  480SOL    HW1 1463   1.063   2.557   2.384
  480SOL    HW2 1464   0.969   2.517   2.272
  481SOL     OW 1465   0.106   2.671   2.626
  481SOL    HW1 1466   0.182   2.673   2.684
  481SOL    HW2 1467   0.047   2.737   2.662
  482SOL     OW 1468   0.885   2.207   2.055
  482SOL    HW1 1469   0.930   2.269   1.997
  482SOL    HW2 1470   0.906   2.121   2.019
  483SOL     OW 1471   0.553   2.048   2.766
  483SOL    HW1 1472   0.518   2.081   2.849
  483SOL    HW2 1473   0.559   2.125   2.710
  484SOL     OW 1474   1.797   2.910   2.728
  484SOL    HW1 1475   1.738   2.892   2.655
  484SOL    HW2 1476   1.740   2.914   2.805
  485SOL     OW 1477   1.480   2.602   2.586
  485SOL    HW1 1478   1.465   2.547   2.662
  485SOL    HW2 1479   1.556   2.656   2.609
  486SOL     OW 1480   1.401   1.971   2.292
  486SOL    HW1 1481   1.390   1.946   2.200
  486SOL    HW2 1482   1.496   1.977   2.304
  487SOL     OW 1483   0.395   2.555   2.336
  487SOL    HW1 1484   0.412   2.462   2.350
  487SOL    HW2 1485   0.302   2.565   2.355
  488SOL     OW 1486   0.628   1.988   1.968
  488SOL    HW1 1487   0.704   1.930   1.980
  488SOL    HW2 1488   0.583   1.954   1.891
  489SOL     OW 1489   0.922   2.381   2.757
  489SOL    HW1 1490   0.902   2.358   2.666
  489SOL    HW2 1491   0.958   2.300   2.795
  490SOL     OW 1492   0.548   1.925   2.368
  490SOL    HW1 1493   0.467   1.926   2.418
  490SOL    HW2 1494   0.543   2.003   2.312
  491SOL     OW 1495   0.291   1.905   2.042
  491SOL    HW1 1496   0.350   1.975   2.013
  491SOL    HW2 1497   0.348   1.842   2.085
  492SOL     OW 1498   0.936   2.105   2.325
  492SOL    HW1 1499   0.907   2.149   2.245
  492SOL    HW2 1500   1.031   2.119   2.326
  493SOL     OW 1501   1.026   2.407   1.880
  493SOL    HW1 1502   0.982   2.490   1.861
  493SOL    HW2 1503   1.089   2.429   1.950
  494SOL     OW 1504   0.870   2.318   2.499
  494SOL    HW1 1505   0.822   2.375   2.439
  494SOL    HW2 1506   0.887   2.239   2.449
  495SOL     OW 1507   1.012   1.911   2.613
  495SOL    HW1 1508   0.954   1.904   2.537
  495SOL    HW2 1509   0.993   1.833   2.665
  496SOL     OW 1510   1.422   2.998   2.736
  496SOL    HW1 1511   1.355   2.942   2.698
  496SOL    HW2 1512   1.448   0.056   2.665
  497SOL     OW 1513   1.487   2.448   2.819
  497SOL    HW1 1514   1.423   2.378   2.829
  497SOL    HW2 1515   1.511   2.471   2.909
  498SOL     OW 1516   1.838   2.668   2.253
  498SOL    HW1 1517   1.898   2.618   2.308
  498SOL    HW2 1518   1.816   2.608   2.181
  499SOL     OW 1519   1.394   2.435   1.934
  499SOL    HW1 1520   1.335   2.413   2.006
  499SOL    HW2 1521   1.479   2.401   1.962
  500SOL     OW 1522   0.527   2.124   2.183
  500SOL    HW1 1523   0.566   2.075   2.111
  500SOL    HW2 1524   0.509   2.211   2.146
  501SOL     OW 1525   1.626   2.966   2.935
  501SOL    HW1 1526   1.631   0.043   2.991
  501SOL    HW2 1527   1.550   2.983   2.878
  502SOL     OW 1528   0.554   2.396   2.726
  502SOL    HW1 1529   0.569   2.451   2.649
  502SOL    HW2 1530   0.615   2.428   2.792
  503SOL     OW 1531   1.578   2.487   2.335
  503SOL    HW1 1532   1.540   2.544   2.401
  503SOL    HW2 1533   1.634   2.545   2.282
  504SOL     OW 1534   0.575   2.726   2.884
  504SOL    HW1 1535   0.614   2.807   2.852
  504SOL    HW2 1536   0.559   2.742   2.977
  505SOL     OW 1537   1.207   2.392   2.132
  505SOL    HW1 1538   1.216   2.313   2.186
  505SOL    HW2 1539   1.162   2.454   2.189
  506SOL     OW 1540   0.327   2.062   0.080
  506SOL    HW1 1541   0.314   2.104   0.165
  506SOL    HW2 1542   0.304   1.970   0.095
  507SOL     OW 1543   0.730   2.501   2.915
  507SOL    HW1 1544   0.797   2.479   2.850
  507SOL    HW2 1545   0.696   2.585   2.887
  508SOL     OW 1546   0.303   1.931   2.483
  508SOL    HW1 1547   0.285   2.021   2.509
  508SOL    HW2 1548   0.307   1.882   2.565
  509SOL     OW 1549   1.613   2.233   2.232
  509SOL    HW1 1550   1.641   2.170   2.298
  509SOL    HW2 1551   1.590   2.312   2.281
  510SOL     OW 1552   1.024   2.621   2.822
  510SOL    HW1 1553   1.027   2.627   2.918
  510SOL    HW2 1554   0.996   2.532   2.804
  511SOL     OW 1555   1.530   2.138   1.990
  511SOL    HW1 1556   1.468   2.070   2.015
  511SOL    HW2 1557   1.563   2.172   2.073
  512SOL     OW 1558   1.293   2.687   1.895
  512SOL    HW1 1559   1.335   2.601   1.900
  512SOL    HW2 1560   1.325   2.725   1.813
  513SOL     OW 1561   0.311   2.675   2.809
  513SOL    HW1 1562   0.405   2.691   2.810
  513SOL    HW2 1563   0.302   2.586   2.845
  514SOL     OW 1564   0.321   2.385   2.867
  514SOL    HW1 1565   0.290   2.296   2.852
  514SOL    HW2 1566   0.401   2.392   2.815
  515SOL     OW 1567   0.983   2.615   0.088
  515SOL    HW1 1568   1.027   2.607   0.173
  515SOL    HW2 1569   0.893   2.637   0.110
  516SOL     OW 1570   0.817   2.431   2.216
  516SOL    HW1 1571   0.816   2.356   2.157
  516SOL    HW2 1572   0.742   2.484   2.189
  517SOL     OW 1573   0.704   2.310   0.102
  517SOL    HW1 1574   0.619   2.268   0.091
  517SOL    HW2 1575   0.705   2.381   0.039
  518SOL     OW 1576   0.465   2.356   2.048
  518SOL    HW1 1577   0.527   2.425   2.069
  518SOL    HW2 1578   0.380   2.399   2.045
  519SOL     OW 1579   1.303   2.725   2.171
  519SOL    HW1 1580   1.230   2.685   2.218
  519SOL    HW2 1581   1.287   2.703   2.079
  520SOL     OW 1582   1.718   2.004   2.374
  520SOL    HW1 1583   1.792   1.991   2.315
  520SOL    HW2 1584   1.703   1.918   2.414
  521SOL     OW 1585   1.294   2.798   2.544
  521SOL    HW1 1586   1.359   2.728   2.544
  521SOL    HW2 1587   1.306   2.844   2.461
  522SOL     OW 1588   1.840   2.041   2.822
  522SOL    HW1 1589   1.870   1.953   2.798
  522SOL    HW2 1590   1.750   2.046   2.789
  523SOL     OW 1591   0.270   2.181   2.577
  523SOL    HW1 1592   0.185   2.219   2.554
  523SOL    HW2 1593   0.265   2.167   2.671
  524SOL     OW 1594   0.904   2.759   2.115
  524SOL    HW1 1595   0.979   2.808   2.082
  524SOL    HW2 1596   0.938   2.711   2.190
  525SOL     OW 1597   1.034   2.105   2.807
  525SOL    HW1 1598   1.022   2.051   2.729
  525SOL    HW2 1599   1.006   2.050   2.880
  526SOL     OW 1600   0.092   2.182   1.918
  526SOL    HW1 1601   0.010   2.152   1.880
  526SOL    HW2 1602   0.106   2.269   1.881
  527SOL     OW 1603   0.065   2.059   2.177
  527SOL    HW1 1604   0.071   2.107   2.094
  527SOL    HW2 1605   0.132   1.991   2.170
  528SOL     OW 1606   1.129   0.243   2.003
  528SOL    HW1 1607   1.104   0.159   1.963
  528SOL    HW2 1608   1.211   0.224   2.049
  529SOL     OW 1609   1.728   2.710   0.053
  529SOL    HW1 1610   1.655   2.667   0.097
  529SOL    HW2 1611   1.699   2.801   0.042
  530SOL     OW 1612   1.218   2.182   2.319
  530SOL    HW1 1613   1.283   2.111   2.310
  530SOL    HW2 1614   1.247   2.229   2.397
  531SOL     OW 1615   0.595   2.585   2.525
  531SOL    HW1 1616   0.620   2.677   2.534
  531SOL    HW2 1617   0.524   2.586   2.460
  532SOL     OW 1618   0.882   2.824   2.716
  532SOL    HW1 1619   0.925   2.749   2.757
  532SOL    HW2 1620   0.844   2.874   2.789
  533SOL     OW 1621   1.104   2.874   1.953
  533SOL    HW1 1622   1.061   2.899   1.871
  533SOL    HW2 1623   1.159   2.800   1.930
  534SOL     OW 1624   1.825   2.052   0.095
  534SOL    HW1 1625   1.796   1.961   0.104
  534SOL    HW2 1626   1.831   2.067   0.001
  535SOL     OW 1627   0.426   2.293   2.382
  535SOL    HW1 1628   0.458   2.220   2.330
  535SOL    HW2 1629   0.383   2.253   2.457
  536SOL     OW 1630   1.355   1.916   2.024
  536SOL    HW1 1631   1.397   1.846   1.973
  536SOL    HW2 1632   1.269   1.880   2.047
  537SOL     OW 1633   1.298   2.320   2.548
  537SOL    HW1 1634   1.244   2.398   2.557
  537SOL    HW2 1635   1.297   2.280   2.635
  538SOL     OW 1636   1.583   2.074   2.739
  538SOL    HW1 1637   1.501   2.094   2.782
  538SOL    HW2 1638   1.597   2.148   2.678
  539SOL     OW 1639   0.018   2.931   2.154
  539SOL    HW1 1640   0.113   2.926   2.141
  539SOL    HW2 1641   0.001   2.873   2.228
  540SOL     OW 1642   2.092   0.636   0.121
  540SOL    HW1 1643   1.998   0.628   0.137
  540SOL    HW2 1644   2.104   0.603   0.032
  541SOL     OW 1645   2.079   0.285   1.007
  541SOL    HW1 1646   2.111   0.249   1.090
  541SOL    HW2 1647   1.994   0.242   0.994
  542SOL     OW 1648   1.865   0.380   0.643
  542SOL    HW1 1649   1.784   0.407   0.685
  542SOL    HW2 1650   1.841   0.305   0.588
  543SOL     OW 1651   2.427   1.282   1.170
  543SOL    HW1 1652   2.339   1.289   1.134
  543SOL    HW2 1653   2.444   1.368   1.208
  544SOL     OW 1654   2.618   1.144   1.035
  544SOL    HW1 1655   2.550   1.177   1.093
  544SOL    HW2 1656   2.657   1.222   0.995
  545SOL     OW 1657   2.719   0.779   1.817
  545SOL    HW1 1658   2.713   0.849   1.883
  545SOL    HW2 1659   2.743   0.824   1.736
  546SOL     OW 1660   2.547   1.007   0.650
  546SOL    HW1 1661   2.609   0.990   0.721
  546SOL    HW2 1662   2.477   1.058   0.690
  547SOL     OW 1663   2.568   1.153   1.810
  547SOL    HW1 1664   2.616   1.233   1.833
  547SOL    HW2 1665   2.485   1.184   1.775
  548SOL     OW 1666   2.193   1.429   1.066
  548SOL    HW1 1667   2.124   1.396   1.009
  548SOL    HW2 1668   2.248   1.481   1.009
  549SOL     OW 1669   2.312   0.401   1.488
  549SOL    HW1 1670   2.386   0.341   1.494
  549SOL    HW2 1671   2.236   0.346   1.504
  550SOL     OW 1672   2.083   1.714   0.474
  550SOL    HW1 1673   2.105   1.790   0.527
  550SOL    HW2 1674   2.157   1.704   0.414
  551SOL     OW 1675   2.982   1.346   1.687
  551SOL    HW1 1676   0.030   1.347   1.769
  551SOL    HW2 1677   2.936   1.262   1.687
  552SOL     OW 1678   2.086   1.441   0.534
  552SOL    HW1 1679   2.074   1.536   0.541
  552SOL    HW2 1680   2.026   1.405   0.598
  553SOL     OW 1681   2.116   1.083   0.883
  553SOL    HW1 1682   2.118   1.000   0.931
  553SOL    HW2 1683   2.065   1.142   0.939
  554SOL     OW 1684   2.480   1.788   1.436
  554SOL    HW1 1685   2.395   1.771   1.476
  554SOL    HW2 1686   2.498   1.880   1.455
  555SOL     OW 1687   2.455   0.977   0.145
  555SOL    HW1 1688   2.479   1.050   0.087
  555SOL    HW2 1689   2.491   1.002   0.230
  556SOL     OW 1690   1.980   0.644   0.562
  556SOL    HW1 1691   1.936   0.562   0.587
  556SOL    HW2 1692   1.972   0.699   0.640
  557SOL     OW 1693   1.877   1.590   0.120
  557SOL    HW1 1694   1.888   1.499   0.148
  557SOL    HW2 1695   1.878   1.640   0.202
  558SOL     OW 1696   1.984   0.742   1.585
  558SOL    HW1 1697   2.076   0.764   1.602
  558SOL    HW2 1698   1.937   0.825   1.597
  559SOL     OW 1699   2.474   1.382   0.735
  559SOL    HW1 1700   2.428   1.298   0.743
  559SOL    HW2 1701   2.457   1.410   0.645
  560SOL     OW 1702   2.682   0.014   0.516
  560SOL    HW1 1703   2.707   0.105   0.499
  560SOL    HW2 1704   2.587   0.013   0.501
  561SOL     OW 1705   2.052   0.975   1.255
  561SOL    HW1 1706   2.137   0.933   1.250
  561SOL    HW2 1707   1.989   0.906   1.236
  562SOL     OW 1708   2.187   0.253   1.800
  562SOL    HW1 1709   2.237   0.332   1.823
  562SOL    HW2 1710   2.101   0.267   1.840
  563SOL     OW 1711   2.453   0.722   0.265
  563SOL    HW1 1712   2.460   0.804   0.217
  563SOL    HW2 1713   2.390   0.740   0.334
  564SOL     OW 1714   2.655   0.627   1.454
  564SOL    HW1 1715   2.629   0.600   1.542
  564SOL    HW2 1716   2.616   0.560   1.397
  565SOL     OW 1717   2.830   0.883   1.574
  565SOL    HW1 1718   2.857   0.797   1.541
  565SOL    HW2 1719   2.782   0.922   1.501
  566SOL     OW 1720   2.845   0.376   1.260
  566SOL    HW1 1721   2.771   0.430   1.289
  566SOL    HW2 1722   2.838   0.375   1.164
  567SOL     OW 1723   2.892   0.715   0.410
  567SOL    HW1 1724   2.928   0.700   0.497
  567SOL    HW2 1725   2.817   0.656   0.405
  568SOL     OW 1726   1.953   0.818   0.774
  568SOL    HW1 1727   2.034   0.810   0.824
  568SOL    HW2 1728   1.912   0.898   0.808
  569SOL     OW 1729   1.985   1.827   1.573
  569SOL    HW1 1730   1.984   1.816   1.668
  569SOL    HW2 1731   1.898   1.861   1.552
  570SOL     OW 1732   2.783   0.343   0.219
  570SOL    HW1 1733   2.765   0.397   0.141
  570SOL    HW2 1734   2.772   0.253   0.188
  571SOL     OW 1735   2.380   0.196   0.910
  571SOL    HW1 1736   2.397   0.211   1.003
  571SOL    HW2 1737   2.403   0.278   0.867
  572SOL     OW 1738   2.862   1.442   0.470
  572SOL    HW1 1739   2.828   1.518   0.423
  572SOL    HW2 1740   2.861   1.468   0.562
  573SOL     OW 1741   2.217   1.805   0.855
  573SOL    HW1 1742   2.262   1.721   0.867
  573SOL    HW2 1743   2.283   1.871   0.875
  574SOL     OW 1744   2.180   0.952   0.243
  574SOL    HW1 1745   2.264   0.969   0.199
  574SOL    HW2 1746   2.153   0.867   0.210
  575SOL     OW 1747   2.325   1.260   1.736
  575SOL    HW1 1748   2.297   1.266   1.645
  575SOL    HW2 1749   2.244   1.263   1.786
  576SOL     OW 1750   2.063   0.294   1.498
  576SOL    HW1 1751   1.979   0.341   1.498
  576SOL    HW2 1752   2.052   0.226   1.564
  577SOL     OW 1753   2.328   1.725   0.333
  577SOL    HW1 1754   2.362   1.793   0.391
  577SOL    HW2 1755   2.395   1.716   0.265
  578SOL     OW 1756   2.124   1.794   1.235
  578SOL    HW1 1757   2.152   1.722   1.291
  578SOL    HW2 1758   2.099   1.752   1.152
  579SOL     OW 1759   2.801   1.695   0.900
  579SOL    HW1 1760   2.864   1.629   0.927
  579SOL    HW2 1761   2.752   1.654   0.829
  580SOL     OW 1762   2.255   0.691   0.476
  580SOL    HW1 1763   2.286   0.602   0.493
  580SOL    HW2 1764   2.162   0.689   0.497
  581SOL     OW 1765   2.476   0.108   0.107
  581SOL    HW1 1766   2.570   0.113   0.120
  581SOL    HW2 1767   2.461   0.144   0.019
  582SOL     OW 1768   2.633   0.276   1.752
  582SOL    HW1 1769   2.701   0.211   1.769
  582SOL    HW2 1770   2.579   0.274   1.831
  583SOL     OW 1771   2.742   1.517   1.193
  583SOL    HW1 1772   2.721   1.483   1.107
  583SOL    HW2 1773   2.804   1.454   1.230
  584SOL     OW 1774   2.669   1.403   0.938
  584SOL    HW1 1775   2.753   1.390   0.894
  584SOL    HW2 1776   2.604   1.397   0.868
  585SOL     OW 1777   2.784   0.505   0.905
  585SOL    HW1 1778   2.757   0.494   0.814
  585SOL    HW2 1779   2.824   0.421   0.928
  586SOL     OW 1780   2.402   0.048   0.496
  586SOL    HW1 1781   2.316   0.039   0.538
  586SOL    HW2 1782   2.394   0.128   0.444
  587SOL     OW 1783   0.319   1.153   0.044
  587SOL    HW1 1784   0.310   1.099   0.122
  587SOL    HW2 1785   0.252   1.221   0.054
  588SOL     OW 1786   2.161   0.088   0.185
  588SOL    HW1 1787   2.245   0.133   0.194
  588SOL    HW2 1788   2.182   2.995   0.201
  589SOL     OW 1789   2.824   0.247   0.468
  589SOL    HW1 1790   2.782   0.296   0.396
  589SOL    HW2 1791   2.901   0.207   0.427
  590SOL     OW 1792   0.084   1.582   0.797
  590SOL    HW1 1793   0.110   1.620   0.714
  590SOL    HW2 1794   0.166   1.553   0.837
  591SOL     OW 1795   2.329   1.148   0.735
  591SOL    HW1 1796   2.258   1.127   0.796
  591SOL    HW2 1797   2.291   1.132   0.648
  592SOL     OW 1798   2.896   0.512   0.021
  592SOL    HW1 1799   2.844   0.592   0.007
  592SOL    HW2 1800   2.943   0.529   0.103
  593SOL     OW 1801   1.937   0.556   1.390
  593SOL    HW1 1802   2.029   0.553   1.364
  593SOL    HW2 1803   1.934   0.626   1.456
  594SOL     OW 1804   2.428   0.216   1.179
  594SOL    HW1 1805   2.463   0.165   1.252
  594SOL    HW2 1806   2.335   0.227   1.199
  595SOL     OW 1807   2.745   0.468   0.635
  595SOL    HW1 1808   2.678   0.519   0.588
  595SOL    HW2 1809   2.737   0.380   0.600
  596SOL     OW 1810   2.862   0.056   0.761
  596SOL    HW1 1811   2.823   0.059   0.673
  596SOL    HW2 1812   2.837   2.970   0.795
  597SOL     OW 1813   2.353   1.401   0.152
  597SOL    HW1 1814   2.287   1.373   0.215
  597SOL    HW2 1815   2.306   1.409   0.069
  598SOL     OW 1816   2.392   0.262   0.324
  598SOL    HW1 1817   2.433   0.213   0.253
  598SOL    HW2 1818   2.365   0.345   0.284
  599SOL     OW 1819   2.779   0.112   1.401
  599SOL    HW1 1820   2.806   0.098   1.310
  599SOL    HW2 1821   2.842   0.176   1.435
  600SOL     OW 1822   2.841   1.109   1.729
  600SOL    HW1 1823   2.748   1.131   1.739
  600SOL    HW2 1824   2.842   1.042   1.661
  601SOL     OW 1825   2.563   1.062   0.379
  601SOL    HW1 1826   2.549   1.049   0.472
  601SOL    HW2 1827   2.646   1.019   0.360
  602SOL     OW 1828   2.276   0.815   1.253
  602SOL    HW1 1829   2.346   0.825   1.317
  602SOL    HW2 1830   2.242   0.726   1.268
  603SOL     OW 1831   2.215   1.108   0.490
  603SOL    HW1 1832   2.216   1.182   0.430
  603SOL    HW2 1833   2.214   1.031   0.433
  604SOL     OW 1834   2.418   0.542   0.863
  604SOL    HW1 1835   2.436   0.596   0.787
  604SOL    HW2 1836   2.483   0.570   0.928
  605SOL     OW 1837   2.214   1.518   1.320
  605SOL    HW1 1838   2.198   1.482   1.233
  605SOL    HW2 1839   2.308   1.535   1.322
  606SOL     OW 1840   2.275   0.745   1.602
  606SOL    HW1 1841   2.335   0.792   1.543
  606SOL    HW2 1842   2.316   0.660   1.616
  607SOL     OW 1843   2.867   0.116   1.762
  607SOL    HW1 1844   2.900   0.191   1.712
  607SOL    HW2 1845   2.903   0.040   1.716
  608SOL     OW 1846   2.366   0.055   1.748
  608SOL    HW1 1847   2.331   2.989   1.688
  608SOL    HW2 1848   2.295   0.118   1.758
  609SOL     OW 1849   2.441   0.874   1.030
  609SOL    HW1 1850   2.477   0.963   1.029
  609SOL    HW2 1851   2.387   0.871   1.109
  610SOL     OW 1852   0.063   0.532   0.270
  610SOL    HW1 1853   0.084   0.450   0.314
  610SOL    HW2 1854   0.035   0.590   0.341
  611SOL     OW 1855   2.161   0.199   1.251
  611SOL    HW1 1856   2.130   0.240   1.332
  611SOL    HW2 1857   2.138   0.106   1.261
  612SOL     OW 1858   2.590   0.634   1.060
  612SOL    HW1 1859   2.665   0.617   1.004
  612SOL    HW2 1860   2.563   0.723   1.038
  613SOL     OW 1861   2.168   0.061   0.640
  613SOL    HW1 1862   2.169   0.152   0.669
  613SOL    HW2 1863   2.152   0.011   0.720
  614SOL     OW 1864   2.867   0.769   0.972
  614SOL    HW1 1865   2.897   0.774   1.063
  614SOL    HW2 1866   2.873   0.676   0.950
  615SOL     OW 1867   2.832   1.569   1.704
  615SOL    HW1 1868   2.826   1.609   1.617
  615SOL    HW2 1869   2.889   1.492   1.691
  616SOL     OW 1870   2.215   0.912   1.811
  616SOL    HW1 1871   2.299   0.936   1.851
  616SOL    HW2 1872   2.239   0.853   1.740
  617SOL     OW 1873   2.906   1.344   0.834
  617SOL    HW1 1874   2.910   1.266   0.779
  617SOL    HW2 1875   2.980   1.398   0.805
  618SOL     OW 1876   2.173   0.809   0.948
  618SOL    HW1 1877   2.266   0.832   0.945
  618SOL    HW2 1878   2.171   0.720   0.983
  619SOL     OW 1879   2.197   0.525   1.014
  619SOL    HW1 1880   2.159   0.439   0.997
  619SOL    HW2 1881   2.271   0.531   0.954
  620SOL     OW 1882   2.966   0.367   1.665
  620SOL    HW1 1883   2.909   0.430   1.708
  620SOL    HW2 1884   0.053   0.406   1.668
  621SOL     OW 1885   1.872   1.320   0.187
  621SOL    HW1 1886   1.781   1.334   0.160
  621SOL    HW2 1887   1.872   1.234   0.229
  622SOL     OW 1888   1.954   1.791   0.938
  622SOL    HW1 1889   1.921   1.712   0.897
  622SOL    HW2 1890   2.044   1.800   0.905
  623SOL     OW 1891   2.361   1.572   0.907
  623SOL    HW1 1892   2.430   1.635   0.931
  623SOL    HW2 1893   2.406   1.508   0.852
  624SOL     OW 1894   2.864   0.794   1.252
  624SOL    HW1 1895   2.908   0.729   1.307
  624SOL    HW2 1896   2.774   0.762   1.245
  625SOL     OW 1897   1.898   0.540   1.116
  625SOL    HW1 1898   1.980   0.525   1.069
  625SOL    HW2 1899   1.925   0.550   1.208
  626SOL     OW 1900   2.050   0.519   1.725
  626SOL    HW1 1901   2.109   0.483   1.658
  626SOL    HW2 1902   2.006   0.592   1.681
  627SOL     OW 1903   2.674   0.573   0.349
  627SOL    HW1 1904   2.678   0.493   0.295
  627SOL    HW2 1905   2.592   0.615   0.322
  628SOL     OW 1906   2.136   1.557   1.743
  628SOL    HW1 1907   2.082   1.616   1.794
  628SOL    HW2 1908   2.111   1.469   1.772
  629SOL     OW 1909   2.556   0.460   1.265
  629SOL    HW1 1910   2.510   0.382   1.233
  629SOL    HW2 1911   2.556   0.519   1.190
  630SOL     OW 1912   2.803   1.689   1.460
  630SOL    HW1 1913   2.771   1.641   1.384
  630SOL    HW2 1914   2.775   1.779   1.445
  631SOL     OW 1915   2.315   0.494   0.200
  631SOL    HW1 1916   2.372   0.567   0.221
  631SOL    HW2 1917   2.229   0.533   0.185
  632SOL     OW 1918   2.008   1.140   1.472
  632SOL    HW1 1919   2.013   1.082   1.548
  632SOL    HW2 1920   2.025   1.082   1.397
  633SOL     OW 1921   1.955   1.264   1.006
  633SOL    HW1 1922   1.957   1.246   1.100
  633SOL    HW2 1923   1.887   1.205   0.972
  634SOL     OW 1924   2.538   1.664   1.729
  634SOL    HW1 1925   2.485   1.743   1.719
  634SOL    HW2 1926   2.603   1.670   1.658
  635SOL     OW 1927   2.765   0.086   0.142
  635SOL    HW1 1928   2.806   0.042   0.067
  635SOL    HW2 1929   2.808   0.047   0.218
  636SOL     OW 1930   1.992   1.799   1.842
  636SOL    HW1 1931   1.944   1.732   1.891
  636SOL    HW2 1932   2.045   1.844   1.908
  637SOL     OW 1933   2.679   1.269   1.426
  637SOL    HW1 1934   2.669   1.314   1.510
  637SOL    HW2 1935   2.605   1.299   1.374
  638SOL     OW 1936   2.530   1.610   0.160
  638SOL    HW1 1937   2.535   1.627   0.066
  638SOL    HW2 1938   2.478   1.530   0.167
  639SOL     OW 1939   2.137   0.349   0.754
  639SOL    HW1 1940   2.047   0.368   0.727
  639SOL    HW2 1941   2.129   0.314   0.843
  640SOL     OW 1942   2.688   1.006   1.375
  640SOL    HW1 1943   2.733   1.001   1.291
  640SOL    HW2 1944   2.688   1.099   1.396
  641SOL     OW 1945   2.788   0.942   0.308
  641SOL    HW1 1946   2.839   0.954   0.228
  641SOL    HW2 1947   2.823   0.862   0.347
  642SOL     OW 1948   2.230   1.298   1.491
  642SOL    HW1 1949   2.218   1.379   1.440
  642SOL    HW2 1950   2.149   1.249   1.476
  643SOL     OW 1951   2.914   1.083   0.721
  643SOL    HW1 1952   2.838   1.042   0.761
  643SOL    HW2 1953   2.932   1.030   0.643
  644SOL     OW 1954   2.878   0.239   0.969
  644SOL    HW1 1955   2.875   0.188   0.888
  644SOL    HW2 1956   2.870   0.174   1.039
  645SOL     OW 1957   2.460   1.488   0.483
  645SOL    HW1 1958   2.503   1.439   0.413
  645SOL    HW2 1959   2.402   1.549   0.438
  646SOL     OW 1960   2.131   1.335   0.296
  646SOL    HW1 1961   2.045   1.340   0.254
  646SOL    HW2 1962   2.119   1.379   0.380
  647SOL     OW 1963   1.975   1.012   1.718
  647SOL    HW1 1964   1.898   0.994   1.773
  647SOL    HW2 1965   2.049   0.979   1.770
  648SOL     OW 1966   2.528   0.208   1.491
  648SOL    HW1 1967   2.611   0.182   1.452
  648SOL    HW2 1968   2.549   0.223   1.584
  649SOL     OW 1969   1.915   0.199   0.332
  649SOL    HW1 1970   1.886   0.233   0.247
  649SOL    HW2 1971   2.000   0.159   0.313
  650SOL     OW 1972   2.478   0.834   1.431
  650SOL    HW1 1973   2.534   0.911   1.418
  650SOL    HW2 1974   2.540   0.761   1.439
  651SOL     OW 1975   2.579   0.564   1.705
  651SOL    HW1 1976   2.612   0.628   1.767
  651SOL    HW2 1977   2.615   0.480   1.734
  652SOL     OW 1978   2.245   1.741   1.564
  652SOL    HW1 1979   2.158   1.776   1.548
  652SOL    HW2 1980   2.230   1.658   1.609
  653SOL     OW 1981   2.457   0.740   0.664
  653SOL    HW1 1982   2.493   0.828   0.652
  653SOL    HW2 1983   2.385   0.735   0.602
  654SOL     OW 1984   2.764   1.378   0.063
  654SOL    HW1 1985   2.692   1.386   0.125
  654SOL    HW2 1986   2.734   1.425   2.985
  655SOL     OW 1987   2.520   1.795   0.948
  655SOL    HW1 1988   2.498   1.885   0.923
  655SOL    HW2 1989   2.616   1.790   0.938
  656SOL     OW 1990   2.717   0.961   0.857
  656SOL    HW1 1991   2.766   0.890   0.898
  656SOL    HW2 1992   2.688   1.016   0.930
  657SOL     OW 1993   2.957   1.015   0.077
  657SOL    HW1 1994   2.929   1.054   2.995
  657SOL    HW2 1995   0.015   0.943   0.051
  658SOL     OW 1996   2.084   1.303   1.853
  658SOL    HW1 1997   2.016   1.242   1.826
  658SOL    HW2 1998   2.067   1.319   1.946
  659SOL     OW 1999   1.945   1.238   0.665
  659SOL    HW1 2000   1.948   1.181   0.742
  659SOL    HW2 2001   2.013   1.203   0.607
  660SOL     OW 2002   2.541   1.401   1.626
  660SOL    HW1 2003   2.461   1.357   1.653
  660SOL    HW2 2004   2.535   1.488   1.665
  661SOL     OW 2005   2.338   0.434   0.549
  661SOL    HW1 2006   2.325   0.376   0.474
  661SOL    HW2 2007   2.269   0.408   0.611
  662SOL     OW 2008   2.188   0.552   1.291
  662SOL    HW1 2009   2.246   0.499   1.346
  662SOL    HW2 2010   2.211   0.527   1.201
  663SOL     OW 2011   2.683   1.583   0.680
  663SOL    HW1 2012   2.682   1.619   0.591
  663SOL    HW2 2013   2.607   1.525   0.684
  664SOL     OW 2014   2.854   0.018   1.148
  664SOL    HW1 2015   2.820   2.945   1.097
  664SOL    HW2 2016   2.945   2.996   1.165
  665SOL     OW 2017   2.628   1.330   0.314
  665SOL    HW1 2018   2.600   1.240   0.331
  665SOL    HW2 2019   2.712   1.338   0.359
  666SOL     OW 2020   2.483   1.559   1.282
  666SOL    HW1 2021   2.486   1.639   1.334
  666SOL    HW2 2022   2.571   1.552   1.245
  667SOL     OW 2023   1.902   1.075   0.306
  667SOL    HW1 2024   1.996   1.067   0.287
  667SOL    HW2 2025   1.875   0.986   0.326
  668SOL     OW 2026   2.737   1.649   0.348
  668SOL    HW1 2027   2.668   1.632   0.284
  668SOL    HW2 2028   2.709   1.727   0.394
  669SOL     OW 2029   2.093   0.623   1.984
  669SOL    HW1 2030   2.003   0.623   2.017
  669SOL    HW2 2031   2.084   0.597   1.892
  670SOL     OW 2032   2.088   0.277   2.880
  670SOL    HW1 2033   2.104   0.238   2.966
  670SOL    HW2 2034   2.002   0.242   2.854
  671SOL     OW 2035   1.866   0.379   2.504
  671SOL    HW1 2036   1.785   0.410   2.546
  671SOL    HW2 2037   1.838   0.304   2.451
  672SOL     OW 2038   2.613   1.147   2.895
  672SOL    HW1 2039   2.551   1.192   2.952
  672SOL    HW2 2040   2.662   1.218   2.853
  673SOL     OW 2041   2.548   1.008   2.509
  673SOL    HW1 2042   2.607   0.991   2.582
  673SOL    HW2 2043   2.476   1.058   2.548
  674SOL     OW 2044   2.203   1.432   2.931
  674SOL    HW1 2045   2.125   1.399   2.885
  674SOL    HW2 2046   2.248   1.485   2.865
  675SOL     OW 2047   2.082   1.713   2.337
  675SOL    HW1 2048   2.106   1.790   2.389
  675SOL    HW2 2049   2.151   1.706   2.271
  676SOL     OW 2050   2.092   1.440   2.397
  676SOL    HW1 2051   2.075   1.534   2.402
  676SOL    HW2 2052   2.029   1.401   2.458
  677SOL     OW 2053   2.116   1.092   2.754
  677SOL    HW1 2054   2.110   1.005   2.793
  677SOL    HW2 2055   2.057   1.146   2.806
  678SOL     OW 2056   2.454   0.978   1.993
  678SOL    HW1 2057   2.494   1.033   1.926
  678SOL    HW2 2058   2.492   1.009   2.075
  679SOL     OW 2059   1.981   0.644   2.425
  679SOL    HW1 2060   1.934   0.564   2.449
  679SOL    HW2 2061   1.973   0.700   2.502
  680SOL     OW 2062   1.888   1.597   1.985
  680SOL    HW1 2063   1.876   1.504   2.006
  680SOL    HW2 2064   1.865   1.643   2.066
  681SOL     OW 2065   2.471   1.380   2.593
  681SOL    HW1 2066   2.424   1.298   2.601
  681SOL    HW2 2067   2.455   1.408   2.502
  682SOL     OW 2068   2.683   0.013   2.376
  682SOL    HW1 2069   2.708   0.104   2.357
  682SOL    HW2 2070   2.589   0.011   2.362
  683SOL     OW 2071   2.458   0.725   2.126
  683SOL    HW1 2072   2.464   0.804   2.072
  683SOL    HW2 2073   2.392   0.745   2.192
  684SOL     OW 2074   2.891   0.708   2.282
  684SOL    HW1 2075   2.919   0.693   2.372
  684SOL    HW2 2076   2.815   0.651   2.270
  685SOL     OW 2077   1.952   0.819   2.635
  685SOL    HW1 2078   2.032   0.811   2.688
  685SOL    HW2 2079   1.907   0.896   2.671
  686SOL     OW 2080   2.737   0.344   2.051
  686SOL    HW1 2081   2.790   0.405   2.000
  686SOL    HW2 2082   2.778   0.259   2.036
  687SOL     OW 2083   2.418   0.200   2.830
  687SOL    HW1 2084   2.362   0.264   2.874
  687SOL    HW2 2085   2.431   0.236   2.742
  688SOL     OW 2086   2.864   1.440   2.332
  688SOL    HW1 2087   2.828   1.516   2.285
  688SOL    HW2 2088   2.864   1.467   2.424
  689SOL     OW 2089   2.217   1.804   2.716
  689SOL    HW1 2090   2.260   1.720   2.729
  689SOL    HW2 2091   2.284   1.869   2.737
  690SOL     OW 2092   2.185   0.953   2.111
  690SOL    HW1 2093   2.265   0.976   2.063
  690SOL    HW2 2094   2.152   0.874   2.068
  691SOL     OW 2095   2.329   1.739   2.183
  691SOL    HW1 2096   2.369   1.794   2.250
  691SOL    HW2 2097   2.401   1.710   2.128
  692SOL     OW 2098   2.126   1.800   0.103
  692SOL    HW1 2099   2.167   1.731   0.155
  692SOL    HW2 2100   2.080   1.753   0.032
  693SOL     OW 2101   2.794   1.699   2.759
  693SOL    HW1 2102   2.859   1.638   2.795
  693SOL    HW2 2103   2.754   1.650   2.687
  694SOL     OW 2104   2.256   0.691   2.341
  694SOL    HW1 2105   2.285   0.601   2.354
  694SOL    HW2 2106   2.162   0.690   2.360
  695SOL     OW 2107   2.487   0.122   1.973
  695SOL    HW1 2108   2.576   0.087   1.969
  695SOL    HW2 2109   2.449   0.101   1.888
  696SOL     OW 2110   2.662   1.403   2.790
  696SOL    HW1 2111   2.748   1.394   2.749
  696SOL    HW2 2112   2.600   1.396   2.717
  697SOL     OW 2113   2.782   0.519   2.756
  697SOL    HW1 2114   2.757   0.495   2.667
  697SOL    HW2 2115   2.813   0.437   2.795
  698SOL     OW 2116   2.406   0.059   2.365
  698SOL    HW1 2117   2.318   0.043   2.400
  698SOL    HW2 2118   2.393   0.132   2.303
  699SOL     OW 2119   2.151   0.035   2.059
  699SOL    HW1 2120   2.195   0.110   2.018
  699SOL    HW2 2121   2.222   2.976   2.083
  700SOL     OW 2122   2.813   0.251   2.322
  700SOL    HW1 2123   2.762   0.293   2.253
  700SOL    HW2 2124   2.892   0.220   2.278
  701SOL     OW 2125   0.084   1.577   2.660
  701SOL    HW1 2126   0.112   1.622   2.581
  701SOL    HW2 2127   0.165   1.555   2.707
  702SOL     OW 2128   2.329   1.145   2.598
  702SOL    HW1 2129   2.257   1.129   2.661
  702SOL    HW2 2130   2.289   1.129   2.513
  703SOL     OW 2131   2.888   0.551   1.877
  703SOL    HW1 2132   2.841   0.633   1.857
  703SOL    HW2 2133   2.938   0.571   1.956
  704SOL     OW 2134   2.743   0.467   2.494
  704SOL    HW1 2135   2.679   0.518   2.445
  704SOL    HW2 2136   2.740   0.380   2.454
  705SOL     OW 2137   2.859   0.054   2.618
  705SOL    HW1 2138   2.821   0.052   2.530
  705SOL    HW2 2139   2.838   2.968   2.655
  706SOL     OW 2140   2.355   1.413   2.023
  706SOL    HW1 2141   2.280   1.383   2.075
  706SOL    HW2 2142   2.331   1.394   1.933
  707SOL     OW 2143   2.394   0.265   2.183
  707SOL    HW1 2144   2.428   0.212   2.112
  707SOL    HW2 2145   2.371   0.349   2.142
  708SOL     OW 2146   2.569   1.061   2.233
  708SOL    HW1 2147   2.554   1.047   2.327
  708SOL    HW2 2148   2.647   1.009   2.213
  709SOL     OW 2149   2.217   1.106   2.353
  709SOL    HW1 2150   2.219   1.180   2.293
  709SOL    HW2 2151   2.214   1.029   2.296
  710SOL     OW 2152   2.414   0.542   2.728
  710SOL    HW1 2153   2.433   0.593   2.650
  710SOL    HW2 2154   2.480   0.570   2.792
  711SOL     OW 2155   2.438   0.870   2.880
  711SOL    HW1 2156   2.480   0.953   2.855
  711SOL    HW2 2157   2.415   0.881   2.972
  712SOL     OW 2158   0.056   0.532   2.133
  712SOL    HW1 2159   0.083   0.454   2.182
  712SOL    HW2 2160   0.025   0.593   2.200
  713SOL     OW 2161   2.597   0.646   2.918
  713SOL    HW1 2162   2.661   0.620   2.852
  713SOL    HW2 2163   2.560   0.728   2.886
  714SOL     OW 2164   2.173   0.061   2.506
  714SOL    HW1 2165   2.163   0.152   2.534
  714SOL    HW2 2166   2.152   0.009   2.584
  715SOL     OW 2167   2.874   0.777   2.830
  715SOL    HW1 2168   2.883   0.769   2.925
  715SOL    HW2 2169   2.867   0.686   2.800
  716SOL     OW 2170   2.907   1.343   2.697
  716SOL    HW1 2171   2.914   1.268   2.639
  716SOL    HW2 2172   2.976   1.403   2.667
  717SOL     OW 2173   2.171   0.811   2.812
  717SOL    HW1 2174   2.264   0.831   2.809
  717SOL    HW2 2175   2.167   0.720   2.841
  718SOL     OW 2176   2.185   0.534   2.869
  718SOL    HW1 2177   2.150   0.445   2.865
  718SOL    HW2 2178   2.263   0.532   2.814
  719SOL     OW 2179   1.870   1.321   2.057
  719SOL    HW1 2180   1.779   1.337   2.033
  719SOL    HW2 2181   1.871   1.231   2.090
  720SOL     OW 2182   1.952   1.795   2.795
  720SOL    HW1 2183   1.921   1.712   2.759
  720SOL    HW2 2184   2.043   1.801   2.767
  721SOL     OW 2185   2.366   1.576   2.765
  721SOL    HW1 2186   2.436   1.637   2.786
  721SOL    HW2 2187   2.408   1.508   2.712
  722SOL     OW 2188   2.847   0.758   0.104
  722SOL    HW1 2189   2.887   0.741   0.190
  722SOL    HW2 2190   2.754   0.771   0.123
  723SOL     OW 2191   2.671   0.565   2.214
  723SOL    HW1 2192   2.670   0.489   2.156
  723SOL    HW2 2193   2.596   0.618   2.185
  724SOL     OW 2194   2.561   0.438   0.085
  724SOL    HW1 2195   2.468   0.432   0.103
  724SOL    HW2 2196   2.570   0.517   0.031
  725SOL     OW 2197   2.330   0.494   2.050
  725SOL    HW1 2198   2.385   0.570   2.070
  725SOL    HW2 2199   2.242   0.531   2.039
  726SOL     OW 2200   1.943   1.268   2.885
  726SOL    HW1 2201   1.930   1.276   2.980
  726SOL    HW2 2202   1.869   1.214   2.855
  727SOL     OW 2203   2.533   1.618   2.016
  727SOL    HW1 2204   2.541   1.628   1.922
  727SOL    HW2 2205   2.480   1.539   2.027
  728SOL     OW 2206   2.133   0.333   2.615
  728SOL    HW1 2207   2.047   0.366   2.591
  728SOL    HW2 2208   2.126   0.311   2.708
  729SOL     OW 2209   2.785   0.921   2.156
  729SOL    HW1 2210   2.834   0.929   2.074
  729SOL    HW2 2211   2.819   0.841   2.196
  730SOL     OW 2212   2.912   1.080   2.584
  730SOL    HW1 2213   2.833   1.039   2.620
  730SOL    HW2 2214   2.931   1.030   2.504
  731SOL     OW 2215   2.880   0.236   2.820
  731SOL    HW1 2216   2.874   0.190   2.737
  731SOL    HW2 2217   2.877   0.167   2.887
  732SOL     OW 2218   2.461   1.488   2.343
  732SOL    HW1 2219   2.503   1.439   2.272
  732SOL    HW2 2220   2.396   1.542   2.298
  733SOL     OW 2221   2.122   1.346   2.150
  733SOL    HW1 2222   2.029   1.344   2.126
  733SOL    HW2 2223   2.124   1.383   2.238
  734SOL     OW 2224   1.940   0.337   1.899
  734SOL    HW1 2225   1.850   0.317   1.872
  734SOL    HW2 2226   1.966   0.411   1.844
  735SOL     OW 2227   1.901   0.207   2.162
  735SOL    HW1 2228   1.921   0.265   2.089
  735SOL    HW2 2229   1.971   0.141   2.159
  736SOL     OW 2230   2.458   0.740   2.527
  736SOL    HW1 2231   2.493   0.828   2.511
  736SOL    HW2 2232   2.385   0.732   2.465
  737SOL     OW 2233   2.731   1.369   1.897
  737SOL    HW1 2234   2.681   1.401   1.972
  737SOL    HW2 2235   2.747   1.447   1.844
  738SOL     OW 2236   2.525   1.798   2.823
  738SOL    HW1 2237   2.504   1.885   2.789
  738SOL    HW2 2238   2.619   1.787   2.805
  739SOL     OW 2239   2.712   0.960   2.720
  739SOL    HW1 2240   2.766   0.892   2.759
  739SOL    HW2 2241   2.687   1.017   2.793
  740SOL     OW 2242   2.936   0.950   1.930
  740SOL    HW1 2243   2.908   1.026   1.880
  740SOL    HW2 2244   0.026   0.971   1.956
  741SOL     OW 2245   1.945   1.238   2.527
  741SOL    HW1 2246   1.944   1.183   2.605
  741SOL    HW2 2247   2.013   1.199   2.471
  742SOL     OW 2248   2.332   0.430   2.408
  742SOL    HW1 2249   2.320   0.373   2.332
  742SOL    HW2 2250   2.265   0.401   2.470
  743SOL     OW 2251   2.683   1.581   2.538
  743SOL    HW1 2252   2.683   1.618   2.450
  743SOL    HW2 2253   2.605   1.526   2.541
  744SOL     OW 2254   2.634   1.333   2.173
  744SOL    HW1 2255   2.603   1.243   2.182
  744SOL    HW2 2256   2.715   1.335   2.225
  745SOL     OW 2257   1.907   1.074   2.168
  745SOL    HW1 2258   2.000   1.062   2.150
  745SOL    HW2 2259   1.876   0.986   2.191
  746SOL     OW 2260   2.737   1.645   2.210
  746SOL    HW1 2261   2.668   1.632   2.145
  746SOL    HW2 2262   2.713   1.727   2.254
  747SOL     OW 2263   2.088   2.501   0.112
  747SOL    HW1 2264   1.999   2.476   0.135
  747SOL    HW2 2265   2.104   2.459   0.027
  748SOL     OW 2266   2.086   2.142   0.991
  748SOL    HW1 2267   2.115   2.109   1.076
  748SOL    HW2 2268   1.997   2.109   0.982
  749SOL     OW 2269   1.869   2.245   0.639
  749SOL    HW1 2270   1.785   2.265   0.680
  749SOL    HW2 2271   1.852   2.166   0.588
  750SOL     OW 2272   2.597   0.001   1.022
  750SOL    HW1 2273   2.527   0.048   1.067
  750SOL    HW2 2274   2.645   0.069   0.974
  751SOL     OW 2275   2.721   2.639   1.818
  751SOL    HW1 2276   2.719   2.700   1.892
  751SOL    HW2 2277   2.751   2.692   1.744
  752SOL     OW 2278   2.515   2.847   0.707
  752SOL    HW1 2279   2.609   2.855   0.724
  752SOL    HW2 2280   2.490   2.932   0.671
  753SOL     OW 2281   2.308   2.261   1.492
  753SOL    HW1 2282   2.383   2.202   1.494
  753SOL    HW2 2283   2.232   2.203   1.501
  754SOL     OW 2284   2.109   0.307   0.482
  754SOL    HW1 2285   2.060   0.387   0.503
  754SOL    HW2 2286   2.049   0.236   0.501
  755SOL     OW 2287   2.108   2.949   0.883
  755SOL    HW1 2288   2.125   2.862   0.919
  755SOL    HW2 2289   2.058   2.994   0.951
  756SOL     OW 2290   2.478   2.832   0.147
  756SOL    HW1 2291   2.463   2.924   0.128
  756SOL    HW2 2292   2.543   2.832   0.217
  757SOL     OW 2293   1.977   2.509   0.561
  757SOL    HW1 2294   1.948   2.421   0.583
  757SOL    HW2 2295   1.969   2.558   0.643
  758SOL     OW 2296   1.984   2.604   1.585
  758SOL    HW1 2297   2.077   2.621   1.602
  758SOL    HW2 2298   1.941   2.687   1.604
  759SOL     OW 2299   2.525   0.245   0.678
  759SOL    HW1 2300   2.466   0.182   0.719
  759SOL    HW2 2301   2.466   0.301   0.626
  760SOL     OW 2302   2.674   1.863   0.505
  760SOL    HW1 2303   2.712   1.950   0.493
  760SOL    HW2 2304   2.580   1.879   0.516
  761SOL     OW 2305   2.056   2.841   1.256
  761SOL    HW1 2306   2.138   2.792   1.249
  761SOL    HW2 2307   1.988   2.778   1.233
  762SOL     OW 2308   2.191   2.114   1.806
  762SOL    HW1 2309   2.238   2.196   1.822
  762SOL    HW2 2310   2.103   2.129   1.841
  763SOL     OW 2311   2.454   2.581   0.268
  763SOL    HW1 2312   2.463   2.661   0.217
  763SOL    HW2 2313   2.389   2.602   0.335
  764SOL     OW 2314   2.653   2.488   1.452
  764SOL    HW1 2315   2.629   2.462   1.541
  764SOL    HW2 2316   2.616   2.420   1.396
  765SOL     OW 2317   2.828   2.747   1.580
  765SOL    HW1 2318   2.857   2.662   1.546
  765SOL    HW2 2319   2.776   2.785   1.510
  766SOL     OW 2320   2.848   2.240   1.257
  766SOL    HW1 2321   2.770   2.287   1.287
  766SOL    HW2 2322   2.834   2.230   1.163
  767SOL     OW 2323   2.889   2.580   0.411
  767SOL    HW1 2324   2.927   2.563   0.497
  767SOL    HW2 2325   2.815   2.518   0.406
  768SOL     OW 2326   1.946   2.681   0.777
  768SOL    HW1 2327   2.031   2.671   0.821
  768SOL    HW2 2328   1.911   2.764   0.810
  769SOL     OW 2329   2.789   2.194   0.217
  769SOL    HW1 2330   2.782   2.262   0.150
  769SOL    HW2 2331   2.757   2.114   0.174
  770SOL     OW 2332   2.411   2.047   0.892
  770SOL    HW1 2333   2.413   2.072   0.984
  770SOL    HW2 2334   2.413   2.129   0.844
  771SOL     OW 2335   2.061   2.145   1.500
  771SOL    HW1 2336   1.979   2.194   1.493
  771SOL    HW2 2337   2.048   2.086   1.574
  772SOL     OW 2338   2.249   2.556   0.475
  772SOL    HW1 2339   2.274   2.464   0.485
  772SOL    HW2 2340   2.156   2.558   0.496
  773SOL     OW 2341   2.486   1.982   0.115
  773SOL    HW1 2342   2.580   1.965   0.117
  773SOL    HW2 2343   2.456   1.937   0.035
  774SOL     OW 2344   2.631   2.143   1.756
  774SOL    HW1 2345   2.701   2.079   1.767
  774SOL    HW2 2346   2.571   2.125   1.828
  775SOL     OW 2347   2.787   2.366   0.903
  775SOL    HW1 2348   2.760   2.355   0.812
  775SOL    HW2 2349   2.824   2.282   0.927
  776SOL     OW 2350   2.409   1.924   0.505
  776SOL    HW1 2351   2.329   1.926   0.558
  776SOL    HW2 2352   2.404   2.001   0.450
  777SOL     OW 2353   2.809   2.101   0.466
  777SOL    HW1 2354   2.775   2.149   0.391
  777SOL    HW2 2355   2.897   2.073   0.439
  778SOL     OW 2356   2.886   2.380   0.031
  778SOL    HW1 2357   2.844   2.463   0.011
  778SOL    HW2 2358   2.943   2.399   0.106
  779SOL     OW 2359   1.938   2.418   1.390
  779SOL    HW1 2360   2.030   2.415   1.363
  779SOL    HW2 2361   1.935   2.488   1.455
  780SOL     OW 2362   2.423   2.089   1.163
  780SOL    HW1 2363   2.461   2.008   1.199
  780SOL    HW2 2364   2.332   2.087   1.193
  781SOL     OW 2365   2.742   2.320   0.635
  781SOL    HW1 2366   2.685   2.379   0.586
  781SOL    HW2 2367   2.744   2.239   0.584
  782SOL     OW 2368   2.858   1.923   0.757
  782SOL    HW1 2369   2.811   1.903   0.676
  782SOL    HW2 2370   2.851   1.843   0.809
  783SOL     OW 2371   2.380   2.122   0.323
  783SOL    HW1 2372   2.421   2.073   0.252
  783SOL    HW2 2373   2.365   2.209   0.288
  784SOL     OW 2374   2.755   1.950   1.391
  784SOL    HW1 2375   2.780   1.934   1.300
  784SOL    HW2 2376   2.831   1.992   1.430
  785SOL     OW 2377   2.275   2.678   1.254
  785SOL    HW1 2378   2.346   2.685   1.317
  785SOL    HW2 2379   2.241   2.589   1.265
  786SOL     OW 2380   2.419   2.399   0.861
  786SOL    HW1 2381   2.434   2.455   0.786
  786SOL    HW2 2382   2.482   2.428   0.927
  787SOL     OW 2383   2.275   2.603   1.603
  787SOL    HW1 2384   2.336   2.648   1.545
  787SOL    HW2 2385   2.315   2.518   1.618
  788SOL     OW 2386   2.857   1.988   1.771
  788SOL    HW1 2387   2.899   2.043   1.705
  788SOL    HW2 2388   2.899   1.903   1.763
  789SOL     OW 2389   2.361   1.907   1.746
  789SOL    HW1 2390   2.320   1.851   1.680
  789SOL    HW2 2391   2.299   1.979   1.758
  790SOL     OW 2392   2.450   2.730   1.035
  790SOL    HW1 2393   2.467   2.822   1.017
  790SOL    HW2 2394   2.387   2.731   1.107
  791SOL     OW 2395   0.063   2.398   0.271
  791SOL    HW1 2396   0.078   2.318   0.321
  791SOL    HW2 2397   0.034   2.462   0.337
  792SOL     OW 2398   2.164   2.064   1.245
  792SOL    HW1 2399   2.126   2.095   1.327
  792SOL    HW2 2400   2.147   1.970   1.245
  793SOL     OW 2401   2.589   2.492   1.060
  793SOL    HW1 2402   2.666   2.479   1.004
  793SOL    HW2 2403   2.560   2.582   1.041
  794SOL     OW 2404   2.162   1.928   0.622
  794SOL    HW1 2405   2.146   2.019   0.648
  794SOL    HW2 2406   2.170   1.881   0.704
  795SOL     OW 2407   2.858   2.625   0.982
  795SOL    HW1 2408   2.909   2.621   1.063
  795SOL    HW2 2409   2.864   2.537   0.945
  796SOL     OW 2410   2.223   2.786   1.801
  796SOL    HW1 2411   2.290   2.780   1.869
  796SOL    HW2 2412   2.244   2.716   1.740
  797SOL     OW 2413   2.174   2.674   0.948
  797SOL    HW1 2414   2.267   2.691   0.936
  797SOL    HW2 2415   2.170   2.585   0.983
  798SOL     OW 2416   2.195   2.386   1.010
  798SOL    HW1 2417   2.160   2.298   0.995
  798SOL    HW2 2418   2.272   2.391   0.953
  799SOL     OW 2419   2.969   2.242   1.667
  799SOL    HW1 2420   2.912   2.302   1.716
  799SOL    HW2 2421   0.056   2.281   1.673
  800SOL     OW 2422   2.978   2.064   1.470
  800SOL    HW1 2423   2.965   2.135   1.533
  800SOL    HW2 2424   2.981   2.108   1.385
  801SOL     OW 2425   2.859   2.667   1.264
  801SOL    HW1 2426   2.908   2.598   1.308
  801SOL    HW2 2427   2.777   2.625   1.238
  802SOL     OW 2428   1.897   2.408   1.116
  802SOL    HW1 2429   1.978   2.387   1.068
  802SOL    HW2 2430   1.925   2.411   1.208
  803SOL     OW 2431   2.051   2.379   1.723
  803SOL    HW1 2432   2.110   2.345   1.656
  803SOL    HW2 2433   2.004   2.450   1.679
  804SOL     OW 2434   2.670   2.427   0.355
  804SOL    HW1 2435   2.672   2.358   0.289
  804SOL    HW2 2436   2.596   2.482   0.330
  805SOL     OW 2437   2.556   2.318   1.264
  805SOL    HW1 2438   2.508   2.241   1.233
  805SOL    HW2 2439   2.556   2.378   1.190
  806SOL     OW 2440   2.305   2.356   0.207
  806SOL    HW1 2441   2.372   2.423   0.222
  806SOL    HW2 2442   2.226   2.405   0.187
  807SOL     OW 2443   2.019   2.996   1.474
  807SOL    HW1 2444   2.024   2.939   1.550
  807SOL    HW2 2445   2.034   2.938   1.399
  808SOL     OW 2446   2.761   1.934   0.125
  808SOL    HW1 2447   2.819   1.910   0.053
  808SOL    HW2 2448   2.803   1.898   0.203
  809SOL     OW 2449   2.126   2.179   0.719
  809SOL    HW1 2450   2.042   2.216   0.694
  809SOL    HW2 2451   2.121   2.169   0.814
  810SOL     OW 2452   2.673   2.866   1.375
  810SOL    HW1 2453   2.729   2.842   1.301
  810SOL    HW2 2454   2.699   2.955   1.397
  811SOL     OW 2455   2.745   2.784   0.287
  811SOL    HW1 2456   2.825   2.835   0.269
  811SOL    HW2 2457   2.771   2.720   0.353
  812SOL     OW 2458   2.880   2.103   0.967
  812SOL    HW1 2459   2.875   2.054   0.885
  812SOL    HW2 2460   2.869   2.037   1.035
  813SOL     OW 2461   1.974   2.863   1.709
  813SOL    HW1 2462   1.899   2.856   1.767
  813SOL    HW2 2463   2.050   2.845   1.765
  814SOL     OW 2464   2.527   2.062   1.500
  814SOL    HW1 2465   2.608   2.040   1.454
  814SOL    HW2 2466   2.556   2.090   1.587
  815SOL     OW 2467   1.937   2.019   0.341
  815SOL    HW1 2468   1.901   2.066   0.265
  815SOL    HW2 2469   2.027   1.999   0.316
  816SOL     OW 2470   2.475   2.693   1.434
  816SOL    HW1 2471   2.532   2.768   1.418
  816SOL    HW2 2472   2.535   2.618   1.441
  817SOL     OW 2473   2.578   2.426   1.703
  817SOL    HW1 2474   2.612   2.491   1.764
  817SOL    HW2 2475   2.612   2.342   1.736
  818SOL     OW 2476   2.456   2.586   0.661
  818SOL    HW1 2477   2.482   2.678   0.672
  818SOL    HW2 2478   2.385   2.589   0.597
  819SOL     OW 2479   2.751   2.837   0.862
  819SOL    HW1 2480   2.780   2.753   0.898
  819SOL    HW2 2481   2.682   2.866   0.922
  820SOL     OW 2482   2.292   2.295   0.528
  820SOL    HW1 2483   2.320   2.224   0.470
  820SOL    HW2 2484   2.245   2.251   0.599
  821SOL     OW 2485   2.189   2.415   1.290
  821SOL    HW1 2486   2.244   2.360   1.346
  821SOL    HW2 2487   2.211   2.387   1.201
  822SOL     OW 2488   2.867   1.880   1.145
  822SOL    HW1 2489   2.813   1.811   1.106
  822SOL    HW2 2490   2.957   1.857   1.122
  823SOL     OW 2491   1.872   2.918   0.304
  823SOL    HW1 2492   1.957   2.920   0.260
  823SOL    HW2 2493   1.865   2.828   0.337
  824SOL     OW 2494   2.094   2.472   1.982
  824SOL    HW1 2495   2.006   2.490   2.015
  824SOL    HW2 2496   2.082   2.452   1.889
  825SOL     OW 2497   2.090   2.142   2.846
  825SOL    HW1 2498   2.117   2.115   2.933
  825SOL    HW2 2499   2.000   2.110   2.838
  826SOL     OW 2500   1.869   2.245   2.498
  826SOL    HW1 2501   1.786   2.270   2.539
  826SOL    HW2 2502   1.850   2.163   2.452
  827SOL     OW 2503   2.639   0.016   2.880
  827SOL    HW1 2504   2.549   0.024   2.911
  827SOL    HW2 2505   2.651   0.091   2.822
  828SOL     OW 2506   2.513   2.844   2.563
  828SOL    HW1 2507   2.604   2.848   2.591
  828SOL    HW2 2508   2.492   2.933   2.535
  829SOL     OW 2509   2.100   0.302   2.337
  829SOL    HW1 2510   2.056   0.384   2.361
  829SOL    HW2 2511   2.045   0.233   2.375
  830SOL     OW 2512   2.111   2.952   2.750
  830SOL    HW1 2513   2.125   2.863   2.782
  830SOL    HW2 2514   2.055   2.993   2.815
  831SOL     OW 2515   2.465   2.824   1.995
  831SOL    HW1 2516   2.461   2.907   1.947
  831SOL    HW2 2517   2.530   2.840   2.064
  832SOL     OW 2518   1.978   2.509   2.424
  832SOL    HW1 2519   1.949   2.421   2.446
  832SOL    HW2 2520   1.970   2.558   2.506
  833SOL     OW 2521   2.503   0.247   2.563
  833SOL    HW1 2522   2.459   0.163   2.550
  833SOL    HW2 2523   2.466   0.304   2.496
  834SOL     OW 2524   2.673   1.863   2.365
  834SOL    HW1 2525   2.713   1.949   2.354
  834SOL    HW2 2526   2.580   1.880   2.378
  835SOL     OW 2527   2.061   2.807   0.116
  835SOL    HW1 2528   2.130   2.741   0.106
  835SOL    HW2 2529   1.980   2.761   0.092
  836SOL     OW 2530   2.458   2.580   2.128
  836SOL    HW1 2531   2.465   2.658   2.072
  836SOL    HW2 2532   2.393   2.603   2.194
  837SOL     OW 2533   2.895   2.578   2.275
  837SOL    HW1 2534   2.924   2.567   2.365
  837SOL    HW2 2535   2.817   2.523   2.268
  838SOL     OW 2536   1.947   2.682   2.638
  838SOL    HW1 2537   2.029   2.670   2.685
  838SOL    HW2 2538   1.910   2.763   2.675
  839SOL     OW 2539   2.749   2.204   2.060
  839SOL    HW1 2540   2.788   2.267   2.000
  839SOL    HW2 2541   2.755   2.120   2.015
  840SOL     OW 2542   2.412   2.049   2.764
  840SOL    HW1 2543   2.382   2.083   2.848
  840SOL    HW2 2544   2.420   2.126   2.708
  841SOL     OW 2545   2.250   2.556   2.337
  841SOL    HW1 2546   2.275   2.464   2.347
  841SOL    HW2 2547   2.156   2.558   2.358
  842SOL     OW 2548   2.495   1.989   1.966
  842SOL    HW1 2549   2.562   1.923   1.982
  842SOL    HW2 2550   2.446   1.955   1.891
  843SOL     OW 2551   2.785   2.376   2.756
  843SOL    HW1 2552   2.761   2.354   2.667
  843SOL    HW2 2553   2.814   2.294   2.795
  844SOL     OW 2554   2.410   1.925   2.368
  844SOL    HW1 2555   2.328   1.926   2.418
  844SOL    HW2 2556   2.404   2.004   2.313
  845SOL     OW 2557   2.154   1.908   2.045
  845SOL    HW1 2558   2.212   1.974   2.008
  845SOL    HW2 2559   2.212   1.844   2.085
  846SOL     OW 2560   2.804   2.103   2.318
  846SOL    HW1 2561   2.767   2.149   2.243
  846SOL    HW2 2562   2.892   2.077   2.289
  847SOL     OW 2563   2.888   2.414   1.877
  847SOL    HW1 2564   2.840   2.494   1.856
  847SOL    HW2 2565   2.935   2.435   1.958
  848SOL     OW 2566   2.742   2.318   2.495
  848SOL    HW1 2567   2.684   2.378   2.448
  848SOL    HW2 2568   2.742   2.238   2.442
  849SOL     OW 2569   2.856   1.924   2.611
  849SOL    HW1 2570   2.807   1.897   2.533
  849SOL    HW2 2571   2.853   1.848   2.669
  850SOL     OW 2572   2.390   2.124   2.183
  850SOL    HW1 2573   2.429   2.075   2.110
  850SOL    HW2 2574   2.370   2.210   2.146
  851SOL     OW 2575   2.418   2.394   2.724
  851SOL    HW1 2576   2.432   2.451   2.648
  851SOL    HW2 2577   2.477   2.428   2.791
  852SOL     OW 2578   2.433   2.729   2.885
  852SOL    HW1 2579   2.480   2.806   2.854
  852SOL    HW2 2580   2.422   2.743   2.979
  853SOL     OW 2581   0.055   2.391   2.138
  853SOL    HW1 2582   0.087   2.318   2.190
  853SOL    HW2 2583   0.018   2.452   2.202
  854SOL     OW 2584   2.158   2.070   0.092
  854SOL    HW1 2585   2.189   2.102   0.177
  854SOL    HW2 2586   2.153   1.975   0.103
  855SOL     OW 2587   2.591   2.499   2.914
  855SOL    HW1 2588   2.662   2.480   2.853
  855SOL    HW2 2589   2.560   2.587   2.888
  856SOL     OW 2590   2.163   1.928   2.483
  856SOL    HW1 2591   2.145   2.019   2.509
  856SOL    HW2 2592   2.168   1.880   2.566
  857SOL     OW 2593   2.871   2.633   2.825
  857SOL    HW1 2594   2.894   2.634   2.918
  857SOL    HW2 2595   2.868   2.540   2.802
  858SOL     OW 2596   2.170   2.673   2.809
  858SOL    HW1 2597   2.264   2.694   2.811
  858SOL    HW2 2598   2.166   2.582   2.839
  859SOL     OW 2599   2.185   2.396   2.866
  859SOL    HW1 2600   2.149   2.307   2.858
  859SOL    HW2 2601   2.265   2.394   2.813
  860SOL     OW 2602   2.876   2.641   0.095
  860SOL    HW1 2603   2.916   2.634   0.182
  860SOL    HW2 2604   2.786   2.670   0.113
  861SOL     OW 2605   2.674   2.429   2.217
  861SOL    HW1 2606   2.673   2.353   2.158
  861SOL    HW2 2607   2.600   2.482   2.189
  862SOL     OW 2608   2.567   2.308   0.101
  862SOL    HW1 2609   2.479   2.272   0.091
  862SOL    HW2 2610   2.570   2.380   0.038
  863SOL     OW 2611   2.331   2.353   2.051
  863SOL    HW1 2612   2.386   2.428   2.073
  863SOL    HW2 2613   2.244   2.389   2.038
  864SOL     OW 2614   0.165   2.703   2.163
  864SOL    HW1 2615   0.106   2.647   2.214
  864SOL    HW2 2616   0.196   2.647   2.092
  865SOL     OW 2617   2.127   2.180   2.578
  865SOL    HW1 2618   2.042   2.217   2.553
  865SOL    HW2 2619   2.123   2.171   2.673
  866SOL     OW 2620   2.759   2.763   2.114
  866SOL    HW1 2621   2.835   2.815   2.089
  866SOL    HW2 2622   2.791   2.705   2.183
  867SOL     OW 2623   2.876   2.101   2.819
  867SOL    HW1 2624   2.872   2.056   2.734
  867SOL    HW2 2625   2.895   2.031   2.882
  868SOL     OW 2626   1.939   2.197   1.897
  868SOL    HW1 2627   1.851   2.178   1.863
  868SOL    HW2 2628   1.968   2.273   1.847
  869SOL     OW 2629   1.932   2.020   2.176
  869SOL    HW1 2630   1.918   2.100   2.125
  869SOL    HW2 2631   2.017   1.988   2.145
  870SOL     OW 2632   2.457   2.584   2.522
  870SOL    HW1 2633   2.483   2.675   2.532
  870SOL    HW2 2634   2.384   2.586   2.460
  871SOL     OW 2635   2.740   2.832   2.714
  871SOL    HW1 2636   2.783   2.755   2.750
  871SOL    HW2 2637   2.707   2.879   2.790
  872SOL     OW 2638   2.949   2.833   1.900
  872SOL    HW1 2639   2.916   2.922   1.909
  872SOL    HW2 2640   0.011   2.823   1.973
  873SOL     OW 2641   2.293   2.295   2.387
  873SOL    HW1 2642   2.319   2.222   2.330
  873SOL    HW2 2643   2.245   2.253   2.458
  874SOL     OW 2644   1.886   2.920   2.174
  874SOL    HW1 2645   1.971   2.930   2.132
  874SOL    HW2 2646   1.880   2.827   2.196
   3.00000   3.00000   3.00000
