UNNAMED in water
 2650
    1LEU      N    1   1.244   1.439   1.546
    1LEU     H1    2   1.201   1.433   1.453
    1LEU     H2    3   1.227   1.349   1.596
    1LEU     H3    4   1.200   1.513   1.606
    1LEU     CA    5   1.393   1.456   1.543
    1LEU     HA    6   1.434   1.365   1.504
    1LEU     CB    7   1.432   1.577   1.453
    1LEU    HB1    8   1.375   1.570   1.358
    1LEU    HB2    9   1.403   1.672   1.502
    1LEU     CG   10   1.581   1.585   1.413
    1LEU     HG   11   1.589   1.661   1.331
    1LEU    CD1   12   1.630   1.451   1.357
    1LEU   HD11   13   1.734   1.462   1.321
    1LEU   HD12   14   1.632   1.372   1.435
    1LEU   HD13   15   1.567   1.417   1.272
    1LEU    CD2   16   1.676   1.636   1.523
    1LEU   HD21   17   1.776   1.658   1.482
    1LEU   HD22   18   1.636   1.727   1.571
    1LEU   HD23   19   1.692   1.559   1.602
    1LEU      C   20   1.441   1.474   1.688
    1LEU    OT1   21   1.364   1.528   1.770
    1LEU    OT2   22   1.555   1.430   1.721
    2SOL     OW   23   0.239   0.662   0.108
    2SOL    HW1   24   0.171   0.615   0.155
    2SOL    HW2   25   0.252   0.611   0.028
    3SOL     OW   26   0.203   0.272   1.002
    3SOL    HW1   27   0.241   0.247   1.086
    3SOL    HW2   28   0.109   0.256   1.012
    4SOL     OW   29   0.008   0.388   0.659
    4SOL    HW1   30   2.925   0.428   0.684
    4SOL    HW2   31   2.983   0.315   0.602
    5SOL     OW   32   0.570   1.285   1.172
    5SOL    HW1   33   0.480   1.281   1.140
    5SOL    HW2   34   0.578   1.373   1.209
    6SOL     OW   35   1.558   1.511   0.705
    6SOL    HW1   36   1.513   1.496   0.789
    6SOL    HW2   37   1.487   1.517   0.641
    7SOL     OW   38   1.131   0.699   0.701
    7SOL    HW1   39   1.180   0.781   0.690
    7SOL    HW2   40   1.082   0.711   0.782
    8SOL     OW   41   1.767   0.592   0.232
    8SOL    HW1   42   1.744   0.581   0.140
    8SOL    HW2   43   1.728   0.517   0.277
    9SOL     OW   44   0.766   1.147   1.042
    9SOL    HW1   45   0.694   1.176   1.097
    9SOL    HW2   46   0.792   1.225   0.993
   10SOL     OW   47   0.860   0.781   1.820
   10SOL    HW1   48   0.857   0.851   1.884
   10SOL    HW2   49   0.888   0.823   1.739
   11SOL     OW   50   0.686   1.005   0.650
   11SOL    HW1   51   0.749   0.992   0.720
   11SOL    HW2   52   0.615   1.055   0.690
   12SOL     OW   53   0.708   1.153   1.810
   12SOL    HW1   54   0.754   1.234   1.833
   12SOL    HW2   55   0.623   1.183   1.777
   13SOL     OW   56   0.332   1.428   1.072
   13SOL    HW1   57   0.266   1.379   1.023
   13SOL    HW2   58   0.382   1.475   1.005
   14SOL     OW   59   0.452   0.403   1.492
   14SOL    HW1   60   0.526   0.342   1.495
   14SOL    HW2   61   0.375   0.348   1.505
   15SOL     OW   62   1.611   0.457   0.736
   15SOL    HW1   63   1.536   0.480   0.681
   15SOL    HW2   64   1.626   0.534   0.791
   16SOL     OW   65   0.218   1.716   0.480
   16SOL    HW1   66   0.238   1.798   0.524
   16SOL    HW2   67   0.289   1.704   0.417
   17SOL     OW   68   0.251   1.450   0.530
   17SOL    HW1   69   0.213   1.538   0.524
   17SOL    HW2   70   0.190   1.401   0.585
   18SOL     OW   71   0.262   1.082   0.895
   18SOL    HW1   72   0.254   0.995   0.933
   18SOL    HW2   73   0.198   1.135   0.944
   19SOL     OW   74   0.621   1.787   1.437
   19SOL    HW1   75   0.536   1.770   1.476
   19SOL    HW2   76   0.638   1.879   1.457
   20SOL     OW   77   0.589   0.976   0.150
   20SOL    HW1   78   0.603   1.048   0.089
   20SOL    HW2   79   0.629   1.005   0.232
   21SOL     OW   80   1.552   0.146   1.458
   21SOL    HW1   81   1.590   0.221   1.413
   21SOL    HW2   82   1.622   0.114   1.515
   22SOL     OW   83   0.123   0.628   0.570
   22SOL    HW1   84   0.084   0.550   0.611
   22SOL    HW2   85   0.119   0.695   0.638
   23SOL     OW   86   1.845   1.758   0.336
   23SOL    HW1   87   1.904   1.725   0.403
   23SOL    HW2   88   1.869   1.850   0.325
   24SOL     OW   89   0.023   1.600   0.118
   24SOL    HW1   90   0.022   1.505   0.129
   24SOL    HW2   91   2.987   1.634   0.200
   25SOL     OW   92   1.689   0.918   0.639
   25SOL    HW1   93   1.773   0.878   0.619
   25SOL    HW2   94   1.668   0.969   0.561
   26SOL     OW   95   1.647   1.108   0.432
   26SOL    HW1   96   1.732   1.113   0.390
   26SOL    HW2   97   1.653   1.169   0.506
   27SOL     OW   98   0.131   0.747   1.589
   27SOL    HW1   99   0.226   0.760   1.591
   27SOL    HW2  100   0.095   0.836   1.591
   28SOL     OW  101   0.612   1.383   0.736
   28SOL    HW1  102   0.565   1.300   0.744
   28SOL    HW2  103   0.595   1.411   0.646
   29SOL     OW  104   1.283   1.189   1.425
   29SOL    HW1  105   1.307   1.132   1.352
   29SOL    HW2  106   1.340   1.162   1.497
   30SOL     OW  107   0.819   0.013   0.516
   30SOL    HW1  108   0.850   0.102   0.500
   30SOL    HW2  109   0.725   0.017   0.499
   31SOL     OW  110   0.187   0.955   1.275
   31SOL    HW1  111   0.271   0.916   1.253
   31SOL    HW2  112   0.124   0.912   1.218
   32SOL     OW  113   1.506   1.007   0.211
   32SOL    HW1  114   1.441   0.949   0.250
   32SOL    HW2  115   1.560   1.035   0.285
   33SOL     OW  116   1.175   1.822   1.624
   33SOL    HW1  117   1.195   1.879   1.550
   33SOL    HW2  118   1.209   1.737   1.598
   34SOL     OW  119   0.333   0.253   1.796
   34SOL    HW1  120   0.383   0.329   1.823
   34SOL    HW2  121   0.249   0.261   1.841
   35SOL     OW  122   1.468   1.414   0.962
   35SOL    HW1  123   1.392   1.432   1.017
   35SOL    HW2  124   1.452   1.327   0.926
   36SOL     OW  125   1.660   1.735   0.578
   36SOL    HW1  126   1.639   1.707   0.489
   36SOL    HW2  127   1.635   1.661   0.633
   37SOL     OW  128   0.592   0.719   0.267
   37SOL    HW1  129   0.599   0.802   0.220
   37SOL    HW2  130   0.529   0.737   0.337
   38SOL     OW  131   1.286   0.344   0.930
   38SOL    HW1  132   1.194   0.318   0.938
   38SOL    HW2  133   1.330   0.292   0.998
   39SOL     OW  134   1.583   1.667   0.310
   39SOL    HW1  135   1.672   1.701   0.302
   39SOL    HW2  136   1.557   1.647   0.221
   40SOL     OW  137   0.793   0.618   1.454
   40SOL    HW1  138   0.765   0.595   1.543
   40SOL    HW2  139   0.752   0.553   1.398
   41SOL     OW  140   1.397   0.479   1.677
   41SOL    HW1  141   1.398   0.522   1.763
   41SOL    HW2  142   1.453   0.403   1.688
   42SOL     OW  143   0.958   0.889   1.583
   42SOL    HW1  144   1.012   0.818   1.547
   42SOL    HW2  145   0.909   0.922   1.507
   43SOL     OW  146   0.995   0.424   1.228
   43SOL    HW1  147   0.917   0.436   1.282
   43SOL    HW2  148   0.965   0.373   1.153
   44SOL     OW  149   1.049   0.705   0.424
   44SOL    HW1  150   1.066   0.695   0.518
   44SOL    HW2  151   0.969   0.656   0.408
   45SOL     OW  152   0.104   0.817   0.762
   45SOL    HW1  153   0.180   0.814   0.819
   45SOL    HW2  154   0.038   0.866   0.812
   46SOL     OW  155   0.139   1.836   1.571
   46SOL    HW1  156   0.125   1.816   1.664
   46SOL    HW2  157   0.054   1.865   1.540
   47SOL     OW  158   0.929   0.339   0.220
   47SOL    HW1  159   0.937   0.399   0.146
   47SOL    HW2  160   0.879   0.265   0.185
   48SOL     OW  161   1.712   0.576   1.829
   48SOL    HW1  162   1.673   0.652   1.785
   48SOL    HW2  163   1.736   0.517   1.757
   49SOL     OW  164   1.376   1.141   0.541
   49SOL    HW1  165   1.455   1.130   0.488
   49SOL    HW2  166   1.324   1.204   0.492
   50SOL     OW  167   0.512   0.197   0.915
   50SOL    HW1  168   0.536   0.212   1.007
   50SOL    HW2  169   0.548   0.273   0.868
   51SOL     OW  170   1.008   1.448   0.475
   51SOL    HW1  171   0.967   1.517   0.423
   51SOL    HW2  172   0.985   1.469   0.565
   52SOL     OW  173   0.354   1.807   0.856
   52SOL    HW1  174   0.399   1.724   0.868
   52SOL    HW2  175   0.420   1.874   0.875
   53SOL     OW  176   1.800   1.056   0.866
   53SOL    HW1  177   1.745   1.042   0.789
   53SOL    HW2  178   1.738   1.061   0.939
   54SOL     OW  179   0.319   0.948   0.234
   54SOL    HW1  180   0.410   0.956   0.206
   54SOL    HW2  181   0.292   0.861   0.204
   55SOL     OW  182   1.476   0.741   0.728
   55SOL    HW1  183   1.467   0.696   0.812
   55SOL    HW2  184   1.554   0.795   0.738
   56SOL     OW  185   0.467   1.261   1.734
   56SOL    HW1  186   0.438   1.268   1.643
   56SOL    HW2  187   0.386   1.267   1.785
   57SOL     OW  188   1.111   1.776   0.224
   57SOL    HW1  189   1.051   1.728   0.281
   57SOL    HW2  190   1.142   1.710   0.161
   58SOL     OW  191   0.202   0.297   1.495
   58SOL    HW1  192   0.117   0.343   1.492
   58SOL    HW2  193   0.186   0.221   1.550
   59SOL     OW  194   1.626   1.362   0.085
   59SOL    HW1  195   1.600   1.453   0.076
   59SOL    HW2  196   1.545   1.312   0.079
   60SOL     OW  197   0.466   1.722   0.335
   60SOL    HW1  198   0.500   1.792   0.391
   60SOL    HW2  199   0.532   1.714   0.266
   61SOL     OW  200   1.409   0.108   0.437
   61SOL    HW1  201   1.392   0.083   0.346
   61SOL    HW2  202   1.503   0.126   0.439
   62SOL     OW  203   0.268   1.797   1.233
   62SOL    HW1  204   0.303   1.722   1.280
   62SOL    HW2  205   0.225   1.759   1.156
   63SOL     OW  206   0.938   1.698   0.899
   63SOL    HW1  207   1.015   1.645   0.918
   63SOL    HW2  208   0.892   1.649   0.830
   64SOL     OW  209   0.393   0.691   0.474
   64SOL    HW1  210   0.423   0.602   0.492
   64SOL    HW2  211   0.301   0.690   0.497
   65SOL     OW  212   1.538   0.251   1.735
   65SOL    HW1  213   1.540   0.258   1.831
   65SOL    HW2  214   1.485   0.173   1.718
   66SOL     OW  215   0.609   0.110   0.106
   66SOL    HW1  216   0.704   0.108   0.117
   66SOL    HW2  217   0.596   0.148   0.019
   67SOL     OW  218   0.765   0.270   1.749
   67SOL    HW1  219   0.841   0.215   1.763
   67SOL    HW2  220   0.725   0.279   1.835
   68SOL     OW  221   0.878   1.522   1.189
   68SOL    HW1  222   0.858   1.492   1.100
   68SOL    HW2  223   0.914   1.445   1.232
   69SOL     OW  224   1.342   0.588   1.433
   69SOL    HW1  225   1.371   0.555   1.518
   69SOL    HW2  226   1.378   0.676   1.427
   70SOL     OW  227   0.814   1.398   0.936
   70SOL    HW1  228   0.897   1.388   0.889
   70SOL    HW2  229   0.748   1.397   0.867
   71SOL     OW  230   0.928   0.511   0.902
   71SOL    HW1  231   0.905   0.504   0.809
   71SOL    HW2  232   0.959   0.424   0.927
   72SOL     OW  233   0.541   0.047   0.498
   72SOL    HW1  234   0.455   0.039   0.539
   72SOL    HW2  235   0.534   0.124   0.441
   73SOL     OW  236   1.410   1.209   0.049
   73SOL    HW1  237   1.429   1.133   0.104
   73SOL    HW2  238   1.322   1.235   0.075
   74SOL     OW  239   0.298   0.082   0.199
   74SOL    HW1  240   0.382   0.128   0.195
   74SOL    HW2  241   0.321   2.989   0.194
   75SOL     OW  242   0.947   0.252   0.474
   75SOL    HW1  243   0.925   0.289   0.389
   75SOL    HW2  244   1.042   0.262   0.480
   76SOL     OW  245   1.080   0.680   1.457
   76SOL    HW1  246   1.010   0.616   1.466
   76SOL    HW2  247   1.160   0.628   1.453
   77SOL     OW  248   1.228   1.571   0.796
   77SOL    HW1  249   1.237   1.635   0.725
   77SOL    HW2  250   1.297   1.594   0.858
   78SOL     OW  251   0.468   1.148   0.737
   78SOL    HW1  252   0.397   1.128   0.798
   78SOL    HW2  253   0.430   1.135   0.650
   79SOL     OW  254   1.269   1.795   0.606
   79SOL    HW1  255   1.316   1.855   0.549
   79SOL    HW2  256   1.204   1.849   0.651
   80SOL     OW  257   1.046   0.498   0.031
   80SOL    HW1  258   1.003   0.583   0.024
   80SOL    HW2  259   1.113   0.511   0.098
   81SOL     OW  260   0.081   0.566   1.390
   81SOL    HW1  261   0.171   0.561   1.356
   81SOL    HW2  262   0.086   0.630   1.461
   82SOL     OW  263   0.581   0.211   1.180
   82SOL    HW1  264   0.616   0.170   1.259
   82SOL    HW2  265   0.487   0.220   1.198
   83SOL     OW  266   0.877   0.472   0.638
   83SOL    HW1  267   0.821   0.517   0.575
   83SOL    HW2  268   0.885   0.383   0.604
   84SOL     OW  269   0.998   0.057   0.765
   84SOL    HW1  270   0.962   0.065   0.677
   84SOL    HW2  271   0.974   2.968   0.792
   85SOL     OW  272   1.433   1.164   0.858
   85SOL    HW1  273   1.368   1.094   0.850
   85SOL    HW2  274   1.464   1.178   0.768
   86SOL     OW  275   1.468   0.602   0.979
   86SOL    HW1  276   1.417   0.521   0.985
   86SOL    HW2  277   1.528   0.598   1.053
   87SOL     OW  278   1.845   0.817   0.383
   87SOL    HW1  279   1.901   0.761   0.436
   87SOL    HW2  280   1.820   0.762   0.309
   88SOL     OW  281   0.490   1.407   0.152
   88SOL    HW1  282   0.425   1.375   0.215
   88SOL    HW2  283   0.441   1.416   0.070
   89SOL     OW  284   1.668   1.264   0.652
   89SOL    HW1  285   1.763   1.267   0.662
   89SOL    HW2  286   1.639   1.353   0.670
   90SOL     OW  287   1.414   0.574   0.098
   90SOL    HW1  288   1.343   0.568   0.162
   90SOL    HW2  289   1.459   0.490   0.103
   91SOL     OW  290   0.527   0.262   0.325
   91SOL    HW1  291   0.570   0.214   0.254
   91SOL    HW2  292   0.500   0.344   0.285
   92SOL     OW  293   1.748   1.210   1.584
   92SOL    HW1  294   1.843   1.202   1.575
   92SOL    HW2  295   1.735   1.292   1.631
   93SOL     OW  296   1.121   1.222   1.113
   93SOL    HW1  297   1.040   1.200   1.159
   93SOL    HW2  298   1.094   1.239   1.023
   94SOL     OW  299   1.630   1.097   1.073
   94SOL    HW1  300   1.630   1.161   1.144
   94SOL    HW2  301   1.548   1.112   1.026
   95SOL     OW  302   0.899   0.111   1.385
   95SOL    HW1  303   0.940   0.092   1.301
   95SOL    HW2  304   0.964   0.165   1.431
   96SOL     OW  305   0.985   1.120   1.722
   96SOL    HW1  306   0.893   1.132   1.742
   96SOL    HW2  307   0.987   1.042   1.666
   97SOL     OW  308   0.704   1.063   0.379
   97SOL    HW1  309   0.690   1.049   0.472
   97SOL    HW2  310   0.784   1.015   0.359
   98SOL     OW  311   0.421   0.813   1.248
   98SOL    HW1  312   0.487   0.824   1.315
   98SOL    HW2  313   0.384   0.726   1.264
   99SOL     OW  314   1.272   0.389   1.258
   99SOL    HW1  315   1.300   0.460   1.317
   99SOL    HW2  316   1.177   0.401   1.249
  100SOL     OW  317   0.067   1.573   1.310
  100SOL    HW1  318   0.026   1.652   1.343
  100SOL    HW2  319   0.155   1.574   1.348
  101SOL     OW  320   0.360   1.111   0.489
  101SOL    HW1  321   0.347   1.184   0.428
  101SOL    HW2  322   0.353   1.033   0.434
  102SOL     OW  323   0.552   0.541   0.862
  102SOL    HW1  324   0.570   0.596   0.786
  102SOL    HW2  325   0.618   0.567   0.927
  103SOL     OW  326   1.247   1.346   0.397
  103SOL    HW1  327   1.303   1.419   0.423
  103SOL    HW2  328   1.160   1.370   0.428
  104SOL     OW  329   1.271   1.446   1.154
  104SOL    HW1  330   1.323   1.415   1.228
  104SOL    HW2  331   1.212   1.373   1.133
  105SOL     OW  332   1.583   0.626   0.479
  105SOL    HW1  333   1.538   0.682   0.541
  105SOL    HW2  334   1.630   0.686   0.421
  106SOL     OW  335   0.349   1.529   1.320
  106SOL    HW1  336   0.331   1.487   1.236
  106SOL    HW2  337   0.444   1.539   1.322
  107SOL     OW  338   0.412   0.740   1.602
  107SOL    HW1  339   0.469   0.790   1.543
  107SOL    HW2  340   0.460   0.659   1.618
  108SOL     OW  341   1.601   0.775   1.681
  108SOL    HW1  342   1.513   0.811   1.674
  108SOL    HW2  343   1.651   0.821   1.613
  109SOL     OW  344   1.005   0.112   1.761
  109SOL    HW1  345   1.049   0.194   1.738
  109SOL    HW2  346   1.025   0.052   1.689
  110SOL     OW  347   0.504   0.051   1.750
  110SOL    HW1  348   0.471   2.988   1.685
  110SOL    HW2  349   0.436   0.117   1.757
  111SOL     OW  350   0.585   0.871   1.032
  111SOL    HW1  351   0.607   0.965   1.028
  111SOL    HW2  352   0.527   0.863   1.107
  112SOL     OW  353   1.356   0.854   1.025
  112SOL    HW1  354   1.275   0.841   0.976
  112SOL    HW2  355   1.398   0.768   1.025
  113SOL     OW  356   1.205   0.531   0.271
  113SOL    HW1  357   1.214   0.450   0.322
  113SOL    HW2  358   1.162   0.592   0.330
  114SOL     OW  359   0.325   0.207   1.249
  114SOL    HW1  360   0.291   0.252   1.326
  114SOL    HW2  361   0.274   0.126   1.244
  115SOL     OW  362   0.031   1.305   1.279
  115SOL    HW1  363   0.065   1.259   1.355
  115SOL    HW2  364   0.043   1.398   1.299
  116SOL     OW  365   0.726   0.632   1.059
  116SOL    HW1  366   0.799   0.615   1.000
  116SOL    HW2  367   0.697   0.720   1.037
  117SOL     OW  368   1.736   0.958   1.854
  117SOL    HW1  369   1.687   0.904   1.792
  117SOL    HW2  370   1.675   0.973   1.926
  118SOL     OW  371   0.308   0.072   0.642
  118SOL    HW1  372   0.304   0.157   0.685
  118SOL    HW2  373   0.283   0.009   0.710
  119SOL     OW  374   1.616   0.374   0.367
  119SOL    HW1  375   1.646   0.310   0.431
  119SOL    HW2  376   1.591   0.450   0.419
  120SOL     OW  377   1.028   0.759   0.963
  120SOL    HW1  378   1.026   0.776   1.057
  120SOL    HW2  379   1.001   0.668   0.953
  121SOL     OW  380   1.022   1.542   1.678
  121SOL    HW1  381   0.980   1.601   1.615
  121SOL    HW2  382   0.959   1.471   1.690
  122SOL     OW  383   0.356   0.915   1.808
  122SOL    HW1  384   0.437   0.935   1.855
  122SOL    HW2  385   0.381   0.851   1.742
  123SOL     OW  386   1.499   0.303   0.126
  123SOL    HW1  387   1.461   0.217   0.140
  123SOL    HW2  388   1.557   0.318   0.200
  124SOL     OW  389   1.293   0.822   0.034
  124SOL    HW1  390   1.335   0.738   0.048
  124SOL    HW2  391   1.322   0.850   2.948
  125SOL     OW  392   1.069   1.334   0.854
  125SOL    HW1  393   1.069   1.262   0.791
  125SOL    HW2  394   1.128   1.399   0.815
  126SOL     OW  395   0.310   0.807   0.948
  126SOL    HW1  396   0.404   0.826   0.942
  126SOL    HW2  397   0.306   0.719   0.986
  127SOL     OW  398   0.334   0.514   1.017
  127SOL    HW1  399   0.294   0.431   0.993
  127SOL    HW2  400   0.408   0.524   0.957
  128SOL     OW  401   1.141   0.381   1.702
  128SOL    HW1  402   1.095   0.436   1.765
  128SOL    HW2  403   1.227   0.420   1.693
  129SOL     OW  404   1.099   0.255   1.472
  129SOL    HW1  405   1.120   0.307   1.550
  129SOL    HW2  406   1.184   0.231   1.436
  130SOL     OW  407   0.009   1.315   0.171
  130SOL    HW1  408   2.917   1.330   0.149
  130SOL    HW2  409   0.007   1.240   0.231
  131SOL     OW  410   0.099   1.806   0.971
  131SOL    HW1  411   0.058   1.741   0.914
  131SOL    HW2  412   0.184   1.822   0.931
  132SOL     OW  413   0.495   1.573   0.902
  132SOL    HW1  414   0.564   1.634   0.929
  132SOL    HW2  415   0.540   1.509   0.848
  133SOL     OW  416   0.985   0.798   1.229
  133SOL    HW1  417   1.039   0.770   1.302
  133SOL    HW2  418   0.900   0.756   1.244
  134SOL     OW  419   0.044   0.559   1.107
  134SOL    HW1  420   0.134   0.536   1.083
  134SOL    HW2  421   0.040   0.544   1.201
  135SOL     OW  422   0.192   0.518   1.720
  135SOL    HW1  423   0.265   0.492   1.664
  135SOL    HW2  424   0.159   0.599   1.681
  136SOL     OW  425   1.366   0.914   1.657
  136SOL    HW1  426   1.395   1.005   1.663
  136SOL    HW2  427   1.367   0.894   1.564
  137SOL     OW  428   0.819   0.578   0.348
  137SOL    HW1  429   0.822   0.498   0.295
  137SOL    HW2  430   0.738   0.621   0.323
  138SOL     OW  431   1.643   0.603   1.188
  138SOL    HW1  432   1.630   0.544   1.262
  138SOL    HW2  433   1.730   0.580   1.154
  139SOL     OW  434   0.283   1.560   1.746
  139SOL    HW1  435   0.222   1.617   1.793
  139SOL    HW2  436   0.254   1.471   1.768
  140SOL     OW  437   0.696   0.456   1.263
  140SOL    HW1  438   0.649   0.379   1.230
  140SOL    HW2  439   0.696   0.517   1.190
  141SOL     OW  440   0.938   1.679   1.458
  141SOL    HW1  441   0.902   1.651   1.374
  141SOL    HW2  442   0.930   1.774   1.457
  142SOL     OW  443   0.450   0.495   0.200
  142SOL    HW1  444   0.512   0.565   0.221
  142SOL    HW2  445   0.366   0.539   0.188
  143SOL     OW  446   0.160   1.144   1.465
  143SOL    HW1  447   0.143   1.097   1.546
  143SOL    HW2  448   0.168   1.076   1.398
  144SOL     OW  449   1.339   1.050   1.205
  144SOL    HW1  450   1.356   0.981   1.141
  144SOL    HW2  451   1.263   1.097   1.170
  145SOL     OW  452   1.306   0.852   0.312
  145SOL    HW1  453   1.230   0.819   0.360
  145SOL    HW2  454   1.284   0.839   0.220
  146SOL     OW  455   1.756   1.757   1.130
  146SOL    HW1  456   1.829   1.778   1.071
  146SOL    HW2  457   1.744   1.662   1.120
  147SOL     OW  458   1.243   1.730   1.119
  147SOL    HW1  459   1.325   1.752   1.074
  147SOL    HW2  460   1.246   1.635   1.129
  148SOL     OW  461   0.093   1.246   1.026
  148SOL    HW1  462   0.076   1.259   1.119
  148SOL    HW2  463   0.010   1.265   0.983
  149SOL     OW  464   0.686   1.669   1.722
  149SOL    HW1  465   0.623   1.740   1.731
  149SOL    HW2  466   0.728   1.683   1.637
  150SOL     OW  467   0.877   0.080   0.146
  150SOL    HW1  468   0.939   0.065   0.074
  150SOL    HW2  469   0.910   0.026   0.217
  151SOL     OW  470   1.714   0.141   0.506
  151SOL    HW1  471   1.784   0.141   0.440
  151SOL    HW2  472   1.729   0.062   0.557
  152SOL     OW  473   1.390   1.569   0.484
  152SOL    HW1  474   1.452   1.600   0.418
  152SOL    HW2  475   1.343   1.647   0.512
  153SOL     OW  476   0.122   1.799   1.843
  153SOL    HW1  477   0.081   1.729   1.894
  153SOL    HW2  478   0.180   1.842   1.905
  154SOL     OW  479   1.278   0.926   0.672
  154SOL    HW1  480   1.351   0.864   0.677
  154SOL    HW2  481   1.311   0.998   0.619
  155SOL     OW  482   0.822   1.281   1.412
  155SOL    HW1  483   0.805   1.313   1.501
  155SOL    HW2  484   0.740   1.296   1.365
  156SOL     OW  485   0.671   1.609   0.160
  156SOL    HW1  486   0.672   1.629   0.067
  156SOL    HW2  487   0.617   1.531   0.168
  157SOL     OW  488   1.850   0.155   0.967
  157SOL    HW1  489   1.854   0.073   0.918
  157SOL    HW2  490   1.768   0.196   0.939
  158SOL     OW  491   0.267   0.333   0.742
  158SOL    HW1  492   0.177   0.362   0.728
  158SOL    HW2  493   0.269   0.302   0.832
  159SOL     OW  494   1.205   1.603   0.034
  159SOL    HW1  495   1.198   1.513   0.066
  159SOL    HW2  496   1.154   1.604   2.953
  160SOL     OW  497   0.823   1.008   1.375
  160SOL    HW1  498   0.864   0.998   1.289
  160SOL    HW2  499   0.828   1.102   1.393
  161SOL     OW  500   0.922   0.928   0.305
  161SOL    HW1  501   0.987   0.965   0.245
  161SOL    HW2  502   0.970   0.862   0.355
  162SOL     OW  503   1.487   1.601   0.050
  162SOL    HW1  504   1.391   1.610   0.053
  162SOL    HW2  505   1.512   1.641   2.967
  163SOL     OW  506   0.375   1.304   1.489
  163SOL    HW1  507   0.356   1.384   1.440
  163SOL    HW2  508   0.298   1.249   1.475
  164SOL     OW  509   1.050   1.106   0.707
  164SOL    HW1  510   0.979   1.054   0.745
  164SOL    HW2  511   1.111   1.041   0.673
  165SOL     OW  512   1.019   0.244   0.965
  165SOL    HW1  513   1.011   0.193   0.885
  165SOL    HW2  514   1.022   0.179   1.035
  166SOL     OW  515   0.603   1.492   0.485
  166SOL    HW1  516   0.642   1.441   0.414
  166SOL    HW2  517   0.537   1.546   0.442
  167SOL     OW  518   1.720   0.392   1.378
  167SOL    HW1  519   1.793   0.454   1.376
  167SOL    HW2  520   1.747   0.321   1.320
  168SOL     OW  521   0.267   1.332   0.293
  168SOL    HW1  522   0.178   1.338   0.258
  168SOL    HW2  523   0.263   1.379   0.377
  169SOL     OW  524   0.125   1.011   1.706
  169SOL    HW1  525   0.052   0.973   1.754
  169SOL    HW2  526   0.203   0.978   1.751
  170SOL     OW  527   0.663   0.211   1.492
  170SOL    HW1  528   0.745   0.180   1.453
  170SOL    HW2  529   0.685   0.227   1.584
  171SOL     OW  530   0.069   0.312   0.052
  171SOL    HW1  531   2.977   0.327   0.032
  171SOL    HW2  532   0.112   0.394   0.029
  172SOL     OW  533   1.430   0.858   1.397
  172SOL    HW1  534   1.385   0.914   1.335
  172SOL    HW2  535   1.522   0.860   1.370
  173SOL     OW  536   0.037   0.182   0.290
  173SOL    HW1  537   0.040   0.238   0.212
  173SOL    HW2  538   0.127   0.150   0.301
  174SOL     OW  539   1.183   1.347   0.125
  174SOL    HW1  540   1.089   1.336   0.114
  174SOL    HW2  541   1.198   1.337   0.219
  175SOL     OW  542   0.617   0.831   1.434
  175SOL    HW1  543   0.673   0.908   1.421
  175SOL    HW2  544   0.679   0.758   1.442
  176SOL     OW  545   1.488   1.770   0.979
  176SOL    HW1  546   1.509   1.830   0.908
  176SOL    HW2  547   1.569   1.765   1.030
  177SOL     OW  548   0.715   0.566   1.707
  177SOL    HW1  549   0.755   0.632   1.765
  177SOL    HW2  550   0.754   0.483   1.735
  178SOL     OW  551   1.467   1.160   1.631
  178SOL    HW1  552   1.451   1.185   1.722
  178SOL    HW2  553   1.559   1.184   1.616
  179SOL     OW  554   0.388   1.737   1.563
  179SOL    HW1  555   0.302   1.776   1.548
  179SOL    HW2  556   0.370   1.657   1.613
  180SOL     OW  557   1.670   0.881   1.254
  180SOL    HW1  558   1.665   0.794   1.216
  180SOL    HW2  559   1.664   0.941   1.179
  181SOL     OW  560   1.226   0.317   0.454
  181SOL    HW1  561   1.287   0.243   0.454
  181SOL    HW2  562   1.250   0.367   0.532
  182SOL     OW  563   0.593   0.740   0.666
  182SOL    HW1  564   0.630   0.827   0.653
  182SOL    HW2  565   0.521   0.735   0.603
  183SOL     OW  566   1.765   0.353   1.645
  183SOL    HW1  567   1.744   0.377   1.555
  183SOL    HW2  568   1.683   0.319   1.681
  184SOL     OW  569   1.742   0.933   1.514
  184SOL    HW1  570   1.745   1.027   1.532
  184SOL    HW2  571   1.730   0.927   1.419
  185SOL     OW  572   0.908   1.388   0.062
  185SOL    HW1  573   0.835   1.387   0.124
  185SOL    HW2  574   0.868   1.411   2.978
  186SOL     OW  575   0.659   1.792   0.947
  186SOL    HW1  576   0.636   1.882   0.923
  186SOL    HW2  577   0.754   1.788   0.938
  187SOL     OW  578   0.867   0.966   0.856
  187SOL    HW1  579   0.915   0.893   0.896
  187SOL    HW2  580   0.832   1.015   0.931
  188SOL     OW  581   1.099   1.017   0.102
  188SOL    HW1  582   1.065   1.057   0.021
  188SOL    HW2  583   1.166   0.956   0.072
  189SOL     OW  584   1.864   1.554   0.833
  189SOL    HW1  585   1.783   1.549   0.781
  189SOL    HW2  586   1.843   1.507   0.914
  190SOL     OW  587   0.225   1.303   1.854
  190SOL    HW1  588   0.177   1.223   1.831
  190SOL    HW2  589   0.212   1.312   1.949
  191SOL     OW  590   0.129   1.251   0.665
  191SOL    HW1  591   0.077   1.186   0.712
  191SOL    HW2  592   0.177   1.201   0.599
  192SOL     OW  593   0.685   1.403   1.621
  192SOL    HW1  594   0.607   1.354   1.648
  192SOL    HW2  595   0.676   1.488   1.664
  193SOL     OW  596   1.797   0.176   1.235
  193SOL    HW1  597   1.843   0.101   1.272
  193SOL    HW2  598   1.822   0.178   1.143
  194SOL     OW  599   0.463   0.433   0.547
  194SOL    HW1  600   0.453   0.370   0.475
  194SOL    HW2  601   0.405   0.399   0.615
  195SOL     OW  602   1.718   1.493   1.061
  195SOL    HW1  603   1.632   1.463   1.034
  195SOL    HW2  604   1.741   1.438   1.137
  196SOL     OW  605   0.333   0.555   1.291
  196SOL    HW1  606   0.389   0.500   1.346
  196SOL    HW2  607   0.351   0.526   1.202
  197SOL     OW  608   0.827   1.576   0.677
  197SOL    HW1  609   0.817   1.630   0.599
  197SOL    HW2  610   0.748   1.522   0.679
  198SOL     OW  611   1.428   0.215   1.128
  198SOL    HW1  612   1.449   0.144   1.189
  198SOL    HW2  613   1.379   0.278   1.180
  199SOL     OW  614   1.013   0.026   1.147
  199SOL    HW1  615   0.932   2.996   1.107
  199SOL    HW2  616   1.075   2.954   1.134
  200SOL     OW  617   0.765   1.329   0.314
  200SOL    HW1  618   0.733   1.240   0.330
  200SOL    HW2  619   0.852   1.331   0.354
  201SOL     OW  620   0.622   1.558   1.284
  201SOL    HW1  621   0.623   1.638   1.336
  201SOL    HW2  622   0.708   1.555   1.243
  202SOL     OW  623   1.359   0.056   0.169
  202SOL    HW1  624   1.414   2.981   0.148
  202SOL    HW2  625   1.270   0.026   0.151
  203SOL     OW  626   1.297   0.460   0.681
  203SOL    HW1  627   1.242   0.538   0.689
  203SOL    HW2  628   1.294   0.419   0.768
  204SOL     OW  629   1.605   0.230   0.887
  204SOL    HW1  630   1.526   0.230   0.942
  204SOL    HW2  631   1.595   0.306   0.830
  205SOL     OW  632   0.072   1.090   0.343
  205SOL    HW1  633   0.149   1.048   0.304
  205SOL    HW2  634   0.003   1.024   0.337
  206SOL     OW  635   0.883   1.653   0.344
  206SOL    HW1  636   0.812   1.631   0.283
  206SOL    HW2  637   0.849   1.726   0.395
  207SOL     OW  638   0.242   0.645   1.974
  207SOL    HW1  639   0.173   0.609   2.029
  207SOL    HW2  640   0.226   0.608   1.888
  208SOL     OW  641   0.236   0.249   2.850
  208SOL    HW1  642   0.251   0.232   2.943
  208SOL    HW2  643   0.142   0.239   2.839
  209SOL     OW  644   0.007   0.388   2.523
  209SOL    HW1  645   2.922   0.425   2.545
  209SOL    HW2  646   2.987   0.315   2.465
  210SOL     OW  647   1.559   1.509   2.568
  210SOL    HW1  648   1.511   1.492   2.649
  210SOL    HW2  649   1.490   1.516   2.501
  211SOL     OW  650   1.133   0.698   2.564
  211SOL    HW1  651   1.183   0.778   2.550
  211SOL    HW2  652   1.084   0.714   2.644
  212SOL     OW  653   1.766   0.606   2.093
  212SOL    HW1  654   1.746   0.599   1.999
  212SOL    HW2  655   1.732   0.525   2.131
  213SOL     OW  656   0.748   1.144   2.897
  213SOL    HW1  657   0.681   1.192   2.946
  213SOL    HW2  658   0.800   1.213   2.855
  214SOL     OW  659   0.684   1.007   2.509
  214SOL    HW1  660   0.749   0.993   2.577
  214SOL    HW2  661   0.614   1.056   2.552
  215SOL     OW  662   0.330   1.451   2.933
  215SOL    HW1  663   0.279   1.385   2.885
  215SOL    HW2  664   0.386   1.491   2.867
  216SOL     OW  665   1.615   0.457   2.594
  216SOL    HW1  666   1.542   0.479   2.537
  216SOL    HW2  667   1.612   0.521   2.665
  217SOL     OW  668   0.220   1.712   2.347
  217SOL    HW1  669   0.240   1.795   2.388
  217SOL    HW2  670   0.280   1.707   2.273
  218SOL     OW  671   0.253   1.446   2.387
  218SOL    HW1  672   0.220   1.536   2.386
  218SOL    HW2  673   0.192   1.399   2.444
  219SOL     OW  674   0.240   1.084   2.750
  219SOL    HW1  675   0.258   1.002   2.796
  219SOL    HW2  676   0.193   1.138   2.814
  220SOL     OW  677   0.586   0.982   1.995
  220SOL    HW1  678   0.631   1.031   1.927
  220SOL    HW2  679   0.628   1.011   2.077
  221SOL     OW  680   0.130   0.624   2.435
  221SOL    HW1  681   0.087   0.548   2.475
  221SOL    HW2  682   0.123   0.693   2.501
  222SOL     OW  683   1.845   1.761   2.200
  222SOL    HW1  684   1.908   1.732   2.266
  222SOL    HW2  685   1.869   1.851   2.180
  223SOL     OW  686   0.030   1.598   2.000
  223SOL    HW1  687   0.021   1.503   2.007
  223SOL    HW2  688   2.975   1.632   2.071
  224SOL     OW  689   1.689   0.917   2.499
  224SOL    HW1  690   1.774   0.878   2.479
  224SOL    HW2  691   1.666   0.969   2.422
  225SOL     OW  692   1.645   1.106   2.293
  225SOL    HW1  693   1.728   1.116   2.247
  225SOL    HW2  694   1.650   1.168   2.366
  226SOL     OW  695   0.609   1.381   2.593
  226SOL    HW1  696   0.562   1.298   2.602
  226SOL    HW2  697   0.594   1.408   2.503
  227SOL     OW  698   0.820   0.013   2.378
  227SOL    HW1  699   0.853   0.099   2.353
  227SOL    HW2  700   0.727   0.016   2.359
  228SOL     OW  701   1.534   0.989   2.062
  228SOL    HW1  702   1.462   0.934   2.093
  228SOL    HW2  703   1.571   1.026   2.142
  229SOL     OW  704   1.432   1.421   2.799
  229SOL    HW1  705   1.416   1.421   2.894
  229SOL    HW2  706   1.440   1.329   2.775
  230SOL     OW  707   1.661   1.737   2.445
  230SOL    HW1  708   1.637   1.710   2.357
  230SOL    HW2  709   1.636   1.663   2.500
  231SOL     OW  710   0.597   0.722   2.126
  231SOL    HW1  711   0.604   0.803   2.075
  231SOL    HW2  712   0.532   0.742   2.193
  232SOL     OW  713   1.295   0.337   2.810
  232SOL    HW1  714   1.200   0.325   2.801
  232SOL    HW2  715   1.315   0.300   2.896
  233SOL     OW  716   1.587   1.672   2.187
  233SOL    HW1  717   1.678   1.703   2.180
  233SOL    HW2  718   1.559   1.663   2.096
  234SOL     OW  719   1.049   0.698   2.290
  234SOL    HW1  720   1.065   0.691   2.384
  234SOL    HW2  721   0.967   0.651   2.275
  235SOL     OW  722   0.105   0.816   2.623
  235SOL    HW1  723   0.183   0.814   2.679
  235SOL    HW2  724   0.046   0.877   2.667
  236SOL     OW  725   0.872   0.354   2.044
  236SOL    HW1  726   0.929   0.416   1.999
  236SOL    HW2  727   0.916   0.270   2.035
  237SOL     OW  728   1.377   1.143   2.404
  237SOL    HW1  729   1.454   1.129   2.349
  237SOL    HW2  730   1.324   1.205   2.354
  238SOL     OW  731   0.561   0.200   2.841
  238SOL    HW1  732   0.503   0.272   2.867
  238SOL    HW2  733   0.582   0.219   2.749
  239SOL     OW  734   1.006   1.444   2.336
  239SOL    HW1  735   0.968   1.517   2.287
  239SOL    HW2  736   0.991   1.466   2.428
  240SOL     OW  737   0.353   1.802   2.715
  240SOL    HW1  738   0.400   1.719   2.729
  240SOL    HW2  739   0.416   1.869   2.741
  241SOL     OW  740   1.807   1.057   2.719
  241SOL    HW1  741   1.747   1.041   2.646
  241SOL    HW2  742   1.750   1.060   2.796
  242SOL     OW  743   0.315   0.949   2.108
  242SOL    HW1  744   0.397   0.975   2.067
  242SOL    HW2  745   0.295   0.864   2.069
  243SOL     OW  746   1.475   0.745   2.588
  243SOL    HW1  747   1.473   0.693   2.668
  243SOL    HW2  748   1.556   0.795   2.594
  244SOL     OW  749   1.117   1.787   2.106
  244SOL    HW1  750   1.046   1.747   2.157
  244SOL    HW2  751   1.133   1.725   2.035
  245SOL     OW  752   1.617   1.373   1.981
  245SOL    HW1  753   1.603   1.453   1.931
  245SOL    HW2  754   1.561   1.308   1.939
  246SOL     OW  755   0.466   1.739   2.182
  246SOL    HW1  756   0.507   1.795   2.248
  246SOL    HW2  757   0.538   1.709   2.127
  247SOL     OW  758   1.409   0.111   2.296
  247SOL    HW1  759   1.393   0.079   2.208
  247SOL    HW2  760   1.503   0.128   2.299
  248SOL     OW  761   0.264   1.799   0.100
  248SOL    HW1  762   0.301   1.728   0.152
  248SOL    HW2  763   0.201   1.755   0.042
  249SOL     OW  764   0.942   1.691   2.755
  249SOL    HW1  765   1.023   1.640   2.757
  249SOL    HW2  766   0.888   1.647   2.690
  250SOL     OW  767   0.394   0.692   2.337
  250SOL    HW1  768   0.425   0.603   2.352
  250SOL    HW2  769   0.301   0.689   2.360
  251SOL     OW  770   0.627   0.118   1.976
  251SOL    HW1  771   0.717   0.089   1.967
  251SOL    HW2  772   0.588   0.102   1.890
  252SOL     OW  773   0.805   1.397   2.793
  252SOL    HW1  774   0.892   1.390   2.754
  252SOL    HW2  775   0.745   1.393   2.719
  253SOL     OW  776   0.920   0.519   2.758
  253SOL    HW1  777   0.902   0.500   2.666
  253SOL    HW2  778   0.951   0.436   2.795
  254SOL     OW  779   0.545   0.061   2.369
  254SOL    HW1  780   0.457   0.044   2.402
  254SOL    HW2  781   0.533   0.130   2.303
  255SOL     OW  782   1.421   1.183   1.895
  255SOL    HW1  783   1.448   1.118   1.960
  255SOL    HW2  784   1.346   1.227   1.934
  256SOL     OW  785   0.289   0.034   2.054
  256SOL    HW1  786   0.340   0.108   2.023
  256SOL    HW2  787   0.354   2.971   2.085
  257SOL     OW  788   0.939   0.255   2.322
  257SOL    HW1  789   0.912   0.300   2.242
  257SOL    HW2  790   1.034   0.266   2.325
  258SOL     OW  791   1.218   1.586   2.672
  258SOL    HW1  792   1.242   1.643   2.599
  258SOL    HW2  793   1.301   1.566   2.716
  259SOL     OW  794   0.462   1.146   2.601
  259SOL    HW1  795   0.390   1.129   2.661
  259SOL    HW2  796   0.425   1.130   2.514
  260SOL     OW  797   1.271   1.795   2.468
  260SOL    HW1  798   1.315   1.856   2.409
  260SOL    HW2  799   1.205   1.848   2.512
  261SOL     OW  800   1.022   0.549   1.886
  261SOL    HW1  801   0.982   0.634   1.867
  261SOL    HW2  802   1.088   0.568   1.953
  262SOL     OW  803   0.871   0.467   2.497
  262SOL    HW1  804   0.823   0.515   2.430
  262SOL    HW2  805   0.888   0.381   2.458
  263SOL     OW  806   0.998   0.050   2.623
  263SOL    HW1  807   0.964   0.058   2.533
  263SOL    HW2  808   0.974   2.961   2.650
  264SOL     OW  809   1.439   1.159   2.711
  264SOL    HW1  810   1.363   1.101   2.703
  264SOL    HW2  811   1.468   1.174   2.621
  265SOL     OW  812   1.487   0.585   2.819
  265SOL    HW1  813   1.423   0.514   2.822
  265SOL    HW2  814   1.505   0.606   2.910
  266SOL     OW  815   1.849   0.817   2.245
  266SOL    HW1  816   1.906   0.763   2.301
  266SOL    HW2  817   1.818   0.756   2.178
  267SOL     OW  818   0.492   1.414   2.024
  267SOL    HW1  819   0.415   1.385   2.073
  267SOL    HW2  820   0.470   1.396   1.933
  268SOL     OW  821   1.669   1.264   2.510
  268SOL    HW1  822   1.764   1.270   2.522
  268SOL    HW2  823   1.637   1.352   2.529
  269SOL     OW  824   1.394   0.570   1.934
  269SOL    HW1  825   1.333   0.553   2.005
  269SOL    HW2  826   1.478   0.537   1.966
  270SOL     OW  827   0.525   0.263   2.182
  270SOL    HW1  828   0.566   0.212   2.113
  270SOL    HW2  829   0.505   0.347   2.142
  271SOL     OW  830   1.649   1.105   2.930
  271SOL    HW1  831   1.648   1.172   3.000
  271SOL    HW2  832   1.563   1.113   2.888
  272SOL     OW  833   0.708   1.061   2.234
  272SOL    HW1  834   0.695   1.046   2.328
  272SOL    HW2  835   0.784   1.007   2.211
  273SOL     OW  836   0.348   1.109   2.353
  273SOL    HW1  837   0.355   1.181   2.291
  273SOL    HW2  838   0.354   1.030   2.299
  274SOL     OW  839   0.543   0.547   2.731
  274SOL    HW1  840   0.565   0.595   2.651
  274SOL    HW2  841   0.616   0.565   2.791
  275SOL     OW  842   1.247   1.346   2.258
  275SOL    HW1  843   1.302   1.419   2.284
  275SOL    HW2  844   1.160   1.370   2.288
  276SOL     OW  845   1.584   0.626   2.340
  276SOL    HW1  846   1.537   0.682   2.401
  276SOL    HW2  847   1.625   0.686   2.279
  277SOL     OW  848   0.577   0.873   2.880
  277SOL    HW1  849   0.617   0.956   2.853
  277SOL    HW2  850   0.555   0.885   2.972
  278SOL     OW  851   1.209   0.534   2.132
  278SOL    HW1  852   1.214   0.453   2.183
  278SOL    HW2  853   1.165   0.596   2.190
  279SOL     OW  854   0.731   0.641   2.917
  279SOL    HW1  855   0.799   0.615   2.855
  279SOL    HW2  856   0.698   0.725   2.884
  280SOL     OW  857   0.307   0.070   2.505
  280SOL    HW1  858   0.302   0.156   2.547
  280SOL    HW2  859   0.281   0.008   2.572
  281SOL     OW  860   1.608   0.374   2.232
  281SOL    HW1  861   1.648   0.314   2.294
  281SOL    HW2  862   1.590   0.453   2.283
  282SOL     OW  863   1.020   0.763   2.818
  282SOL    HW1  864   1.023   0.770   2.914
  282SOL    HW2  865   0.993   0.673   2.801
  283SOL     OW  866   1.528   0.272   1.996
  283SOL    HW1  867   1.465   0.207   2.026
  283SOL    HW2  868   1.563   0.310   2.077
  284SOL     OW  869   1.292   0.823   1.900
  284SOL    HW1  870   1.335   0.738   1.904
  284SOL    HW2  871   1.318   0.859   1.815
  285SOL     OW  872   1.050   1.349   2.696
  285SOL    HW1  873   1.062   1.267   2.649
  285SOL    HW2  874   1.127   1.401   2.674
  286SOL     OW  875   0.311   0.811   2.811
  286SOL    HW1  876   0.405   0.829   2.810
  286SOL    HW2  877   0.304   0.721   2.845
  287SOL     OW  878   0.318   0.521   2.874
  287SOL    HW1  879   0.288   0.432   2.852
  287SOL    HW2  880   0.397   0.534   2.822
  288SOL     OW  881   2.993   1.319   2.040
  288SOL    HW1  882   2.901   1.322   2.015
  288SOL    HW2  883   0.002   1.238   2.090
  289SOL     OW  884   0.094   1.822   2.811
  289SOL    HW1  885   0.057   1.742   2.772
  289SOL    HW2  886   0.185   1.823   2.782
  290SOL     OW  887   0.503   1.575   2.761
  290SOL    HW1  888   0.573   1.635   2.785
  290SOL    HW2  889   0.546   1.508   2.707
  291SOL     OW  890   0.975   0.749   0.087
  291SOL    HW1  891   1.025   0.752   0.168
  291SOL    HW2  892   0.886   0.774   0.113
  292SOL     OW  893   0.814   0.568   2.218
  292SOL    HW1  894   0.816   0.495   2.156
  292SOL    HW2  895   0.741   0.623   2.188
  293SOL     OW  896   0.697   0.435   0.089
  293SOL    HW1  897   0.602   0.435   0.102
  293SOL    HW2  898   0.713   0.511   0.033
  294SOL     OW  899   0.466   0.494   2.049
  294SOL    HW1  900   0.528   0.564   2.068
  294SOL    HW2  901   0.382   0.538   2.038
  295SOL     OW  902   1.310   0.856   2.172
  295SOL    HW1  903   1.232   0.826   2.219
  295SOL    HW2  904   1.288   0.843   2.079
  296SOL     OW  905   1.738   1.769   2.972
  296SOL    HW1  906   1.813   1.789   2.915
  296SOL    HW2  907   1.766   1.694   0.023
  297SOL     OW  908   0.072   1.247   2.904
  297SOL    HW1  909   0.046   1.277   2.991
  297SOL    HW2  910   0.003   1.281   2.845
  298SOL     OW  911   1.721   0.145   2.366
  298SOL    HW1  912   1.782   0.141   2.292
  298SOL    HW2  913   1.735   0.063   2.413
  299SOL     OW  914   1.390   1.567   2.349
  299SOL    HW1  915   1.453   1.595   2.283
  299SOL    HW2  916   1.342   1.646   2.374
  300SOL     OW  917   1.277   0.927   2.532
  300SOL    HW1  918   1.350   0.866   2.540
  300SOL    HW2  919   1.311   0.999   2.479
  301SOL     OW  920   0.670   1.619   2.018
  301SOL    HW1  921   0.682   1.628   1.924
  301SOL    HW2  922   0.619   1.539   2.028
  302SOL     OW  923   1.853   0.162   2.814
  302SOL    HW1  924   1.852   0.075   2.772
  302SOL    HW2  925   1.767   0.199   2.793
  303SOL     OW  926   0.270   0.333   2.598
  303SOL    HW1  927   0.180   0.365   2.589
  303SOL    HW2  928   0.275   0.302   2.688
  304SOL     OW  929   1.152   1.606   1.920
  304SOL    HW1  930   1.209   1.529   1.922
  304SOL    HW2  931   1.124   1.612   1.829
  305SOL     OW  932   0.915   0.910   2.153
  305SOL    HW1  933   0.975   0.941   2.085
  305SOL    HW2  934   0.963   0.840   2.197
  306SOL     OW  935   1.513   1.670   1.926
  306SOL    HW1  936   1.429   1.626   1.911
  306SOL    HW2  937   1.568   1.643   1.852
  307SOL     OW  938   1.052   1.105   2.572
  307SOL    HW1  939   0.979   1.053   2.606
  307SOL    HW2  940   1.113   1.041   2.536
  308SOL     OW  941   1.020   0.249   2.808
  308SOL    HW1  942   1.013   0.182   2.740
  308SOL    HW2  943   1.044   0.201   2.887
  309SOL     OW  944   0.603   1.488   2.342
  309SOL    HW1  945   0.642   1.440   2.269
  309SOL    HW2  946   0.531   1.537   2.301
  310SOL     OW  947   0.254   1.344   2.143
  310SOL    HW1  948   0.159   1.343   2.128
  310SOL    HW2  949   0.263   1.383   2.230
  311SOL     OW  950   0.099   0.325   1.911
  311SOL    HW1  951   0.015   0.296   1.875
  311SOL    HW2  952   0.112   0.412   1.873
  312SOL     OW  953   0.014   0.216   2.143
  312SOL    HW1  954   0.062   0.262   2.074
  312SOL    HW2  955   0.070   0.141   2.165
  313SOL     OW  956   1.194   1.326   1.986
  313SOL    HW1  957   1.101   1.306   1.981
  313SOL    HW2  958   1.212   1.335   2.080
  314SOL     OW  959   1.505   1.780   2.832
  314SOL    HW1  960   1.516   1.833   2.753
  314SOL    HW2  961   1.588   1.789   2.878
  315SOL     OW  962   1.716   0.849   0.062
  315SOL    HW1  963   1.636   0.816   0.104
  315SOL    HW2  964   1.697   0.940   0.041
  316SOL     OW  965   1.222   0.317   2.318
  316SOL    HW1  966   1.284   0.244   2.317
  316SOL    HW2  967   1.246   0.368   2.396
  317SOL     OW  968   0.592   0.741   2.529
  317SOL    HW1  969   0.631   0.826   2.514
  317SOL    HW2  970   0.522   0.734   2.464
  318SOL     OW  971   0.849   1.382   1.891
  318SOL    HW1  972   0.820   1.376   1.982
  318SOL    HW2  973   0.892   1.467   1.885
  319SOL     OW  974   0.663   1.795   2.822
  319SOL    HW1  975   0.640   1.883   2.792
  319SOL    HW2  976   0.757   1.787   2.805
  320SOL     OW  977   0.861   0.965   2.716
  320SOL    HW1  978   0.913   0.894   2.753
  320SOL    HW2  979   0.832   1.016   2.791
  321SOL     OW  980   1.074   0.984   1.948
  321SOL    HW1  981   1.061   1.043   1.873
  321SOL    HW2  982   1.153   0.935   1.926
  322SOL     OW  983   1.855   1.556   2.711
  322SOL    HW1  984   1.778   1.544   2.656
  322SOL    HW2  985   1.862   1.476   2.762
  323SOL     OW  986   0.129   1.249   2.523
  323SOL    HW1  987   0.090   1.184   2.581
  323SOL    HW2  988   0.187   1.199   2.466
  324SOL     OW  989   1.811   0.187   0.083
  324SOL    HW1  990   1.833   0.101   0.119
  324SOL    HW2  991   1.829   0.179   2.989
  325SOL     OW  992   0.462   0.435   2.403
  325SOL    HW1  993   0.455   0.370   2.334
  325SOL    HW2  994   0.410   0.399   2.475
  326SOL     OW  995   0.819   1.584   2.538
  326SOL    HW1  996   0.816   1.627   2.453
  326SOL    HW2  997   0.744   1.524   2.537
  327SOL     OW  998   0.777   1.329   2.166
  327SOL    HW1  999   0.742   1.241   2.179
  327SOL    HW2 1000   0.855   1.332   2.222
  328SOL     OW 1001   1.346   0.047   2.029
  328SOL    HW1 1002   1.413   2.985   1.999
  328SOL    HW2 1003   1.266   2.995   2.033
  329SOL     OW 1004   1.297   0.456   2.548
  329SOL    HW1 1005   1.243   0.535   2.554
  329SOL    HW2 1006   1.294   0.417   2.635
  330SOL     OW 1007   1.599   0.235   2.750
  330SOL    HW1 1008   1.508   0.232   2.780
  330SOL    HW2 1009   1.602   0.309   2.689
  331SOL     OW 1010   0.064   1.079   2.156
  331SOL    HW1 1011   0.153   1.044   2.162
  331SOL    HW2 1012   0.010   1.015   2.203
  332SOL     OW 1013   0.879   1.650   2.211
  332SOL    HW1 1014   0.810   1.633   2.147
  332SOL    HW2 1015   0.850   1.728   2.258
  333SOL     OW 1016   0.238   2.518   0.100
  333SOL    HW1 1017   0.170   2.473   0.150
  333SOL    HW2 1018   0.250   2.464   0.021
  334SOL     OW 1019   0.211   2.137   0.990
  334SOL    HW1 1020   0.244   2.107   1.075
  334SOL    HW2 1021   0.123   2.098   0.983
  335SOL     OW 1022   0.015   2.249   0.646
  335SOL    HW1 1023   2.929   2.285   0.668
  335SOL    HW2 1024   2.996   2.166   0.602
  336SOL     OW 1025   1.134   2.569   0.702
  336SOL    HW1 1026   1.180   2.652   0.694
  336SOL    HW2 1027   1.082   2.577   0.781
  337SOL     OW 1028   1.763   2.453   0.227
  337SOL    HW1 1029   1.745   2.435   0.135
  337SOL    HW2 1030   1.727   2.378   0.274
  338SOL     OW 1031   0.759   0.012   1.033
  338SOL    HW1 1032   0.678   0.047   1.070
  338SOL    HW2 1033   0.781   0.074   0.963
  339SOL     OW 1034   0.868   2.636   1.823
  339SOL    HW1 1035   0.845   2.699   1.891
  339SOL    HW2 1036   0.890   2.689   1.747
  340SOL     OW 1037   0.650   2.852   0.712
  340SOL    HW1 1038   0.745   2.855   0.724
  340SOL    HW2 1039   0.629   2.929   0.659
  341SOL     OW 1040   0.475   2.273   1.488
  341SOL    HW1 1041   0.544   2.207   1.491
  341SOL    HW2 1042   0.394   2.223   1.503
  342SOL     OW 1043   1.612   2.309   0.740
  342SOL    HW1 1044   1.536   2.334   0.687
  342SOL    HW2 1045   1.632   2.387   0.792
  343SOL     OW 1046   0.214   0.318   0.460
  343SOL    HW1 1047   0.214   0.387   0.527
  343SOL    HW2 1048   0.203   0.237   0.510
  344SOL     OW 1049   0.230   2.942   0.876
  344SOL    HW1 1050   0.259   2.862   0.920
  344SOL    HW2 1051   0.205   0.001   0.948
  345SOL     OW 1052   0.616   2.833   0.149
  345SOL    HW1 1053   0.599   2.925   0.130
  345SOL    HW2 1054   0.684   2.834   0.217
  346SOL     OW 1055   1.586   1.982   1.470
  346SOL    HW1 1056   1.601   2.059   1.415
  346SOL    HW2 1057   1.581   2.017   1.559
  347SOL     OW 1058   0.117   2.496   0.564
  347SOL    HW1 1059   0.095   2.411   0.602
  347SOL    HW2 1060   0.115   2.557   0.638
  348SOL     OW 1061   1.702   2.805   0.623
  348SOL    HW1 1062   1.779   2.750   0.635
  348SOL    HW2 1063   1.695   2.816   0.528
  349SOL     OW 1064   0.130   2.609   1.587
  349SOL    HW1 1065   0.225   2.622   1.592
  349SOL    HW2 1066   0.093   2.694   1.609
  350SOL     OW 1067   0.661   0.244   0.686
  350SOL    HW1 1068   0.597   0.177   0.710
  350SOL    HW2 1069   0.614   0.301   0.625
  351SOL     OW 1070   1.305   0.052   1.449
  351SOL    HW1 1071   1.322   2.993   1.375
  351SOL    HW2 1072   1.389   0.097   1.463
  352SOL     OW 1073   0.814   1.861   0.510
  352SOL    HW1 1074   0.853   1.947   0.493
  352SOL    HW2 1075   0.720   1.879   0.516
  353SOL     OW 1076   0.190   2.835   1.257
  353SOL    HW1 1077   0.273   2.789   1.249
  353SOL    HW2 1078   0.124   2.771   1.230
  354SOL     OW 1079   1.522   2.842   0.206
  354SOL    HW1 1080   1.453   2.797   0.255
  354SOL    HW2 1081   1.590   2.860   0.271
  355SOL     OW 1082   0.338   2.111   1.808
  355SOL    HW1 1083   0.384   2.193   1.828
  355SOL    HW2 1084   0.251   2.122   1.847
  356SOL     OW 1085   0.592   2.582   0.271
  356SOL    HW1 1086   0.595   2.662   0.219
  356SOL    HW2 1087   0.526   2.598   0.337
  357SOL     OW 1088   1.279   2.212   0.933
  357SOL    HW1 1089   1.190   2.179   0.941
  357SOL    HW2 1090   1.330   2.159   0.994
  358SOL     OW 1091   0.792   2.479   1.453
  358SOL    HW1 1092   0.765   2.456   1.542
  358SOL    HW2 1093   0.751   2.412   1.398
  359SOL     OW 1094   1.394   2.335   1.678
  359SOL    HW1 1095   1.396   2.380   1.763
  359SOL    HW2 1096   1.455   2.263   1.687
  360SOL     OW 1097   0.961   2.759   1.593
  360SOL    HW1 1098   1.013   2.688   1.554
  360SOL    HW2 1099   0.907   2.791   1.520
  361SOL     OW 1100   0.992   2.277   1.238
  361SOL    HW1 1101   0.908   2.297   1.278
  361SOL    HW2 1102   0.970   2.228   1.159
  362SOL     OW 1103   1.050   2.567   0.423
  362SOL    HW1 1104   1.064   2.560   0.517
  362SOL    HW2 1105   0.969   2.520   0.407
  363SOL     OW 1106   0.103   2.669   0.768
  363SOL    HW1 1107   0.179   2.675   0.826
  363SOL    HW2 1108   0.048   2.743   0.794
  364SOL     OW 1109   0.929   2.193   0.222
  364SOL    HW1 1110   0.938   2.255   0.150
  364SOL    HW2 1111   0.895   2.113   0.181
  365SOL     OW 1112   1.710   2.437   1.827
  365SOL    HW1 1113   1.672   2.511   1.781
  365SOL    HW2 1114   1.736   2.376   1.758
  366SOL     OW 1115   0.548   2.044   0.893
  366SOL    HW1 1116   0.552   2.073   0.984
  366SOL    HW2 1117   0.550   2.125   0.842
  367SOL     OW 1118   1.796   2.906   0.867
  367SOL    HW1 1119   1.741   2.891   0.790
  367SOL    HW2 1120   1.734   2.914   0.940
  368SOL     OW 1121   1.484   2.600   0.727
  368SOL    HW1 1122   1.463   2.551   0.806
  368SOL    HW2 1123   1.555   2.659   0.753
  369SOL     OW 1124   0.235   2.162   1.505
  369SOL    HW1 1125   0.155   2.208   1.480
  369SOL    HW2 1126   0.204   2.086   1.555
  370SOL     OW 1127   1.403   1.968   0.431
  370SOL    HW1 1128   1.393   1.948   0.338
  370SOL    HW2 1129   1.497   1.978   0.444
  371SOL     OW 1130   0.389   2.555   0.473
  371SOL    HW1 1131   0.412   2.463   0.485
  371SOL    HW2 1132   0.296   2.560   0.494
  372SOL     OW 1133   1.538   2.089   1.727
  372SOL    HW1 1134   1.545   2.111   1.820
  372SOL    HW2 1135   1.473   2.019   1.724
  373SOL     OW 1136   0.627   1.981   0.120
  373SOL    HW1 1137   0.721   1.962   0.118
  373SOL    HW2 1138   0.593   1.937   0.042
  374SOL     OW 1139   0.766   2.139   1.753
  374SOL    HW1 1140   0.840   2.079   1.757
  374SOL    HW2 1141   0.717   2.123   1.833
  375SOL     OW 1142   1.340   2.451   1.433
  375SOL    HW1 1143   1.371   2.417   1.517
  375SOL    HW2 1144   1.378   2.538   1.426
  376SOL     OW 1145   0.929   2.371   0.902
  376SOL    HW1 1146   0.905   2.362   0.809
  376SOL    HW2 1147   0.959   2.284   0.927
  377SOL     OW 1148   0.549   1.924   0.504
  377SOL    HW1 1149   0.467   1.926   0.554
  377SOL    HW2 1150   0.544   2.001   0.448
  378SOL     OW 1151   0.943   2.104   0.474
  378SOL    HW1 1152   0.920   2.141   0.388
  378SOL    HW2 1153   1.038   2.117   0.480
  379SOL     OW 1154   1.078   2.547   1.458
  379SOL    HW1 1155   1.008   2.482   1.467
  379SOL    HW2 1156   1.158   2.494   1.454
  380SOL     OW 1157   1.052   2.356   0.028
  380SOL    HW1 1158   1.003   2.439   0.020
  380SOL    HW2 1159   1.112   2.371   0.100
  381SOL     OW 1160   0.089   2.413   1.401
  381SOL    HW1 1161   0.174   2.420   1.358
  381SOL    HW2 1162   0.088   2.486   1.464
  382SOL     OW 1163   0.561   2.089   1.164
  382SOL    HW1 1164   0.598   2.010   1.202
  382SOL    HW2 1165   0.469   2.087   1.192
  383SOL     OW 1166   0.870   2.322   0.639
  383SOL    HW1 1167   0.820   2.376   0.578
  383SOL    HW2 1168   0.890   2.242   0.590
  384SOL     OW 1169   1.016   1.914   0.752
  384SOL    HW1 1170   0.957   1.911   0.677
  384SOL    HW2 1171   0.992   1.839   0.806
  385SOL     OW 1172   1.426   2.991   0.873
  385SOL    HW1 1173   1.361   2.935   0.831
  385SOL    HW2 1174   1.448   0.057   0.807
  386SOL     OW 1175   1.467   2.465   0.979
  386SOL    HW1 1176   1.418   2.383   0.983
  386SOL    HW2 1177   1.527   2.461   1.053
  387SOL     OW 1178   1.829   2.664   0.390
  387SOL    HW1 1179   1.893   2.617   0.444
  387SOL    HW2 1180   1.815   2.606   0.315
  388SOL     OW 1181   1.414   2.436   0.099
  388SOL    HW1 1182   1.342   2.428   0.162
  388SOL    HW2 1183   1.459   2.352   0.104
  389SOL     OW 1184   0.519   2.124   0.325
  389SOL    HW1 1185   0.557   2.074   0.253
  389SOL    HW2 1186   0.499   2.209   0.286
  390SOL     OW 1187   1.780   0.076   1.589
  390SOL    HW1 1188   1.868   0.043   1.575
  390SOL    HW2 1189   1.792   0.159   1.635
  391SOL     OW 1190   1.623   2.955   1.073
  391SOL    HW1 1191   1.638   0.039   1.117
  391SOL    HW2 1192   1.548   2.970   1.017
  392SOL     OW 1193   0.919   1.958   1.399
  392SOL    HW1 1194   0.941   1.941   1.307
  392SOL    HW2 1195   0.997   1.999   1.435
  393SOL     OW 1196   0.415   2.679   1.253
  393SOL    HW1 1197   0.485   2.686   1.318
  393SOL    HW2 1198   0.381   2.591   1.263
  394SOL     OW 1199   1.266   2.240   1.273
  394SOL    HW1 1200   1.299   2.317   1.320
  394SOL    HW2 1201   1.176   2.263   1.250
  395SOL     OW 1202   0.555   2.397   0.861
  395SOL    HW1 1203   0.570   2.452   0.784
  395SOL    HW2 1204   0.619   2.427   0.925
  396SOL     OW 1205   1.580   2.486   0.476
  396SOL    HW1 1206   1.539   2.541   0.543
  396SOL    HW2 1207   1.636   2.545   0.427
  397SOL     OW 1208   0.413   2.597   1.603
  397SOL    HW1 1209   0.470   2.647   1.545
  397SOL    HW2 1210   0.460   2.515   1.619
  398SOL     OW 1211   1.597   2.636   1.680
  398SOL    HW1 1212   1.510   2.676   1.673
  398SOL    HW2 1213   1.650   2.679   1.613
  399SOL     OW 1214   0.994   1.986   1.757
  399SOL    HW1 1215   1.047   2.061   1.729
  399SOL    HW2 1216   1.044   1.909   1.731
  400SOL     OW 1217   0.501   1.901   1.747
  400SOL    HW1 1218   0.458   1.847   1.680
  400SOL    HW2 1219   0.441   1.975   1.759
  401SOL     OW 1220   0.593   2.729   1.039
  401SOL    HW1 1221   0.596   2.821   1.011
  401SOL    HW2 1222   0.527   2.727   1.108
  402SOL     OW 1223   1.348   2.713   1.034
  402SOL    HW1 1224   1.279   2.706   0.968
  402SOL    HW2 1225   1.393   2.628   1.030
  403SOL     OW 1226   1.204   2.394   0.271
  403SOL    HW1 1227   1.210   2.311   0.316
  403SOL    HW2 1228   1.158   2.452   0.332
  404SOL     OW 1229   0.300   2.065   1.243
  404SOL    HW1 1230   0.280   2.094   1.332
  404SOL    HW2 1231   0.285   1.970   1.245
  405SOL     OW 1232   0.054   0.171   1.266
  405SOL    HW1 1233   0.081   0.137   1.351
  405SOL    HW2 1234   0.009   0.252   1.287
  406SOL     OW 1235   0.729   2.492   1.060
  406SOL    HW1 1236   0.799   2.477   0.997
  406SOL    HW2 1237   0.697   2.581   1.041
  407SOL     OW 1238   1.736   2.818   1.845
  407SOL    HW1 1239   1.688   2.759   1.787
  407SOL    HW2 1240   1.679   2.830   1.921
  408SOL     OW 1241   0.302   1.931   0.622
  408SOL    HW1 1242   0.285   2.022   0.648
  408SOL    HW2 1243   0.310   1.883   0.704
  409SOL     OW 1244   1.619   2.235   0.368
  409SOL    HW1 1245   1.644   2.170   0.434
  409SOL    HW2 1246   1.592   2.311   0.419
  410SOL     OW 1247   1.028   2.617   0.966
  410SOL    HW1 1248   1.027   2.632   1.060
  410SOL    HW2 1249   1.001   2.525   0.956
  411SOL     OW 1250   0.358   2.787   1.797
  411SOL    HW1 1251   0.419   2.783   1.870
  411SOL    HW2 1252   0.382   2.713   1.741
  412SOL     OW 1253   1.502   2.169   0.126
  412SOL    HW1 1254   1.465   2.081   0.137
  412SOL    HW2 1255   1.557   2.182   0.204
  413SOL     OW 1256   1.295   2.683   0.038
  413SOL    HW1 1257   1.336   2.598   0.049
  413SOL    HW2 1258   1.325   2.713   2.952
  414SOL     OW 1259   0.313   2.678   0.951
  414SOL    HW1 1260   0.407   2.685   0.933
  414SOL    HW2 1261   0.302   2.589   0.986
  415SOL     OW 1262   0.335   2.379   1.015
  415SOL    HW1 1263   0.295   2.295   0.993
  415SOL    HW2 1264   0.410   2.386   0.955
  416SOL     OW 1265   1.134   2.239   1.680
  416SOL    HW1 1266   1.088   2.294   1.743
  416SOL    HW2 1267   1.223   2.275   1.677
  417SOL     OW 1268   1.161   2.066   1.468
  417SOL    HW1 1269   1.151   2.128   1.540
  417SOL    HW2 1270   1.201   2.118   1.398
  418SOL     OW 1271   0.981   2.667   1.232
  418SOL    HW1 1272   1.036   2.638   1.304
  418SOL    HW2 1273   0.900   2.618   1.242
  419SOL     OW 1274   0.047   2.443   1.118
  419SOL    HW1 1275   0.120   2.397   1.077
  419SOL    HW2 1276   0.033   2.398   1.201
  420SOL     OW 1277   0.195   2.381   1.722
  420SOL    HW1 1278   0.265   2.352   1.663
  420SOL    HW2 1279   0.163   2.462   1.681
  421SOL     OW 1280   1.379   2.806   1.661
  421SOL    HW1 1281   1.398   2.900   1.657
  421SOL    HW2 1282   1.372   2.779   1.570
  422SOL     OW 1283   0.820   2.438   0.350
  422SOL    HW1 1284   0.818   2.361   0.293
  422SOL    HW2 1285   0.739   2.486   0.327
  423SOL     OW 1286   1.643   2.464   1.188
  423SOL    HW1 1287   1.632   2.404   1.262
  423SOL    HW2 1288   1.729   2.444   1.153
  424SOL     OW 1289   0.702   2.312   1.260
  424SOL    HW1 1290   0.648   2.239   1.230
  424SOL    HW2 1291   0.699   2.375   1.188
  425SOL     OW 1292   0.441   2.358   0.207
  425SOL    HW1 1293   0.512   2.421   0.223
  425SOL    HW2 1294   0.365   2.412   0.186
  426SOL     OW 1295   0.158   0.009   1.468
  426SOL    HW1 1296   0.147   2.957   1.548
  426SOL    HW2 1297   0.172   2.945   1.399
  427SOL     OW 1298   1.347   2.908   1.221
  427SOL    HW1 1299   1.364   2.845   1.151
  427SOL    HW2 1300   1.279   2.965   1.185
  428SOL     OW 1301   1.299   2.722   0.315
  428SOL    HW1 1302   1.228   2.676   0.359
  428SOL    HW2 1303   1.289   2.700   0.222
  429SOL     OW 1304   0.899   1.936   0.123
  429SOL    HW1 1305   0.955   1.919   0.047
  429SOL    HW2 1306   0.945   1.897   0.197
  430SOL     OW 1307   1.713   2.005   0.512
  430SOL    HW1 1308   1.792   1.996   0.459
  430SOL    HW2 1309   1.701   1.919   0.552
  431SOL     OW 1310   1.294   2.796   0.684
  431SOL    HW1 1311   1.362   2.728   0.681
  431SOL    HW2 1312   1.304   2.844   0.602
  432SOL     OW 1313   1.840   2.035   0.966
  432SOL    HW1 1314   1.869   1.948   0.939
  432SOL    HW2 1315   1.753   2.044   0.928
  433SOL     OW 1316   0.267   2.179   0.722
  433SOL    HW1 1317   0.184   2.216   0.695
  433SOL    HW2 1318   0.259   2.167   0.817
  434SOL     OW 1319   0.813   2.858   1.375
  434SOL    HW1 1320   0.868   2.833   1.301
  434SOL    HW2 1321   0.833   2.950   1.391
  435SOL     OW 1322   0.900   2.792   0.283
  435SOL    HW1 1323   0.981   2.821   0.241
  435SOL    HW2 1324   0.929   2.744   0.361
  436SOL     OW 1325   1.020   2.103   0.965
  436SOL    HW1 1326   1.015   2.055   0.883
  436SOL    HW2 1327   1.015   2.035   1.033
  437SOL     OW 1328   1.720   2.254   1.379
  437SOL    HW1 1329   1.793   2.317   1.379
  437SOL    HW2 1330   1.751   2.182   1.324
  438SOL     OW 1331   0.118   2.865   1.694
  438SOL    HW1 1332   0.049   2.846   1.757
  438SOL    HW2 1333   0.200   2.851   1.742
  439SOL     OW 1334   0.674   2.058   1.498
  439SOL    HW1 1335   0.759   2.038   1.458
  439SOL    HW2 1336   0.696   2.086   1.587
  440SOL     OW 1337   0.051   2.165   0.055
  440SOL    HW1 1338   2.967   2.202   0.031
  440SOL    HW2 1339   0.116   2.228   0.022
  441SOL     OW 1340   1.434   2.717   1.404
  441SOL    HW1 1341   1.391   2.776   1.342
  441SOL    HW2 1342   1.526   2.719   1.378
  442SOL     OW 1343   0.060   2.061   0.321
  442SOL    HW1 1344   0.048   2.099   0.233
  442SOL    HW2 1345   0.123   1.990   0.307
  443SOL     OW 1346   1.139   0.210   0.092
  443SOL    HW1 1347   1.071   0.257   0.140
  443SOL    HW2 1348   1.218   0.219   0.147
  444SOL     OW 1349   0.613   2.688   1.436
  444SOL    HW1 1350   0.670   2.763   1.420
  444SOL    HW2 1351   0.673   2.614   1.445
  445SOL     OW 1352   0.717   2.427   1.706
  445SOL    HW1 1353   0.757   2.490   1.766
  445SOL    HW2 1354   0.748   2.342   1.736
  446SOL     OW 1355   1.676   2.745   1.254
  446SOL    HW1 1356   1.666   2.658   1.215
  446SOL    HW2 1357   1.658   2.806   1.182
  447SOL     OW 1358   1.220   2.180   0.460
  447SOL    HW1 1359   1.285   2.110   0.450
  447SOL    HW2 1360   1.251   2.230   0.536
  448SOL     OW 1361   0.592   2.587   0.665
  448SOL    HW1 1362   0.615   2.680   0.676
  448SOL    HW2 1363   0.524   2.586   0.598
  449SOL     OW 1364   1.764   2.223   1.649
  449SOL    HW1 1365   1.745   2.237   1.556
  449SOL    HW2 1366   1.692   2.167   1.679
  450SOL     OW 1367   1.733   2.796   1.515
  450SOL    HW1 1368   1.749   2.888   1.534
  450SOL    HW2 1369   1.727   2.792   1.420
  451SOL     OW 1370   0.890   2.831   0.863
  451SOL    HW1 1371   0.927   2.750   0.898
  451SOL    HW2 1372   0.827   2.859   0.929
  452SOL     OW 1373   1.110   2.886   0.086
  452SOL    HW1 1374   1.062   2.887   0.003
  452SOL    HW2 1375   1.173   2.814   0.076
  453SOL     OW 1376   1.812   2.046   1.238
  453SOL    HW1 1377   1.806   1.952   1.254
  453SOL    HW2 1378   1.824   2.054   1.144
  454SOL     OW 1379   0.430   2.296   0.528
  454SOL    HW1 1380   0.460   2.225   0.471
  454SOL    HW2 1381   0.384   2.251   0.599
  455SOL     OW 1382   0.336   2.419   1.290
  455SOL    HW1 1383   0.395   2.365   1.342
  455SOL    HW2 1384   0.349   2.389   1.200
  456SOL     OW 1385   1.431   2.084   1.118
  456SOL    HW1 1386   1.469   2.012   1.168
  456SOL    HW2 1387   1.379   2.133   1.182
  457SOL     OW 1388   1.009   1.882   1.144
  457SOL    HW1 1389   0.955   1.814   1.104
  457SOL    HW2 1390   1.097   1.845   1.147
  458SOL     OW 1391   1.355   1.914   0.163
  458SOL    HW1 1392   1.380   1.864   0.086
  458SOL    HW2 1393   1.269   1.879   0.187
  459SOL     OW 1394   1.300   2.325   0.684
  459SOL    HW1 1395   1.243   2.402   0.691
  459SOL    HW2 1396   1.294   2.283   0.770
  460SOL     OW 1397   1.586   2.065   0.877
  460SOL    HW1 1398   1.524   2.084   0.947
  460SOL    HW2 1399   1.586   2.143   0.823
  461SOL     OW 1400   2.998   2.882   0.285
  461SOL    HW1 1401   0.080   2.918   0.251
  461SOL    HW2 1402   0.019   2.851   0.373
  462SOL     OW 1403   0.233   2.502   1.973
  462SOL    HW1 1404   0.165   2.458   2.024
  462SOL    HW2 1405   0.222   2.466   1.884
  463SOL     OW 1406   0.234   2.125   2.837
  463SOL    HW1 1407   0.271   2.100   2.922
  463SOL    HW2 1408   0.147   2.085   2.836
  464SOL     OW 1409   0.015   2.248   2.506
  464SOL    HW1 1410   2.929   2.283   2.530
  464SOL    HW2 1411   2.996   2.162   2.469
  465SOL     OW 1412   1.137   2.568   2.564
  465SOL    HW1 1413   1.183   2.652   2.556
  465SOL    HW2 1414   1.084   2.578   2.644
  466SOL     OW 1415   1.762   2.465   2.091
  466SOL    HW1 1416   1.745   2.457   1.997
  466SOL    HW2 1417   1.730   2.384   2.129
  467SOL     OW 1418   0.776   0.011   2.873
  467SOL    HW1 1419   0.685   0.031   2.896
  467SOL    HW2 1420   0.804   0.088   2.823
  468SOL     OW 1421   0.648   2.848   2.571
  468SOL    HW1 1422   0.741   2.848   2.591
  468SOL    HW2 1423   0.634   2.930   2.524
  469SOL     OW 1424   1.617   2.310   2.595
  469SOL    HW1 1425   1.541   2.334   2.542
  469SOL    HW2 1426   1.618   2.376   2.665
  470SOL     OW 1427   0.210   0.315   2.322
  470SOL    HW1 1428   0.221   0.385   2.386
  470SOL    HW2 1429   0.207   0.235   2.374
  471SOL     OW 1430   0.232   2.945   2.743
  471SOL    HW1 1431   0.258   2.860   2.778
  471SOL    HW2 1432   0.213   2.997   2.821
  472SOL     OW 1433   0.605   2.823   1.994
  472SOL    HW1 1434   0.594   2.907   1.950
  472SOL    HW2 1435   0.670   2.840   2.063
  473SOL     OW 1436   0.121   2.495   2.424
  473SOL    HW1 1437   0.097   2.411   2.464
  473SOL    HW2 1438   0.120   2.557   2.497
  474SOL     OW 1439   1.702   2.805   2.484
  474SOL    HW1 1440   1.780   2.751   2.499
  474SOL    HW2 1441   1.696   2.814   2.389
  475SOL     OW 1442   0.620   0.239   2.575
  475SOL    HW1 1443   0.595   0.158   2.531
  475SOL    HW2 1444   0.617   0.306   2.507
  476SOL     OW 1445   0.813   1.863   2.369
  476SOL    HW1 1446   0.854   1.948   2.351
  476SOL    HW2 1447   0.720   1.882   2.379
  477SOL     OW 1448   0.217   2.805   0.104
  477SOL    HW1 1449   0.275   2.729   0.099
  477SOL    HW2 1450   0.129   2.769   0.093
  478SOL     OW 1451   1.536   2.843   2.047
  478SOL    HW1 1452   1.470   2.788   2.088
  478SOL    HW2 1453   1.595   2.867   2.119
  479SOL     OW 1454   0.596   2.578   2.128
  479SOL    HW1 1455   0.600   2.658   2.075
  479SOL    HW2 1456   0.532   2.598   2.196
  480SOL     OW 1457   1.299   2.200   2.810
  480SOL    HW1 1458   1.205   2.182   2.801
  480SOL    HW2 1459   1.321   2.168   2.898
  481SOL     OW 1460   1.052   2.562   2.288
  481SOL    HW1 1461   1.065   2.557   2.383
  481SOL    HW2 1462   0.969   2.517   2.273
  482SOL     OW 1463   0.107   2.671   2.624
  482SOL    HW1 1464   0.183   2.673   2.684
  482SOL    HW2 1465   0.045   2.733   2.662
  483SOL     OW 1466   0.889   2.208   2.055
  483SOL    HW1 1467   0.931   2.269   1.996
  483SOL    HW2 1468   0.908   2.122   2.019
  484SOL     OW 1469   0.551   2.046   2.768
  484SOL    HW1 1470   0.515   2.083   2.849
  484SOL    HW2 1471   0.561   2.122   2.710
  485SOL     OW 1472   1.797   2.908   2.728
  485SOL    HW1 1473   1.739   2.890   2.654
  485SOL    HW2 1474   1.739   2.912   2.804
  486SOL     OW 1475   1.483   2.604   2.585
  486SOL    HW1 1476   1.468   2.549   2.662
  486SOL    HW2 1477   1.559   2.657   2.608
  487SOL     OW 1478   1.401   1.970   2.293
  487SOL    HW1 1479   1.389   1.945   2.201
  487SOL    HW2 1480   1.496   1.975   2.304
  488SOL     OW 1481   0.396   2.555   2.334
  488SOL    HW1 1482   0.412   2.462   2.349
  488SOL    HW2 1483   0.303   2.567   2.354
  489SOL     OW 1484   0.632   1.987   1.967
  489SOL    HW1 1485   0.704   1.926   1.980
  489SOL    HW2 1486   0.585   1.953   1.891
  490SOL     OW 1487   0.923   2.381   2.756
  490SOL    HW1 1488   0.902   2.358   2.666
  490SOL    HW2 1489   0.959   2.301   2.794
  491SOL     OW 1490   0.549   1.926   2.366
  491SOL    HW1 1491   0.467   1.926   2.416
  491SOL    HW2 1492   0.544   2.003   2.311
  492SOL     OW 1493   0.290   1.905   2.042
  492SOL    HW1 1494   0.349   1.974   2.013
  492SOL    HW2 1495   0.346   1.841   2.086
  493SOL     OW 1496   0.937   2.107   2.323
  493SOL    HW1 1497   0.909   2.149   2.242
  493SOL    HW2 1498   1.032   2.120   2.326
  494SOL     OW 1499   1.026   2.405   1.882
  494SOL    HW1 1500   0.981   2.488   1.863
  494SOL    HW2 1501   1.088   2.427   1.951
  495SOL     OW 1502   0.869   2.318   2.499
  495SOL    HW1 1503   0.821   2.375   2.438
  495SOL    HW2 1504   0.888   2.239   2.448
  496SOL     OW 1505   1.012   1.911   2.612
  496SOL    HW1 1506   0.955   1.904   2.535
  496SOL    HW2 1507   0.992   1.833   2.663
  497SOL     OW 1508   1.421   2.995   2.737
  497SOL    HW1 1509   1.355   2.940   2.696
  497SOL    HW2 1510   1.448   0.055   2.667
  498SOL     OW 1511   1.485   2.448   2.818
  498SOL    HW1 1512   1.421   2.377   2.824
  498SOL    HW2 1513   1.507   2.469   2.909
  499SOL     OW 1514   1.836   2.666   2.253
  499SOL    HW1 1515   1.896   2.618   2.309
  499SOL    HW2 1516   1.814   2.605   2.182
  500SOL     OW 1517   1.394   2.434   1.934
  500SOL    HW1 1518   1.334   2.413   2.006
  500SOL    HW2 1519   1.479   2.399   1.963
  501SOL     OW 1520   0.527   2.124   2.181
  501SOL    HW1 1521   0.568   2.076   2.110
  501SOL    HW2 1522   0.506   2.210   2.143
  502SOL     OW 1523   1.625   2.966   2.934
  502SOL    HW1 1524   1.629   0.044   2.989
  502SOL    HW2 1525   1.550   2.981   2.877
  503SOL     OW 1526   0.552   2.394   2.726
  503SOL    HW1 1527   0.567   2.449   2.649
  503SOL    HW2 1528   0.614   2.426   2.791
  504SOL     OW 1529   1.577   2.485   2.336
  504SOL    HW1 1530   1.539   2.541   2.403
  504SOL    HW2 1531   1.634   2.544   2.285
  505SOL     OW 1532   0.576   2.727   2.885
  505SOL    HW1 1533   0.613   2.807   2.847
  505SOL    HW2 1534   0.566   2.747   2.978
  506SOL     OW 1535   1.206   2.392   2.131
  506SOL    HW1 1536   1.215   2.313   2.184
  506SOL    HW2 1537   1.160   2.454   2.187
  507SOL     OW 1538   0.329   2.061   0.078
  507SOL    HW1 1539   0.320   2.103   0.164
  507SOL    HW2 1540   0.307   1.969   0.093
  508SOL     OW 1541   0.728   2.500   2.914
  508SOL    HW1 1542   0.797   2.480   2.850
  508SOL    HW2 1543   0.694   2.585   2.886
  509SOL     OW 1544   0.303   1.931   2.482
  509SOL    HW1 1545   0.285   2.021   2.508
  509SOL    HW2 1546   0.308   1.883   2.565
  510SOL     OW 1547   1.615   2.234   2.230
  510SOL    HW1 1548   1.643   2.171   2.297
  510SOL    HW2 1549   1.591   2.312   2.280
  511SOL     OW 1550   1.025   2.620   2.822
  511SOL    HW1 1551   1.026   2.625   2.918
  511SOL    HW2 1552   0.996   2.531   2.803
  512SOL     OW 1553   1.529   2.138   1.990
  512SOL    HW1 1554   1.466   2.070   2.014
  512SOL    HW2 1555   1.562   2.171   2.073
  513SOL     OW 1556   1.292   2.686   1.895
  513SOL    HW1 1557   1.334   2.600   1.899
  513SOL    HW2 1558   1.324   2.724   1.813
  514SOL     OW 1559   0.312   2.675   2.809
  514SOL    HW1 1560   0.406   2.691   2.812
  514SOL    HW2 1561   0.301   2.586   2.842
  515SOL     OW 1562   0.319   2.386   2.867
  515SOL    HW1 1563   0.288   2.297   2.852
  515SOL    HW2 1564   0.399   2.393   2.816
  516SOL     OW 1565   0.981   2.612   0.088
  516SOL    HW1 1566   1.025   2.604   0.173
  516SOL    HW2 1567   0.891   2.638   0.110
  517SOL     OW 1568   0.818   2.431   2.218
  517SOL    HW1 1569   0.818   2.356   2.159
  517SOL    HW2 1570   0.743   2.484   2.190
  518SOL     OW 1571   0.704   2.309   0.101
  518SOL    HW1 1572   0.616   2.273   0.092
  518SOL    HW2 1573   0.707   2.381   0.038
  519SOL     OW 1574   0.463   2.355   2.047
  519SOL    HW1 1575   0.526   2.424   2.069
  519SOL    HW2 1576   0.379   2.401   2.041
  520SOL     OW 1577   1.304   2.725   2.170
  520SOL    HW1 1578   1.232   2.684   2.218
  520SOL    HW2 1579   1.287   2.704   2.079
  521SOL     OW 1580   1.718   2.006   2.373
  521SOL    HW1 1581   1.791   1.992   2.313
  521SOL    HW2 1582   1.704   1.920   2.414
  522SOL     OW 1583   1.295   2.799   2.545
  522SOL    HW1 1584   1.362   2.730   2.545
  522SOL    HW2 1585   1.306   2.842   2.460
  523SOL     OW 1586   1.840   2.042   2.822
  523SOL    HW1 1587   1.870   1.954   2.798
  523SOL    HW2 1588   1.751   2.047   2.789
  524SOL     OW 1589   0.270   2.181   2.576
  524SOL    HW1 1590   0.184   2.218   2.554
  524SOL    HW2 1591   0.266   2.167   2.671
  525SOL     OW 1592   0.903   2.761   2.110
  525SOL    HW1 1593   0.979   2.810   2.080
  525SOL    HW2 1594   0.934   2.712   2.187
  526SOL     OW 1595   1.037   2.108   2.803
  526SOL    HW1 1596   1.025   2.050   2.727
  526SOL    HW2 1597   1.003   2.057   2.877
  527SOL     OW 1598   0.093   2.179   1.918
  527SOL    HW1 1599   0.011   2.149   1.879
  527SOL    HW2 1600   0.105   2.267   1.884
  528SOL     OW 1601   0.063   2.061   2.175
  528SOL    HW1 1602   0.072   2.107   2.092
  528SOL    HW2 1603   0.129   1.992   2.171
  529SOL     OW 1604   1.122   0.236   2.008
  529SOL    HW1 1605   1.107   0.158   1.955
  529SOL    HW2 1606   1.209   0.223   2.046
  530SOL     OW 1607   1.730   2.711   0.051
  530SOL    HW1 1608   1.658   2.669   0.099
  530SOL    HW2 1609   1.700   2.800   0.036
  531SOL     OW 1610   1.218   2.182   2.319
  531SOL    HW1 1611   1.281   2.111   2.310
  531SOL    HW2 1612   1.247   2.229   2.397
  532SOL     OW 1613   0.594   2.583   2.528
  532SOL    HW1 1614   0.616   2.676   2.539
  532SOL    HW2 1615   0.526   2.583   2.460
  533SOL     OW 1616   0.884   2.823   2.714
  533SOL    HW1 1617   0.928   2.749   2.756
  533SOL    HW2 1618   0.846   2.872   2.787
  534SOL     OW 1619   1.106   2.878   1.953
  534SOL    HW1 1620   1.061   2.901   1.872
  534SOL    HW2 1621   1.161   2.803   1.930
  535SOL     OW 1622   1.823   2.049   0.096
  535SOL    HW1 1623   1.791   1.959   0.099
  535SOL    HW2 1624   1.831   2.069   0.003
  536SOL     OW 1625   0.426   2.294   2.382
  536SOL    HW1 1626   0.459   2.221   2.330
  536SOL    HW2 1627   0.382   2.253   2.456
  537SOL     OW 1628   1.354   1.916   2.026
  537SOL    HW1 1629   1.390   1.846   1.972
  537SOL    HW2 1630   1.266   1.885   2.049
  538SOL     OW 1631   1.298   2.320   2.548
  538SOL    HW1 1632   1.244   2.399   2.556
  538SOL    HW2 1633   1.296   2.281   2.636
  539SOL     OW 1634   1.582   2.074   2.738
  539SOL    HW1 1635   1.498   2.095   2.779
  539SOL    HW2 1636   1.597   2.146   2.677
  540SOL     OW 1637   0.017   2.932   2.155
  540SOL    HW1 1638   0.111   2.926   2.139
  540SOL    HW2 1639   0.002   2.875   2.231
  541SOL     OW 1640   2.093   0.636   0.122
  541SOL    HW1 1641   1.998   0.629   0.136
  541SOL    HW2 1642   2.106   0.606   0.032
  542SOL     OW 1643   2.078   0.287   1.009
  542SOL    HW1 1644   2.110   0.249   1.091
  542SOL    HW2 1645   1.995   0.243   0.994
  543SOL     OW 1646   1.865   0.381   0.642
  543SOL    HW1 1647   1.783   0.408   0.684
  543SOL    HW2 1648   1.841   0.306   0.588
  544SOL     OW 1649   2.426   1.283   1.172
  544SOL    HW1 1650   2.339   1.291   1.134
  544SOL    HW2 1651   2.445   1.371   1.207
  545SOL     OW 1652   2.616   1.143   1.036
  545SOL    HW1 1653   2.548   1.177   1.095
  545SOL    HW2 1654   2.655   1.221   0.997
  546SOL     OW 1655   2.720   0.776   1.817
  546SOL    HW1 1656   2.714   0.845   1.882
  546SOL    HW2 1657   2.746   0.821   1.736
  547SOL     OW 1658   2.547   1.006   0.649
  547SOL    HW1 1659   2.608   0.990   0.721
  547SOL    HW2 1660   2.476   1.057   0.689
  548SOL     OW 1661   2.570   1.153   1.812
  548SOL    HW1 1662   2.617   1.232   1.837
  548SOL    HW2 1663   2.487   1.184   1.776
  549SOL     OW 1664   2.194   1.427   1.069
  549SOL    HW1 1665   2.120   1.393   1.018
  549SOL    HW2 1666   2.245   1.479   1.006
  550SOL     OW 1667   2.314   0.402   1.486
  550SOL    HW1 1668   2.388   0.341   1.492
  550SOL    HW2 1669   2.237   0.347   1.503
  551SOL     OW 1670   2.083   1.715   0.472
  551SOL    HW1 1671   2.103   1.791   0.527
  551SOL    HW2 1672   2.159   1.704   0.416
  552SOL     OW 1673   2.980   1.347   1.688
  552SOL    HW1 1674   0.033   1.347   1.768
  552SOL    HW2 1675   2.935   1.263   1.688
  553SOL     OW 1676   2.083   1.442   0.534
  553SOL    HW1 1677   2.073   1.537   0.542
  553SOL    HW2 1678   2.026   1.406   0.603
  554SOL     OW 1679   2.117   1.087   0.886
  554SOL    HW1 1680   2.116   1.003   0.932
  554SOL    HW2 1681   2.063   1.145   0.941
  555SOL     OW 1682   2.478   1.789   1.434
  555SOL    HW1 1683   2.394   1.771   1.476
  555SOL    HW2 1684   2.496   1.880   1.455
  556SOL     OW 1685   2.453   0.978   0.147
  556SOL    HW1 1686   2.479   1.049   0.088
  556SOL    HW2 1687   2.487   1.004   0.232
  557SOL     OW 1688   1.980   0.645   0.563
  557SOL    HW1 1689   1.936   0.564   0.588
  557SOL    HW2 1690   1.973   0.701   0.640
  558SOL     OW 1691   1.875   1.590   0.120
  558SOL    HW1 1692   1.889   1.499   0.148
  558SOL    HW2 1693   1.878   1.640   0.202
  559SOL     OW 1694   1.984   0.743   1.585
  559SOL    HW1 1695   2.076   0.767   1.597
  559SOL    HW2 1696   1.937   0.825   1.595
  560SOL     OW 1697   2.474   1.384   0.735
  560SOL    HW1 1698   2.428   1.300   0.744
  560SOL    HW2 1699   2.457   1.411   0.645
  561SOL     OW 1700   2.682   0.015   0.520
  561SOL    HW1 1701   2.709   0.105   0.501
  561SOL    HW2 1702   2.588   0.014   0.502
  562SOL     OW 1703   2.053   0.968   1.268
  562SOL    HW1 1704   2.138   0.927   1.254
  562SOL    HW2 1705   1.990   0.907   1.227
  563SOL     OW 1706   2.188   0.253   1.802
  563SOL    HW1 1707   2.237   0.332   1.825
  563SOL    HW2 1708   2.101   0.266   1.841
  564SOL     OW 1709   2.452   0.721   0.266
  564SOL    HW1 1710   2.458   0.804   0.219
  564SOL    HW2 1711   2.389   0.738   0.337
  565SOL     OW 1712   2.655   0.628   1.453
  565SOL    HW1 1713   2.629   0.600   1.541
  565SOL    HW2 1714   2.617   0.561   1.395
  566SOL     OW 1715   2.829   0.881   1.574
  566SOL    HW1 1716   2.854   0.795   1.541
  566SOL    HW2 1717   2.781   0.923   1.502
  567SOL     OW 1718   2.846   0.373   1.260
  567SOL    HW1 1719   2.770   0.425   1.288
  567SOL    HW2 1720   2.843   0.376   1.165
  568SOL     OW 1721   2.892   0.716   0.408
  568SOL    HW1 1722   2.930   0.699   0.494
  568SOL    HW2 1723   2.816   0.657   0.404
  569SOL     OW 1724   1.952   0.820   0.774
  569SOL    HW1 1725   2.033   0.812   0.825
  569SOL    HW2 1726   1.910   0.899   0.808
  570SOL     OW 1727   1.989   1.843   1.575
  570SOL    HW1 1728   1.989   1.822   1.668
  570SOL    HW2 1729   1.897   1.846   1.551
  571SOL     OW 1730   2.780   0.344   0.219
  571SOL    HW1 1731   2.760   0.395   0.141
  571SOL    HW2 1732   2.773   0.253   0.191
  572SOL     OW 1733   2.381   0.199   0.910
  572SOL    HW1 1734   2.397   0.213   1.003
  572SOL    HW2 1735   2.403   0.283   0.869
  573SOL     OW 1736   2.860   1.440   0.469
  573SOL    HW1 1737   2.828   1.517   0.422
  573SOL    HW2 1738   2.858   1.466   0.561
  574SOL     OW 1739   2.217   1.808   0.859
  574SOL    HW1 1740   2.260   1.723   0.868
  574SOL    HW2 1741   2.285   1.872   0.878
  575SOL     OW 1742   2.180   0.952   0.244
  575SOL    HW1 1743   2.263   0.969   0.200
  575SOL    HW2 1744   2.152   0.867   0.212
  576SOL     OW 1745   2.326   1.261   1.737
  576SOL    HW1 1746   2.299   1.267   1.646
  576SOL    HW2 1747   2.244   1.263   1.787
  577SOL     OW 1748   2.063   0.295   1.498
  577SOL    HW1 1749   1.980   0.342   1.500
  577SOL    HW2 1750   2.052   0.223   1.561
  578SOL     OW 1751   2.328   1.723   0.334
  578SOL    HW1 1752   2.362   1.792   0.390
  578SOL    HW2 1753   2.395   1.711   0.266
  579SOL     OW 1754   2.124   1.795   1.232
  579SOL    HW1 1755   2.174   1.729   1.280
  579SOL    HW2 1756   2.103   1.753   1.148
  580SOL     OW 1757   2.800   1.695   0.899
  580SOL    HW1 1758   2.862   1.628   0.928
  580SOL    HW2 1759   2.752   1.654   0.827
  581SOL     OW 1760   2.257   0.690   0.476
  581SOL    HW1 1761   2.287   0.600   0.495
  581SOL    HW2 1762   2.164   0.689   0.496
  582SOL     OW 1763   2.477   0.109   0.105
  582SOL    HW1 1764   2.572   0.113   0.118
  582SOL    HW2 1765   2.462   0.151   0.021
  583SOL     OW 1766   2.632   0.277   1.753
  583SOL    HW1 1767   2.702   0.214   1.766
  583SOL    HW2 1768   2.580   0.273   1.833
  584SOL     OW 1769   2.741   1.517   1.194
  584SOL    HW1 1770   2.719   1.482   1.107
  584SOL    HW2 1771   2.804   1.454   1.229
  585SOL     OW 1772   2.669   1.402   0.940
  585SOL    HW1 1773   2.753   1.389   0.895
  585SOL    HW2 1774   2.604   1.398   0.870
  586SOL     OW 1775   2.785   0.504   0.905
  586SOL    HW1 1776   2.758   0.494   0.814
  586SOL    HW2 1777   2.824   0.420   0.928
  587SOL     OW 1778   2.402   0.046   0.496
  587SOL    HW1 1779   2.316   0.038   0.538
  587SOL    HW2 1780   2.395   0.125   0.443
  588SOL     OW 1781   0.321   1.151   0.043
  588SOL    HW1 1782   0.309   1.097   0.122
  588SOL    HW2 1783   0.256   1.221   0.052
  589SOL     OW 1784   2.158   0.090   0.185
  589SOL    HW1 1785   2.243   0.132   0.200
  589SOL    HW2 1786   2.175   2.997   0.194
  590SOL     OW 1787   2.828   0.247   0.467
  590SOL    HW1 1788   2.787   0.298   0.397
  590SOL    HW2 1789   2.904   0.206   0.425
  591SOL     OW 1790   0.084   1.583   0.797
  591SOL    HW1 1791   0.109   1.620   0.712
  591SOL    HW2 1792   0.166   1.551   0.834
  592SOL     OW 1793   2.329   1.149   0.734
  592SOL    HW1 1794   2.259   1.129   0.796
  592SOL    HW2 1795   2.290   1.133   0.648
  593SOL     OW 1796   2.896   0.510   0.023
  593SOL    HW1 1797   2.844   0.590   0.011
  593SOL    HW2 1798   2.942   0.523   0.105
  594SOL     OW 1799   1.938   0.556   1.391
  594SOL    HW1 1800   2.030   0.553   1.365
  594SOL    HW2 1801   1.934   0.626   1.456
  595SOL     OW 1802   2.427   0.214   1.182
  595SOL    HW1 1803   2.464   0.170   1.258
  595SOL    HW2 1804   2.334   0.223   1.201
  596SOL     OW 1805   2.744   0.469   0.636
  596SOL    HW1 1806   2.677   0.519   0.589
  596SOL    HW2 1807   2.734   0.380   0.603
  597SOL     OW 1808   2.861   0.059   0.760
  597SOL    HW1 1809   2.822   0.062   0.672
  597SOL    HW2 1810   2.836   2.973   0.794
  598SOL     OW 1811   2.353   1.402   0.151
  598SOL    HW1 1812   2.288   1.372   0.214
  598SOL    HW2 1813   2.305   1.410   0.068
  599SOL     OW 1814   2.391   0.261   0.323
  599SOL    HW1 1815   2.435   0.214   0.251
  599SOL    HW2 1816   2.363   0.343   0.283
  600SOL     OW 1817   2.778   0.114   1.400
  600SOL    HW1 1818   2.805   0.099   1.309
  600SOL    HW2 1819   2.838   0.181   1.432
  601SOL     OW 1820   2.840   1.109   1.730
  601SOL    HW1 1821   2.747   1.131   1.741
  601SOL    HW2 1822   2.841   1.042   1.662
  602SOL     OW 1823   2.563   1.063   0.379
  602SOL    HW1 1824   2.549   1.048   0.473
  602SOL    HW2 1825   2.647   1.021   0.361
  603SOL     OW 1826   2.279   0.814   1.252
  603SOL    HW1 1827   2.348   0.825   1.317
  603SOL    HW2 1828   2.244   0.726   1.267
  604SOL     OW 1829   1.946   1.569   1.312
  604SOL    HW1 1830   1.917   1.660   1.305
  604SOL    HW2 1831   2.037   1.576   1.341
  605SOL     OW 1832   2.214   1.109   0.488
  605SOL    HW1 1833   2.213   1.184   0.429
  605SOL    HW2 1834   2.211   1.033   0.431
  606SOL     OW 1835   2.417   0.541   0.863
  606SOL    HW1 1836   2.434   0.596   0.786
  606SOL    HW2 1837   2.483   0.569   0.927
  607SOL     OW 1838   2.218   1.524   1.319
  607SOL    HW1 1839   2.201   1.484   1.234
  607SOL    HW2 1840   2.313   1.536   1.321
  608SOL     OW 1841   2.275   0.745   1.602
  608SOL    HW1 1842   2.336   0.791   1.544
  608SOL    HW2 1843   2.316   0.660   1.616
  609SOL     OW 1844   2.866   0.118   1.761
  609SOL    HW1 1845   2.901   0.193   1.712
  609SOL    HW2 1846   2.900   0.041   1.716
  610SOL     OW 1847   2.366   0.055   1.748
  610SOL    HW1 1848   2.330   2.987   1.692
  610SOL    HW2 1849   2.295   0.119   1.757
  611SOL     OW 1850   2.442   0.874   1.030
  611SOL    HW1 1851   2.476   0.964   1.030
  611SOL    HW2 1852   2.388   0.869   1.109
  612SOL     OW 1853   0.063   0.532   0.268
  612SOL    HW1 1854   0.086   0.449   0.311
  612SOL    HW2 1855   0.035   0.589   0.339
  613SOL     OW 1856   2.160   0.196   1.253
  613SOL    HW1 1857   2.129   0.239   1.333
  613SOL    HW2 1858   2.139   0.104   1.266
  614SOL     OW 1859   1.908   1.302   1.269
  614SOL    HW1 1860   1.940   1.251   1.344
  614SOL    HW2 1861   1.925   1.393   1.292
  615SOL     OW 1862   2.589   0.634   1.060
  615SOL    HW1 1863   2.666   0.618   1.005
  615SOL    HW2 1864   2.562   0.723   1.037
  616SOL     OW 1865   2.168   0.063   0.641
  616SOL    HW1 1866   2.171   0.154   0.671
  616SOL    HW2 1867   2.152   0.012   0.721
  617SOL     OW 1868   2.867   0.770   0.972
  617SOL    HW1 1869   2.895   0.774   1.063
  617SOL    HW2 1870   2.873   0.677   0.950
  618SOL     OW 1871   2.830   1.569   1.704
  618SOL    HW1 1872   2.826   1.610   1.617
  618SOL    HW2 1873   2.887   1.493   1.692
  619SOL     OW 1874   2.215   0.913   1.811
  619SOL    HW1 1875   2.299   0.936   1.852
  619SOL    HW2 1876   2.239   0.853   1.740
  620SOL     OW 1877   2.906   1.345   0.833
  620SOL    HW1 1878   2.910   1.265   0.779
  620SOL    HW2 1879   2.979   1.398   0.803
  621SOL     OW 1880   2.172   0.808   0.947
  621SOL    HW1 1881   2.265   0.832   0.944
  621SOL    HW2 1882   2.172   0.719   0.981
  622SOL     OW 1883   2.197   0.527   1.015
  622SOL    HW1 1884   2.159   0.441   0.999
  622SOL    HW2 1885   2.271   0.532   0.955
  623SOL     OW 1886   2.965   0.365   1.665
  623SOL    HW1 1887   2.905   0.428   1.706
  623SOL    HW2 1888   0.051   0.407   1.670
  624SOL     OW 1889   1.874   1.318   0.184
  624SOL    HW1 1890   1.783   1.333   0.158
  624SOL    HW2 1891   1.873   1.234   0.229
  625SOL     OW 1892   1.953   1.788   0.934
  625SOL    HW1 1893   1.925   1.708   0.890
  625SOL    HW2 1894   2.044   1.801   0.906
  626SOL     OW 1895   2.360   1.574   0.906
  626SOL    HW1 1896   2.429   1.636   0.930
  626SOL    HW2 1897   2.404   1.509   0.850
  627SOL     OW 1898   2.864   0.791   1.252
  627SOL    HW1 1899   2.910   0.725   1.304
  627SOL    HW2 1900   2.773   0.760   1.249
  628SOL     OW 1901   1.897   0.540   1.117
  628SOL    HW1 1902   1.978   0.527   1.067
  628SOL    HW2 1903   1.926   0.549   1.208
  629SOL     OW 1904   2.050   0.519   1.726
  629SOL    HW1 1905   2.108   0.482   1.660
  629SOL    HW2 1906   2.008   0.594   1.682
  630SOL     OW 1907   2.673   0.573   0.350
  630SOL    HW1 1908   2.678   0.493   0.298
  630SOL    HW2 1909   2.591   0.614   0.322
  631SOL     OW 1910   2.137   1.557   1.740
  631SOL    HW1 1911   2.083   1.617   1.792
  631SOL    HW2 1912   2.113   1.470   1.772
  632SOL     OW 1913   2.559   0.459   1.263
  632SOL    HW1 1914   2.512   0.382   1.232
  632SOL    HW2 1915   2.558   0.519   1.189
  633SOL     OW 1916   2.803   1.689   1.459
  633SOL    HW1 1917   2.772   1.638   1.383
  633SOL    HW2 1918   2.772   1.778   1.442
  634SOL     OW 1919   2.317   0.494   0.199
  634SOL    HW1 1920   2.371   0.569   0.223
  634SOL    HW2 1921   2.230   0.531   0.183
  635SOL     OW 1922   2.011   1.140   1.471
  635SOL    HW1 1923   2.013   1.087   1.551
  635SOL    HW2 1924   2.028   1.077   1.401
  636SOL     OW 1925   1.951   1.264   1.009
  636SOL    HW1 1926   1.938   1.273   1.103
  636SOL    HW2 1927   1.877   1.210   0.980
  637SOL     OW 1928   2.537   1.665   1.732
  637SOL    HW1 1929   2.484   1.743   1.720
  637SOL    HW2 1930   2.605   1.671   1.664
  638SOL     OW 1931   2.765   0.086   0.143
  638SOL    HW1 1932   2.799   0.036   0.068
  638SOL    HW2 1933   2.810   0.048   0.219
  639SOL     OW 1934   1.996   1.795   1.842
  639SOL    HW1 1935   1.946   1.730   1.891
  639SOL    HW2 1936   2.046   1.843   1.908
  640SOL     OW 1937   2.677   1.270   1.426
  640SOL    HW1 1938   2.665   1.315   1.509
  640SOL    HW2 1939   2.604   1.300   1.372
  641SOL     OW 1940   2.529   1.611   0.161
  641SOL    HW1 1941   2.535   1.629   0.067
  641SOL    HW2 1942   2.477   1.531   0.166
  642SOL     OW 1943   2.137   0.348   0.753
  642SOL    HW1 1944   2.047   0.367   0.728
  642SOL    HW2 1945   2.130   0.315   0.843
  643SOL     OW 1946   2.689   1.006   1.375
  643SOL    HW1 1947   2.735   1.001   1.291
  643SOL    HW2 1948   2.688   1.100   1.396
  644SOL     OW 1949   2.792   0.947   0.309
  644SOL    HW1 1950   2.840   0.957   0.227
  644SOL    HW2 1951   2.826   0.866   0.347
  645SOL     OW 1952   2.233   1.301   1.492
  645SOL    HW1 1953   2.221   1.380   1.439
  645SOL    HW2 1954   2.155   1.248   1.475
  646SOL     OW 1955   2.916   1.084   0.722
  646SOL    HW1 1956   2.841   1.043   0.764
  646SOL    HW2 1957   2.930   1.032   0.642
  647SOL     OW 1958   2.879   0.239   0.970
  647SOL    HW1 1959   2.877   0.188   0.889
  647SOL    HW2 1960   2.870   0.174   1.039
  648SOL     OW 1961   2.461   1.488   0.483
  648SOL    HW1 1962   2.505   1.439   0.413
  648SOL    HW2 1963   2.401   1.547   0.437
  649SOL     OW 1964   2.133   1.332   0.298
  649SOL    HW1 1965   2.048   1.337   0.254
  649SOL    HW2 1966   2.119   1.377   0.382
  650SOL     OW 1967   1.975   1.017   1.719
  650SOL    HW1 1968   1.898   0.996   1.772
  650SOL    HW2 1969   2.049   0.982   1.768
  651SOL     OW 1970   2.528   0.210   1.491
  651SOL    HW1 1971   2.610   0.181   1.453
  651SOL    HW2 1972   2.548   0.225   1.583
  652SOL     OW 1973   1.914   0.200   0.332
  652SOL    HW1 1974   1.880   0.231   0.248
  652SOL    HW2 1975   1.999   0.162   0.311
  653SOL     OW 1976   2.479   0.835   1.432
  653SOL    HW1 1977   2.534   0.911   1.418
  653SOL    HW2 1978   2.540   0.761   1.439
  654SOL     OW 1979   2.579   0.563   1.703
  654SOL    HW1 1980   2.614   0.627   1.765
  654SOL    HW2 1981   2.611   0.479   1.735
  655SOL     OW 1982   2.244   1.741   1.564
  655SOL    HW1 1983   2.158   1.779   1.550
  655SOL    HW2 1984   2.227   1.660   1.612
  656SOL     OW 1985   2.458   0.739   0.665
  656SOL    HW1 1986   2.493   0.827   0.654
  656SOL    HW2 1987   2.386   0.733   0.602
  657SOL     OW 1988   2.765   1.379   0.064
  657SOL    HW1 1989   2.695   1.385   0.128
  657SOL    HW2 1990   2.730   1.419   2.985
  658SOL     OW 1991   2.522   1.795   0.948
  658SOL    HW1 1992   2.500   1.884   0.923
  658SOL    HW2 1993   2.616   1.789   0.937
  659SOL     OW 1994   2.718   0.963   0.857
  659SOL    HW1 1995   2.765   0.890   0.898
  659SOL    HW2 1996   2.686   1.015   0.930
  660SOL     OW 1997   2.955   1.014   0.078
  660SOL    HW1 1998   2.932   1.059   2.997
  660SOL    HW2 1999   0.014   0.943   0.050
  661SOL     OW 2000   2.084   1.303   1.853
  661SOL    HW1 2001   2.016   1.240   1.827
  661SOL    HW2 2002   2.067   1.319   1.946
  662SOL     OW 2003   1.943   1.231   0.663
  662SOL    HW1 2004   1.953   1.185   0.746
  662SOL    HW2 2005   2.014   1.199   0.608
  663SOL     OW 2006   2.542   1.403   1.627
  663SOL    HW1 2007   2.461   1.358   1.654
  663SOL    HW2 2008   2.535   1.490   1.666
  664SOL     OW 2009   2.341   0.433   0.553
  664SOL    HW1 2010   2.325   0.376   0.477
  664SOL    HW2 2011   2.272   0.410   0.615
  665SOL     OW 2012   2.189   0.553   1.292
  665SOL    HW1 2013   2.247   0.501   1.346
  665SOL    HW2 2014   2.211   0.529   1.202
  666SOL     OW 2015   2.684   1.583   0.679
  666SOL    HW1 2016   2.679   1.622   0.592
  666SOL    HW2 2017   2.609   1.524   0.683
  667SOL     OW 2018   2.852   0.017   1.148
  667SOL    HW1 2019   2.822   2.943   1.095
  667SOL    HW2 2020   2.945   2.998   1.165
  668SOL     OW 2021   2.629   1.330   0.314
  668SOL    HW1 2022   2.601   1.240   0.333
  668SOL    HW2 2023   2.712   1.339   0.361
  669SOL     OW 2024   2.485   1.558   1.283
  669SOL    HW1 2025   2.488   1.639   1.334
  669SOL    HW2 2026   2.573   1.550   1.246
  670SOL     OW 2027   1.902   1.074   0.305
  670SOL    HW1 2028   1.996   1.067   0.287
  670SOL    HW2 2029   1.875   0.984   0.327
  671SOL     OW 2030   2.739   1.651   0.346
  671SOL    HW1 2031   2.668   1.634   0.284
  671SOL    HW2 2032   2.710   1.728   0.395
  672SOL     OW 2033   2.092   0.623   1.984
  672SOL    HW1 2034   2.003   0.622   2.018
  672SOL    HW2 2035   2.083   0.597   1.892
  673SOL     OW 2036   2.088   0.277   2.882
  673SOL    HW1 2037   2.105   0.237   2.967
  673SOL    HW2 2038   2.004   0.242   2.855
  674SOL     OW 2039   1.865   0.381   2.502
  674SOL    HW1 2040   1.785   0.412   2.544
  674SOL    HW2 2041   1.838   0.304   2.452
  675SOL     OW 2042   2.610   1.147   2.897
  675SOL    HW1 2043   2.549   1.194   2.953
  675SOL    HW2 2044   2.660   1.216   2.854
  676SOL     OW 2045   2.547   1.007   2.507
  676SOL    HW1 2046   2.607   0.990   2.580
  676SOL    HW2 2047   2.475   1.057   2.545
  677SOL     OW 2048   2.202   1.432   2.931
  677SOL    HW1 2049   2.125   1.398   2.885
  677SOL    HW2 2050   2.248   1.484   2.864
  678SOL     OW 2051   2.082   1.713   2.336
  678SOL    HW1 2052   2.104   1.790   2.389
  678SOL    HW2 2053   2.153   1.707   2.272
  679SOL     OW 2054   2.092   1.440   2.397
  679SOL    HW1 2055   2.076   1.535   2.401
  679SOL    HW2 2056   2.031   1.403   2.459
  680SOL     OW 2057   2.118   1.092   2.755
  680SOL    HW1 2058   2.111   1.005   2.792
  680SOL    HW2 2059   2.058   1.146   2.807
  681SOL     OW 2060   2.452   0.979   1.994
  681SOL    HW1 2061   2.494   1.032   1.926
  681SOL    HW2 2062   2.489   1.012   2.076
  682SOL     OW 2063   1.980   0.645   2.425
  682SOL    HW1 2064   1.935   0.564   2.449
  682SOL    HW2 2065   1.973   0.701   2.502
  683SOL     OW 2066   1.889   1.595   1.985
  683SOL    HW1 2067   1.876   1.503   2.007
  683SOL    HW2 2068   1.866   1.642   2.065
  684SOL     OW 2069   2.471   1.382   2.593
  684SOL    HW1 2070   2.424   1.299   2.601
  684SOL    HW2 2071   2.455   1.410   2.502
  685SOL     OW 2072   2.683   0.015   2.382
  685SOL    HW1 2073   2.711   0.103   2.357
  685SOL    HW2 2074   2.590   0.014   2.362
  686SOL     OW 2075   2.458   0.724   2.127
  686SOL    HW1 2076   2.462   0.804   2.074
  686SOL    HW2 2077   2.392   0.743   2.193
  687SOL     OW 2078   2.890   0.708   2.282
  687SOL    HW1 2079   2.920   0.691   2.371
  687SOL    HW2 2080   2.814   0.651   2.270
  688SOL     OW 2081   1.953   0.820   2.635
  688SOL    HW1 2082   2.032   0.812   2.689
  688SOL    HW2 2083   1.907   0.896   2.670
  689SOL     OW 2084   2.739   0.345   2.049
  689SOL    HW1 2085   2.790   0.407   1.998
  689SOL    HW2 2086   2.785   0.261   2.039
  690SOL     OW 2087   2.421   0.204   2.837
  690SOL    HW1 2088   2.357   0.268   2.869
  690SOL    HW2 2089   2.439   0.231   2.747
  691SOL     OW 2090   2.861   1.438   2.331
  691SOL    HW1 2091   2.827   1.514   2.284
  691SOL    HW2 2092   2.862   1.465   2.423
  692SOL     OW 2093   2.217   1.805   2.717
  692SOL    HW1 2094   2.260   1.721   2.730
  692SOL    HW2 2095   2.284   1.870   2.740
  693SOL     OW 2096   2.184   0.955   2.112
  693SOL    HW1 2097   2.264   0.976   2.064
  693SOL    HW2 2098   2.151   0.875   2.070
  694SOL     OW 2099   2.328   1.738   2.183
  694SOL    HW1 2100   2.370   1.794   2.248
  694SOL    HW2 2101   2.400   1.708   2.128
  695SOL     OW 2102   2.127   1.800   0.103
  695SOL    HW1 2103   2.168   1.731   0.156
  695SOL    HW2 2104   2.079   1.753   0.035
  696SOL     OW 2105   2.793   1.699   2.758
  696SOL    HW1 2106   2.857   1.639   2.796
  696SOL    HW2 2107   2.754   1.650   2.685
  697SOL     OW 2108   2.258   0.690   2.340
  697SOL    HW1 2109   2.286   0.599   2.356
  697SOL    HW2 2110   2.164   0.689   2.359
  698SOL     OW 2111   2.490   0.122   1.973
  698SOL    HW1 2112   2.579   0.086   1.966
  698SOL    HW2 2113   2.450   0.102   1.888
  699SOL     OW 2114   2.663   1.401   2.792
  699SOL    HW1 2115   2.748   1.393   2.751
  699SOL    HW2 2116   2.600   1.396   2.720
  700SOL     OW 2117   2.782   0.521   2.756
  700SOL    HW1 2118   2.757   0.497   2.667
  700SOL    HW2 2119   2.813   0.440   2.795
  701SOL     OW 2120   2.406   0.060   2.367
  701SOL    HW1 2121   2.319   0.043   2.402
  701SOL    HW2 2122   2.394   0.131   2.304
  702SOL     OW 2123   2.148   0.034   2.061
  702SOL    HW1 2124   2.191   0.109   2.020
  702SOL    HW2 2125   2.220   2.975   2.085
  703SOL     OW 2126   2.812   0.252   2.319
  703SOL    HW1 2127   2.761   0.297   2.251
  703SOL    HW2 2128   2.891   0.223   2.275
  704SOL     OW 2129   0.084   1.577   2.660
  704SOL    HW1 2130   0.112   1.622   2.580
  704SOL    HW2 2131   0.166   1.554   2.705
  705SOL     OW 2132   2.329   1.146   2.597
  705SOL    HW1 2133   2.259   1.129   2.660
  705SOL    HW2 2134   2.289   1.130   2.511
  706SOL     OW 2135   2.885   0.550   1.880
  706SOL    HW1 2136   2.840   0.631   1.859
  706SOL    HW2 2137   2.937   0.570   1.958
  707SOL     OW 2138   2.742   0.467   2.494
  707SOL    HW1 2139   2.678   0.518   2.445
  707SOL    HW2 2140   2.740   0.380   2.453
  708SOL     OW 2141   2.858   0.055   2.615
  708SOL    HW1 2142   2.819   0.054   2.527
  708SOL    HW2 2143   2.836   2.970   2.652
  709SOL     OW 2144   2.354   1.415   2.022
  709SOL    HW1 2145   2.279   1.385   2.073
  709SOL    HW2 2146   2.333   1.391   1.932
  710SOL     OW 2147   2.394   0.265   2.182
  710SOL    HW1 2148   2.430   0.213   2.110
  710SOL    HW2 2149   2.369   0.348   2.141
  711SOL     OW 2150   2.570   1.062   2.233
  711SOL    HW1 2151   2.554   1.046   2.326
  711SOL    HW2 2152   2.648   1.011   2.212
  712SOL     OW 2153   2.215   1.107   2.352
  712SOL    HW1 2154   2.217   1.182   2.292
  712SOL    HW2 2155   2.212   1.030   2.295
  713SOL     OW 2156   2.411   0.543   2.729
  713SOL    HW1 2157   2.431   0.594   2.650
  713SOL    HW2 2158   2.480   0.568   2.791
  714SOL     OW 2159   2.438   0.872   2.880
  714SOL    HW1 2160   2.479   0.954   2.853
  714SOL    HW2 2161   2.420   0.884   2.973
  715SOL     OW 2162   0.054   0.533   2.132
  715SOL    HW1 2163   0.084   0.456   2.181
  715SOL    HW2 2164   0.023   0.593   2.199
  716SOL     OW 2165   2.598   0.646   2.918
  716SOL    HW1 2166   2.662   0.621   2.852
  716SOL    HW2 2167   2.559   0.728   2.885
  717SOL     OW 2168   2.172   0.064   2.507
  717SOL    HW1 2169   2.165   0.154   2.538
  717SOL    HW2 2170   2.152   0.011   2.585
  718SOL     OW 2171   2.874   0.778   2.831
  718SOL    HW1 2172   2.881   0.770   2.926
  718SOL    HW2 2173   2.867   0.688   2.799
  719SOL     OW 2174   2.908   1.344   2.697
  719SOL    HW1 2175   2.915   1.268   2.639
  719SOL    HW2 2176   2.975   1.404   2.666
  720SOL     OW 2177   2.170   0.811   2.811
  720SOL    HW1 2178   2.264   0.831   2.810
  720SOL    HW2 2179   2.166   0.719   2.838
  721SOL     OW 2180   2.181   0.537   2.870
  721SOL    HW1 2181   2.148   0.447   2.868
  721SOL    HW2 2182   2.260   0.534   2.815
  722SOL     OW 2183   1.867   1.321   2.057
  722SOL    HW1 2184   1.776   1.337   2.032
  722SOL    HW2 2185   1.868   1.231   2.090
  723SOL     OW 2186   1.951   1.795   2.795
  723SOL    HW1 2187   1.921   1.711   2.758
  723SOL    HW2 2188   2.043   1.801   2.768
  724SOL     OW 2189   2.365   1.577   2.764
  724SOL    HW1 2190   2.436   1.638   2.786
  724SOL    HW2 2191   2.407   1.510   2.710
  725SOL     OW 2192   2.844   0.755   0.105
  725SOL    HW1 2193   2.884   0.738   0.191
  725SOL    HW2 2194   2.751   0.771   0.125
  726SOL     OW 2195   2.670   0.564   2.215
  726SOL    HW1 2196   2.669   0.489   2.156
  726SOL    HW2 2197   2.596   0.618   2.187
  727SOL     OW 2198   2.558   0.436   0.080
  727SOL    HW1 2199   2.466   0.439   0.106
  727SOL    HW2 2200   2.571   0.514   0.027
  728SOL     OW 2201   2.329   0.494   2.049
  728SOL    HW1 2202   2.385   0.569   2.070
  728SOL    HW2 2203   2.242   0.532   2.037
  729SOL     OW 2204   1.942   1.268   2.886
  729SOL    HW1 2205   1.929   1.279   2.980
  729SOL    HW2 2206   1.869   1.214   2.857
  730SOL     OW 2207   2.532   1.619   2.016
  730SOL    HW1 2208   2.541   1.631   1.922
  730SOL    HW2 2209   2.478   1.541   2.026
  731SOL     OW 2210   2.132   0.330   2.615
  731SOL    HW1 2211   2.046   0.363   2.592
  731SOL    HW2 2212   2.126   0.310   2.709
  732SOL     OW 2213   2.787   0.922   2.155
  732SOL    HW1 2214   2.836   0.928   2.073
  732SOL    HW2 2215   2.819   0.843   2.197
  733SOL     OW 2216   2.914   1.079   2.585
  733SOL    HW1 2217   2.836   1.039   2.623
  733SOL    HW2 2218   2.929   1.031   2.504
  734SOL     OW 2219   2.882   0.237   2.818
  734SOL    HW1 2220   2.876   0.188   2.736
  734SOL    HW2 2221   2.875   0.170   2.886
  735SOL     OW 2222   2.462   1.488   2.342
  735SOL    HW1 2223   2.506   1.439   2.272
  735SOL    HW2 2224   2.395   1.539   2.297
  736SOL     OW 2225   2.121   1.345   2.150
  736SOL    HW1 2226   2.028   1.343   2.127
  736SOL    HW2 2227   2.123   1.382   2.238
  737SOL     OW 2228   1.940   0.336   1.899
  737SOL    HW1 2229   1.850   0.318   1.873
  737SOL    HW2 2230   1.966   0.410   1.844
  738SOL     OW 2231   1.898   0.208   2.159
  738SOL    HW1 2232   1.919   0.266   2.086
  738SOL    HW2 2233   1.966   0.141   2.157
  739SOL     OW 2234   2.458   0.739   2.528
  739SOL    HW1 2235   2.493   0.827   2.513
  739SOL    HW2 2236   2.386   0.731   2.465
  740SOL     OW 2237   2.731   1.369   1.899
  740SOL    HW1 2238   2.682   1.402   1.974
  740SOL    HW2 2239   2.747   1.446   1.844
  741SOL     OW 2240   2.527   1.797   2.823
  741SOL    HW1 2241   2.506   1.885   2.791
  741SOL    HW2 2242   2.620   1.786   2.804
  742SOL     OW 2243   2.711   0.962   2.720
  742SOL    HW1 2244   2.765   0.893   2.759
  742SOL    HW2 2245   2.685   1.017   2.794
  743SOL     OW 2246   2.939   0.949   1.928
  743SOL    HW1 2247   2.907   1.024   1.878
  743SOL    HW2 2248   0.023   0.979   1.964
  744SOL     OW 2249   1.946   1.237   2.528
  744SOL    HW1 2250   1.944   1.182   2.606
  744SOL    HW2 2251   2.013   1.198   2.472
  745SOL     OW 2252   2.335   0.430   2.411
  745SOL    HW1 2253   2.321   0.374   2.334
  745SOL    HW2 2254   2.267   0.402   2.473
  746SOL     OW 2255   2.684   1.581   2.537
  746SOL    HW1 2256   2.682   1.622   2.450
  746SOL    HW2 2257   2.607   1.524   2.539
  747SOL     OW 2258   2.634   1.333   2.175
  747SOL    HW1 2259   2.605   1.243   2.184
  747SOL    HW2 2260   2.714   1.338   2.227
  748SOL     OW 2261   1.906   1.072   2.168
  748SOL    HW1 2262   2.000   1.062   2.150
  748SOL    HW2 2263   1.877   0.984   2.191
  749SOL     OW 2264   2.738   1.646   2.209
  749SOL    HW1 2265   2.669   1.633   2.145
  749SOL    HW2 2266   2.715   1.727   2.254
  750SOL     OW 2267   2.089   2.501   0.112
  750SOL    HW1 2268   1.999   2.475   0.132
  750SOL    HW2 2269   2.106   2.461   0.026
  751SOL     OW 2270   2.086   2.143   0.992
  751SOL    HW1 2271   2.115   2.110   1.077
  751SOL    HW2 2272   1.997   2.110   0.982
  752SOL     OW 2273   1.868   2.246   0.639
  752SOL    HW1 2274   1.784   2.266   0.680
  752SOL    HW2 2275   1.852   2.168   0.587
  753SOL     OW 2276   2.592   0.000   1.022
  753SOL    HW1 2277   2.523   0.050   1.065
  753SOL    HW2 2278   2.641   0.065   0.972
  754SOL     OW 2279   2.724   2.636   1.820
  754SOL    HW1 2280   2.722   2.696   1.894
  754SOL    HW2 2281   2.754   2.689   1.746
  755SOL     OW 2282   2.513   2.848   0.709
  755SOL    HW1 2283   2.608   2.855   0.723
  755SOL    HW2 2284   2.489   2.929   0.664
  756SOL     OW 2285   2.309   2.261   1.490
  756SOL    HW1 2286   2.384   2.202   1.493
  756SOL    HW2 2287   2.233   2.204   1.501
  757SOL     OW 2288   2.112   0.311   0.478
  757SOL    HW1 2289   2.058   0.387   0.499
  757SOL    HW2 2290   2.054   0.235   0.492
  758SOL     OW 2291   2.107   2.947   0.883
  758SOL    HW1 2292   2.127   2.860   0.917
  758SOL    HW2 2293   2.060   2.991   0.954
  759SOL     OW 2294   2.479   2.832   0.149
  759SOL    HW1 2295   2.462   2.925   0.134
  759SOL    HW2 2296   2.550   2.830   0.213
  760SOL     OW 2297   1.977   2.510   0.561
  760SOL    HW1 2298   1.949   2.421   0.583
  760SOL    HW2 2299   1.969   2.559   0.643
  761SOL     OW 2300   1.986   2.605   1.584
  761SOL    HW1 2301   2.079   2.622   1.598
  761SOL    HW2 2302   1.942   2.687   1.606
  762SOL     OW 2303   2.528   0.249   0.675
  762SOL    HW1 2304   2.470   0.185   0.717
  762SOL    HW2 2305   2.468   0.307   0.627
  763SOL     OW 2306   2.675   1.864   0.506
  763SOL    HW1 2307   2.713   1.951   0.493
  763SOL    HW2 2308   2.581   1.880   0.516
  764SOL     OW 2309   2.056   2.842   1.256
  764SOL    HW1 2310   2.138   2.793   1.249
  764SOL    HW2 2311   1.988   2.779   1.231
  765SOL     OW 2312   2.194   2.113   1.810
  765SOL    HW1 2313   2.238   2.197   1.826
  765SOL    HW2 2314   2.104   2.127   1.841
  766SOL     OW 2315   2.453   2.580   0.270
  766SOL    HW1 2316   2.460   2.661   0.219
  766SOL    HW2 2317   2.388   2.600   0.337
  767SOL     OW 2318   2.653   2.489   1.451
  767SOL    HW1 2319   2.630   2.462   1.540
  767SOL    HW2 2320   2.616   2.420   1.395
  768SOL     OW 2321   2.826   2.745   1.582
  768SOL    HW1 2322   2.854   2.661   1.545
  768SOL    HW2 2323   2.774   2.786   1.512
  769SOL     OW 2324   2.848   2.237   1.257
  769SOL    HW1 2325   2.769   2.282   1.286
  769SOL    HW2 2326   2.838   2.229   1.162
  770SOL     OW 2327   2.887   2.581   0.409
  770SOL    HW1 2328   2.929   2.563   0.494
  770SOL    HW2 2329   2.815   2.519   0.405
  771SOL     OW 2330   1.946   2.682   0.777
  771SOL    HW1 2331   2.030   2.672   0.822
  771SOL    HW2 2332   1.911   2.765   0.810
  772SOL     OW 2333   2.788   2.193   0.218
  772SOL    HW1 2334   2.781   2.260   0.151
  772SOL    HW2 2335   2.759   2.113   0.174
  773SOL     OW 2336   2.411   2.046   0.893
  773SOL    HW1 2337   2.414   2.073   0.984
  773SOL    HW2 2338   2.413   2.128   0.843
  774SOL     OW 2339   2.062   2.144   1.501
  774SOL    HW1 2340   1.979   2.192   1.496
  774SOL    HW2 2341   2.046   2.077   1.567
  775SOL     OW 2342   2.251   2.555   0.474
  775SOL    HW1 2343   2.274   2.463   0.486
  775SOL    HW2 2344   2.157   2.560   0.494
  776SOL     OW 2345   2.486   1.979   0.115
  776SOL    HW1 2346   2.581   1.966   0.117
  776SOL    HW2 2347   2.457   1.934   0.036
  777SOL     OW 2348   2.629   2.144   1.757
  777SOL    HW1 2349   2.702   2.082   1.765
  777SOL    HW2 2350   2.571   2.121   1.829
  778SOL     OW 2351   2.788   2.365   0.902
  778SOL    HW1 2352   2.761   2.354   0.811
  778SOL    HW2 2353   2.825   2.280   0.927
  779SOL     OW 2354   2.410   1.924   0.504
  779SOL    HW1 2355   2.329   1.925   0.556
  779SOL    HW2 2356   2.403   2.001   0.448
  780SOL     OW 2357   2.813   2.100   0.465
  780SOL    HW1 2358   2.779   2.148   0.390
  780SOL    HW2 2359   2.900   2.071   0.438
  781SOL     OW 2360   2.886   2.377   0.035
  781SOL    HW1 2361   2.843   2.461   0.016
  781SOL    HW2 2362   2.943   2.396   0.110
  782SOL     OW 2363   1.939   2.418   1.390
  782SOL    HW1 2364   2.031   2.415   1.364
  782SOL    HW2 2365   1.936   2.488   1.456
  783SOL     OW 2366   2.423   2.089   1.165
  783SOL    HW1 2367   2.462   2.010   1.201
  783SOL    HW2 2368   2.332   2.087   1.195
  784SOL     OW 2369   2.742   2.319   0.635
  784SOL    HW1 2370   2.685   2.379   0.586
  784SOL    HW2 2371   2.744   2.239   0.583
  785SOL     OW 2372   2.856   1.924   0.757
  785SOL    HW1 2373   2.811   1.904   0.675
  785SOL    HW2 2374   2.849   1.844   0.808
  786SOL     OW 2375   2.377   2.121   0.322
  786SOL    HW1 2376   2.421   2.074   0.251
  786SOL    HW2 2377   2.362   2.209   0.286
  787SOL     OW 2378   2.752   1.949   1.387
  787SOL    HW1 2379   2.778   1.934   1.297
  787SOL    HW2 2380   2.828   1.991   1.427
  788SOL     OW 2381   2.275   2.679   1.254
  788SOL    HW1 2382   2.346   2.686   1.318
  788SOL    HW2 2383   2.242   2.589   1.265
  789SOL     OW 2384   2.418   2.397   0.861
  789SOL    HW1 2385   2.432   2.454   0.785
  789SOL    HW2 2386   2.482   2.426   0.926
  790SOL     OW 2387   2.275   2.602   1.604
  790SOL    HW1 2388   2.336   2.647   1.545
  790SOL    HW2 2389   2.315   2.517   1.619
  791SOL     OW 2390   2.856   1.990   1.772
  791SOL    HW1 2391   2.901   2.042   1.706
  791SOL    HW2 2392   2.899   1.904   1.769
  792SOL     OW 2393   2.360   1.906   1.746
  792SOL    HW1 2394   2.318   1.850   1.681
  792SOL    HW2 2395   2.299   1.979   1.758
  793SOL     OW 2396   2.450   2.730   1.035
  793SOL    HW1 2397   2.468   2.822   1.017
  793SOL    HW2 2398   2.388   2.731   1.108
  794SOL     OW 2399   0.062   2.399   0.269
  794SOL    HW1 2400   0.076   2.318   0.318
  794SOL    HW2 2401   0.034   2.462   0.335
  795SOL     OW 2402   2.162   2.064   1.246
  795SOL    HW1 2403   2.124   2.095   1.328
  795SOL    HW2 2404   2.145   1.970   1.245
  796SOL     OW 2405   2.588   2.492   1.059
  796SOL    HW1 2406   2.666   2.480   1.005
  796SOL    HW2 2407   2.559   2.581   1.041
  797SOL     OW 2408   2.163   1.928   0.623
  797SOL    HW1 2409   2.145   2.018   0.648
  797SOL    HW2 2410   2.171   1.881   0.706
  798SOL     OW 2411   2.857   2.623   0.982
  798SOL    HW1 2412   2.912   2.617   1.061
  798SOL    HW2 2413   2.862   2.535   0.944
  799SOL     OW 2414   2.225   2.787   1.801
  799SOL    HW1 2415   2.289   2.778   1.871
  799SOL    HW2 2416   2.245   2.716   1.740
  800SOL     OW 2417   2.174   2.674   0.946
  800SOL    HW1 2418   2.267   2.691   0.934
  800SOL    HW2 2419   2.170   2.585   0.982
  801SOL     OW 2420   2.194   2.387   1.011
  801SOL    HW1 2421   2.159   2.300   0.996
  801SOL    HW2 2422   2.271   2.392   0.954
  802SOL     OW 2423   2.967   2.242   1.668
  802SOL    HW1 2424   2.909   2.301   1.716
  802SOL    HW2 2425   0.053   2.283   1.675
  803SOL     OW 2426   2.975   2.067   1.468
  803SOL    HW1 2427   2.962   2.137   1.533
  803SOL    HW2 2428   2.973   2.111   1.384
  804SOL     OW 2429   2.859   2.666   1.267
  804SOL    HW1 2430   2.910   2.596   1.306
  804SOL    HW2 2431   2.777   2.625   1.240
  805SOL     OW 2432   1.897   2.408   1.116
  805SOL    HW1 2433   1.978   2.390   1.067
  805SOL    HW2 2434   1.925   2.411   1.207
  806SOL     OW 2435   2.051   2.380   1.724
  806SOL    HW1 2436   2.108   2.343   1.657
  806SOL    HW2 2437   2.006   2.452   1.680
  807SOL     OW 2438   2.669   2.427   0.357
  807SOL    HW1 2439   2.671   2.357   0.291
  807SOL    HW2 2440   2.595   2.482   0.332
  808SOL     OW 2441   2.559   2.316   1.263
  808SOL    HW1 2442   2.510   2.241   1.232
  808SOL    HW2 2443   2.558   2.378   1.190
  809SOL     OW 2444   2.306   2.356   0.206
  809SOL    HW1 2445   2.371   2.424   0.224
  809SOL    HW2 2446   2.226   2.403   0.185
  810SOL     OW 2447   2.021   2.996   1.475
  810SOL    HW1 2448   2.023   2.939   1.552
  810SOL    HW2 2449   2.035   2.938   1.401
  811SOL     OW 2450   2.761   1.933   0.124
  811SOL    HW1 2451   2.818   1.905   0.053
  811SOL    HW2 2452   2.801   1.896   0.203
  812SOL     OW 2453   2.125   2.178   0.718
  812SOL    HW1 2454   2.040   2.215   0.694
  812SOL    HW2 2455   2.121   2.169   0.814
  813SOL     OW 2456   2.674   2.866   1.377
  813SOL    HW1 2457   2.730   2.839   1.304
  813SOL    HW2 2458   2.699   2.956   1.395
  814SOL     OW 2459   2.741   2.787   0.285
  814SOL    HW1 2460   2.822   2.837   0.273
  814SOL    HW2 2461   2.762   2.722   0.352
  815SOL     OW 2462   2.880   2.103   0.968
  815SOL    HW1 2463   2.875   2.055   0.886
  815SOL    HW2 2464   2.869   2.037   1.036
  816SOL     OW 2465   1.975   2.864   1.708
  816SOL    HW1 2466   1.899   2.857   1.766
  816SOL    HW2 2467   2.050   2.846   1.764
  817SOL     OW 2468   2.527   2.062   1.501
  817SOL    HW1 2469   2.607   2.040   1.454
  817SOL    HW2 2470   2.556   2.092   1.587
  818SOL     OW 2471   1.935   2.018   0.341
  818SOL    HW1 2472   1.900   2.060   0.263
  818SOL    HW2 2473   2.027   2.001   0.320
  819SOL     OW 2474   2.475   2.693   1.435
  819SOL    HW1 2475   2.532   2.768   1.419
  819SOL    HW2 2476   2.535   2.618   1.442
  820SOL     OW 2477   2.578   2.425   1.702
  820SOL    HW1 2478   2.614   2.490   1.763
  820SOL    HW2 2479   2.607   2.341   1.737
  821SOL     OW 2480   2.455   2.585   0.664
  821SOL    HW1 2481   2.479   2.677   0.676
  821SOL    HW2 2482   2.386   2.587   0.597
  822SOL     OW 2483   2.753   2.838   0.864
  822SOL    HW1 2484   2.782   2.754   0.898
  822SOL    HW2 2485   2.680   2.864   0.921
  823SOL     OW 2486   2.292   2.295   0.529
  823SOL    HW1 2487   2.320   2.224   0.470
  823SOL    HW2 2488   2.244   2.251   0.599
  824SOL     OW 2489   2.191   2.416   1.290
  824SOL    HW1 2490   2.246   2.361   1.346
  824SOL    HW2 2491   2.211   2.388   1.201
  825SOL     OW 2492   2.867   1.879   1.142
  825SOL    HW1 2493   2.814   1.809   1.103
  825SOL    HW2 2494   2.957   1.857   1.117
  826SOL     OW 2495   1.869   2.915   0.301
  826SOL    HW1 2496   1.954   2.918   0.257
  826SOL    HW2 2497   1.862   2.826   0.336
  827SOL     OW 2498   2.094   2.471   1.982
  827SOL    HW1 2499   2.006   2.489   2.016
  827SOL    HW2 2500   2.080   2.451   1.890
  828SOL     OW 2501   2.090   2.143   2.845
  828SOL    HW1 2502   2.116   2.116   2.933
  828SOL    HW2 2503   2.000   2.112   2.837
  829SOL     OW 2504   1.869   2.245   2.498
  829SOL    HW1 2505   1.786   2.271   2.538
  829SOL    HW2 2506   1.849   2.164   2.452
  830SOL     OW 2507   2.639   0.017   2.877
  830SOL    HW1 2508   2.549   0.025   2.908
  830SOL    HW2 2509   2.651   0.092   2.819
  831SOL     OW 2510   2.510   2.844   2.567
  831SOL    HW1 2511   2.602   2.847   2.592
  831SOL    HW2 2512   2.494   2.930   2.527
  832SOL     OW 2513   2.101   0.304   2.332
  832SOL    HW1 2514   2.051   0.382   2.358
  832SOL    HW2 2515   2.051   0.231   2.368
  833SOL     OW 2516   2.112   2.951   2.750
  833SOL    HW1 2517   2.128   2.861   2.779
  833SOL    HW2 2518   2.055   2.988   2.818
  834SOL     OW 2519   2.463   2.824   1.997
  834SOL    HW1 2520   2.459   2.906   1.949
  834SOL    HW2 2521   2.533   2.837   2.061
  835SOL     OW 2522   1.978   2.510   2.424
  835SOL    HW1 2523   1.949   2.421   2.446
  835SOL    HW2 2524   1.970   2.559   2.506
  836SOL     OW 2525   2.498   0.245   2.568
  836SOL    HW1 2526   2.461   0.163   2.538
  836SOL    HW2 2527   2.467   0.310   2.505
  837SOL     OW 2528   2.675   1.863   2.367
  837SOL    HW1 2529   2.714   1.949   2.352
  837SOL    HW2 2530   2.581   1.881   2.379
  838SOL     OW 2531   2.061   2.806   0.117
  838SOL    HW1 2532   2.127   2.737   0.108
  838SOL    HW2 2533   1.979   2.764   0.091
  839SOL     OW 2534   2.458   2.579   2.129
  839SOL    HW1 2535   2.462   2.657   2.074
  839SOL    HW2 2536   2.392   2.600   2.196
  840SOL     OW 2537   2.894   2.579   2.273
  840SOL    HW1 2538   2.924   2.568   2.363
  840SOL    HW2 2539   2.816   2.524   2.268
  841SOL     OW 2540   1.946   2.683   2.638
  841SOL    HW1 2541   2.028   2.671   2.686
  841SOL    HW2 2542   1.909   2.764   2.675
  842SOL     OW 2543   2.750   2.206   2.059
  842SOL    HW1 2544   2.789   2.269   1.998
  842SOL    HW2 2545   2.754   2.122   2.013
  843SOL     OW 2546   2.411   2.047   2.766
  843SOL    HW1 2547   2.379   2.085   2.848
  843SOL    HW2 2548   2.421   2.123   2.708
  844SOL     OW 2549   2.251   2.555   2.336
  844SOL    HW1 2550   2.274   2.463   2.347
  844SOL    HW2 2551   2.158   2.559   2.357
  845SOL     OW 2552   2.498   1.987   1.965
  845SOL    HW1 2553   2.561   1.918   1.982
  845SOL    HW2 2554   2.446   1.955   1.890
  846SOL     OW 2555   2.786   2.377   2.756
  846SOL    HW1 2556   2.761   2.354   2.666
  846SOL    HW2 2557   2.814   2.294   2.795
  847SOL     OW 2558   2.410   1.926   2.366
  847SOL    HW1 2559   2.329   1.926   2.417
  847SOL    HW2 2560   2.404   2.004   2.311
  848SOL     OW 2561   2.153   1.909   2.046
  848SOL    HW1 2562   2.212   1.974   2.007
  848SOL    HW2 2563   2.212   1.845   2.086
  849SOL     OW 2564   2.806   2.103   2.314
  849SOL    HW1 2565   2.769   2.150   2.239
  849SOL    HW2 2566   2.894   2.077   2.286
  850SOL     OW 2567   2.885   2.413   1.880
  850SOL    HW1 2568   2.838   2.493   1.857
  850SOL    HW2 2569   2.933   2.435   1.960
  851SOL     OW 2570   2.742   2.317   2.494
  851SOL    HW1 2571   2.683   2.377   2.447
  851SOL    HW2 2572   2.742   2.238   2.440
  852SOL     OW 2573   2.854   1.925   2.609
  852SOL    HW1 2574   2.806   1.897   2.531
  852SOL    HW2 2575   2.851   1.849   2.668
  853SOL     OW 2576   2.390   2.124   2.181
  853SOL    HW1 2577   2.431   2.076   2.109
  853SOL    HW2 2578   2.368   2.209   2.144
  854SOL     OW 2579   2.416   2.392   2.724
  854SOL    HW1 2580   2.430   2.449   2.648
  854SOL    HW2 2581   2.477   2.425   2.790
  855SOL     OW 2582   2.434   2.729   2.887
  855SOL    HW1 2583   2.477   2.806   2.849
  855SOL    HW2 2584   2.429   2.748   2.980
  856SOL     OW 2585   0.053   2.392   2.137
  856SOL    HW1 2586   0.085   2.318   2.190
  856SOL    HW2 2587   0.014   2.451   2.200
  857SOL     OW 2588   2.158   2.070   0.093
  857SOL    HW1 2589   2.196   2.100   0.175
  857SOL    HW2 2590   2.153   1.975   0.102
  858SOL     OW 2591   2.591   2.499   2.912
  858SOL    HW1 2592   2.663   2.481   2.852
  858SOL    HW2 2593   2.559   2.586   2.887
  859SOL     OW 2594   2.164   1.928   2.483
  859SOL    HW1 2595   2.145   2.018   2.508
  859SOL    HW2 2596   2.169   1.881   2.567
  860SOL     OW 2597   2.873   2.633   2.825
  860SOL    HW1 2598   2.893   2.632   2.918
  860SOL    HW2 2599   2.867   2.540   2.801
  861SOL     OW 2600   2.170   2.673   2.808
  861SOL    HW1 2601   2.264   2.694   2.813
  861SOL    HW2 2602   2.165   2.582   2.836
  862SOL     OW 2603   2.183   2.398   2.865
  862SOL    HW1 2604   2.147   2.309   2.859
  862SOL    HW2 2605   2.263   2.396   2.814
  863SOL     OW 2606   2.876   2.641   0.096
  863SOL    HW1 2607   2.919   2.635   0.182
  863SOL    HW2 2608   2.789   2.675   0.116
  864SOL     OW 2609   2.674   2.429   2.219
  864SOL    HW1 2610   2.673   2.353   2.160
  864SOL    HW2 2611   2.600   2.482   2.191
  865SOL     OW 2612   2.567   2.308   0.099
  865SOL    HW1 2613   2.476   2.278   0.094
  865SOL    HW2 2614   2.572   2.380   0.037
  866SOL     OW 2615   2.330   2.352   2.049
  866SOL    HW1 2616   2.385   2.427   2.073
  866SOL    HW2 2617   2.243   2.389   2.036
  867SOL     OW 2618   0.163   2.701   2.159
  867SOL    HW1 2619   0.110   2.645   2.215
  867SOL    HW2 2620   0.200   2.642   2.094
  868SOL     OW 2621   2.126   2.179   2.577
  868SOL    HW1 2622   2.041   2.215   2.553
  868SOL    HW2 2623   2.123   2.172   2.672
  869SOL     OW 2624   2.757   2.765   2.110
  869SOL    HW1 2625   2.834   2.818   2.090
  869SOL    HW2 2626   2.786   2.705   2.179
  870SOL     OW 2627   2.876   2.102   2.816
  870SOL    HW1 2628   2.870   2.055   2.733
  870SOL    HW2 2629   2.900   2.035   2.880
  871SOL     OW 2630   1.939   2.195   1.897
  871SOL    HW1 2631   1.852   2.176   1.862
  871SOL    HW2 2632   1.969   2.271   1.847
  872SOL     OW 2633   1.932   2.020   2.174
  872SOL    HW1 2634   1.917   2.100   2.123
  872SOL    HW2 2635   2.016   1.987   2.144
  873SOL     OW 2636   2.456   2.582   2.524
  873SOL    HW1 2637   2.480   2.674   2.536
  873SOL    HW2 2638   2.385   2.583   2.460
  874SOL     OW 2639   2.743   2.832   2.712
  874SOL    HW1 2640   2.786   2.755   2.749
  874SOL    HW2 2641   2.708   2.880   2.788
  875SOL     OW 2642   2.951   2.837   1.900
  875SOL    HW1 2643   2.916   2.925   1.911
  875SOL    HW2 2644   0.009   2.824   1.975
  876SOL     OW 2645   2.293   2.295   2.387
  876SOL    HW1 2646   2.319   2.222   2.330
  876SOL    HW2 2647   2.244   2.253   2.458
  877SOL     OW 2648   1.885   2.920   2.177
  877SOL    HW1 2649   1.969   2.930   2.132
  877SOL    HW2 2650   1.880   2.827   2.197
   3.00000   3.00000   3.00000
