Include forcefield parameters
#include "gromos54a7_atb.ff/forcefield.itp"

[ moleculetype ]
; Name   nrexcl
KAXM     3
[ atoms ]
;  nr  type  resnr  resid  atom  cgnr  charge    mass
    1     H    1    KAXM     H8    1    0.455   1.0080
    2  OAlc    1    KAXM     O2    2   -0.708  15.9994
    3   CH2    1    KAXM     C3    3    0.160  14.0270
    4   CH2    1    KAXM     C2    4    0.186  14.0270
    5   CH2    1    KAXM     C1    5    0.160  14.0270
    6  OAlc    1    KAXM     O1    6   -0.708  15.9994
    7     H    1    KAXM     H1    7    0.455   1.0080
; total charge of the molecule:   0.000
[ bonds ]
;  ai   aj  funct   c0         c1
    1    2    2   0.0972   1.9581e+07
    2    3    2   0.1430   8.1800e+06
    3    4    2   0.1520   5.4300e+06
    4    5    2   0.1520   5.4300e+06
    5    6    2   0.1430   8.1800e+06
    6    7    2   0.0972   1.9581e+07
[ pairs ]
;  ai   aj  funct  ;  all 1-4 pairs but the ones excluded in GROMOS itp
    1    4    1
    2    5    1
    3    6    1
    4    7    1
[ angles ]
;  ai   aj   ak  funct   angle     fc
    1    2    3    2    109.50   450.00
    2    3    4    2    109.50   520.00
    3    4    5    2    111.00   530.00
    4    5    6    2    109.50   520.00
    5    6    7    2    109.50   450.00
[ dihedrals ]
; GROMOS improper dihedrals
;  ai   aj   ak   al  funct   angle     fc
[ dihedrals ]
;  ai   aj   ak   al  funct    ph0      cp     mult
    1    2    3    4    1      0.00     1.26    3
    2    3    4    5    1      0.00     5.92    3
    3    4    5    6    1      0.00     5.92    3
    4    5    6    7    1      0.00     1.26    3
[ exclusions ]
;  ai   aj  funct  ;  GROMOS 1-4 exclusions

[ system ]
; Name
KAXM

[ molecules ]
; Compound        #mols
KAXM 		1800

