;
;	File 'topology.top' was generated
;	By user: root (131270)
;	On host: csky004
;	At date: Thu Sep  3 09:10:38 2026
;
;	This is a standalone topology file
;
;	Created by:
;	              :-) GROMACS - gmx pdb2gmx, 2021.4-plumed-2.8.0 (-:
;	
;	Executable:   /home/apps/centos7/gromacs/2021.4/gcc9.1_ompi4.1.2/bin/gmx_mpi
;	Data prefix:  /home/apps/centos7/gromacs/2021.4/gcc9.1_ompi4.1.2
;	Working dir:  /scratch/civil/visitor/satya.visitor/dev_gromacs/101_1RKK_peptide
;	Command line:
;	  gmx_mpi pdb2gmx -f 1RKK_clean.pdb -o 1RKK.gro -p topology.top -ignh
;	Force field was read from the standard GROMACS share directory.
;

; Include forcefield parameters
#include "amber99sb-ildn.ff/forcefield.itp"

[ moleculetype ]
; Name            nrexcl
Protein_chain_A     3

[ atoms ]
;   nr       type  resnr residue  atom   cgnr     charge       mass  typeB    chargeB      massB
; residue   1 ARG rtp NARG q +2.0
     1         N3      1    ARG      N      1     0.1305      14.01
     2          H      1    ARG     H1      2     0.2083      1.008
     3          H      1    ARG     H2      3     0.2083      1.008
     4          H      1    ARG     H3      4     0.2083      1.008
     5         CT      1    ARG     CA      5    -0.0223      12.01
     6         HP      1    ARG     HA      6     0.1242      1.008
     7         CT      1    ARG     CB      7     0.0118      12.01
     8         HC      1    ARG    HB1      8     0.0226      1.008
     9         HC      1    ARG    HB2      9     0.0226      1.008
    10         CT      1    ARG     CG     10     0.0236      12.01
    11         HC      1    ARG    HG1     11     0.0309      1.008
    12         HC      1    ARG    HG2     12     0.0309      1.008
    13         CT      1    ARG     CD     13     0.0935      12.01
    14         H1      1    ARG    HD1     14     0.0527      1.008
    15         H1      1    ARG    HD2     15     0.0527      1.008
    16         N2      1    ARG     NE     16     -0.565      14.01
    17          H      1    ARG     HE     17     0.3592      1.008
    18         CA      1    ARG     CZ     18     0.8281      12.01
    19         N2      1    ARG    NH1     19    -0.8693      14.01
    20          H      1    ARG   HH11     20     0.4494      1.008
    21          H      1    ARG   HH12     21     0.4494      1.008
    22         N2      1    ARG    NH2     22    -0.8693      14.01
    23          H      1    ARG   HH21     23     0.4494      1.008
    24          H      1    ARG   HH22     24     0.4494      1.008
    25          C      1    ARG      C     25     0.7214      12.01
    26          O      1    ARG      O     26    -0.6013         16   ; qtot 2
; residue   2 ARG rtp ARG  q +1.0
    27          N      2    ARG      N     27    -0.3479      14.01
    28          H      2    ARG      H     28     0.2747      1.008
    29         CT      2    ARG     CA     29    -0.2637      12.01
    30         H1      2    ARG     HA     30      0.156      1.008
    31         CT      2    ARG     CB     31    -0.0007      12.01
    32         HC      2    ARG    HB1     32     0.0327      1.008
    33         HC      2    ARG    HB2     33     0.0327      1.008
    34         CT      2    ARG     CG     34      0.039      12.01
    35         HC      2    ARG    HG1     35     0.0285      1.008
    36         HC      2    ARG    HG2     36     0.0285      1.008
    37         CT      2    ARG     CD     37     0.0486      12.01
    38         H1      2    ARG    HD1     38     0.0687      1.008
    39         H1      2    ARG    HD2     39     0.0687      1.008
    40         N2      2    ARG     NE     40    -0.5295      14.01
    41          H      2    ARG     HE     41     0.3456      1.008
    42         CA      2    ARG     CZ     42     0.8076      12.01
    43         N2      2    ARG    NH1     43    -0.8627      14.01
    44          H      2    ARG   HH11     44     0.4478      1.008
    45          H      2    ARG   HH12     45     0.4478      1.008
    46         N2      2    ARG    NH2     46    -0.8627      14.01
    47          H      2    ARG   HH21     47     0.4478      1.008
    48          H      2    ARG   HH22     48     0.4478      1.008
    49          C      2    ARG      C     49     0.7341      12.01
    50          O      2    ARG      O     50    -0.5894         16   ; qtot 3
; residue   3 TRP rtp TRP  q  0.0
    51          N      3    TRP      N     51    -0.4157      14.01
    52          H      3    TRP      H     52     0.2719      1.008
    53         CT      3    TRP     CA     53    -0.0275      12.01
    54         H1      3    TRP     HA     54     0.1123      1.008
    55         CT      3    TRP     CB     55     -0.005      12.01
    56         HC      3    TRP    HB1     56     0.0339      1.008
    57         HC      3    TRP    HB2     57     0.0339      1.008
    58         C*      3    TRP     CG     58    -0.1415      12.01
    59         CW      3    TRP    CD1     59    -0.1638      12.01
    60         H4      3    TRP    HD1     60     0.2062      1.008
    61         NA      3    TRP    NE1     61    -0.3418      14.01
    62          H      3    TRP    HE1     62     0.3412      1.008
    63         CN      3    TRP    CE2     63      0.138      12.01
    64         CA      3    TRP    CZ2     64    -0.2601      12.01
    65         HA      3    TRP    HZ2     65     0.1572      1.008
    66         CA      3    TRP    CH2     66    -0.1134      12.01
    67         HA      3    TRP    HH2     67     0.1417      1.008
    68         CA      3    TRP    CZ3     68    -0.1972      12.01
    69         HA      3    TRP    HZ3     69     0.1447      1.008
    70         CA      3    TRP    CE3     70    -0.2387      12.01
    71         HA      3    TRP    HE3     71       0.17      1.008
    72         CB      3    TRP    CD2     72     0.1243      12.01
    73          C      3    TRP      C     73     0.5973      12.01
    74          O      3    TRP      O     74    -0.5679         16   ; qtot 3
; residue   4 CYS rtp CYX  q  0.0
    75          N      4    CYS      N     75    -0.4157      14.01
    76          H      4    CYS      H     76     0.2719      1.008
    77         CT      4    CYS     CA     77     0.0429      12.01
    78         H1      4    CYS     HA     78     0.0766      1.008
    79         CT      4    CYS     CB     79     -0.079      12.01
    80         H1      4    CYS    HB1     80      0.091      1.008
    81         H1      4    CYS    HB2     81      0.091      1.008
    82          S      4    CYS     SG     82    -0.1081      32.06
    83          C      4    CYS      C     83     0.5973      12.01
    84          O      4    CYS      O     84    -0.5679         16   ; qtot 3
; residue   5 PHE rtp PHE  q  0.0
    85          N      5    PHE      N     85    -0.4157      14.01
    86          H      5    PHE      H     86     0.2719      1.008
    87         CT      5    PHE     CA     87    -0.0024      12.01
    88         H1      5    PHE     HA     88     0.0978      1.008
    89         CT      5    PHE     CB     89    -0.0343      12.01
    90         HC      5    PHE    HB1     90     0.0295      1.008
    91         HC      5    PHE    HB2     91     0.0295      1.008
    92         CA      5    PHE     CG     92     0.0118      12.01
    93         CA      5    PHE    CD1     93    -0.1256      12.01
    94         HA      5    PHE    HD1     94      0.133      1.008
    95         CA      5    PHE    CE1     95    -0.1704      12.01
    96         HA      5    PHE    HE1     96      0.143      1.008
    97         CA      5    PHE     CZ     97    -0.1072      12.01
    98         HA      5    PHE     HZ     98     0.1297      1.008
    99         CA      5    PHE    CE2     99    -0.1704      12.01
   100         HA      5    PHE    HE2    100      0.143      1.008
   101         CA      5    PHE    CD2    101    -0.1256      12.01
   102         HA      5    PHE    HD2    102      0.133      1.008
   103          C      5    PHE      C    103     0.5973      12.01
   104          O      5    PHE      O    104    -0.5679         16   ; qtot 3
; residue   6 ARG rtp ARG  q +1.0
   105          N      6    ARG      N    105    -0.3479      14.01
   106          H      6    ARG      H    106     0.2747      1.008
   107         CT      6    ARG     CA    107    -0.2637      12.01
   108         H1      6    ARG     HA    108      0.156      1.008
   109         CT      6    ARG     CB    109    -0.0007      12.01
   110         HC      6    ARG    HB1    110     0.0327      1.008
   111         HC      6    ARG    HB2    111     0.0327      1.008
   112         CT      6    ARG     CG    112      0.039      12.01
   113         HC      6    ARG    HG1    113     0.0285      1.008
   114         HC      6    ARG    HG2    114     0.0285      1.008
   115         CT      6    ARG     CD    115     0.0486      12.01
   116         H1      6    ARG    HD1    116     0.0687      1.008
   117         H1      6    ARG    HD2    117     0.0687      1.008
   118         N2      6    ARG     NE    118    -0.5295      14.01
   119          H      6    ARG     HE    119     0.3456      1.008
   120         CA      6    ARG     CZ    120     0.8076      12.01
   121         N2      6    ARG    NH1    121    -0.8627      14.01
   122          H      6    ARG   HH11    122     0.4478      1.008
   123          H      6    ARG   HH12    123     0.4478      1.008
   124         N2      6    ARG    NH2    124    -0.8627      14.01
   125          H      6    ARG   HH21    125     0.4478      1.008
   126          H      6    ARG   HH22    126     0.4478      1.008
   127          C      6    ARG      C    127     0.7341      12.01
   128          O      6    ARG      O    128    -0.5894         16   ; qtot 4
; residue   7 VAL rtp VAL  q  0.0
   129          N      7    VAL      N    129    -0.4157      14.01
   130          H      7    VAL      H    130     0.2719      1.008
   131         CT      7    VAL     CA    131    -0.0875      12.01
   132         H1      7    VAL     HA    132     0.0969      1.008
   133         CT      7    VAL     CB    133     0.2985      12.01
   134         HC      7    VAL     HB    134    -0.0297      1.008
   135         CT      7    VAL    CG1    135    -0.3192      12.01
   136         HC      7    VAL   HG11    136     0.0791      1.008
   137         HC      7    VAL   HG12    137     0.0791      1.008
   138         HC      7    VAL   HG13    138     0.0791      1.008
   139         CT      7    VAL    CG2    139    -0.3192      12.01
   140         HC      7    VAL   HG21    140     0.0791      1.008
   141         HC      7    VAL   HG22    141     0.0791      1.008
   142         HC      7    VAL   HG23    142     0.0791      1.008
   143          C      7    VAL      C    143     0.5973      12.01
   144          O      7    VAL      O    144    -0.5679         16   ; qtot 4
; residue   8 CYS rtp CYX  q  0.0
   145          N      8    CYS      N    145    -0.4157      14.01
   146          H      8    CYS      H    146     0.2719      1.008
   147         CT      8    CYS     CA    147     0.0429      12.01
   148         H1      8    CYS     HA    148     0.0766      1.008
   149         CT      8    CYS     CB    149     -0.079      12.01
   150         H1      8    CYS    HB1    150      0.091      1.008
   151         H1      8    CYS    HB2    151      0.091      1.008
   152          S      8    CYS     SG    152    -0.1081      32.06
   153          C      8    CYS      C    153     0.5973      12.01
   154          O      8    CYS      O    154    -0.5679         16   ; qtot 4
; residue   9 TYR rtp TYR  q  0.0
   155          N      9    TYR      N    155    -0.4157      14.01
   156          H      9    TYR      H    156     0.2719      1.008
   157         CT      9    TYR     CA    157    -0.0014      12.01
   158         H1      9    TYR     HA    158     0.0876      1.008
   159         CT      9    TYR     CB    159    -0.0152      12.01
   160         HC      9    TYR    HB1    160     0.0295      1.008
   161         HC      9    TYR    HB2    161     0.0295      1.008
   162         CA      9    TYR     CG    162    -0.0011      12.01
   163         CA      9    TYR    CD1    163    -0.1906      12.01
   164         HA      9    TYR    HD1    164     0.1699      1.008
   165         CA      9    TYR    CE1    165    -0.2341      12.01
   166         HA      9    TYR    HE1    166     0.1656      1.008
   167          C      9    TYR     CZ    167     0.3226      12.01
   168         OH      9    TYR     OH    168    -0.5579         16
   169         HO      9    TYR     HH    169     0.3992      1.008
   170         CA      9    TYR    CE2    170    -0.2341      12.01
   171         HA      9    TYR    HE2    171     0.1656      1.008
   172         CA      9    TYR    CD2    172    -0.1906      12.01
   173         HA      9    TYR    HD2    173     0.1699      1.008
   174          C      9    TYR      C    174     0.5973      12.01
   175          O      9    TYR      O    175    -0.5679         16   ; qtot 4
; residue  10 ARG rtp ARG  q +1.0
   176          N     10    ARG      N    176    -0.3479      14.01
   177          H     10    ARG      H    177     0.2747      1.008
   178         CT     10    ARG     CA    178    -0.2637      12.01
   179         H1     10    ARG     HA    179      0.156      1.008
   180         CT     10    ARG     CB    180    -0.0007      12.01
   181         HC     10    ARG    HB1    181     0.0327      1.008
   182         HC     10    ARG    HB2    182     0.0327      1.008
   183         CT     10    ARG     CG    183      0.039      12.01
   184         HC     10    ARG    HG1    184     0.0285      1.008
   185         HC     10    ARG    HG2    185     0.0285      1.008
   186         CT     10    ARG     CD    186     0.0486      12.01
   187         H1     10    ARG    HD1    187     0.0687      1.008
   188         H1     10    ARG    HD2    188     0.0687      1.008
   189         N2     10    ARG     NE    189    -0.5295      14.01
   190          H     10    ARG     HE    190     0.3456      1.008
   191         CA     10    ARG     CZ    191     0.8076      12.01
   192         N2     10    ARG    NH1    192    -0.8627      14.01
   193          H     10    ARG   HH11    193     0.4478      1.008
   194          H     10    ARG   HH12    194     0.4478      1.008
   195         N2     10    ARG    NH2    195    -0.8627      14.01
   196          H     10    ARG   HH21    196     0.4478      1.008
   197          H     10    ARG   HH22    197     0.4478      1.008
   198          C     10    ARG      C    198     0.7341      12.01
   199          O     10    ARG      O    199    -0.5894         16   ; qtot 5
; residue  11 GLY rtp GLY  q  0.0
   200          N     11    GLY      N    200    -0.4157      14.01
   201          H     11    GLY      H    201     0.2719      1.008
   202         CT     11    GLY     CA    202    -0.0252      12.01
   203         H1     11    GLY    HA1    203     0.0698      1.008
   204         H1     11    GLY    HA2    204     0.0698      1.008
   205          C     11    GLY      C    205     0.5973      12.01
   206          O     11    GLY      O    206    -0.5679         16   ; qtot 5
; residue  12 PHE rtp PHE  q  0.0
   207          N     12    PHE      N    207    -0.4157      14.01
   208          H     12    PHE      H    208     0.2719      1.008
   209         CT     12    PHE     CA    209    -0.0024      12.01
   210         H1     12    PHE     HA    210     0.0978      1.008
   211         CT     12    PHE     CB    211    -0.0343      12.01
   212         HC     12    PHE    HB1    212     0.0295      1.008
   213         HC     12    PHE    HB2    213     0.0295      1.008
   214         CA     12    PHE     CG    214     0.0118      12.01
   215         CA     12    PHE    CD1    215    -0.1256      12.01
   216         HA     12    PHE    HD1    216      0.133      1.008
   217         CA     12    PHE    CE1    217    -0.1704      12.01
   218         HA     12    PHE    HE1    218      0.143      1.008
   219         CA     12    PHE     CZ    219    -0.1072      12.01
   220         HA     12    PHE     HZ    220     0.1297      1.008
   221         CA     12    PHE    CE2    221    -0.1704      12.01
   222         HA     12    PHE    HE2    222      0.143      1.008
   223         CA     12    PHE    CD2    223    -0.1256      12.01
   224         HA     12    PHE    HD2    224      0.133      1.008
   225          C     12    PHE      C    225     0.5973      12.01
   226          O     12    PHE      O    226    -0.5679         16   ; qtot 5
; residue  13 CYS rtp CYX  q  0.0
   227          N     13    CYS      N    227    -0.4157      14.01
   228          H     13    CYS      H    228     0.2719      1.008
   229         CT     13    CYS     CA    229     0.0429      12.01
   230         H1     13    CYS     HA    230     0.0766      1.008
   231         CT     13    CYS     CB    231     -0.079      12.01
   232         H1     13    CYS    HB1    232      0.091      1.008
   233         H1     13    CYS    HB2    233      0.091      1.008
   234          S     13    CYS     SG    234    -0.1081      32.06
   235          C     13    CYS      C    235     0.5973      12.01
   236          O     13    CYS      O    236    -0.5679         16   ; qtot 5
; residue  14 TYR rtp TYR  q  0.0
   237          N     14    TYR      N    237    -0.4157      14.01
   238          H     14    TYR      H    238     0.2719      1.008
   239         CT     14    TYR     CA    239    -0.0014      12.01
   240         H1     14    TYR     HA    240     0.0876      1.008
   241         CT     14    TYR     CB    241    -0.0152      12.01
   242         HC     14    TYR    HB1    242     0.0295      1.008
   243         HC     14    TYR    HB2    243     0.0295      1.008
   244         CA     14    TYR     CG    244    -0.0011      12.01
   245         CA     14    TYR    CD1    245    -0.1906      12.01
   246         HA     14    TYR    HD1    246     0.1699      1.008
   247         CA     14    TYR    CE1    247    -0.2341      12.01
   248         HA     14    TYR    HE1    248     0.1656      1.008
   249          C     14    TYR     CZ    249     0.3226      12.01
   250         OH     14    TYR     OH    250    -0.5579         16
   251         HO     14    TYR     HH    251     0.3992      1.008
   252         CA     14    TYR    CE2    252    -0.2341      12.01
   253         HA     14    TYR    HE2    253     0.1656      1.008
   254         CA     14    TYR    CD2    254    -0.1906      12.01
   255         HA     14    TYR    HD2    255     0.1699      1.008
   256          C     14    TYR      C    256     0.5973      12.01
   257          O     14    TYR      O    257    -0.5679         16   ; qtot 5
; residue  15 ARG rtp ARG  q +1.0
   258          N     15    ARG      N    258    -0.3479      14.01
   259          H     15    ARG      H    259     0.2747      1.008
   260         CT     15    ARG     CA    260    -0.2637      12.01
   261         H1     15    ARG     HA    261      0.156      1.008
   262         CT     15    ARG     CB    262    -0.0007      12.01
   263         HC     15    ARG    HB1    263     0.0327      1.008
   264         HC     15    ARG    HB2    264     0.0327      1.008
   265         CT     15    ARG     CG    265      0.039      12.01
   266         HC     15    ARG    HG1    266     0.0285      1.008
   267         HC     15    ARG    HG2    267     0.0285      1.008
   268         CT     15    ARG     CD    268     0.0486      12.01
   269         H1     15    ARG    HD1    269     0.0687      1.008
   270         H1     15    ARG    HD2    270     0.0687      1.008
   271         N2     15    ARG     NE    271    -0.5295      14.01
   272          H     15    ARG     HE    272     0.3456      1.008
   273         CA     15    ARG     CZ    273     0.8076      12.01
   274         N2     15    ARG    NH1    274    -0.8627      14.01
   275          H     15    ARG   HH11    275     0.4478      1.008
   276          H     15    ARG   HH12    276     0.4478      1.008
   277         N2     15    ARG    NH2    277    -0.8627      14.01
   278          H     15    ARG   HH21    278     0.4478      1.008
   279          H     15    ARG   HH22    279     0.4478      1.008
   280          C     15    ARG      C    280     0.7341      12.01
   281          O     15    ARG      O    281    -0.5894         16   ; qtot 6
; residue  16 LYS rtp LYS  q +1.0
   282          N     16    LYS      N    282    -0.3479      14.01
   283          H     16    LYS      H    283     0.2747      1.008
   284         CT     16    LYS     CA    284      -0.24      12.01
   285         H1     16    LYS     HA    285     0.1426      1.008
   286         CT     16    LYS     CB    286    -0.0094      12.01
   287         HC     16    LYS    HB1    287     0.0362      1.008
   288         HC     16    LYS    HB2    288     0.0362      1.008
   289         CT     16    LYS     CG    289     0.0187      12.01
   290         HC     16    LYS    HG1    290     0.0103      1.008
   291         HC     16    LYS    HG2    291     0.0103      1.008
   292         CT     16    LYS     CD    292    -0.0479      12.01
   293         HC     16    LYS    HD1    293     0.0621      1.008
   294         HC     16    LYS    HD2    294     0.0621      1.008
   295         CT     16    LYS     CE    295    -0.0143      12.01
   296         HP     16    LYS    HE1    296     0.1135      1.008
   297         HP     16    LYS    HE2    297     0.1135      1.008
   298         N3     16    LYS     NZ    298    -0.3854      14.01
   299          H     16    LYS    HZ1    299       0.34      1.008
   300          H     16    LYS    HZ2    300       0.34      1.008
   301          H     16    LYS    HZ3    301       0.34      1.008
   302          C     16    LYS      C    302     0.7341      12.01
   303          O     16    LYS      O    303    -0.5894         16   ; qtot 7
; residue  17 CYS rtp CYX  q  0.0
   304          N     17    CYS      N    304    -0.4157      14.01
   305          H     17    CYS      H    305     0.2719      1.008
   306         CT     17    CYS     CA    306     0.0429      12.01
   307         H1     17    CYS     HA    307     0.0766      1.008
   308         CT     17    CYS     CB    308     -0.079      12.01
   309         H1     17    CYS    HB1    309      0.091      1.008
   310         H1     17    CYS    HB2    310      0.091      1.008
   311          S     17    CYS     SG    311    -0.1081      32.06
   312          C     17    CYS      C    312     0.5973      12.01
   313          O     17    CYS      O    313    -0.5679         16   ; qtot 7
; residue  18 ARG rtp ARG  q +1.0
   314          N     18    ARG      N    314    -0.3479      14.01
   315          H     18    ARG      H    315     0.2747      1.008
   316         CT     18    ARG     CA    316    -0.2637      12.01
   317         H1     18    ARG     HA    317      0.156      1.008
   318         CT     18    ARG     CB    318    -0.0007      12.01
   319         HC     18    ARG    HB1    319     0.0327      1.008
   320         HC     18    ARG    HB2    320     0.0327      1.008
   321         CT     18    ARG     CG    321      0.039      12.01
   322         HC     18    ARG    HG1    322     0.0285      1.008
   323         HC     18    ARG    HG2    323     0.0285      1.008
   324         CT     18    ARG     CD    324     0.0486      12.01
   325         H1     18    ARG    HD1    325     0.0687      1.008
   326         H1     18    ARG    HD2    326     0.0687      1.008
   327         N2     18    ARG     NE    327    -0.5295      14.01
   328          H     18    ARG     HE    328     0.3456      1.008
   329         CA     18    ARG     CZ    329     0.8076      12.01
   330         N2     18    ARG    NH1    330    -0.8627      14.01
   331          H     18    ARG   HH11    331     0.4478      1.008
   332          H     18    ARG   HH12    332     0.4478      1.008
   333         N2     18    ARG    NH2    333    -0.8627      14.01
   334          H     18    ARG   HH21    334     0.4478      1.008
   335          H     18    ARG   HH22    335     0.4478      1.008
   336          C     18    ARG      C    336     0.7341      12.01
   337          O     18    ARG      O    337    -0.5894         16   ; qtot 8
; residue  19 NH2 rtp NH2  q  0.0
   338          N     19    NH2      N    338     -0.463      14.01
   339          H     19    NH2     H1    339     0.2315      1.008
   340          H     19    NH2     H2    340     0.2315      1.008   ; qtot 8

[ bonds ]
;  ai    aj funct            c0            c1            c2            c3
    1     2     1 
    1     3     1 
    1     4     1 
    1     5     1 
    5     6     1 
    5     7     1 
    5    25     1 
    7     8     1 
    7     9     1 
    7    10     1 
   10    11     1 
   10    12     1 
   10    13     1 
   13    14     1 
   13    15     1 
   13    16     1 
   16    17     1 
   16    18     1 
   18    19     1 
   18    22     1 
   19    20     1 
   19    21     1 
   22    23     1 
   22    24     1 
   25    26     1 
   25    27     1 
   27    28     1 
   27    29     1 
   29    30     1 
   29    31     1 
   29    49     1 
   31    32     1 
   31    33     1 
   31    34     1 
   34    35     1 
   34    36     1 
   34    37     1 
   37    38     1 
   37    39     1 
   37    40     1 
   40    41     1 
   40    42     1 
   42    43     1 
   42    46     1 
   43    44     1 
   43    45     1 
   46    47     1 
   46    48     1 
   49    50     1 
   49    51     1 
   51    52     1 
   51    53     1 
   53    54     1 
   53    55     1 
   53    73     1 
   55    56     1 
   55    57     1 
   55    58     1 
   58    59     1 
   58    72     1 
   59    60     1 
   59    61     1 
   61    62     1 
   61    63     1 
   63    64     1 
   63    72     1 
   64    65     1 
   64    66     1 
   66    67     1 
   66    68     1 
   68    69     1 
   68    70     1 
   70    71     1 
   70    72     1 
   73    74     1 
   73    75     1 
   75    76     1 
   75    77     1 
   77    78     1 
   77    79     1 
   77    83     1 
   79    80     1 
   79    81     1 
   79    82     1 
   82   311     1 
   83    84     1 
   83    85     1 
   85    86     1 
   85    87     1 
   87    88     1 
   87    89     1 
   87   103     1 
   89    90     1 
   89    91     1 
   89    92     1 
   92    93     1 
   92   101     1 
   93    94     1 
   93    95     1 
   95    96     1 
   95    97     1 
   97    98     1 
   97    99     1 
   99   100     1 
   99   101     1 
  101   102     1 
  103   104     1 
  103   105     1 
  105   106     1 
  105   107     1 
  107   108     1 
  107   109     1 
  107   127     1 
  109   110     1 
  109   111     1 
  109   112     1 
  112   113     1 
  112   114     1 
  112   115     1 
  115   116     1 
  115   117     1 
  115   118     1 
  118   119     1 
  118   120     1 
  120   121     1 
  120   124     1 
  121   122     1 
  121   123     1 
  124   125     1 
  124   126     1 
  127   128     1 
  127   129     1 
  129   130     1 
  129   131     1 
  131   132     1 
  131   133     1 
  131   143     1 
  133   134     1 
  133   135     1 
  133   139     1 
  135   136     1 
  135   137     1 
  135   138     1 
  139   140     1 
  139   141     1 
  139   142     1 
  143   144     1 
  143   145     1 
  145   146     1 
  145   147     1 
  147   148     1 
  147   149     1 
  147   153     1 
  149   150     1 
  149   151     1 
  149   152     1 
  152   234     1 
  153   154     1 
  153   155     1 
  155   156     1 
  155   157     1 
  157   158     1 
  157   159     1 
  157   174     1 
  159   160     1 
  159   161     1 
  159   162     1 
  162   163     1 
  162   172     1 
  163   164     1 
  163   165     1 
  165   166     1 
  165   167     1 
  167   168     1 
  167   170     1 
  168   169     1 
  170   171     1 
  170   172     1 
  172   173     1 
  174   175     1 
  174   176     1 
  176   177     1 
  176   178     1 
  178   179     1 
  178   180     1 
  178   198     1 
  180   181     1 
  180   182     1 
  180   183     1 
  183   184     1 
  183   185     1 
  183   186     1 
  186   187     1 
  186   188     1 
  186   189     1 
  189   190     1 
  189   191     1 
  191   192     1 
  191   195     1 
  192   193     1 
  192   194     1 
  195   196     1 
  195   197     1 
  198   199     1 
  198   200     1 
  200   201     1 
  200   202     1 
  202   203     1 
  202   204     1 
  202   205     1 
  205   206     1 
  205   207     1 
  207   208     1 
  207   209     1 
  209   210     1 
  209   211     1 
  209   225     1 
  211   212     1 
  211   213     1 
  211   214     1 
  214   215     1 
  214   223     1 
  215   216     1 
  215   217     1 
  217   218     1 
  217   219     1 
  219   220     1 
  219   221     1 
  221   222     1 
  221   223     1 
  223   224     1 
  225   226     1 
  225   227     1 
  227   228     1 
  227   229     1 
  229   230     1 
  229   231     1 
  229   235     1 
  231   232     1 
  231   233     1 
  231   234     1 
  235   236     1 
  235   237     1 
  237   238     1 
  237   239     1 
  239   240     1 
  239   241     1 
  239   256     1 
  241   242     1 
  241   243     1 
  241   244     1 
  244   245     1 
  244   254     1 
  245   246     1 
  245   247     1 
  247   248     1 
  247   249     1 
  249   250     1 
  249   252     1 
  250   251     1 
  252   253     1 
  252   254     1 
  254   255     1 
  256   257     1 
  256   258     1 
  258   259     1 
  258   260     1 
  260   261     1 
  260   262     1 
  260   280     1 
  262   263     1 
  262   264     1 
  262   265     1 
  265   266     1 
  265   267     1 
  265   268     1 
  268   269     1 
  268   270     1 
  268   271     1 
  271   272     1 
  271   273     1 
  273   274     1 
  273   277     1 
  274   275     1 
  274   276     1 
  277   278     1 
  277   279     1 
  280   281     1 
  280   282     1 
  282   283     1 
  282   284     1 
  284   285     1 
  284   286     1 
  284   302     1 
  286   287     1 
  286   288     1 
  286   289     1 
  289   290     1 
  289   291     1 
  289   292     1 
  292   293     1 
  292   294     1 
  292   295     1 
  295   296     1 
  295   297     1 
  295   298     1 
  298   299     1 
  298   300     1 
  298   301     1 
  302   303     1 
  302   304     1 
  304   305     1 
  304   306     1 
  306   307     1 
  306   308     1 
  306   312     1 
  308   309     1 
  308   310     1 
  308   311     1 
  312   313     1 
  312   314     1 
  314   315     1 
  314   316     1 
  316   317     1 
  316   318     1 
  316   336     1 
  318   319     1 
  318   320     1 
  318   321     1 
  321   322     1 
  321   323     1 
  321   324     1 
  324   325     1 
  324   326     1 
  324   327     1 
  327   328     1 
  327   329     1 
  329   330     1 
  329   333     1 
  330   331     1 
  330   332     1 
  333   334     1 
  333   335     1 
  336   337     1 
  336   338     1 
  338   339     1 
  338   340     1 

[ pairs ]
;  ai    aj funct            c0            c1            c2            c3
    1     8     1 
    1     9     1 
    1    10     1 
    1    26     1 
    1    27     1 
    2     6     1 
    2     7     1 
    2    25     1 
    3     6     1 
    3     7     1 
    3    25     1 
    4     6     1 
    4     7     1 
    4    25     1 
    5    11     1 
    5    12     1 
    5    13     1 
    5    28     1 
    5    29     1 
    6     8     1 
    6     9     1 
    6    10     1 
    6    26     1 
    6    27     1 
    7    14     1 
    7    15     1 
    7    16     1 
    7    26     1 
    7    27     1 
    8    11     1 
    8    12     1 
    8    13     1 
    8    25     1 
    9    11     1 
    9    12     1 
    9    13     1 
    9    25     1 
   10    17     1 
   10    18     1 
   10    25     1 
   11    14     1 
   11    15     1 
   11    16     1 
   12    14     1 
   12    15     1 
   12    16     1 
   13    19     1 
   13    22     1 
   14    17     1 
   14    18     1 
   15    17     1 
   15    18     1 
   16    20     1 
   16    21     1 
   16    23     1 
   16    24     1 
   17    19     1 
   17    22     1 
   19    23     1 
   19    24     1 
   20    22     1 
   21    22     1 
   25    30     1 
   25    31     1 
   25    49     1 
   26    28     1 
   26    29     1 
   27    32     1 
   27    33     1 
   27    34     1 
   27    50     1 
   27    51     1 
   28    30     1 
   28    31     1 
   28    49     1 
   29    35     1 
   29    36     1 
   29    37     1 
   29    52     1 
   29    53     1 
   30    32     1 
   30    33     1 
   30    34     1 
   30    50     1 
   30    51     1 
   31    38     1 
   31    39     1 
   31    40     1 
   31    50     1 
   31    51     1 
   32    35     1 
   32    36     1 
   32    37     1 
   32    49     1 
   33    35     1 
   33    36     1 
   33    37     1 
   33    49     1 
   34    41     1 
   34    42     1 
   34    49     1 
   35    38     1 
   35    39     1 
   35    40     1 
   36    38     1 
   36    39     1 
   36    40     1 
   37    43     1 
   37    46     1 
   38    41     1 
   38    42     1 
   39    41     1 
   39    42     1 
   40    44     1 
   40    45     1 
   40    47     1 
   40    48     1 
   41    43     1 
   41    46     1 
   43    47     1 
   43    48     1 
   44    46     1 
   45    46     1 
   49    54     1 
   49    55     1 
   49    73     1 
   50    52     1 
   50    53     1 
   51    56     1 
   51    57     1 
   51    58     1 
   51    74     1 
   51    75     1 
   52    54     1 
   52    55     1 
   52    73     1 
   53    59     1 
   53    72     1 
   53    76     1 
   53    77     1 
   54    56     1 
   54    57     1 
   54    58     1 
   54    74     1 
   54    75     1 
   55    60     1 
   55    61     1 
   55    63     1 
   55    70     1 
   55    74     1 
   55    75     1 
   56    59     1 
   56    72     1 
   56    73     1 
   57    59     1 
   57    72     1 
   57    73     1 
   58    62     1 
   58    64     1 
   58    68     1 
   58    71     1 
   58    73     1 
   59    64     1 
   59    70     1 
   60    62     1 
   60    63     1 
   60    72     1 
   61    65     1 
   61    66     1 
   61    70     1 
   62    64     1 
   62    72     1 
   63    67     1 
   63    68     1 
   63    71     1 
   64    69     1 
   64    70     1 
   65    67     1 
   65    68     1 
   65    72     1 
   66    71     1 
   66    72     1 
   67    69     1 
   67    70     1 
   69    71     1 
   69    72     1 
   73    78     1 
   73    79     1 
   73    83     1 
   74    76     1 
   74    77     1 
   75    80     1 
   75    81     1 
   75    82     1 
   75    84     1 
   75    85     1 
   76    78     1 
   76    79     1 
   76    83     1 
   77    86     1 
   77    87     1 
   77   311     1 
   78    80     1 
   78    81     1 
   78    82     1 
   78    84     1 
   78    85     1 
   79    84     1 
   79    85     1 
   79   308     1 
   80    83     1 
   80   311     1 
   81    83     1 
   81   311     1 
   82    83     1 
   82   306     1 
   82   309     1 
   82   310     1 
   83    88     1 
   83    89     1 
   83   103     1 
   84    86     1 
   84    87     1 
   85    90     1 
   85    91     1 
   85    92     1 
   85   104     1 
   85   105     1 
   86    88     1 
   86    89     1 
   86   103     1 
   87    93     1 
   87   101     1 
   87   106     1 
   87   107     1 
   88    90     1 
   88    91     1 
   88    92     1 
   88   104     1 
   88   105     1 
   89    94     1 
   89    95     1 
   89    99     1 
   89   102     1 
   89   104     1 
   89   105     1 
   90    93     1 
   90   101     1 
   90   103     1 
   91    93     1 
   91   101     1 
   91   103     1 
   92    96     1 
   92    97     1 
   92   100     1 
   92   103     1 
   93    98     1 
   93    99     1 
   93   102     1 
   94    96     1 
   94    97     1 
   94   101     1 
   95   100     1 
   95   101     1 
   96    98     1 
   96    99     1 
   97   102     1 
   98   100     1 
   98   101     1 
  100   102     1 
  103   108     1 
  103   109     1 
  103   127     1 
  104   106     1 
  104   107     1 
  105   110     1 
  105   111     1 
  105   112     1 
  105   128     1 
  105   129     1 
  106   108     1 
  106   109     1 
  106   127     1 
  107   113     1 
  107   114     1 
  107   115     1 
  107   130     1 
  107   131     1 
  108   110     1 
  108   111     1 
  108   112     1 
  108   128     1 
  108   129     1 
  109   116     1 
  109   117     1 
  109   118     1 
  109   128     1 
  109   129     1 
  110   113     1 
  110   114     1 
  110   115     1 
  110   127     1 
  111   113     1 
  111   114     1 
  111   115     1 
  111   127     1 
  112   119     1 
  112   120     1 
  112   127     1 
  113   116     1 
  113   117     1 
  113   118     1 
  114   116     1 
  114   117     1 
  114   118     1 
  115   121     1 
  115   124     1 
  116   119     1 
  116   120     1 
  117   119     1 
  117   120     1 
  118   122     1 
  118   123     1 
  118   125     1 
  118   126     1 
  119   121     1 
  119   124     1 
  121   125     1 
  121   126     1 
  122   124     1 
  123   124     1 
  127   132     1 
  127   133     1 
  127   143     1 
  128   130     1 
  128   131     1 
  129   134     1 
  129   135     1 
  129   139     1 
  129   144     1 
  129   145     1 
  130   132     1 
  130   133     1 
  130   143     1 
  131   136     1 
  131   137     1 
  131   138     1 
  131   140     1 
  131   141     1 
  131   142     1 
  131   146     1 
  131   147     1 
  132   134     1 
  132   135     1 
  132   139     1 
  132   144     1 
  132   145     1 
  133   144     1 
  133   145     1 
  134   136     1 
  134   137     1 
  134   138     1 
  134   140     1 
  134   141     1 
  134   142     1 
  134   143     1 
  135   140     1 
  135   141     1 
  135   142     1 
  135   143     1 
  136   139     1 
  137   139     1 
  138   139     1 
  139   143     1 
  143   148     1 
  143   149     1 
  143   153     1 
  144   146     1 
  144   147     1 
  145   150     1 
  145   151     1 
  145   152     1 
  145   154     1 
  145   155     1 
  146   148     1 
  146   149     1 
  146   153     1 
  147   156     1 
  147   157     1 
  147   234     1 
  148   150     1 
  148   151     1 
  148   152     1 
  148   154     1 
  148   155     1 
  149   154     1 
  149   155     1 
  149   231     1 
  150   153     1 
  150   234     1 
  151   153     1 
  151   234     1 
  152   153     1 
  152   229     1 
  152   232     1 
  152   233     1 
  153   158     1 
  153   159     1 
  153   174     1 
  154   156     1 
  154   157     1 
  155   160     1 
  155   161     1 
  155   162     1 
  155   175     1 
  155   176     1 
  156   158     1 
  156   159     1 
  156   174     1 
  157   163     1 
  157   172     1 
  157   177     1 
  157   178     1 
  158   160     1 
  158   161     1 
  158   162     1 
  158   175     1 
  158   176     1 
  159   164     1 
  159   165     1 
  159   170     1 
  159   173     1 
  159   175     1 
  159   176     1 
  160   163     1 
  160   172     1 
  160   174     1 
  161   163     1 
  161   172     1 
  161   174     1 
  162   166     1 
  162   167     1 
  162   171     1 
  162   174     1 
  163   168     1 
  163   170     1 
  163   173     1 
  164   166     1 
  164   167     1 
  164   172     1 
  165   169     1 
  165   171     1 
  165   172     1 
  166   168     1 
  166   170     1 
  167   173     1 
  168   171     1 
  168   172     1 
  169   170     1 
  171   173     1 
  174   179     1 
  174   180     1 
  174   198     1 
  175   177     1 
  175   178     1 
  176   181     1 
  176   182     1 
  176   183     1 
  176   199     1 
  176   200     1 
  177   179     1 
  177   180     1 
  177   198     1 
  178   184     1 
  178   185     1 
  178   186     1 
  178   201     1 
  178   202     1 
  179   181     1 
  179   182     1 
  179   183     1 
  179   199     1 
  179   200     1 
  180   187     1 
  180   188     1 
  180   189     1 
  180   199     1 
  180   200     1 
  181   184     1 
  181   185     1 
  181   186     1 
  181   198     1 
  182   184     1 
  182   185     1 
  182   186     1 
  182   198     1 
  183   190     1 
  183   191     1 
  183   198     1 
  184   187     1 
  184   188     1 
  184   189     1 
  185   187     1 
  185   188     1 
  185   189     1 
  186   192     1 
  186   195     1 
  187   190     1 
  187   191     1 
  188   190     1 
  188   191     1 
  189   193     1 
  189   194     1 
  189   196     1 
  189   197     1 
  190   192     1 
  190   195     1 
  192   196     1 
  192   197     1 
  193   195     1 
  194   195     1 
  198   203     1 
  198   204     1 
  198   205     1 
  199   201     1 
  199   202     1 
  200   206     1 
  200   207     1 
  201   203     1 
  201   204     1 
  201   205     1 
  202   208     1 
  202   209     1 
  203   206     1 
  203   207     1 
  204   206     1 
  204   207     1 
  205   210     1 
  205   211     1 
  205   225     1 
  206   208     1 
  206   209     1 
  207   212     1 
  207   213     1 
  207   214     1 
  207   226     1 
  207   227     1 
  208   210     1 
  208   211     1 
  208   225     1 
  209   215     1 
  209   223     1 
  209   228     1 
  209   229     1 
  210   212     1 
  210   213     1 
  210   214     1 
  210   226     1 
  210   227     1 
  211   216     1 
  211   217     1 
  211   221     1 
  211   224     1 
  211   226     1 
  211   227     1 
  212   215     1 
  212   223     1 
  212   225     1 
  213   215     1 
  213   223     1 
  213   225     1 
  214   218     1 
  214   219     1 
  214   222     1 
  214   225     1 
  215   220     1 
  215   221     1 
  215   224     1 
  216   218     1 
  216   219     1 
  216   223     1 
  217   222     1 
  217   223     1 
  218   220     1 
  218   221     1 
  219   224     1 
  220   222     1 
  220   223     1 
  222   224     1 
  225   230     1 
  225   231     1 
  225   235     1 
  226   228     1 
  226   229     1 
  227   232     1 
  227   233     1 
  227   234     1 
  227   236     1 
  227   237     1 
  228   230     1 
  228   231     1 
  228   235     1 
  229   238     1 
  229   239     1 
  230   232     1 
  230   233     1 
  230   234     1 
  230   236     1 
  230   237     1 
  231   236     1 
  231   237     1 
  232   235     1 
  233   235     1 
  234   235     1 
  235   240     1 
  235   241     1 
  235   256     1 
  236   238     1 
  236   239     1 
  237   242     1 
  237   243     1 
  237   244     1 
  237   257     1 
  237   258     1 
  238   240     1 
  238   241     1 
  238   256     1 
  239   245     1 
  239   254     1 
  239   259     1 
  239   260     1 
  240   242     1 
  240   243     1 
  240   244     1 
  240   257     1 
  240   258     1 
  241   246     1 
  241   247     1 
  241   252     1 
  241   255     1 
  241   257     1 
  241   258     1 
  242   245     1 
  242   254     1 
  242   256     1 
  243   245     1 
  243   254     1 
  243   256     1 
  244   248     1 
  244   249     1 
  244   253     1 
  244   256     1 
  245   250     1 
  245   252     1 
  245   255     1 
  246   248     1 
  246   249     1 
  246   254     1 
  247   251     1 
  247   253     1 
  247   254     1 
  248   250     1 
  248   252     1 
  249   255     1 
  250   253     1 
  250   254     1 
  251   252     1 
  253   255     1 
  256   261     1 
  256   262     1 
  256   280     1 
  257   259     1 
  257   260     1 
  258   263     1 
  258   264     1 
  258   265     1 
  258   281     1 
  258   282     1 
  259   261     1 
  259   262     1 
  259   280     1 
  260   266     1 
  260   267     1 
  260   268     1 
  260   283     1 
  260   284     1 
  261   263     1 
  261   264     1 
  261   265     1 
  261   281     1 
  261   282     1 
  262   269     1 
  262   270     1 
  262   271     1 
  262   281     1 
  262   282     1 
  263   266     1 
  263   267     1 
  263   268     1 
  263   280     1 
  264   266     1 
  264   267     1 
  264   268     1 
  264   280     1 
  265   272     1 
  265   273     1 
  265   280     1 
  266   269     1 
  266   270     1 
  266   271     1 
  267   269     1 
  267   270     1 
  267   271     1 
  268   274     1 
  268   277     1 
  269   272     1 
  269   273     1 
  270   272     1 
  270   273     1 
  271   275     1 
  271   276     1 
  271   278     1 
  271   279     1 
  272   274     1 
  272   277     1 
  274   278     1 
  274   279     1 
  275   277     1 
  276   277     1 
  280   285     1 
  280   286     1 
  280   302     1 
  281   283     1 
  281   284     1 
  282   287     1 
  282   288     1 
  282   289     1 
  282   303     1 
  282   304     1 
  283   285     1 
  283   286     1 
  283   302     1 
  284   290     1 
  284   291     1 
  284   292     1 
  284   305     1 
  284   306     1 
  285   287     1 
  285   288     1 
  285   289     1 
  285   303     1 
  285   304     1 
  286   293     1 
  286   294     1 
  286   295     1 
  286   303     1 
  286   304     1 
  287   290     1 
  287   291     1 
  287   292     1 
  287   302     1 
  288   290     1 
  288   291     1 
  288   292     1 
  288   302     1 
  289   296     1 
  289   297     1 
  289   298     1 
  289   302     1 
  290   293     1 
  290   294     1 
  290   295     1 
  291   293     1 
  291   294     1 
  291   295     1 
  292   299     1 
  292   300     1 
  292   301     1 
  293   296     1 
  293   297     1 
  293   298     1 
  294   296     1 
  294   297     1 
  294   298     1 
  296   299     1 
  296   300     1 
  296   301     1 
  297   299     1 
  297   300     1 
  297   301     1 
  302   307     1 
  302   308     1 
  302   312     1 
  303   305     1 
  303   306     1 
  304   309     1 
  304   310     1 
  304   311     1 
  304   313     1 
  304   314     1 
  305   307     1 
  305   308     1 
  305   312     1 
  306   315     1 
  306   316     1 
  307   309     1 
  307   310     1 
  307   311     1 
  307   313     1 
  307   314     1 
  308   313     1 
  308   314     1 
  309   312     1 
  310   312     1 
  311   312     1 
  312   317     1 
  312   318     1 
  312   336     1 
  313   315     1 
  313   316     1 
  314   319     1 
  314   320     1 
  314   321     1 
  314   337     1 
  314   338     1 
  315   317     1 
  315   318     1 
  315   336     1 
  316   322     1 
  316   323     1 
  316   324     1 
  316   339     1 
  316   340     1 
  317   319     1 
  317   320     1 
  317   321     1 
  317   337     1 
  317   338     1 
  318   325     1 
  318   326     1 
  318   327     1 
  318   337     1 
  318   338     1 
  319   322     1 
  319   323     1 
  319   324     1 
  319   336     1 
  320   322     1 
  320   323     1 
  320   324     1 
  320   336     1 
  321   328     1 
  321   329     1 
  321   336     1 
  322   325     1 
  322   326     1 
  322   327     1 
  323   325     1 
  323   326     1 
  323   327     1 
  324   330     1 
  324   333     1 
  325   328     1 
  325   329     1 
  326   328     1 
  326   329     1 
  327   331     1 
  327   332     1 
  327   334     1 
  327   335     1 
  328   330     1 
  328   333     1 
  330   334     1 
  330   335     1 
  331   333     1 
  332   333     1 
  337   339     1 
  337   340     1 

[ angles ]
;  ai    aj    ak funct            c0            c1            c2            c3
    2     1     3     1 
    2     1     4     1 
    2     1     5     1 
    3     1     4     1 
    3     1     5     1 
    4     1     5     1 
    1     5     6     1 
    1     5     7     1 
    1     5    25     1 
    6     5     7     1 
    6     5    25     1 
    7     5    25     1 
    5     7     8     1 
    5     7     9     1 
    5     7    10     1 
    8     7     9     1 
    8     7    10     1 
    9     7    10     1 
    7    10    11     1 
    7    10    12     1 
    7    10    13     1 
   11    10    12     1 
   11    10    13     1 
   12    10    13     1 
   10    13    14     1 
   10    13    15     1 
   10    13    16     1 
   14    13    15     1 
   14    13    16     1 
   15    13    16     1 
   13    16    17     1 
   13    16    18     1 
   17    16    18     1 
   16    18    19     1 
   16    18    22     1 
   19    18    22     1 
   18    19    20     1 
   18    19    21     1 
   20    19    21     1 
   18    22    23     1 
   18    22    24     1 
   23    22    24     1 
    5    25    26     1 
    5    25    27     1 
   26    25    27     1 
   25    27    28     1 
   25    27    29     1 
   28    27    29     1 
   27    29    30     1 
   27    29    31     1 
   27    29    49     1 
   30    29    31     1 
   30    29    49     1 
   31    29    49     1 
   29    31    32     1 
   29    31    33     1 
   29    31    34     1 
   32    31    33     1 
   32    31    34     1 
   33    31    34     1 
   31    34    35     1 
   31    34    36     1 
   31    34    37     1 
   35    34    36     1 
   35    34    37     1 
   36    34    37     1 
   34    37    38     1 
   34    37    39     1 
   34    37    40     1 
   38    37    39     1 
   38    37    40     1 
   39    37    40     1 
   37    40    41     1 
   37    40    42     1 
   41    40    42     1 
   40    42    43     1 
   40    42    46     1 
   43    42    46     1 
   42    43    44     1 
   42    43    45     1 
   44    43    45     1 
   42    46    47     1 
   42    46    48     1 
   47    46    48     1 
   29    49    50     1 
   29    49    51     1 
   50    49    51     1 
   49    51    52     1 
   49    51    53     1 
   52    51    53     1 
   51    53    54     1 
   51    53    55     1 
   51    53    73     1 
   54    53    55     1 
   54    53    73     1 
   55    53    73     1 
   53    55    56     1 
   53    55    57     1 
   53    55    58     1 
   56    55    57     1 
   56    55    58     1 
   57    55    58     1 
   55    58    59     1 
   55    58    72     1 
   59    58    72     1 
   58    59    60     1 
   58    59    61     1 
   60    59    61     1 
   59    61    62     1 
   59    61    63     1 
   62    61    63     1 
   61    63    64     1 
   61    63    72     1 
   64    63    72     1 
   63    64    65     1 
   63    64    66     1 
   65    64    66     1 
   64    66    67     1 
   64    66    68     1 
   67    66    68     1 
   66    68    69     1 
   66    68    70     1 
   69    68    70     1 
   68    70    71     1 
   68    70    72     1 
   71    70    72     1 
   58    72    63     1 
   58    72    70     1 
   63    72    70     1 
   53    73    74     1 
   53    73    75     1 
   74    73    75     1 
   73    75    76     1 
   73    75    77     1 
   76    75    77     1 
   75    77    78     1 
   75    77    79     1 
   75    77    83     1 
   78    77    79     1 
   78    77    83     1 
   79    77    83     1 
   77    79    80     1 
   77    79    81     1 
   77    79    82     1 
   80    79    81     1 
   80    79    82     1 
   81    79    82     1 
   79    82   311     1 
   77    83    84     1 
   77    83    85     1 
   84    83    85     1 
   83    85    86     1 
   83    85    87     1 
   86    85    87     1 
   85    87    88     1 
   85    87    89     1 
   85    87   103     1 
   88    87    89     1 
   88    87   103     1 
   89    87   103     1 
   87    89    90     1 
   87    89    91     1 
   87    89    92     1 
   90    89    91     1 
   90    89    92     1 
   91    89    92     1 
   89    92    93     1 
   89    92   101     1 
   93    92   101     1 
   92    93    94     1 
   92    93    95     1 
   94    93    95     1 
   93    95    96     1 
   93    95    97     1 
   96    95    97     1 
   95    97    98     1 
   95    97    99     1 
   98    97    99     1 
   97    99   100     1 
   97    99   101     1 
  100    99   101     1 
   92   101    99     1 
   92   101   102     1 
   99   101   102     1 
   87   103   104     1 
   87   103   105     1 
  104   103   105     1 
  103   105   106     1 
  103   105   107     1 
  106   105   107     1 
  105   107   108     1 
  105   107   109     1 
  105   107   127     1 
  108   107   109     1 
  108   107   127     1 
  109   107   127     1 
  107   109   110     1 
  107   109   111     1 
  107   109   112     1 
  110   109   111     1 
  110   109   112     1 
  111   109   112     1 
  109   112   113     1 
  109   112   114     1 
  109   112   115     1 
  113   112   114     1 
  113   112   115     1 
  114   112   115     1 
  112   115   116     1 
  112   115   117     1 
  112   115   118     1 
  116   115   117     1 
  116   115   118     1 
  117   115   118     1 
  115   118   119     1 
  115   118   120     1 
  119   118   120     1 
  118   120   121     1 
  118   120   124     1 
  121   120   124     1 
  120   121   122     1 
  120   121   123     1 
  122   121   123     1 
  120   124   125     1 
  120   124   126     1 
  125   124   126     1 
  107   127   128     1 
  107   127   129     1 
  128   127   129     1 
  127   129   130     1 
  127   129   131     1 
  130   129   131     1 
  129   131   132     1 
  129   131   133     1 
  129   131   143     1 
  132   131   133     1 
  132   131   143     1 
  133   131   143     1 
  131   133   134     1 
  131   133   135     1 
  131   133   139     1 
  134   133   135     1 
  134   133   139     1 
  135   133   139     1 
  133   135   136     1 
  133   135   137     1 
  133   135   138     1 
  136   135   137     1 
  136   135   138     1 
  137   135   138     1 
  133   139   140     1 
  133   139   141     1 
  133   139   142     1 
  140   139   141     1 
  140   139   142     1 
  141   139   142     1 
  131   143   144     1 
  131   143   145     1 
  144   143   145     1 
  143   145   146     1 
  143   145   147     1 
  146   145   147     1 
  145   147   148     1 
  145   147   149     1 
  145   147   153     1 
  148   147   149     1 
  148   147   153     1 
  149   147   153     1 
  147   149   150     1 
  147   149   151     1 
  147   149   152     1 
  150   149   151     1 
  150   149   152     1 
  151   149   152     1 
  149   152   234     1 
  147   153   154     1 
  147   153   155     1 
  154   153   155     1 
  153   155   156     1 
  153   155   157     1 
  156   155   157     1 
  155   157   158     1 
  155   157   159     1 
  155   157   174     1 
  158   157   159     1 
  158   157   174     1 
  159   157   174     1 
  157   159   160     1 
  157   159   161     1 
  157   159   162     1 
  160   159   161     1 
  160   159   162     1 
  161   159   162     1 
  159   162   163     1 
  159   162   172     1 
  163   162   172     1 
  162   163   164     1 
  162   163   165     1 
  164   163   165     1 
  163   165   166     1 
  163   165   167     1 
  166   165   167     1 
  165   167   168     1 
  165   167   170     1 
  168   167   170     1 
  167   168   169     1 
  167   170   171     1 
  167   170   172     1 
  171   170   172     1 
  162   172   170     1 
  162   172   173     1 
  170   172   173     1 
  157   174   175     1 
  157   174   176     1 
  175   174   176     1 
  174   176   177     1 
  174   176   178     1 
  177   176   178     1 
  176   178   179     1 
  176   178   180     1 
  176   178   198     1 
  179   178   180     1 
  179   178   198     1 
  180   178   198     1 
  178   180   181     1 
  178   180   182     1 
  178   180   183     1 
  181   180   182     1 
  181   180   183     1 
  182   180   183     1 
  180   183   184     1 
  180   183   185     1 
  180   183   186     1 
  184   183   185     1 
  184   183   186     1 
  185   183   186     1 
  183   186   187     1 
  183   186   188     1 
  183   186   189     1 
  187   186   188     1 
  187   186   189     1 
  188   186   189     1 
  186   189   190     1 
  186   189   191     1 
  190   189   191     1 
  189   191   192     1 
  189   191   195     1 
  192   191   195     1 
  191   192   193     1 
  191   192   194     1 
  193   192   194     1 
  191   195   196     1 
  191   195   197     1 
  196   195   197     1 
  178   198   199     1 
  178   198   200     1 
  199   198   200     1 
  198   200   201     1 
  198   200   202     1 
  201   200   202     1 
  200   202   203     1 
  200   202   204     1 
  200   202   205     1 
  203   202   204     1 
  203   202   205     1 
  204   202   205     1 
  202   205   206     1 
  202   205   207     1 
  206   205   207     1 
  205   207   208     1 
  205   207   209     1 
  208   207   209     1 
  207   209   210     1 
  207   209   211     1 
  207   209   225     1 
  210   209   211     1 
  210   209   225     1 
  211   209   225     1 
  209   211   212     1 
  209   211   213     1 
  209   211   214     1 
  212   211   213     1 
  212   211   214     1 
  213   211   214     1 
  211   214   215     1 
  211   214   223     1 
  215   214   223     1 
  214   215   216     1 
  214   215   217     1 
  216   215   217     1 
  215   217   218     1 
  215   217   219     1 
  218   217   219     1 
  217   219   220     1 
  217   219   221     1 
  220   219   221     1 
  219   221   222     1 
  219   221   223     1 
  222   221   223     1 
  214   223   221     1 
  214   223   224     1 
  221   223   224     1 
  209   225   226     1 
  209   225   227     1 
  226   225   227     1 
  225   227   228     1 
  225   227   229     1 
  228   227   229     1 
  227   229   230     1 
  227   229   231     1 
  227   229   235     1 
  230   229   231     1 
  230   229   235     1 
  231   229   235     1 
  229   231   232     1 
  229   231   233     1 
  229   231   234     1 
  232   231   233     1 
  232   231   234     1 
  233   231   234     1 
  152   234   231     1 
  229   235   236     1 
  229   235   237     1 
  236   235   237     1 
  235   237   238     1 
  235   237   239     1 
  238   237   239     1 
  237   239   240     1 
  237   239   241     1 
  237   239   256     1 
  240   239   241     1 
  240   239   256     1 
  241   239   256     1 
  239   241   242     1 
  239   241   243     1 
  239   241   244     1 
  242   241   243     1 
  242   241   244     1 
  243   241   244     1 
  241   244   245     1 
  241   244   254     1 
  245   244   254     1 
  244   245   246     1 
  244   245   247     1 
  246   245   247     1 
  245   247   248     1 
  245   247   249     1 
  248   247   249     1 
  247   249   250     1 
  247   249   252     1 
  250   249   252     1 
  249   250   251     1 
  249   252   253     1 
  249   252   254     1 
  253   252   254     1 
  244   254   252     1 
  244   254   255     1 
  252   254   255     1 
  239   256   257     1 
  239   256   258     1 
  257   256   258     1 
  256   258   259     1 
  256   258   260     1 
  259   258   260     1 
  258   260   261     1 
  258   260   262     1 
  258   260   280     1 
  261   260   262     1 
  261   260   280     1 
  262   260   280     1 
  260   262   263     1 
  260   262   264     1 
  260   262   265     1 
  263   262   264     1 
  263   262   265     1 
  264   262   265     1 
  262   265   266     1 
  262   265   267     1 
  262   265   268     1 
  266   265   267     1 
  266   265   268     1 
  267   265   268     1 
  265   268   269     1 
  265   268   270     1 
  265   268   271     1 
  269   268   270     1 
  269   268   271     1 
  270   268   271     1 
  268   271   272     1 
  268   271   273     1 
  272   271   273     1 
  271   273   274     1 
  271   273   277     1 
  274   273   277     1 
  273   274   275     1 
  273   274   276     1 
  275   274   276     1 
  273   277   278     1 
  273   277   279     1 
  278   277   279     1 
  260   280   281     1 
  260   280   282     1 
  281   280   282     1 
  280   282   283     1 
  280   282   284     1 
  283   282   284     1 
  282   284   285     1 
  282   284   286     1 
  282   284   302     1 
  285   284   286     1 
  285   284   302     1 
  286   284   302     1 
  284   286   287     1 
  284   286   288     1 
  284   286   289     1 
  287   286   288     1 
  287   286   289     1 
  288   286   289     1 
  286   289   290     1 
  286   289   291     1 
  286   289   292     1 
  290   289   291     1 
  290   289   292     1 
  291   289   292     1 
  289   292   293     1 
  289   292   294     1 
  289   292   295     1 
  293   292   294     1 
  293   292   295     1 
  294   292   295     1 
  292   295   296     1 
  292   295   297     1 
  292   295   298     1 
  296   295   297     1 
  296   295   298     1 
  297   295   298     1 
  295   298   299     1 
  295   298   300     1 
  295   298   301     1 
  299   298   300     1 
  299   298   301     1 
  300   298   301     1 
  284   302   303     1 
  284   302   304     1 
  303   302   304     1 
  302   304   305     1 
  302   304   306     1 
  305   304   306     1 
  304   306   307     1 
  304   306   308     1 
  304   306   312     1 
  307   306   308     1 
  307   306   312     1 
  308   306   312     1 
  306   308   309     1 
  306   308   310     1 
  306   308   311     1 
  309   308   310     1 
  309   308   311     1 
  310   308   311     1 
   82   311   308     1 
  306   312   313     1 
  306   312   314     1 
  313   312   314     1 
  312   314   315     1 
  312   314   316     1 
  315   314   316     1 
  314   316   317     1 
  314   316   318     1 
  314   316   336     1 
  317   316   318     1 
  317   316   336     1 
  318   316   336     1 
  316   318   319     1 
  316   318   320     1 
  316   318   321     1 
  319   318   320     1 
  319   318   321     1 
  320   318   321     1 
  318   321   322     1 
  318   321   323     1 
  318   321   324     1 
  322   321   323     1 
  322   321   324     1 
  323   321   324     1 
  321   324   325     1 
  321   324   326     1 
  321   324   327     1 
  325   324   326     1 
  325   324   327     1 
  326   324   327     1 
  324   327   328     1 
  324   327   329     1 
  328   327   329     1 
  327   329   330     1 
  327   329   333     1 
  330   329   333     1 
  329   330   331     1 
  329   330   332     1 
  331   330   332     1 
  329   333   334     1 
  329   333   335     1 
  334   333   335     1 
  316   336   337     1 
  316   336   338     1 
  337   336   338     1 
  336   338   339     1 
  336   338   340     1 
  339   338   340     1 

[ dihedrals ]
;  ai    aj    ak    al funct            c0            c1            c2            c3            c4            c5
    2     1     5     6     9 
    2     1     5     7     9 
    2     1     5    25     9 
    3     1     5     6     9 
    3     1     5     7     9 
    3     1     5    25     9 
    4     1     5     6     9 
    4     1     5     7     9 
    4     1     5    25     9 
    1     5     7     8     9 
    1     5     7     9     9 
    1     5     7    10     9 
    6     5     7     8     9 
    6     5     7     9     9 
    6     5     7    10     9 
   25     5     7     8     9 
   25     5     7     9     9 
   25     5     7    10     9 
    1     5    25    26     9 
    1     5    25    27     9 
    6     5    25    26     9 
    6     5    25    27     9 
    7     5    25    26     9 
    7     5    25    27     9 
    5     7    10    11     9 
    5     7    10    12     9 
    5     7    10    13     9 
    8     7    10    11     9 
    8     7    10    12     9 
    8     7    10    13     9 
    9     7    10    11     9 
    9     7    10    12     9 
    9     7    10    13     9 
    7    10    13    14     9 
    7    10    13    15     9 
    7    10    13    16     9 
   11    10    13    14     9 
   11    10    13    15     9 
   11    10    13    16     9 
   12    10    13    14     9 
   12    10    13    15     9 
   12    10    13    16     9 
   10    13    16    17     9 
   10    13    16    18     9 
   14    13    16    17     9 
   14    13    16    18     9 
   15    13    16    17     9 
   15    13    16    18     9 
   13    16    18    19     9 
   13    16    18    22     9 
   17    16    18    19     9 
   17    16    18    22     9 
   16    18    19    20     9 
   16    18    19    21     9 
   22    18    19    20     9 
   22    18    19    21     9 
   16    18    22    23     9 
   16    18    22    24     9 
   19    18    22    23     9 
   19    18    22    24     9 
    5    25    27    28     9 
    5    25    27    29     9 
   26    25    27    28     9 
   26    25    27    29     9 
   25    27    29    30     9 
   25    27    29    31     9 
   25    27    29    49     9 
   28    27    29    30     9 
   28    27    29    31     9 
   28    27    29    49     9 
   27    29    31    32     9 
   27    29    31    33     9 
   27    29    31    34     9 
   30    29    31    32     9 
   30    29    31    33     9 
   30    29    31    34     9 
   49    29    31    32     9 
   49    29    31    33     9 
   49    29    31    34     9 
   27    29    49    50     9 
   27    29    49    51     9 
   30    29    49    50     9 
   30    29    49    51     9 
   31    29    49    50     9 
   31    29    49    51     9 
   29    31    34    35     9 
   29    31    34    36     9 
   29    31    34    37     9 
   32    31    34    35     9 
   32    31    34    36     9 
   32    31    34    37     9 
   33    31    34    35     9 
   33    31    34    36     9 
   33    31    34    37     9 
   31    34    37    38     9 
   31    34    37    39     9 
   31    34    37    40     9 
   35    34    37    38     9 
   35    34    37    39     9 
   35    34    37    40     9 
   36    34    37    38     9 
   36    34    37    39     9 
   36    34    37    40     9 
   34    37    40    41     9 
   34    37    40    42     9 
   38    37    40    41     9 
   38    37    40    42     9 
   39    37    40    41     9 
   39    37    40    42     9 
   37    40    42    43     9 
   37    40    42    46     9 
   41    40    42    43     9 
   41    40    42    46     9 
   40    42    43    44     9 
   40    42    43    45     9 
   46    42    43    44     9 
   46    42    43    45     9 
   40    42    46    47     9 
   40    42    46    48     9 
   43    42    46    47     9 
   43    42    46    48     9 
   29    49    51    52     9 
   29    49    51    53     9 
   50    49    51    52     9 
   50    49    51    53     9 
   49    51    53    54     9 
   49    51    53    55     9 
   49    51    53    73     9 
   52    51    53    54     9 
   52    51    53    55     9 
   52    51    53    73     9 
   51    53    55    56     9 
   51    53    55    57     9 
   51    53    55    58     9 
   54    53    55    56     9 
   54    53    55    57     9 
   54    53    55    58     9 
   73    53    55    56     9 
   73    53    55    57     9 
   73    53    55    58     9 
   51    53    73    74     9 
   51    53    73    75     9 
   54    53    73    74     9 
   54    53    73    75     9 
   55    53    73    74     9 
   55    53    73    75     9 
   53    55    58    59     9 
   53    55    58    72     9 
   56    55    58    59     9 
   56    55    58    72     9 
   57    55    58    59     9 
   57    55    58    72     9 
   55    58    59    60     9 
   55    58    59    61     9 
   72    58    59    60     9 
   72    58    59    61     9 
   55    58    72    63     9 
   55    58    72    70     9 
   59    58    72    63     9 
   59    58    72    70     9 
   58    59    61    62     9 
   58    59    61    63     9 
   60    59    61    62     9 
   60    59    61    63     9 
   59    61    63    64     9 
   59    61    63    72     9 
   62    61    63    64     9 
   62    61    63    72     9 
   61    63    64    65     9 
   61    63    64    66     9 
   72    63    64    65     9 
   72    63    64    66     9 
   61    63    72    58     9 
   61    63    72    70     9 
   64    63    72    58     9 
   64    63    72    70     9 
   63    64    66    67     9 
   63    64    66    68     9 
   65    64    66    67     9 
   65    64    66    68     9 
   64    66    68    69     9 
   64    66    68    70     9 
   67    66    68    69     9 
   67    66    68    70     9 
   66    68    70    71     9 
   66    68    70    72     9 
   69    68    70    71     9 
   69    68    70    72     9 
   68    70    72    58     9 
   68    70    72    63     9 
   71    70    72    58     9 
   71    70    72    63     9 
   53    73    75    76     9 
   53    73    75    77     9 
   74    73    75    76     9 
   74    73    75    77     9 
   73    75    77    78     9 
   73    75    77    79     9 
   73    75    77    83     9 
   76    75    77    78     9 
   76    75    77    79     9 
   76    75    77    83     9 
   75    77    79    80     9 
   75    77    79    81     9 
   75    77    79    82     9 
   78    77    79    80     9 
   78    77    79    81     9 
   78    77    79    82     9 
   83    77    79    80     9 
   83    77    79    81     9 
   83    77    79    82     9 
   75    77    83    84     9 
   75    77    83    85     9 
   78    77    83    84     9 
   78    77    83    85     9 
   79    77    83    84     9 
   79    77    83    85     9 
   77    79    82   311     9 
   80    79    82   311     9 
   81    79    82   311     9 
   79    82   311   308     9 
   77    83    85    86     9 
   77    83    85    87     9 
   84    83    85    86     9 
   84    83    85    87     9 
   83    85    87    88     9 
   83    85    87    89     9 
   83    85    87   103     9 
   86    85    87    88     9 
   86    85    87    89     9 
   86    85    87   103     9 
   85    87    89    90     9 
   85    87    89    91     9 
   85    87    89    92     9 
   88    87    89    90     9 
   88    87    89    91     9 
   88    87    89    92     9 
  103    87    89    90     9 
  103    87    89    91     9 
  103    87    89    92     9 
   85    87   103   104     9 
   85    87   103   105     9 
   88    87   103   104     9 
   88    87   103   105     9 
   89    87   103   104     9 
   89    87   103   105     9 
   87    89    92    93     9 
   87    89    92   101     9 
   90    89    92    93     9 
   90    89    92   101     9 
   91    89    92    93     9 
   91    89    92   101     9 
   89    92    93    94     9 
   89    92    93    95     9 
  101    92    93    94     9 
  101    92    93    95     9 
   89    92   101    99     9 
   89    92   101   102     9 
   93    92   101    99     9 
   93    92   101   102     9 
   92    93    95    96     9 
   92    93    95    97     9 
   94    93    95    96     9 
   94    93    95    97     9 
   93    95    97    98     9 
   93    95    97    99     9 
   96    95    97    98     9 
   96    95    97    99     9 
   95    97    99   100     9 
   95    97    99   101     9 
   98    97    99   100     9 
   98    97    99   101     9 
   97    99   101    92     9 
   97    99   101   102     9 
  100    99   101    92     9 
  100    99   101   102     9 
   87   103   105   106     9 
   87   103   105   107     9 
  104   103   105   106     9 
  104   103   105   107     9 
  103   105   107   108     9 
  103   105   107   109     9 
  103   105   107   127     9 
  106   105   107   108     9 
  106   105   107   109     9 
  106   105   107   127     9 
  105   107   109   110     9 
  105   107   109   111     9 
  105   107   109   112     9 
  108   107   109   110     9 
  108   107   109   111     9 
  108   107   109   112     9 
  127   107   109   110     9 
  127   107   109   111     9 
  127   107   109   112     9 
  105   107   127   128     9 
  105   107   127   129     9 
  108   107   127   128     9 
  108   107   127   129     9 
  109   107   127   128     9 
  109   107   127   129     9 
  107   109   112   113     9 
  107   109   112   114     9 
  107   109   112   115     9 
  110   109   112   113     9 
  110   109   112   114     9 
  110   109   112   115     9 
  111   109   112   113     9 
  111   109   112   114     9 
  111   109   112   115     9 
  109   112   115   116     9 
  109   112   115   117     9 
  109   112   115   118     9 
  113   112   115   116     9 
  113   112   115   117     9 
  113   112   115   118     9 
  114   112   115   116     9 
  114   112   115   117     9 
  114   112   115   118     9 
  112   115   118   119     9 
  112   115   118   120     9 
  116   115   118   119     9 
  116   115   118   120     9 
  117   115   118   119     9 
  117   115   118   120     9 
  115   118   120   121     9 
  115   118   120   124     9 
  119   118   120   121     9 
  119   118   120   124     9 
  118   120   121   122     9 
  118   120   121   123     9 
  124   120   121   122     9 
  124   120   121   123     9 
  118   120   124   125     9 
  118   120   124   126     9 
  121   120   124   125     9 
  121   120   124   126     9 
  107   127   129   130     9 
  107   127   129   131     9 
  128   127   129   130     9 
  128   127   129   131     9 
  127   129   131   132     9 
  127   129   131   133     9 
  127   129   131   143     9 
  130   129   131   132     9 
  130   129   131   133     9 
  130   129   131   143     9 
  129   131   133   134     9 
  129   131   133   135     9 
  129   131   133   139     9 
  132   131   133   134     9 
  132   131   133   135     9 
  132   131   133   139     9 
  143   131   133   134     9 
  143   131   133   135     9 
  143   131   133   139     9 
  129   131   143   144     9 
  129   131   143   145     9 
  132   131   143   144     9 
  132   131   143   145     9 
  133   131   143   144     9 
  133   131   143   145     9 
  131   133   135   136     9 
  131   133   135   137     9 
  131   133   135   138     9 
  134   133   135   136     9 
  134   133   135   137     9 
  134   133   135   138     9 
  139   133   135   136     9 
  139   133   135   137     9 
  139   133   135   138     9 
  131   133   139   140     9 
  131   133   139   141     9 
  131   133   139   142     9 
  134   133   139   140     9 
  134   133   139   141     9 
  134   133   139   142     9 
  135   133   139   140     9 
  135   133   139   141     9 
  135   133   139   142     9 
  131   143   145   146     9 
  131   143   145   147     9 
  144   143   145   146     9 
  144   143   145   147     9 
  143   145   147   148     9 
  143   145   147   149     9 
  143   145   147   153     9 
  146   145   147   148     9 
  146   145   147   149     9 
  146   145   147   153     9 
  145   147   149   150     9 
  145   147   149   151     9 
  145   147   149   152     9 
  148   147   149   150     9 
  148   147   149   151     9 
  148   147   149   152     9 
  153   147   149   150     9 
  153   147   149   151     9 
  153   147   149   152     9 
  145   147   153   154     9 
  145   147   153   155     9 
  148   147   153   154     9 
  148   147   153   155     9 
  149   147   153   154     9 
  149   147   153   155     9 
  147   149   152   234     9 
  150   149   152   234     9 
  151   149   152   234     9 
  149   152   234   231     9 
  147   153   155   156     9 
  147   153   155   157     9 
  154   153   155   156     9 
  154   153   155   157     9 
  153   155   157   158     9 
  153   155   157   159     9 
  153   155   157   174     9 
  156   155   157   158     9 
  156   155   157   159     9 
  156   155   157   174     9 
  155   157   159   160     9 
  155   157   159   161     9 
  155   157   159   162     9 
  158   157   159   160     9 
  158   157   159   161     9 
  158   157   159   162     9 
  174   157   159   160     9 
  174   157   159   161     9 
  174   157   159   162     9 
  155   157   174   175     9 
  155   157   174   176     9 
  158   157   174   175     9 
  158   157   174   176     9 
  159   157   174   175     9 
  159   157   174   176     9 
  157   159   162   163     9 
  157   159   162   172     9 
  160   159   162   163     9 
  160   159   162   172     9 
  161   159   162   163     9 
  161   159   162   172     9 
  159   162   163   164     9 
  159   162   163   165     9 
  172   162   163   164     9 
  172   162   163   165     9 
  159   162   172   170     9 
  159   162   172   173     9 
  163   162   172   170     9 
  163   162   172   173     9 
  162   163   165   166     9 
  162   163   165   167     9 
  164   163   165   166     9 
  164   163   165   167     9 
  163   165   167   168     9 
  163   165   167   170     9 
  166   165   167   168     9 
  166   165   167   170     9 
  165   167   168   169     9 
  170   167   168   169     9 
  165   167   170   171     9 
  165   167   170   172     9 
  168   167   170   171     9 
  168   167   170   172     9 
  167   170   172   162     9 
  167   170   172   173     9 
  171   170   172   162     9 
  171   170   172   173     9 
  157   174   176   177     9 
  157   174   176   178     9 
  175   174   176   177     9 
  175   174   176   178     9 
  174   176   178   179     9 
  174   176   178   180     9 
  174   176   178   198     9 
  177   176   178   179     9 
  177   176   178   180     9 
  177   176   178   198     9 
  176   178   180   181     9 
  176   178   180   182     9 
  176   178   180   183     9 
  179   178   180   181     9 
  179   178   180   182     9 
  179   178   180   183     9 
  198   178   180   181     9 
  198   178   180   182     9 
  198   178   180   183     9 
  176   178   198   199     9 
  176   178   198   200     9 
  179   178   198   199     9 
  179   178   198   200     9 
  180   178   198   199     9 
  180   178   198   200     9 
  178   180   183   184     9 
  178   180   183   185     9 
  178   180   183   186     9 
  181   180   183   184     9 
  181   180   183   185     9 
  181   180   183   186     9 
  182   180   183   184     9 
  182   180   183   185     9 
  182   180   183   186     9 
  180   183   186   187     9 
  180   183   186   188     9 
  180   183   186   189     9 
  184   183   186   187     9 
  184   183   186   188     9 
  184   183   186   189     9 
  185   183   186   187     9 
  185   183   186   188     9 
  185   183   186   189     9 
  183   186   189   190     9 
  183   186   189   191     9 
  187   186   189   190     9 
  187   186   189   191     9 
  188   186   189   190     9 
  188   186   189   191     9 
  186   189   191   192     9 
  186   189   191   195     9 
  190   189   191   192     9 
  190   189   191   195     9 
  189   191   192   193     9 
  189   191   192   194     9 
  195   191   192   193     9 
  195   191   192   194     9 
  189   191   195   196     9 
  189   191   195   197     9 
  192   191   195   196     9 
  192   191   195   197     9 
  178   198   200   201     9 
  178   198   200   202     9 
  199   198   200   201     9 
  199   198   200   202     9 
  198   200   202   203     9 
  198   200   202   204     9 
  198   200   202   205     9 
  201   200   202   203     9 
  201   200   202   204     9 
  201   200   202   205     9 
  200   202   205   206     9 
  200   202   205   207     9 
  203   202   205   206     9 
  203   202   205   207     9 
  204   202   205   206     9 
  204   202   205   207     9 
  202   205   207   208     9 
  202   205   207   209     9 
  206   205   207   208     9 
  206   205   207   209     9 
  205   207   209   210     9 
  205   207   209   211     9 
  205   207   209   225     9 
  208   207   209   210     9 
  208   207   209   211     9 
  208   207   209   225     9 
  207   209   211   212     9 
  207   209   211   213     9 
  207   209   211   214     9 
  210   209   211   212     9 
  210   209   211   213     9 
  210   209   211   214     9 
  225   209   211   212     9 
  225   209   211   213     9 
  225   209   211   214     9 
  207   209   225   226     9 
  207   209   225   227     9 
  210   209   225   226     9 
  210   209   225   227     9 
  211   209   225   226     9 
  211   209   225   227     9 
  209   211   214   215     9 
  209   211   214   223     9 
  212   211   214   215     9 
  212   211   214   223     9 
  213   211   214   215     9 
  213   211   214   223     9 
  211   214   215   216     9 
  211   214   215   217     9 
  223   214   215   216     9 
  223   214   215   217     9 
  211   214   223   221     9 
  211   214   223   224     9 
  215   214   223   221     9 
  215   214   223   224     9 
  214   215   217   218     9 
  214   215   217   219     9 
  216   215   217   218     9 
  216   215   217   219     9 
  215   217   219   220     9 
  215   217   219   221     9 
  218   217   219   220     9 
  218   217   219   221     9 
  217   219   221   222     9 
  217   219   221   223     9 
  220   219   221   222     9 
  220   219   221   223     9 
  219   221   223   214     9 
  219   221   223   224     9 
  222   221   223   214     9 
  222   221   223   224     9 
  209   225   227   228     9 
  209   225   227   229     9 
  226   225   227   228     9 
  226   225   227   229     9 
  225   227   229   230     9 
  225   227   229   231     9 
  225   227   229   235     9 
  228   227   229   230     9 
  228   227   229   231     9 
  228   227   229   235     9 
  227   229   231   232     9 
  227   229   231   233     9 
  227   229   231   234     9 
  230   229   231   232     9 
  230   229   231   233     9 
  230   229   231   234     9 
  235   229   231   232     9 
  235   229   231   233     9 
  235   229   231   234     9 
  227   229   235   236     9 
  227   229   235   237     9 
  230   229   235   236     9 
  230   229   235   237     9 
  231   229   235   236     9 
  231   229   235   237     9 
  229   231   234   152     9 
  232   231   234   152     9 
  233   231   234   152     9 
  229   235   237   238     9 
  229   235   237   239     9 
  236   235   237   238     9 
  236   235   237   239     9 
  235   237   239   240     9 
  235   237   239   241     9 
  235   237   239   256     9 
  238   237   239   240     9 
  238   237   239   241     9 
  238   237   239   256     9 
  237   239   241   242     9 
  237   239   241   243     9 
  237   239   241   244     9 
  240   239   241   242     9 
  240   239   241   243     9 
  240   239   241   244     9 
  256   239   241   242     9 
  256   239   241   243     9 
  256   239   241   244     9 
  237   239   256   257     9 
  237   239   256   258     9 
  240   239   256   257     9 
  240   239   256   258     9 
  241   239   256   257     9 
  241   239   256   258     9 
  239   241   244   245     9 
  239   241   244   254     9 
  242   241   244   245     9 
  242   241   244   254     9 
  243   241   244   245     9 
  243   241   244   254     9 
  241   244   245   246     9 
  241   244   245   247     9 
  254   244   245   246     9 
  254   244   245   247     9 
  241   244   254   252     9 
  241   244   254   255     9 
  245   244   254   252     9 
  245   244   254   255     9 
  244   245   247   248     9 
  244   245   247   249     9 
  246   245   247   248     9 
  246   245   247   249     9 
  245   247   249   250     9 
  245   247   249   252     9 
  248   247   249   250     9 
  248   247   249   252     9 
  247   249   250   251     9 
  252   249   250   251     9 
  247   249   252   253     9 
  247   249   252   254     9 
  250   249   252   253     9 
  250   249   252   254     9 
  249   252   254   244     9 
  249   252   254   255     9 
  253   252   254   244     9 
  253   252   254   255     9 
  239   256   258   259     9 
  239   256   258   260     9 
  257   256   258   259     9 
  257   256   258   260     9 
  256   258   260   261     9 
  256   258   260   262     9 
  256   258   260   280     9 
  259   258   260   261     9 
  259   258   260   262     9 
  259   258   260   280     9 
  258   260   262   263     9 
  258   260   262   264     9 
  258   260   262   265     9 
  261   260   262   263     9 
  261   260   262   264     9 
  261   260   262   265     9 
  280   260   262   263     9 
  280   260   262   264     9 
  280   260   262   265     9 
  258   260   280   281     9 
  258   260   280   282     9 
  261   260   280   281     9 
  261   260   280   282     9 
  262   260   280   281     9 
  262   260   280   282     9 
  260   262   265   266     9 
  260   262   265   267     9 
  260   262   265   268     9 
  263   262   265   266     9 
  263   262   265   267     9 
  263   262   265   268     9 
  264   262   265   266     9 
  264   262   265   267     9 
  264   262   265   268     9 
  262   265   268   269     9 
  262   265   268   270     9 
  262   265   268   271     9 
  266   265   268   269     9 
  266   265   268   270     9 
  266   265   268   271     9 
  267   265   268   269     9 
  267   265   268   270     9 
  267   265   268   271     9 
  265   268   271   272     9 
  265   268   271   273     9 
  269   268   271   272     9 
  269   268   271   273     9 
  270   268   271   272     9 
  270   268   271   273     9 
  268   271   273   274     9 
  268   271   273   277     9 
  272   271   273   274     9 
  272   271   273   277     9 
  271   273   274   275     9 
  271   273   274   276     9 
  277   273   274   275     9 
  277   273   274   276     9 
  271   273   277   278     9 
  271   273   277   279     9 
  274   273   277   278     9 
  274   273   277   279     9 
  260   280   282   283     9 
  260   280   282   284     9 
  281   280   282   283     9 
  281   280   282   284     9 
  280   282   284   285     9 
  280   282   284   286     9 
  280   282   284   302     9 
  283   282   284   285     9 
  283   282   284   286     9 
  283   282   284   302     9 
  282   284   286   287     9 
  282   284   286   288     9 
  282   284   286   289     9 
  285   284   286   287     9 
  285   284   286   288     9 
  285   284   286   289     9 
  302   284   286   287     9 
  302   284   286   288     9 
  302   284   286   289     9 
  282   284   302   303     9 
  282   284   302   304     9 
  285   284   302   303     9 
  285   284   302   304     9 
  286   284   302   303     9 
  286   284   302   304     9 
  284   286   289   290     9 
  284   286   289   291     9 
  284   286   289   292     9 
  287   286   289   290     9 
  287   286   289   291     9 
  287   286   289   292     9 
  288   286   289   290     9 
  288   286   289   291     9 
  288   286   289   292     9 
  286   289   292   293     9 
  286   289   292   294     9 
  286   289   292   295     9 
  290   289   292   293     9 
  290   289   292   294     9 
  290   289   292   295     9 
  291   289   292   293     9 
  291   289   292   294     9 
  291   289   292   295     9 
  289   292   295   296     9 
  289   292   295   297     9 
  289   292   295   298     9 
  293   292   295   296     9 
  293   292   295   297     9 
  293   292   295   298     9 
  294   292   295   296     9 
  294   292   295   297     9 
  294   292   295   298     9 
  292   295   298   299     9 
  292   295   298   300     9 
  292   295   298   301     9 
  296   295   298   299     9 
  296   295   298   300     9 
  296   295   298   301     9 
  297   295   298   299     9 
  297   295   298   300     9 
  297   295   298   301     9 
  284   302   304   305     9 
  284   302   304   306     9 
  303   302   304   305     9 
  303   302   304   306     9 
  302   304   306   307     9 
  302   304   306   308     9 
  302   304   306   312     9 
  305   304   306   307     9 
  305   304   306   308     9 
  305   304   306   312     9 
  304   306   308   309     9 
  304   306   308   310     9 
  304   306   308   311     9 
  307   306   308   309     9 
  307   306   308   310     9 
  307   306   308   311     9 
  312   306   308   309     9 
  312   306   308   310     9 
  312   306   308   311     9 
  304   306   312   313     9 
  304   306   312   314     9 
  307   306   312   313     9 
  307   306   312   314     9 
  308   306   312   313     9 
  308   306   312   314     9 
  306   308   311    82     9 
  309   308   311    82     9 
  310   308   311    82     9 
  306   312   314   315     9 
  306   312   314   316     9 
  313   312   314   315     9 
  313   312   314   316     9 
  312   314   316   317     9 
  312   314   316   318     9 
  312   314   316   336     9 
  315   314   316   317     9 
  315   314   316   318     9 
  315   314   316   336     9 
  314   316   318   319     9 
  314   316   318   320     9 
  314   316   318   321     9 
  317   316   318   319     9 
  317   316   318   320     9 
  317   316   318   321     9 
  336   316   318   319     9 
  336   316   318   320     9 
  336   316   318   321     9 
  314   316   336   337     9 
  314   316   336   338     9 
  317   316   336   337     9 
  317   316   336   338     9 
  318   316   336   337     9 
  318   316   336   338     9 
  316   318   321   322     9 
  316   318   321   323     9 
  316   318   321   324     9 
  319   318   321   322     9 
  319   318   321   323     9 
  319   318   321   324     9 
  320   318   321   322     9 
  320   318   321   323     9 
  320   318   321   324     9 
  318   321   324   325     9 
  318   321   324   326     9 
  318   321   324   327     9 
  322   321   324   325     9 
  322   321   324   326     9 
  322   321   324   327     9 
  323   321   324   325     9 
  323   321   324   326     9 
  323   321   324   327     9 
  321   324   327   328     9 
  321   324   327   329     9 
  325   324   327   328     9 
  325   324   327   329     9 
  326   324   327   328     9 
  326   324   327   329     9 
  324   327   329   330     9 
  324   327   329   333     9 
  328   327   329   330     9 
  328   327   329   333     9 
  327   329   330   331     9 
  327   329   330   332     9 
  333   329   330   331     9 
  333   329   330   332     9 
  327   329   333   334     9 
  327   329   333   335     9 
  330   329   333   334     9 
  330   329   333   335     9 
  316   336   338   339     9 
  316   336   338   340     9 
  337   336   338   339     9 
  337   336   338   340     9 

[ dihedrals ]
;  ai    aj    ak    al funct            c0            c1            c2            c3
    5    27    25    26     4 
   13    18    16    17     4 
   16    19    18    22     4 
   18    20    19    21     4 
   18    23    22    24     4 
   25    29    27    28     4 
   29    51    49    50     4 
   37    42    40    41     4 
   40    43    42    46     4 
   42    44    43    45     4 
   42    47    46    48     4 
   49    53    51    52     4 
   53    75    73    74     4 
   58    61    59    60     4 
   59    63    61    62     4 
   59    58    55    72     4 
   63    66    64    65     4 
   64    68    66    67     4 
   66    70    68    69     4 
   68    72    70    71     4 
   73    77    75    76     4 
   77    85    83    84     4 
   83    87    85    86     4 
   87   105   103   104     4 
   89    92   101    93     4 
   92    95    93    94     4 
   92    99   101   102     4 
   93    97    95    96     4 
   95    99    97    98     4 
   97   101    99   100     4 
  103   107   105   106     4 
  107   129   127   128     4 
  115   120   118   119     4 
  118   121   120   124     4 
  120   122   121   123     4 
  120   125   124   126     4 
  127   131   129   130     4 
  131   145   143   144     4 
  143   147   145   146     4 
  147   155   153   154     4 
  153   157   155   156     4 
  157   176   174   175     4 
  159   162   172   163     4 
  162   165   163   164     4 
  162   170   172   173     4 
  163   167   165   166     4 
  165   170   167   168     4 
  167   172   170   171     4 
  174   178   176   177     4 
  178   200   198   199     4 
  186   191   189   190     4 
  189   192   191   195     4 
  191   193   192   194     4 
  191   196   195   197     4 
  198   202   200   201     4 
  202   207   205   206     4 
  205   209   207   208     4 
  209   227   225   226     4 
  211   214   223   215     4 
  214   217   215   216     4 
  214   221   223   224     4 
  215   219   217   218     4 
  217   221   219   220     4 
  219   223   221   222     4 
  225   229   227   228     4 
  229   237   235   236     4 
  235   239   237   238     4 
  239   258   256   257     4 
  241   244   254   245     4 
  244   247   245   246     4 
  244   252   254   255     4 
  245   249   247   248     4 
  247   252   249   250     4 
  249   254   252   253     4 
  256   260   258   259     4 
  260   282   280   281     4 
  268   273   271   272     4 
  271   274   273   277     4 
  273   275   274   276     4 
  273   278   277   279     4 
  280   284   282   283     4 
  284   304   302   303     4 
  302   306   304   305     4 
  306   314   312   313     4 
  312   316   314   315     4 
  316   338   336   337     4 
  324   329   327   328     4 
  327   330   329   333     4 
  329   331   330   332     4 
  329   334   333   335     4 
  336   339   338   340     4 

; Include Position restraint file
#ifdef POSRES
#include "posre.itp"
#endif

; Include water topology
#include "amber99sb-ildn.ff/tip3p.itp"

#ifdef POSRES_WATER
; Position restraint for each water oxygen
[ position_restraints ]
;  i funct       fcx        fcy        fcz
   1    1       1000       1000       1000
#endif

; Include topology for ions
#include "amber99sb-ildn.ff/ions.itp"

[ system ]
; Name
POLYPHEMUSIN I in water

[ molecules ]
; Compound        #mols
Protein_chain_A     1
SOL         760
CL               8
