;----------------------------TITLE -----------------------------------------------------------------------------------------
;   Paracetamol
[ moleculetype ]
; Name   nrexcl
VMLF     3
[ atoms ]
;  nr  type  resnr  resid  atom  cgnr  charge    mass
    1  HS14    1    VMLF     H9    1    0.433   1.0080
    2  OAlc    1    VMLF     O2    2   -0.596  15.9994
    3  CAro    1    VMLF     C6    3    0.354  12.0110
    4  CAro    1    VMLF     C5    4   -0.287  12.0110
    5  HCAr    1    VMLF     H6    5    0.196   1.0080
    6  CAro    1    VMLF     C4    6   -0.284  12.0110
    7  HCAr    1    VMLF     H5    7    0.205   1.0080
    8  CAro    1    VMLF     C3    8    0.357  12.0110
    9  CAro    1    VMLF     C8    9   -0.284  12.0110
   10  HCAr    1    VMLF     H8   10    0.205   1.0080
   11  CAro    1    VMLF     C7   11   -0.287  12.0110
   12  HCAr    1    VMLF     H7   12    0.196   1.0080
   13     N    1    VMLF     N1   13   -0.663  14.0067
   14  HS14    1    VMLF     H4   14    0.363   1.0080
   15  COpt    1    VMLF     C2   15    0.850  12.0110
   16  OOpt    1    VMLF     O1   16   -0.660  15.9994
   17  C_H3    1    VMLF     C1   17   -0.674  12.0110
   18  HCH3    1    VMLF     H1   18    0.192   1.0080
   19  HCH3    1    VMLF     H2   19    0.192   1.0080
   20  HCH3    1    VMLF     H3   20    0.192   1.0080
; total charge of the molecule:  -0.000
[ bonds ]
;  ai   aj  funct   c0         c1
    1    2    2   0.0972   1.9581e+07
    2    3    2   0.1380   1.1000e+07
    3    4    2   0.1390   8.6600e+06
    3   11    2   0.1390   8.6600e+06
    4    5    2   0.1090   1.2300e+07
    4    6    2   0.1390   8.6600e+06
    6    7    2   0.1090   1.2300e+07
    6    8    2   0.1390   8.6600e+06
    8    9    2   0.1390   8.6600e+06
    8   13    2   0.1420   3.2236e+06
    9   10    2   0.1090   1.2300e+07
    9   11    2   0.1390   8.6600e+06
   11   12    2   0.1090   1.2300e+07
   13   14    2   0.1010   2.1076e+07
   13   15    2   0.1360   1.0200e+07
   15   16    2   0.1230   1.6600e+07
   15   17    2   0.1520   5.4300e+06
   17   18    2   0.1090   1.2300e+07
   17   19    2   0.1090   1.2300e+07
   17   20    2   0.1090   1.2300e+07
[ pairs ]
;  ai   aj  funct  ;  all 1-4 pairs but the ones excluded in GROMOS itp
    1    4    1
    1   11    1
    2    5    1
    2    6    1
    2    9    1
    2   12    1
    3    7    1
    3   10    1
    4   12    1
    4   13    1
    5    8    1
    5   11    1
    6   10    1
    6   14    1
    6   15    1
    7    9    1
    7   13    1
    8   12    1
    8   16    1
    8   17    1
    9   14    1
    9   15    1
   10   13    1
   11   13    1
   13   18    1
   13   19    1
   13   20    1
   14   16    1
   14   17    1
   16   18    1
   16   19    1
   16   20    1
[ angles ]
;  ai   aj   ak  funct   angle     fc
    1    2    3    2    109.50   450.00
    2    3    4    2    117.00   635.00
    2    3   11    2    117.00   635.00
    4    3   11    2    120.00   560.00
    3    4    5    2    120.00   505.00
    3    4    6    2    120.00   560.00
    5    4    6    2    120.00   505.00
    4    6    7    2    120.00   505.00
    4    6    8    2    120.00   560.00
    7    6    8    2    120.00   505.00
    6    8    9    2    120.00   560.00
    6    8   13    2    126.00   640.00
    9    8   13    2    126.00   640.00
    8    9   10    2    120.00   505.00
    8    9   11    2    120.00   560.00
   10    9   11    2    120.00   505.00
    3   11    9    2    120.00   560.00
    3   11   12    2    120.00   505.00
    9   11   12    2    120.00   505.00
    8   13   14    2    115.00   460.00
    8   13   15    2    130.00  3398.91
   14   13   15    2    116.00   465.00
   13   15   16    2    124.00   730.00
   13   15   17    2    115.00   610.00
   16   15   17    2    121.00   685.00
   15   17   18    2    108.53   443.00
   15   17   19    2    108.53   443.00
   15   17   20    2    108.53   443.00
   18   17   19    2    108.53   443.00
   18   17   20    2    108.53   443.00
   19   17   20    2    108.53   443.00
[ dihedrals ]
; GROMOS improper dihedrals
;  ai   aj   ak   al  funct   angle     fc
   15   13   16   17    2      0.00   167.36
   13    8   14   15    2      0.00   167.36
    8    6    9   13    2      0.00   167.36
    6    4    7    8    2      0.00   167.36
    4    3    5    6    2      0.00   167.36
    3    2    4   11    2      0.00   167.36
   11    3    9   12    2      0.00   167.36
    9    8   10   11    2      0.00   167.36
[ dihedrals ]
;  ai   aj   ak   al  funct    ph0      cp     mult
    1    2    3    4    1    180.00    16.70    2
    1    2    3    4    1    180.00     7.11    2
    3    4    6    8    1    180.00    50.00    1
    4    3   11    9    1    180.00    50.00    1
    4    6    8    9    1    180.00    50.00    1
    6    8    9   11    1    180.00    50.00    1
    6    8   13   15    1    180.00    33.50    2
    8    9   11    3    1    180.00    50.00    1
    8   13   15   17    1    180.00    33.50    2
   11    3    4    6    1    180.00    50.00    1
   16   15   17   18    1      0.00     1.00    6
[ exclusions ]
;  ai   aj  funct  ;  GROMOS 1-4 exclusions
    3    8
    4    9
    5    7
    6   11
   10   12
