;----------------------------TITLE -----------------------------------------------------------------------------------------
;   Benzene
[ moleculetype ]
; Name   nrexcl
Q37H     3
[ atoms ]
;  nr  type  resnr  resid  atom  cgnr  charge    mass
    1  HCAr    1    Q37H     H6    1    0.141   1.0080
    2  CAro    1    Q37H     C6    2   -0.141  12.0110
    3  CAro    1    Q37H     C1    3   -0.141  12.0110
    4  HCAr    1    Q37H     H1    4    0.141   1.0080
    5  CAro    1    Q37H     C2    5   -0.141  12.0110
    6  HCAr    1    Q37H     H2    6    0.141   1.0080
    7  CAro    1    Q37H     C3    7   -0.141  12.0110
    8  HCAr    1    Q37H     H3    8    0.141   1.0080
    9  CAro    1    Q37H     C4    9   -0.141  12.0110
   10  HCAr    1    Q37H     H4   10    0.141   1.0080
   11  CAro    1    Q37H     C5   11   -0.141  12.0110
   12  HCAr    1    Q37H     H5   12    0.141   1.0080
; total charge of the molecule:   0.000
[ bonds ]
;  ai   aj  funct   c0         c1
    1    2    2   0.1090   1.2300e+07
    2    3    2   0.1390   8.6600e+06
    2   11    2   0.1390   8.6600e+06
    3    4    2   0.1090   1.2300e+07
    3    5    2   0.1390   8.6600e+06
    5    6    2   0.1090   1.2300e+07
    5    7    2   0.1390   8.6600e+06
    7    8    2   0.1090   1.2300e+07
    7    9    2   0.1390   8.6600e+06
    9   10    2   0.1090   1.2300e+07
    9   11    2   0.1390   8.6600e+06
   11   12    2   0.1090   1.2300e+07
[ pairs ]
;  ai   aj  funct  ;  all 1-4 pairs but the ones excluded in GROMOS itp
    1    5    1
    1    9    1
    2    6    1
    2   10    1
    3    8    1
    3   12    1
    4    7    1
    4   11    1
    5   10    1
    6    9    1
    7   12    1
    8   11    1
[ angles ]
;  ai   aj   ak  funct   angle     fc
    1    2    3    2    120.00   505.00
    1    2   11    2    120.00   505.00
    3    2   11    2    120.00   560.00
    2    3    4    2    120.00   505.00
    2    3    5    2    120.00   560.00
    4    3    5    2    120.00   505.00
    3    5    6    2    120.00   505.00
    3    5    7    2    120.00   560.00
    6    5    7    2    120.00   505.00
    5    7    8    2    120.00   505.00
    5    7    9    2    120.00   560.00
    8    7    9    2    120.00   505.00
    7    9   10    2    120.00   505.00
    7    9   11    2    120.00   560.00
   10    9   11    2    120.00   505.00
    2   11    9    2    120.00   560.00
    2   11   12    2    120.00   505.00
    9   11   12    2    120.00   505.00
[ dihedrals ]
; GROMOS improper dihedrals
;  ai   aj   ak   al  funct   angle     fc
    3    2    4    5    2      0.00   167.36
    5    3    6    7    2      0.00   167.36
    7    5    8    9    2      0.00   167.36
    9    7   10   11    2      0.00   167.36
   11    2    9   12    2      0.00   167.36
    2    1    3   11    2      0.00   167.36
[ dihedrals ]
;  ai   aj   ak   al  funct    ph0      cp     mult
    2   11    9    7    1    180.00    50.00    1
    2    3    5    7    1    180.00    50.00    1
    3    2   11    9    1    180.00    50.00    1
    3    5    7    9    1    180.00    50.00    1
    5    3    2   11    1    180.00    50.00    1
    5    7    9   11    1    180.00    50.00    1
[ exclusions ]
;  ai   aj  funct  ;  GROMOS 1-4 exclusions
    1    4
    1   12
    2    7
    3    9
    4    6
    5   11
    6    8
    8   10
   10   12
