;
;	File 'topol_DNA_chain_C.itp' was generated
;	By user: unknown (93529)
;	On host: chas009
;	At date: Fri Feb 27 10:57:00 2026
;
;	This is a include topology file
;
;	Created by:
;	              :-) GROMACS - gmx pdb2gmx, 2021.4-plumed-2.8.0 (-:
;	
;	Executable:   /home/apps/centos7/gromacs/2021.4/gcc9.1_ompi4.1.2/bin/gmx_mpi
;	Data prefix:  /home/apps/centos7/gromacs/2021.4/gcc9.1_ompi4.1.2
;	Working dir:  /scratch/mse/phd/msz208502/dev_gromacs/10_dsDNA
;	Command line:
;	  gmx_mpi pdb2gmx -f clean.pdb -o processed.gro -p topol.top -ter
;	Force field was read from the standard GROMACS share directory.
;

[ moleculetype ]
; Name            nrexcl
DNA_chain_C         3

[ atoms ]
;   nr       type  resnr residue  atom   cgnr     charge       mass  typeB    chargeB      massB
; residue  51 DT  rtp DT5  q -0.3
     1         OH     51     DT    O5'      1    -0.6318         16
     2         HO     51     DT    H5T      2     0.4422      1.008
     3         CT     51     DT    C5'      3    -0.0069      12.01
     4         H1     51     DT   H5'1      4     0.0754      1.008
     5         H1     51     DT   H5'2      5     0.0754      1.008
     6         CT     51     DT    C4'      6     0.1629      12.01
     7         H1     51     DT    H4'      7     0.1176      1.008
     8         OS     51     DT    O4'      8    -0.3691         16
     9         CT     51     DT    C1'      9      0.068      12.01
    10         H2     51     DT    H1'     10     0.1804      1.008
    11         N*     51     DT     N1     11    -0.0239      14.01
    12         CM     51     DT     C6     12    -0.2209      12.01
    13         H4     51     DT     H6     13     0.2607      1.008
    14         CM     51     DT     C5     14     0.0025      12.01
    15         CT     51     DT     C7     15    -0.2269      12.01
    16         HC     51     DT    H71     16      0.077      1.008
    17         HC     51     DT    H72     17      0.077      1.008
    18         HC     51     DT    H73     18      0.077      1.008
    19          C     51     DT     C4     19     0.5194      12.01
    20          O     51     DT     O4     20    -0.5563         16
    21         NA     51     DT     N3     21     -0.434      14.01
    22          H     51     DT     H3     22      0.342      1.008
    23          C     51     DT     C2     23     0.5677      12.01
    24          O     51     DT     O2     24    -0.5881         16
    25         CT     51     DT    C3'     25     0.0713      12.01
    26         H1     51     DT    H3'     26     0.0985      1.008
    27         CT     51     DT    C2'     27    -0.0854      12.01
    28         HC     51     DT   H2'1     28     0.0718      1.008
    29         HC     51     DT   H2'2     29     0.0718      1.008
    30         OS     51     DT    O3'     30    -0.5232         16   ; qtot -0.3079
; residue  52 DG  rtp DG   q -1.0
    31          P     52     DG      P     31     1.1659      30.97
    32         O2     52     DG    O1P     32    -0.7761         16
    33         O2     52     DG    O2P     33    -0.7761         16
    34         OS     52     DG    O5'     34    -0.4954         16
    35         CT     52     DG    C5'     35    -0.0069      12.01
    36         H1     52     DG   H5'1     36     0.0754      1.008
    37         H1     52     DG   H5'2     37     0.0754      1.008
    38         CT     52     DG    C4'     38     0.1629      12.01
    39         H1     52     DG    H4'     39     0.1176      1.008
    40         OS     52     DG    O4'     40    -0.3691         16
    41         CT     52     DG    C1'     41     0.0358      12.01
    42         H2     52     DG    H1'     42     0.1746      1.008
    43         N*     52     DG     N9     43     0.0577      14.01
    44         CK     52     DG     C8     44     0.0736      12.01
    45         H5     52     DG     H8     45     0.1997      1.008
    46         NB     52     DG     N7     46    -0.5725      14.01
    47         CB     52     DG     C5     47     0.1991      12.01
    48          C     52     DG     C6     48     0.4918      12.01
    49          O     52     DG     O6     49    -0.5699         16
    50         NA     52     DG     N1     50    -0.5053      14.01
    51          H     52     DG     H1     51      0.352      1.008
    52         CA     52     DG     C2     52     0.7432      12.01
    53         N2     52     DG     N2     53     -0.923      14.01
    54          H     52     DG    H21     54     0.4235      1.008
    55          H     52     DG    H22     55     0.4235      1.008
    56         NC     52     DG     N3     56    -0.6636      14.01
    57         CB     52     DG     C4     57     0.1814      12.01
    58         CT     52     DG    C3'     58     0.0713      12.01
    59         H1     52     DG    H3'     59     0.0985      1.008
    60         CT     52     DG    C2'     60    -0.0854      12.01
    61         HC     52     DG   H2'1     61     0.0718      1.008
    62         HC     52     DG   H2'2     62     0.0718      1.008
    63         OS     52     DG    O3'     63    -0.5232         16   ; qtot -1.308
; residue  53 DG  rtp DG   q -1.0
    64          P     53     DG      P     64     1.1659      30.97
    65         O2     53     DG    O1P     65    -0.7761         16
    66         O2     53     DG    O2P     66    -0.7761         16
    67         OS     53     DG    O5'     67    -0.4954         16
    68         CT     53     DG    C5'     68    -0.0069      12.01
    69         H1     53     DG   H5'1     69     0.0754      1.008
    70         H1     53     DG   H5'2     70     0.0754      1.008
    71         CT     53     DG    C4'     71     0.1629      12.01
    72         H1     53     DG    H4'     72     0.1176      1.008
    73         OS     53     DG    O4'     73    -0.3691         16
    74         CT     53     DG    C1'     74     0.0358      12.01
    75         H2     53     DG    H1'     75     0.1746      1.008
    76         N*     53     DG     N9     76     0.0577      14.01
    77         CK     53     DG     C8     77     0.0736      12.01
    78         H5     53     DG     H8     78     0.1997      1.008
    79         NB     53     DG     N7     79    -0.5725      14.01
    80         CB     53     DG     C5     80     0.1991      12.01
    81          C     53     DG     C6     81     0.4918      12.01
    82          O     53     DG     O6     82    -0.5699         16
    83         NA     53     DG     N1     83    -0.5053      14.01
    84          H     53     DG     H1     84      0.352      1.008
    85         CA     53     DG     C2     85     0.7432      12.01
    86         N2     53     DG     N2     86     -0.923      14.01
    87          H     53     DG    H21     87     0.4235      1.008
    88          H     53     DG    H22     88     0.4235      1.008
    89         NC     53     DG     N3     89    -0.6636      14.01
    90         CB     53     DG     C4     90     0.1814      12.01
    91         CT     53     DG    C3'     91     0.0713      12.01
    92         H1     53     DG    H3'     92     0.0985      1.008
    93         CT     53     DG    C2'     93    -0.0854      12.01
    94         HC     53     DG   H2'1     94     0.0718      1.008
    95         HC     53     DG   H2'2     95     0.0718      1.008
    96         OS     53     DG    O3'     96    -0.5232         16   ; qtot -2.308
; residue  54 DT  rtp DT   q -1.0
    97          P     54     DT      P     97     1.1659      30.97
    98         O2     54     DT    O1P     98    -0.7761         16
    99         O2     54     DT    O2P     99    -0.7761         16
   100         OS     54     DT    O5'    100    -0.4954         16
   101         CT     54     DT    C5'    101    -0.0069      12.01
   102         H1     54     DT   H5'1    102     0.0754      1.008
   103         H1     54     DT   H5'2    103     0.0754      1.008
   104         CT     54     DT    C4'    104     0.1629      12.01
   105         H1     54     DT    H4'    105     0.1176      1.008
   106         OS     54     DT    O4'    106    -0.3691         16
   107         CT     54     DT    C1'    107      0.068      12.01
   108         H2     54     DT    H1'    108     0.1804      1.008
   109         N*     54     DT     N1    109    -0.0239      14.01
   110         CM     54     DT     C6    110    -0.2209      12.01
   111         H4     54     DT     H6    111     0.2607      1.008
   112         CM     54     DT     C5    112     0.0025      12.01
   113         CT     54     DT     C7    113    -0.2269      12.01
   114         HC     54     DT    H71    114      0.077      1.008
   115         HC     54     DT    H72    115      0.077      1.008
   116         HC     54     DT    H73    116      0.077      1.008
   117          C     54     DT     C4    117     0.5194      12.01
   118          O     54     DT     O4    118    -0.5563         16
   119         NA     54     DT     N3    119     -0.434      14.01
   120          H     54     DT     H3    120      0.342      1.008
   121          C     54     DT     C2    121     0.5677      12.01
   122          O     54     DT     O2    122    -0.5881         16
   123         CT     54     DT    C3'    123     0.0713      12.01
   124         H1     54     DT    H3'    124     0.0985      1.008
   125         CT     54     DT    C2'    125    -0.0854      12.01
   126         HC     54     DT   H2'1    126     0.0718      1.008
   127         HC     54     DT   H2'2    127     0.0718      1.008
   128         OS     54     DT    O3'    128    -0.5232         16   ; qtot -3.308
; residue  55 DC  rtp DC   q -1.0
   129          P     55     DC      P    129     1.1659      30.97
   130         O2     55     DC    O1P    130    -0.7761         16
   131         O2     55     DC    O2P    131    -0.7761         16
   132         OS     55     DC    O5'    132    -0.4954         16
   133         CT     55     DC    C5'    133    -0.0069      12.01
   134         H1     55     DC   H5'1    134     0.0754      1.008
   135         H1     55     DC   H5'2    135     0.0754      1.008
   136         CT     55     DC    C4'    136     0.1629      12.01
   137         H1     55     DC    H4'    137     0.1176      1.008
   138         OS     55     DC    O4'    138    -0.3691         16
   139         CT     55     DC    C1'    139    -0.0116      12.01
   140         H2     55     DC    H1'    140     0.1963      1.008
   141         N*     55     DC     N1    141    -0.0339      14.01
   142         CM     55     DC     C6    142    -0.0183      12.01
   143         H4     55     DC     H6    143     0.2293      1.008
   144         CM     55     DC     C5    144    -0.5222      12.01
   145         HA     55     DC     H5    145     0.1863      1.008
   146         CA     55     DC     C4    146     0.8439      12.01
   147         N2     55     DC     N4    147    -0.9773      14.01
   148          H     55     DC    H41    148     0.4314      1.008
   149          H     55     DC    H42    149     0.4314      1.008
   150         NC     55     DC     N3    150    -0.7748      14.01
   151          C     55     DC     C2    151     0.7959      12.01
   152          O     55     DC     O2    152    -0.6548         16
   153         CT     55     DC    C3'    153     0.0713      12.01
   154         H1     55     DC    H3'    154     0.0985      1.008
   155         CT     55     DC    C2'    155    -0.0854      12.01
   156         HC     55     DC   H2'1    156     0.0718      1.008
   157         HC     55     DC   H2'2    157     0.0718      1.008
   158         OS     55     DC    O3'    158    -0.5232         16   ; qtot -4.308
; residue  56 DC  rtp DC   q -1.0
   159          P     56     DC      P    159     1.1659      30.97
   160         O2     56     DC    O1P    160    -0.7761         16
   161         O2     56     DC    O2P    161    -0.7761         16
   162         OS     56     DC    O5'    162    -0.4954         16
   163         CT     56     DC    C5'    163    -0.0069      12.01
   164         H1     56     DC   H5'1    164     0.0754      1.008
   165         H1     56     DC   H5'2    165     0.0754      1.008
   166         CT     56     DC    C4'    166     0.1629      12.01
   167         H1     56     DC    H4'    167     0.1176      1.008
   168         OS     56     DC    O4'    168    -0.3691         16
   169         CT     56     DC    C1'    169    -0.0116      12.01
   170         H2     56     DC    H1'    170     0.1963      1.008
   171         N*     56     DC     N1    171    -0.0339      14.01
   172         CM     56     DC     C6    172    -0.0183      12.01
   173         H4     56     DC     H6    173     0.2293      1.008
   174         CM     56     DC     C5    174    -0.5222      12.01
   175         HA     56     DC     H5    175     0.1863      1.008
   176         CA     56     DC     C4    176     0.8439      12.01
   177         N2     56     DC     N4    177    -0.9773      14.01
   178          H     56     DC    H41    178     0.4314      1.008
   179          H     56     DC    H42    179     0.4314      1.008
   180         NC     56     DC     N3    180    -0.7748      14.01
   181          C     56     DC     C2    181     0.7959      12.01
   182          O     56     DC     O2    182    -0.6548         16
   183         CT     56     DC    C3'    183     0.0713      12.01
   184         H1     56     DC    H3'    184     0.0985      1.008
   185         CT     56     DC    C2'    185    -0.0854      12.01
   186         HC     56     DC   H2'1    186     0.0718      1.008
   187         HC     56     DC   H2'2    187     0.0718      1.008
   188         OS     56     DC    O3'    188    -0.5232         16   ; qtot -5.308
; residue  57 DC  rtp DC   q -1.0
   189          P     57     DC      P    189     1.1659      30.97
   190         O2     57     DC    O1P    190    -0.7761         16
   191         O2     57     DC    O2P    191    -0.7761         16
   192         OS     57     DC    O5'    192    -0.4954         16
   193         CT     57     DC    C5'    193    -0.0069      12.01
   194         H1     57     DC   H5'1    194     0.0754      1.008
   195         H1     57     DC   H5'2    195     0.0754      1.008
   196         CT     57     DC    C4'    196     0.1629      12.01
   197         H1     57     DC    H4'    197     0.1176      1.008
   198         OS     57     DC    O4'    198    -0.3691         16
   199         CT     57     DC    C1'    199    -0.0116      12.01
   200         H2     57     DC    H1'    200     0.1963      1.008
   201         N*     57     DC     N1    201    -0.0339      14.01
   202         CM     57     DC     C6    202    -0.0183      12.01
   203         H4     57     DC     H6    203     0.2293      1.008
   204         CM     57     DC     C5    204    -0.5222      12.01
   205         HA     57     DC     H5    205     0.1863      1.008
   206         CA     57     DC     C4    206     0.8439      12.01
   207         N2     57     DC     N4    207    -0.9773      14.01
   208          H     57     DC    H41    208     0.4314      1.008
   209          H     57     DC    H42    209     0.4314      1.008
   210         NC     57     DC     N3    210    -0.7748      14.01
   211          C     57     DC     C2    211     0.7959      12.01
   212          O     57     DC     O2    212    -0.6548         16
   213         CT     57     DC    C3'    213     0.0713      12.01
   214         H1     57     DC    H3'    214     0.0985      1.008
   215         CT     57     DC    C2'    215    -0.0854      12.01
   216         HC     57     DC   H2'1    216     0.0718      1.008
   217         HC     57     DC   H2'2    217     0.0718      1.008
   218         OS     57     DC    O3'    218    -0.5232         16   ; qtot -6.308
; residue  58 DA  rtp DA   q -1.0
   219          P     58     DA      P    219     1.1659      30.97
   220         O2     58     DA    O1P    220    -0.7761         16
   221         O2     58     DA    O2P    221    -0.7761         16
   222         OS     58     DA    O5'    222    -0.4954         16
   223         CT     58     DA    C5'    223    -0.0069      12.01
   224         H1     58     DA   H5'1    224     0.0754      1.008
   225         H1     58     DA   H5'2    225     0.0754      1.008
   226         CT     58     DA    C4'    226     0.1629      12.01
   227         H1     58     DA    H4'    227     0.1176      1.008
   228         OS     58     DA    O4'    228    -0.3691         16
   229         CT     58     DA    C1'    229     0.0431      12.01
   230         H2     58     DA    H1'    230     0.1838      1.008
   231         N*     58     DA     N9    231    -0.0268      14.01
   232         CK     58     DA     C8    232     0.1607      12.01
   233         H5     58     DA     H8    233     0.1877      1.008
   234         NB     58     DA     N7    234    -0.6175      14.01
   235         CB     58     DA     C5    235     0.0725      12.01
   236         CA     58     DA     C6    236     0.6897      12.01
   237         N2     58     DA     N6    237    -0.9123      14.01
   238          H     58     DA    H61    238     0.4167      1.008
   239          H     58     DA    H62    239     0.4167      1.008
   240         NC     58     DA     N1    240    -0.7624      14.01
   241         CQ     58     DA     C2    241     0.5716      12.01
   242         H5     58     DA     H2    242     0.0598      1.008
   243         NC     58     DA     N3    243    -0.7417      14.01
   244         CB     58     DA     C4    244       0.38      12.01
   245         CT     58     DA    C3'    245     0.0713      12.01
   246         H1     58     DA    H3'    246     0.0985      1.008
   247         CT     58     DA    C2'    247    -0.0854      12.01
   248         HC     58     DA   H2'1    248     0.0718      1.008
   249         HC     58     DA   H2'2    249     0.0718      1.008
   250         OS     58     DA    O3'    250    -0.5232         16   ; qtot -7.308
; residue  59 DC  rtp DC   q -1.0
   251          P     59     DC      P    251     1.1659      30.97
   252         O2     59     DC    O1P    252    -0.7761         16
   253         O2     59     DC    O2P    253    -0.7761         16
   254         OS     59     DC    O5'    254    -0.4954         16
   255         CT     59     DC    C5'    255    -0.0069      12.01
   256         H1     59     DC   H5'1    256     0.0754      1.008
   257         H1     59     DC   H5'2    257     0.0754      1.008
   258         CT     59     DC    C4'    258     0.1629      12.01
   259         H1     59     DC    H4'    259     0.1176      1.008
   260         OS     59     DC    O4'    260    -0.3691         16
   261         CT     59     DC    C1'    261    -0.0116      12.01
   262         H2     59     DC    H1'    262     0.1963      1.008
   263         N*     59     DC     N1    263    -0.0339      14.01
   264         CM     59     DC     C6    264    -0.0183      12.01
   265         H4     59     DC     H6    265     0.2293      1.008
   266         CM     59     DC     C5    266    -0.5222      12.01
   267         HA     59     DC     H5    267     0.1863      1.008
   268         CA     59     DC     C4    268     0.8439      12.01
   269         N2     59     DC     N4    269    -0.9773      14.01
   270          H     59     DC    H41    270     0.4314      1.008
   271          H     59     DC    H42    271     0.4314      1.008
   272         NC     59     DC     N3    272    -0.7748      14.01
   273          C     59     DC     C2    273     0.7959      12.01
   274          O     59     DC     O2    274    -0.6548         16
   275         CT     59     DC    C3'    275     0.0713      12.01
   276         H1     59     DC    H3'    276     0.0985      1.008
   277         CT     59     DC    C2'    277    -0.0854      12.01
   278         HC     59     DC   H2'1    278     0.0718      1.008
   279         HC     59     DC   H2'2    279     0.0718      1.008
   280         OS     59     DC    O3'    280    -0.5232         16   ; qtot -8.308
; residue  60 DG  rtp DG   q -1.0
   281          P     60     DG      P    281     1.1659      30.97
   282         O2     60     DG    O1P    282    -0.7761         16
   283         O2     60     DG    O2P    283    -0.7761         16
   284         OS     60     DG    O5'    284    -0.4954         16
   285         CT     60     DG    C5'    285    -0.0069      12.01
   286         H1     60     DG   H5'1    286     0.0754      1.008
   287         H1     60     DG   H5'2    287     0.0754      1.008
   288         CT     60     DG    C4'    288     0.1629      12.01
   289         H1     60     DG    H4'    289     0.1176      1.008
   290         OS     60     DG    O4'    290    -0.3691         16
   291         CT     60     DG    C1'    291     0.0358      12.01
   292         H2     60     DG    H1'    292     0.1746      1.008
   293         N*     60     DG     N9    293     0.0577      14.01
   294         CK     60     DG     C8    294     0.0736      12.01
   295         H5     60     DG     H8    295     0.1997      1.008
   296         NB     60     DG     N7    296    -0.5725      14.01
   297         CB     60     DG     C5    297     0.1991      12.01
   298          C     60     DG     C6    298     0.4918      12.01
   299          O     60     DG     O6    299    -0.5699         16
   300         NA     60     DG     N1    300    -0.5053      14.01
   301          H     60     DG     H1    301      0.352      1.008
   302         CA     60     DG     C2    302     0.7432      12.01
   303         N2     60     DG     N2    303     -0.923      14.01
   304          H     60     DG    H21    304     0.4235      1.008
   305          H     60     DG    H22    305     0.4235      1.008
   306         NC     60     DG     N3    306    -0.6636      14.01
   307         CB     60     DG     C4    307     0.1814      12.01
   308         CT     60     DG    C3'    308     0.0713      12.01
   309         H1     60     DG    H3'    309     0.0985      1.008
   310         CT     60     DG    C2'    310    -0.0854      12.01
   311         HC     60     DG   H2'1    311     0.0718      1.008
   312         HC     60     DG   H2'2    312     0.0718      1.008
   313         OS     60     DG    O3'    313    -0.5232         16   ; qtot -9.308
; residue  61 DC  rtp DC3  q -0.7
   314          P     61     DC      P    314     1.1659      30.97
   315         O2     61     DC    O1P    315    -0.7761         16
   316         O2     61     DC    O2P    316    -0.7761         16
   317         OS     61     DC    O5'    317    -0.4954         16
   318         CT     61     DC    C5'    318    -0.0069      12.01
   319         H1     61     DC   H5'1    319     0.0754      1.008
   320         H1     61     DC   H5'2    320     0.0754      1.008
   321         CT     61     DC    C4'    321     0.1629      12.01
   322         H1     61     DC    H4'    322     0.1176      1.008
   323         OS     61     DC    O4'    323    -0.3691         16
   324         CT     61     DC    C1'    324    -0.0116      12.01
   325         H2     61     DC    H1'    325     0.1963      1.008
   326         N*     61     DC     N1    326    -0.0339      14.01
   327         CM     61     DC     C6    327    -0.0183      12.01
   328         H4     61     DC     H6    328     0.2293      1.008
   329         CM     61     DC     C5    329    -0.5222      12.01
   330         HA     61     DC     H5    330     0.1863      1.008
   331         CA     61     DC     C4    331     0.8439      12.01
   332         N2     61     DC     N4    332    -0.9773      14.01
   333          H     61     DC    H41    333     0.4314      1.008
   334          H     61     DC    H42    334     0.4314      1.008
   335         NC     61     DC     N3    335    -0.7748      14.01
   336          C     61     DC     C2    336     0.7959      12.01
   337          O     61     DC     O2    337    -0.6548         16
   338         CT     61     DC    C3'    338     0.0713      12.01
   339         H1     61     DC    H3'    339     0.0985      1.008
   340         CT     61     DC    C2'    340    -0.0854      12.01
   341         HC     61     DC   H2'1    341     0.0718      1.008
   342         HC     61     DC   H2'2    342     0.0718      1.008
   343         OH     61     DC    O3'    343    -0.6549         16
   344         HO     61     DC    H3T    344     0.4396      1.008   ; qtot -10

[ bonds ]
;  ai    aj funct            c0            c1            c2            c3
    1     2     1 
    1     3     1 
    3     4     1 
    3     5     1 
    3     6     1 
    6     7     1 
    6     8     1 
    6    25     1 
    8     9     1 
    9    10     1 
    9    11     1 
    9    27     1 
   11    12     1 
   11    23     1 
   12    13     1 
   12    14     1 
   14    15     1 
   14    19     1 
   15    16     1 
   15    17     1 
   15    18     1 
   19    20     1 
   19    21     1 
   21    22     1 
   21    23     1 
   23    24     1 
   25    26     1 
   25    27     1 
   25    30     1 
   27    28     1 
   27    29     1 
   30    31     1 
   31    32     1 
   31    33     1 
   31    34     1 
   34    35     1 
   35    36     1 
   35    37     1 
   35    38     1 
   38    39     1 
   38    40     1 
   38    58     1 
   40    41     1 
   41    42     1 
   41    43     1 
   41    60     1 
   43    44     1 
   43    57     1 
   44    45     1 
   44    46     1 
   46    47     1 
   47    48     1 
   47    57     1 
   48    49     1 
   48    50     1 
   50    51     1 
   50    52     1 
   52    53     1 
   52    56     1 
   53    54     1 
   53    55     1 
   56    57     1 
   58    59     1 
   58    60     1 
   58    63     1 
   60    61     1 
   60    62     1 
   63    64     1 
   64    65     1 
   64    66     1 
   64    67     1 
   67    68     1 
   68    69     1 
   68    70     1 
   68    71     1 
   71    72     1 
   71    73     1 
   71    91     1 
   73    74     1 
   74    75     1 
   74    76     1 
   74    93     1 
   76    77     1 
   76    90     1 
   77    78     1 
   77    79     1 
   79    80     1 
   80    81     1 
   80    90     1 
   81    82     1 
   81    83     1 
   83    84     1 
   83    85     1 
   85    86     1 
   85    89     1 
   86    87     1 
   86    88     1 
   89    90     1 
   91    92     1 
   91    93     1 
   91    96     1 
   93    94     1 
   93    95     1 
   96    97     1 
   97    98     1 
   97    99     1 
   97   100     1 
  100   101     1 
  101   102     1 
  101   103     1 
  101   104     1 
  104   105     1 
  104   106     1 
  104   123     1 
  106   107     1 
  107   108     1 
  107   109     1 
  107   125     1 
  109   110     1 
  109   121     1 
  110   111     1 
  110   112     1 
  112   113     1 
  112   117     1 
  113   114     1 
  113   115     1 
  113   116     1 
  117   118     1 
  117   119     1 
  119   120     1 
  119   121     1 
  121   122     1 
  123   124     1 
  123   125     1 
  123   128     1 
  125   126     1 
  125   127     1 
  128   129     1 
  129   130     1 
  129   131     1 
  129   132     1 
  132   133     1 
  133   134     1 
  133   135     1 
  133   136     1 
  136   137     1 
  136   138     1 
  136   153     1 
  138   139     1 
  139   140     1 
  139   141     1 
  139   155     1 
  141   142     1 
  141   151     1 
  142   143     1 
  142   144     1 
  144   145     1 
  144   146     1 
  146   147     1 
  146   150     1 
  147   148     1 
  147   149     1 
  150   151     1 
  151   152     1 
  153   154     1 
  153   155     1 
  153   158     1 
  155   156     1 
  155   157     1 
  158   159     1 
  159   160     1 
  159   161     1 
  159   162     1 
  162   163     1 
  163   164     1 
  163   165     1 
  163   166     1 
  166   167     1 
  166   168     1 
  166   183     1 
  168   169     1 
  169   170     1 
  169   171     1 
  169   185     1 
  171   172     1 
  171   181     1 
  172   173     1 
  172   174     1 
  174   175     1 
  174   176     1 
  176   177     1 
  176   180     1 
  177   178     1 
  177   179     1 
  180   181     1 
  181   182     1 
  183   184     1 
  183   185     1 
  183   188     1 
  185   186     1 
  185   187     1 
  188   189     1 
  189   190     1 
  189   191     1 
  189   192     1 
  192   193     1 
  193   194     1 
  193   195     1 
  193   196     1 
  196   197     1 
  196   198     1 
  196   213     1 
  198   199     1 
  199   200     1 
  199   201     1 
  199   215     1 
  201   202     1 
  201   211     1 
  202   203     1 
  202   204     1 
  204   205     1 
  204   206     1 
  206   207     1 
  206   210     1 
  207   208     1 
  207   209     1 
  210   211     1 
  211   212     1 
  213   214     1 
  213   215     1 
  213   218     1 
  215   216     1 
  215   217     1 
  218   219     1 
  219   220     1 
  219   221     1 
  219   222     1 
  222   223     1 
  223   224     1 
  223   225     1 
  223   226     1 
  226   227     1 
  226   228     1 
  226   245     1 
  228   229     1 
  229   230     1 
  229   231     1 
  229   247     1 
  231   232     1 
  231   244     1 
  232   233     1 
  232   234     1 
  234   235     1 
  235   236     1 
  235   244     1 
  236   237     1 
  236   240     1 
  237   238     1 
  237   239     1 
  240   241     1 
  241   242     1 
  241   243     1 
  243   244     1 
  245   246     1 
  245   247     1 
  245   250     1 
  247   248     1 
  247   249     1 
  250   251     1 
  251   252     1 
  251   253     1 
  251   254     1 
  254   255     1 
  255   256     1 
  255   257     1 
  255   258     1 
  258   259     1 
  258   260     1 
  258   275     1 
  260   261     1 
  261   262     1 
  261   263     1 
  261   277     1 
  263   264     1 
  263   273     1 
  264   265     1 
  264   266     1 
  266   267     1 
  266   268     1 
  268   269     1 
  268   272     1 
  269   270     1 
  269   271     1 
  272   273     1 
  273   274     1 
  275   276     1 
  275   277     1 
  275   280     1 
  277   278     1 
  277   279     1 
  280   281     1 
  281   282     1 
  281   283     1 
  281   284     1 
  284   285     1 
  285   286     1 
  285   287     1 
  285   288     1 
  288   289     1 
  288   290     1 
  288   308     1 
  290   291     1 
  291   292     1 
  291   293     1 
  291   310     1 
  293   294     1 
  293   307     1 
  294   295     1 
  294   296     1 
  296   297     1 
  297   298     1 
  297   307     1 
  298   299     1 
  298   300     1 
  300   301     1 
  300   302     1 
  302   303     1 
  302   306     1 
  303   304     1 
  303   305     1 
  306   307     1 
  308   309     1 
  308   310     1 
  308   313     1 
  310   311     1 
  310   312     1 
  313   314     1 
  314   315     1 
  314   316     1 
  314   317     1 
  317   318     1 
  318   319     1 
  318   320     1 
  318   321     1 
  321   322     1 
  321   323     1 
  321   338     1 
  323   324     1 
  324   325     1 
  324   326     1 
  324   340     1 
  326   327     1 
  326   336     1 
  327   328     1 
  327   329     1 
  329   330     1 
  329   331     1 
  331   332     1 
  331   335     1 
  332   333     1 
  332   334     1 
  335   336     1 
  336   337     1 
  338   339     1 
  338   340     1 
  338   343     1 
  340   341     1 
  340   342     1 
  343   344     1 

[ pairs ]
;  ai    aj funct            c0            c1            c2            c3
    1     7     1 
    1     8     1 
    1    25     1 
    2     4     1 
    2     5     1 
    2     6     1 
    3     9     1 
    3    26     1 
    3    27     1 
    3    30     1 
    4     7     1 
    4     8     1 
    4    25     1 
    5     7     1 
    5     8     1 
    5    25     1 
    6    10     1 
    6    11     1 
    6    28     1 
    6    29     1 
    6    31     1 
    7     9     1 
    7    26     1 
    7    27     1 
    7    30     1 
    8    12     1 
    8    23     1 
    8    26     1 
    8    28     1 
    8    29     1 
    8    30     1 
    9    13     1 
    9    14     1 
    9    21     1 
    9    24     1 
    9    26     1 
    9    30     1 
   10    12     1 
   10    23     1 
   10    25     1 
   10    28     1 
   10    29     1 
   11    15     1 
   11    19     1 
   11    22     1 
   11    25     1 
   11    28     1 
   11    29     1 
   12    16     1 
   12    17     1 
   12    18     1 
   12    20     1 
   12    21     1 
   12    24     1 
   12    27     1 
   13    15     1 
   13    19     1 
   13    23     1 
   14    22     1 
   14    23     1 
   15    20     1 
   15    21     1 
   16    19     1 
   17    19     1 
   18    19     1 
   19    24     1 
   20    22     1 
   20    23     1 
   22    24     1 
   23    27     1 
   25    32     1 
   25    33     1 
   25    34     1 
   26    28     1 
   26    29     1 
   26    31     1 
   27    31     1 
   28    30     1 
   29    30     1 
   30    35     1 
   31    36     1 
   31    37     1 
   31    38     1 
   32    35     1 
   33    35     1 
   34    39     1 
   34    40     1 
   34    58     1 
   35    41     1 
   35    59     1 
   35    60     1 
   35    63     1 
   36    39     1 
   36    40     1 
   36    58     1 
   37    39     1 
   37    40     1 
   37    58     1 
   38    42     1 
   38    43     1 
   38    61     1 
   38    62     1 
   38    64     1 
   39    41     1 
   39    59     1 
   39    60     1 
   39    63     1 
   40    44     1 
   40    57     1 
   40    59     1 
   40    61     1 
   40    62     1 
   40    63     1 
   41    45     1 
   41    46     1 
   41    47     1 
   41    56     1 
   41    59     1 
   41    63     1 
   42    44     1 
   42    57     1 
   42    58     1 
   42    61     1 
   42    62     1 
   43    48     1 
   43    52     1 
   43    58     1 
   43    61     1 
   43    62     1 
   44    48     1 
   44    56     1 
   44    60     1 
   45    47     1 
   45    57     1 
   46    49     1 
   46    50     1 
   46    56     1 
   47    51     1 
   47    52     1 
   48    53     1 
   48    56     1 
   49    51     1 
   49    52     1 
   49    57     1 
   50    54     1 
   50    55     1 
   50    57     1 
   51    53     1 
   51    56     1 
   53    57     1 
   54    56     1 
   55    56     1 
   57    60     1 
   58    65     1 
   58    66     1 
   58    67     1 
   59    61     1 
   59    62     1 
   59    64     1 
   60    64     1 
   61    63     1 
   62    63     1 
   63    68     1 
   64    69     1 
   64    70     1 
   64    71     1 
   65    68     1 
   66    68     1 
   67    72     1 
   67    73     1 
   67    91     1 
   68    74     1 
   68    92     1 
   68    93     1 
   68    96     1 
   69    72     1 
   69    73     1 
   69    91     1 
   70    72     1 
   70    73     1 
   70    91     1 
   71    75     1 
   71    76     1 
   71    94     1 
   71    95     1 
   71    97     1 
   72    74     1 
   72    92     1 
   72    93     1 
   72    96     1 
   73    77     1 
   73    90     1 
   73    92     1 
   73    94     1 
   73    95     1 
   73    96     1 
   74    78     1 
   74    79     1 
   74    80     1 
   74    89     1 
   74    92     1 
   74    96     1 
   75    77     1 
   75    90     1 
   75    91     1 
   75    94     1 
   75    95     1 
   76    81     1 
   76    85     1 
   76    91     1 
   76    94     1 
   76    95     1 
   77    81     1 
   77    89     1 
   77    93     1 
   78    80     1 
   78    90     1 
   79    82     1 
   79    83     1 
   79    89     1 
   80    84     1 
   80    85     1 
   81    86     1 
   81    89     1 
   82    84     1 
   82    85     1 
   82    90     1 
   83    87     1 
   83    88     1 
   83    90     1 
   84    86     1 
   84    89     1 
   86    90     1 
   87    89     1 
   88    89     1 
   90    93     1 
   91    98     1 
   91    99     1 
   91   100     1 
   92    94     1 
   92    95     1 
   92    97     1 
   93    97     1 
   94    96     1 
   95    96     1 
   96   101     1 
   97   102     1 
   97   103     1 
   97   104     1 
   98   101     1 
   99   101     1 
  100   105     1 
  100   106     1 
  100   123     1 
  101   107     1 
  101   124     1 
  101   125     1 
  101   128     1 
  102   105     1 
  102   106     1 
  102   123     1 
  103   105     1 
  103   106     1 
  103   123     1 
  104   108     1 
  104   109     1 
  104   126     1 
  104   127     1 
  104   129     1 
  105   107     1 
  105   124     1 
  105   125     1 
  105   128     1 
  106   110     1 
  106   121     1 
  106   124     1 
  106   126     1 
  106   127     1 
  106   128     1 
  107   111     1 
  107   112     1 
  107   119     1 
  107   122     1 
  107   124     1 
  107   128     1 
  108   110     1 
  108   121     1 
  108   123     1 
  108   126     1 
  108   127     1 
  109   113     1 
  109   117     1 
  109   120     1 
  109   123     1 
  109   126     1 
  109   127     1 
  110   114     1 
  110   115     1 
  110   116     1 
  110   118     1 
  110   119     1 
  110   122     1 
  110   125     1 
  111   113     1 
  111   117     1 
  111   121     1 
  112   120     1 
  112   121     1 
  113   118     1 
  113   119     1 
  114   117     1 
  115   117     1 
  116   117     1 
  117   122     1 
  118   120     1 
  118   121     1 
  120   122     1 
  121   125     1 
  123   130     1 
  123   131     1 
  123   132     1 
  124   126     1 
  124   127     1 
  124   129     1 
  125   129     1 
  126   128     1 
  127   128     1 
  128   133     1 
  129   134     1 
  129   135     1 
  129   136     1 
  130   133     1 
  131   133     1 
  132   137     1 
  132   138     1 
  132   153     1 
  133   139     1 
  133   154     1 
  133   155     1 
  133   158     1 
  134   137     1 
  134   138     1 
  134   153     1 
  135   137     1 
  135   138     1 
  135   153     1 
  136   140     1 
  136   141     1 
  136   156     1 
  136   157     1 
  136   159     1 
  137   139     1 
  137   154     1 
  137   155     1 
  137   158     1 
  138   142     1 
  138   151     1 
  138   154     1 
  138   156     1 
  138   157     1 
  138   158     1 
  139   143     1 
  139   144     1 
  139   150     1 
  139   152     1 
  139   154     1 
  139   158     1 
  140   142     1 
  140   151     1 
  140   153     1 
  140   156     1 
  140   157     1 
  141   145     1 
  141   146     1 
  141   153     1 
  141   156     1 
  141   157     1 
  142   147     1 
  142   150     1 
  142   152     1 
  142   155     1 
  143   145     1 
  143   146     1 
  143   151     1 
  144   148     1 
  144   149     1 
  144   151     1 
  145   147     1 
  145   150     1 
  146   152     1 
  147   151     1 
  148   150     1 
  149   150     1 
  151   155     1 
  153   160     1 
  153   161     1 
  153   162     1 
  154   156     1 
  154   157     1 
  154   159     1 
  155   159     1 
  156   158     1 
  157   158     1 
  158   163     1 
  159   164     1 
  159   165     1 
  159   166     1 
  160   163     1 
  161   163     1 
  162   167     1 
  162   168     1 
  162   183     1 
  163   169     1 
  163   184     1 
  163   185     1 
  163   188     1 
  164   167     1 
  164   168     1 
  164   183     1 
  165   167     1 
  165   168     1 
  165   183     1 
  166   170     1 
  166   171     1 
  166   186     1 
  166   187     1 
  166   189     1 
  167   169     1 
  167   184     1 
  167   185     1 
  167   188     1 
  168   172     1 
  168   181     1 
  168   184     1 
  168   186     1 
  168   187     1 
  168   188     1 
  169   173     1 
  169   174     1 
  169   180     1 
  169   182     1 
  169   184     1 
  169   188     1 
  170   172     1 
  170   181     1 
  170   183     1 
  170   186     1 
  170   187     1 
  171   175     1 
  171   176     1 
  171   183     1 
  171   186     1 
  171   187     1 
  172   177     1 
  172   180     1 
  172   182     1 
  172   185     1 
  173   175     1 
  173   176     1 
  173   181     1 
  174   178     1 
  174   179     1 
  174   181     1 
  175   177     1 
  175   180     1 
  176   182     1 
  177   181     1 
  178   180     1 
  179   180     1 
  181   185     1 
  183   190     1 
  183   191     1 
  183   192     1 
  184   186     1 
  184   187     1 
  184   189     1 
  185   189     1 
  186   188     1 
  187   188     1 
  188   193     1 
  189   194     1 
  189   195     1 
  189   196     1 
  190   193     1 
  191   193     1 
  192   197     1 
  192   198     1 
  192   213     1 
  193   199     1 
  193   214     1 
  193   215     1 
  193   218     1 
  194   197     1 
  194   198     1 
  194   213     1 
  195   197     1 
  195   198     1 
  195   213     1 
  196   200     1 
  196   201     1 
  196   216     1 
  196   217     1 
  196   219     1 
  197   199     1 
  197   214     1 
  197   215     1 
  197   218     1 
  198   202     1 
  198   211     1 
  198   214     1 
  198   216     1 
  198   217     1 
  198   218     1 
  199   203     1 
  199   204     1 
  199   210     1 
  199   212     1 
  199   214     1 
  199   218     1 
  200   202     1 
  200   211     1 
  200   213     1 
  200   216     1 
  200   217     1 
  201   205     1 
  201   206     1 
  201   213     1 
  201   216     1 
  201   217     1 
  202   207     1 
  202   210     1 
  202   212     1 
  202   215     1 
  203   205     1 
  203   206     1 
  203   211     1 
  204   208     1 
  204   209     1 
  204   211     1 
  205   207     1 
  205   210     1 
  206   212     1 
  207   211     1 
  208   210     1 
  209   210     1 
  211   215     1 
  213   220     1 
  213   221     1 
  213   222     1 
  214   216     1 
  214   217     1 
  214   219     1 
  215   219     1 
  216   218     1 
  217   218     1 
  218   223     1 
  219   224     1 
  219   225     1 
  219   226     1 
  220   223     1 
  221   223     1 
  222   227     1 
  222   228     1 
  222   245     1 
  223   229     1 
  223   246     1 
  223   247     1 
  223   250     1 
  224   227     1 
  224   228     1 
  224   245     1 
  225   227     1 
  225   228     1 
  225   245     1 
  226   230     1 
  226   231     1 
  226   248     1 
  226   249     1 
  226   251     1 
  227   229     1 
  227   246     1 
  227   247     1 
  227   250     1 
  228   232     1 
  228   244     1 
  228   246     1 
  228   248     1 
  228   249     1 
  228   250     1 
  229   233     1 
  229   234     1 
  229   235     1 
  229   243     1 
  229   246     1 
  229   250     1 
  230   232     1 
  230   244     1 
  230   245     1 
  230   248     1 
  230   249     1 
  231   236     1 
  231   241     1 
  231   245     1 
  231   248     1 
  231   249     1 
  232   236     1 
  232   243     1 
  232   247     1 
  233   235     1 
  233   244     1 
  234   237     1 
  234   240     1 
  234   243     1 
  235   238     1 
  235   239     1 
  235   241     1 
  236   242     1 
  236   243     1 
  237   241     1 
  237   244     1 
  238   240     1 
  239   240     1 
  240   244     1 
  242   244     1 
  244   247     1 
  245   252     1 
  245   253     1 
  245   254     1 
  246   248     1 
  246   249     1 
  246   251     1 
  247   251     1 
  248   250     1 
  249   250     1 
  250   255     1 
  251   256     1 
  251   257     1 
  251   258     1 
  252   255     1 
  253   255     1 
  254   259     1 
  254   260     1 
  254   275     1 
  255   261     1 
  255   276     1 
  255   277     1 
  255   280     1 
  256   259     1 
  256   260     1 
  256   275     1 
  257   259     1 
  257   260     1 
  257   275     1 
  258   262     1 
  258   263     1 
  258   278     1 
  258   279     1 
  258   281     1 
  259   261     1 
  259   276     1 
  259   277     1 
  259   280     1 
  260   264     1 
  260   273     1 
  260   276     1 
  260   278     1 
  260   279     1 
  260   280     1 
  261   265     1 
  261   266     1 
  261   272     1 
  261   274     1 
  261   276     1 
  261   280     1 
  262   264     1 
  262   273     1 
  262   275     1 
  262   278     1 
  262   279     1 
  263   267     1 
  263   268     1 
  263   275     1 
  263   278     1 
  263   279     1 
  264   269     1 
  264   272     1 
  264   274     1 
  264   277     1 
  265   267     1 
  265   268     1 
  265   273     1 
  266   270     1 
  266   271     1 
  266   273     1 
  267   269     1 
  267   272     1 
  268   274     1 
  269   273     1 
  270   272     1 
  271   272     1 
  273   277     1 
  275   282     1 
  275   283     1 
  275   284     1 
  276   278     1 
  276   279     1 
  276   281     1 
  277   281     1 
  278   280     1 
  279   280     1 
  280   285     1 
  281   286     1 
  281   287     1 
  281   288     1 
  282   285     1 
  283   285     1 
  284   289     1 
  284   290     1 
  284   308     1 
  285   291     1 
  285   309     1 
  285   310     1 
  285   313     1 
  286   289     1 
  286   290     1 
  286   308     1 
  287   289     1 
  287   290     1 
  287   308     1 
  288   292     1 
  288   293     1 
  288   311     1 
  288   312     1 
  288   314     1 
  289   291     1 
  289   309     1 
  289   310     1 
  289   313     1 
  290   294     1 
  290   307     1 
  290   309     1 
  290   311     1 
  290   312     1 
  290   313     1 
  291   295     1 
  291   296     1 
  291   297     1 
  291   306     1 
  291   309     1 
  291   313     1 
  292   294     1 
  292   307     1 
  292   308     1 
  292   311     1 
  292   312     1 
  293   298     1 
  293   302     1 
  293   308     1 
  293   311     1 
  293   312     1 
  294   298     1 
  294   306     1 
  294   310     1 
  295   297     1 
  295   307     1 
  296   299     1 
  296   300     1 
  296   306     1 
  297   301     1 
  297   302     1 
  298   303     1 
  298   306     1 
  299   301     1 
  299   302     1 
  299   307     1 
  300   304     1 
  300   305     1 
  300   307     1 
  301   303     1 
  301   306     1 
  303   307     1 
  304   306     1 
  305   306     1 
  307   310     1 
  308   315     1 
  308   316     1 
  308   317     1 
  309   311     1 
  309   312     1 
  309   314     1 
  310   314     1 
  311   313     1 
  312   313     1 
  313   318     1 
  314   319     1 
  314   320     1 
  314   321     1 
  315   318     1 
  316   318     1 
  317   322     1 
  317   323     1 
  317   338     1 
  318   324     1 
  318   339     1 
  318   340     1 
  318   343     1 
  319   322     1 
  319   323     1 
  319   338     1 
  320   322     1 
  320   323     1 
  320   338     1 
  321   325     1 
  321   326     1 
  321   341     1 
  321   342     1 
  321   344     1 
  322   324     1 
  322   339     1 
  322   340     1 
  322   343     1 
  323   327     1 
  323   336     1 
  323   339     1 
  323   341     1 
  323   342     1 
  323   343     1 
  324   328     1 
  324   329     1 
  324   335     1 
  324   337     1 
  324   339     1 
  324   343     1 
  325   327     1 
  325   336     1 
  325   338     1 
  325   341     1 
  325   342     1 
  326   330     1 
  326   331     1 
  326   338     1 
  326   341     1 
  326   342     1 
  327   332     1 
  327   335     1 
  327   337     1 
  327   340     1 
  328   330     1 
  328   331     1 
  328   336     1 
  329   333     1 
  329   334     1 
  329   336     1 
  330   332     1 
  330   335     1 
  331   337     1 
  332   336     1 
  333   335     1 
  334   335     1 
  336   340     1 
  339   341     1 
  339   342     1 
  339   344     1 
  340   344     1 
  341   343     1 
  342   343     1 

[ angles ]
;  ai    aj    ak funct            c0            c1            c2            c3
    2     1     3     1 
    1     3     4     1 
    1     3     5     1 
    1     3     6     1 
    4     3     5     1 
    4     3     6     1 
    5     3     6     1 
    3     6     7     1 
    3     6     8     1 
    3     6    25     1 
    7     6     8     1 
    7     6    25     1 
    8     6    25     1 
    6     8     9     1 
    8     9    10     1 
    8     9    11     1 
    8     9    27     1 
   10     9    11     1 
   10     9    27     1 
   11     9    27     1 
    9    11    12     1 
    9    11    23     1 
   12    11    23     1 
   11    12    13     1 
   11    12    14     1 
   13    12    14     1 
   12    14    15     1 
   12    14    19     1 
   15    14    19     1 
   14    15    16     1 
   14    15    17     1 
   14    15    18     1 
   16    15    17     1 
   16    15    18     1 
   17    15    18     1 
   14    19    20     1 
   14    19    21     1 
   20    19    21     1 
   19    21    22     1 
   19    21    23     1 
   22    21    23     1 
   11    23    21     1 
   11    23    24     1 
   21    23    24     1 
    6    25    26     1 
    6    25    27     1 
    6    25    30     1 
   26    25    27     1 
   26    25    30     1 
   27    25    30     1 
    9    27    25     1 
    9    27    28     1 
    9    27    29     1 
   25    27    28     1 
   25    27    29     1 
   28    27    29     1 
   25    30    31     1 
   30    31    32     1 
   30    31    33     1 
   30    31    34     1 
   32    31    33     1 
   32    31    34     1 
   33    31    34     1 
   31    34    35     1 
   34    35    36     1 
   34    35    37     1 
   34    35    38     1 
   36    35    37     1 
   36    35    38     1 
   37    35    38     1 
   35    38    39     1 
   35    38    40     1 
   35    38    58     1 
   39    38    40     1 
   39    38    58     1 
   40    38    58     1 
   38    40    41     1 
   40    41    42     1 
   40    41    43     1 
   40    41    60     1 
   42    41    43     1 
   42    41    60     1 
   43    41    60     1 
   41    43    44     1 
   41    43    57     1 
   44    43    57     1 
   43    44    45     1 
   43    44    46     1 
   45    44    46     1 
   44    46    47     1 
   46    47    48     1 
   46    47    57     1 
   48    47    57     1 
   47    48    49     1 
   47    48    50     1 
   49    48    50     1 
   48    50    51     1 
   48    50    52     1 
   51    50    52     1 
   50    52    53     1 
   50    52    56     1 
   53    52    56     1 
   52    53    54     1 
   52    53    55     1 
   54    53    55     1 
   52    56    57     1 
   43    57    47     1 
   43    57    56     1 
   47    57    56     1 
   38    58    59     1 
   38    58    60     1 
   38    58    63     1 
   59    58    60     1 
   59    58    63     1 
   60    58    63     1 
   41    60    58     1 
   41    60    61     1 
   41    60    62     1 
   58    60    61     1 
   58    60    62     1 
   61    60    62     1 
   58    63    64     1 
   63    64    65     1 
   63    64    66     1 
   63    64    67     1 
   65    64    66     1 
   65    64    67     1 
   66    64    67     1 
   64    67    68     1 
   67    68    69     1 
   67    68    70     1 
   67    68    71     1 
   69    68    70     1 
   69    68    71     1 
   70    68    71     1 
   68    71    72     1 
   68    71    73     1 
   68    71    91     1 
   72    71    73     1 
   72    71    91     1 
   73    71    91     1 
   71    73    74     1 
   73    74    75     1 
   73    74    76     1 
   73    74    93     1 
   75    74    76     1 
   75    74    93     1 
   76    74    93     1 
   74    76    77     1 
   74    76    90     1 
   77    76    90     1 
   76    77    78     1 
   76    77    79     1 
   78    77    79     1 
   77    79    80     1 
   79    80    81     1 
   79    80    90     1 
   81    80    90     1 
   80    81    82     1 
   80    81    83     1 
   82    81    83     1 
   81    83    84     1 
   81    83    85     1 
   84    83    85     1 
   83    85    86     1 
   83    85    89     1 
   86    85    89     1 
   85    86    87     1 
   85    86    88     1 
   87    86    88     1 
   85    89    90     1 
   76    90    80     1 
   76    90    89     1 
   80    90    89     1 
   71    91    92     1 
   71    91    93     1 
   71    91    96     1 
   92    91    93     1 
   92    91    96     1 
   93    91    96     1 
   74    93    91     1 
   74    93    94     1 
   74    93    95     1 
   91    93    94     1 
   91    93    95     1 
   94    93    95     1 
   91    96    97     1 
   96    97    98     1 
   96    97    99     1 
   96    97   100     1 
   98    97    99     1 
   98    97   100     1 
   99    97   100     1 
   97   100   101     1 
  100   101   102     1 
  100   101   103     1 
  100   101   104     1 
  102   101   103     1 
  102   101   104     1 
  103   101   104     1 
  101   104   105     1 
  101   104   106     1 
  101   104   123     1 
  105   104   106     1 
  105   104   123     1 
  106   104   123     1 
  104   106   107     1 
  106   107   108     1 
  106   107   109     1 
  106   107   125     1 
  108   107   109     1 
  108   107   125     1 
  109   107   125     1 
  107   109   110     1 
  107   109   121     1 
  110   109   121     1 
  109   110   111     1 
  109   110   112     1 
  111   110   112     1 
  110   112   113     1 
  110   112   117     1 
  113   112   117     1 
  112   113   114     1 
  112   113   115     1 
  112   113   116     1 
  114   113   115     1 
  114   113   116     1 
  115   113   116     1 
  112   117   118     1 
  112   117   119     1 
  118   117   119     1 
  117   119   120     1 
  117   119   121     1 
  120   119   121     1 
  109   121   119     1 
  109   121   122     1 
  119   121   122     1 
  104   123   124     1 
  104   123   125     1 
  104   123   128     1 
  124   123   125     1 
  124   123   128     1 
  125   123   128     1 
  107   125   123     1 
  107   125   126     1 
  107   125   127     1 
  123   125   126     1 
  123   125   127     1 
  126   125   127     1 
  123   128   129     1 
  128   129   130     1 
  128   129   131     1 
  128   129   132     1 
  130   129   131     1 
  130   129   132     1 
  131   129   132     1 
  129   132   133     1 
  132   133   134     1 
  132   133   135     1 
  132   133   136     1 
  134   133   135     1 
  134   133   136     1 
  135   133   136     1 
  133   136   137     1 
  133   136   138     1 
  133   136   153     1 
  137   136   138     1 
  137   136   153     1 
  138   136   153     1 
  136   138   139     1 
  138   139   140     1 
  138   139   141     1 
  138   139   155     1 
  140   139   141     1 
  140   139   155     1 
  141   139   155     1 
  139   141   142     1 
  139   141   151     1 
  142   141   151     1 
  141   142   143     1 
  141   142   144     1 
  143   142   144     1 
  142   144   145     1 
  142   144   146     1 
  145   144   146     1 
  144   146   147     1 
  144   146   150     1 
  147   146   150     1 
  146   147   148     1 
  146   147   149     1 
  148   147   149     1 
  146   150   151     1 
  141   151   150     1 
  141   151   152     1 
  150   151   152     1 
  136   153   154     1 
  136   153   155     1 
  136   153   158     1 
  154   153   155     1 
  154   153   158     1 
  155   153   158     1 
  139   155   153     1 
  139   155   156     1 
  139   155   157     1 
  153   155   156     1 
  153   155   157     1 
  156   155   157     1 
  153   158   159     1 
  158   159   160     1 
  158   159   161     1 
  158   159   162     1 
  160   159   161     1 
  160   159   162     1 
  161   159   162     1 
  159   162   163     1 
  162   163   164     1 
  162   163   165     1 
  162   163   166     1 
  164   163   165     1 
  164   163   166     1 
  165   163   166     1 
  163   166   167     1 
  163   166   168     1 
  163   166   183     1 
  167   166   168     1 
  167   166   183     1 
  168   166   183     1 
  166   168   169     1 
  168   169   170     1 
  168   169   171     1 
  168   169   185     1 
  170   169   171     1 
  170   169   185     1 
  171   169   185     1 
  169   171   172     1 
  169   171   181     1 
  172   171   181     1 
  171   172   173     1 
  171   172   174     1 
  173   172   174     1 
  172   174   175     1 
  172   174   176     1 
  175   174   176     1 
  174   176   177     1 
  174   176   180     1 
  177   176   180     1 
  176   177   178     1 
  176   177   179     1 
  178   177   179     1 
  176   180   181     1 
  171   181   180     1 
  171   181   182     1 
  180   181   182     1 
  166   183   184     1 
  166   183   185     1 
  166   183   188     1 
  184   183   185     1 
  184   183   188     1 
  185   183   188     1 
  169   185   183     1 
  169   185   186     1 
  169   185   187     1 
  183   185   186     1 
  183   185   187     1 
  186   185   187     1 
  183   188   189     1 
  188   189   190     1 
  188   189   191     1 
  188   189   192     1 
  190   189   191     1 
  190   189   192     1 
  191   189   192     1 
  189   192   193     1 
  192   193   194     1 
  192   193   195     1 
  192   193   196     1 
  194   193   195     1 
  194   193   196     1 
  195   193   196     1 
  193   196   197     1 
  193   196   198     1 
  193   196   213     1 
  197   196   198     1 
  197   196   213     1 
  198   196   213     1 
  196   198   199     1 
  198   199   200     1 
  198   199   201     1 
  198   199   215     1 
  200   199   201     1 
  200   199   215     1 
  201   199   215     1 
  199   201   202     1 
  199   201   211     1 
  202   201   211     1 
  201   202   203     1 
  201   202   204     1 
  203   202   204     1 
  202   204   205     1 
  202   204   206     1 
  205   204   206     1 
  204   206   207     1 
  204   206   210     1 
  207   206   210     1 
  206   207   208     1 
  206   207   209     1 
  208   207   209     1 
  206   210   211     1 
  201   211   210     1 
  201   211   212     1 
  210   211   212     1 
  196   213   214     1 
  196   213   215     1 
  196   213   218     1 
  214   213   215     1 
  214   213   218     1 
  215   213   218     1 
  199   215   213     1 
  199   215   216     1 
  199   215   217     1 
  213   215   216     1 
  213   215   217     1 
  216   215   217     1 
  213   218   219     1 
  218   219   220     1 
  218   219   221     1 
  218   219   222     1 
  220   219   221     1 
  220   219   222     1 
  221   219   222     1 
  219   222   223     1 
  222   223   224     1 
  222   223   225     1 
  222   223   226     1 
  224   223   225     1 
  224   223   226     1 
  225   223   226     1 
  223   226   227     1 
  223   226   228     1 
  223   226   245     1 
  227   226   228     1 
  227   226   245     1 
  228   226   245     1 
  226   228   229     1 
  228   229   230     1 
  228   229   231     1 
  228   229   247     1 
  230   229   231     1 
  230   229   247     1 
  231   229   247     1 
  229   231   232     1 
  229   231   244     1 
  232   231   244     1 
  231   232   233     1 
  231   232   234     1 
  233   232   234     1 
  232   234   235     1 
  234   235   236     1 
  234   235   244     1 
  236   235   244     1 
  235   236   237     1 
  235   236   240     1 
  237   236   240     1 
  236   237   238     1 
  236   237   239     1 
  238   237   239     1 
  236   240   241     1 
  240   241   242     1 
  240   241   243     1 
  242   241   243     1 
  241   243   244     1 
  231   244   235     1 
  231   244   243     1 
  235   244   243     1 
  226   245   246     1 
  226   245   247     1 
  226   245   250     1 
  246   245   247     1 
  246   245   250     1 
  247   245   250     1 
  229   247   245     1 
  229   247   248     1 
  229   247   249     1 
  245   247   248     1 
  245   247   249     1 
  248   247   249     1 
  245   250   251     1 
  250   251   252     1 
  250   251   253     1 
  250   251   254     1 
  252   251   253     1 
  252   251   254     1 
  253   251   254     1 
  251   254   255     1 
  254   255   256     1 
  254   255   257     1 
  254   255   258     1 
  256   255   257     1 
  256   255   258     1 
  257   255   258     1 
  255   258   259     1 
  255   258   260     1 
  255   258   275     1 
  259   258   260     1 
  259   258   275     1 
  260   258   275     1 
  258   260   261     1 
  260   261   262     1 
  260   261   263     1 
  260   261   277     1 
  262   261   263     1 
  262   261   277     1 
  263   261   277     1 
  261   263   264     1 
  261   263   273     1 
  264   263   273     1 
  263   264   265     1 
  263   264   266     1 
  265   264   266     1 
  264   266   267     1 
  264   266   268     1 
  267   266   268     1 
  266   268   269     1 
  266   268   272     1 
  269   268   272     1 
  268   269   270     1 
  268   269   271     1 
  270   269   271     1 
  268   272   273     1 
  263   273   272     1 
  263   273   274     1 
  272   273   274     1 
  258   275   276     1 
  258   275   277     1 
  258   275   280     1 
  276   275   277     1 
  276   275   280     1 
  277   275   280     1 
  261   277   275     1 
  261   277   278     1 
  261   277   279     1 
  275   277   278     1 
  275   277   279     1 
  278   277   279     1 
  275   280   281     1 
  280   281   282     1 
  280   281   283     1 
  280   281   284     1 
  282   281   283     1 
  282   281   284     1 
  283   281   284     1 
  281   284   285     1 
  284   285   286     1 
  284   285   287     1 
  284   285   288     1 
  286   285   287     1 
  286   285   288     1 
  287   285   288     1 
  285   288   289     1 
  285   288   290     1 
  285   288   308     1 
  289   288   290     1 
  289   288   308     1 
  290   288   308     1 
  288   290   291     1 
  290   291   292     1 
  290   291   293     1 
  290   291   310     1 
  292   291   293     1 
  292   291   310     1 
  293   291   310     1 
  291   293   294     1 
  291   293   307     1 
  294   293   307     1 
  293   294   295     1 
  293   294   296     1 
  295   294   296     1 
  294   296   297     1 
  296   297   298     1 
  296   297   307     1 
  298   297   307     1 
  297   298   299     1 
  297   298   300     1 
  299   298   300     1 
  298   300   301     1 
  298   300   302     1 
  301   300   302     1 
  300   302   303     1 
  300   302   306     1 
  303   302   306     1 
  302   303   304     1 
  302   303   305     1 
  304   303   305     1 
  302   306   307     1 
  293   307   297     1 
  293   307   306     1 
  297   307   306     1 
  288   308   309     1 
  288   308   310     1 
  288   308   313     1 
  309   308   310     1 
  309   308   313     1 
  310   308   313     1 
  291   310   308     1 
  291   310   311     1 
  291   310   312     1 
  308   310   311     1 
  308   310   312     1 
  311   310   312     1 
  308   313   314     1 
  313   314   315     1 
  313   314   316     1 
  313   314   317     1 
  315   314   316     1 
  315   314   317     1 
  316   314   317     1 
  314   317   318     1 
  317   318   319     1 
  317   318   320     1 
  317   318   321     1 
  319   318   320     1 
  319   318   321     1 
  320   318   321     1 
  318   321   322     1 
  318   321   323     1 
  318   321   338     1 
  322   321   323     1 
  322   321   338     1 
  323   321   338     1 
  321   323   324     1 
  323   324   325     1 
  323   324   326     1 
  323   324   340     1 
  325   324   326     1 
  325   324   340     1 
  326   324   340     1 
  324   326   327     1 
  324   326   336     1 
  327   326   336     1 
  326   327   328     1 
  326   327   329     1 
  328   327   329     1 
  327   329   330     1 
  327   329   331     1 
  330   329   331     1 
  329   331   332     1 
  329   331   335     1 
  332   331   335     1 
  331   332   333     1 
  331   332   334     1 
  333   332   334     1 
  331   335   336     1 
  326   336   335     1 
  326   336   337     1 
  335   336   337     1 
  321   338   339     1 
  321   338   340     1 
  321   338   343     1 
  339   338   340     1 
  339   338   343     1 
  340   338   343     1 
  324   340   338     1 
  324   340   341     1 
  324   340   342     1 
  338   340   341     1 
  338   340   342     1 
  341   340   342     1 
  338   343   344     1 

[ dihedrals ]
;  ai    aj    ak    al funct            c0            c1            c2            c3            c4            c5
    2     1     3     4     9 
    2     1     3     5     9 
    2     1     3     6     9 
    1     3     6     7     9 
    1     3     6     8     9 
    1     3     6    25     9 
    4     3     6     7     9 
    4     3     6     8     9 
    4     3     6    25     9 
    5     3     6     7     9 
    5     3     6     8     9 
    5     3     6    25     9 
    3     6     8     9     9 
    7     6     8     9     9 
   25     6     8     9     9 
    3     6    25    26     9 
    3     6    25    27     9 
    3     6    25    30     9 
    7     6    25    26     9 
    7     6    25    27     9 
    7     6    25    30     9 
    8     6    25    26     9 
    8     6    25    27     9 
    8     6    25    30     9 
    6     8     9    10     9 
    6     8     9    11     9 
    6     8     9    27     9 
    8     9    11    12     9 
    8     9    11    23     9 
   10     9    11    12     9 
   10     9    11    23     9 
   27     9    11    12     9 
   27     9    11    23     9 
    8     9    27    25     9 
    8     9    27    28     9 
    8     9    27    29     9 
   10     9    27    25     9 
   10     9    27    28     9 
   10     9    27    29     9 
   11     9    27    25     9 
   11     9    27    28     9 
   11     9    27    29     9 
    9    11    12    13     9 
    9    11    12    14     9 
   23    11    12    13     9 
   23    11    12    14     9 
    9    11    23    21     9 
    9    11    23    24     9 
   12    11    23    21     9 
   12    11    23    24     9 
   11    12    14    15     9 
   11    12    14    19     9 
   13    12    14    15     9 
   13    12    14    19     9 
   12    14    15    16     9 
   12    14    15    17     9 
   12    14    15    18     9 
   19    14    15    16     9 
   19    14    15    17     9 
   19    14    15    18     9 
   12    14    19    20     9 
   12    14    19    21     9 
   15    14    19    20     9 
   15    14    19    21     9 
   14    19    21    22     9 
   14    19    21    23     9 
   20    19    21    22     9 
   20    19    21    23     9 
   19    21    23    11     9 
   19    21    23    24     9 
   22    21    23    11     9 
   22    21    23    24     9 
    6    25    27     9     9 
    6    25    27    28     9 
    6    25    27    29     9 
   26    25    27     9     9 
   26    25    27    28     9 
   26    25    27    29     9 
   30    25    27     9     9 
   30    25    27    28     9 
   30    25    27    29     9 
    6    25    30    31     9 
   26    25    30    31     9 
   27    25    30    31     9 
   25    30    31    32     9 
   25    30    31    33     9 
   25    30    31    34     9 
   30    31    34    35     9 
   32    31    34    35     9 
   33    31    34    35     9 
   31    34    35    36     9 
   31    34    35    37     9 
   31    34    35    38     9 
   34    35    38    39     9 
   34    35    38    40     9 
   34    35    38    58     9 
   36    35    38    39     9 
   36    35    38    40     9 
   36    35    38    58     9 
   37    35    38    39     9 
   37    35    38    40     9 
   37    35    38    58     9 
   35    38    40    41     9 
   39    38    40    41     9 
   58    38    40    41     9 
   35    38    58    59     9 
   35    38    58    60     9 
   35    38    58    63     9 
   39    38    58    59     9 
   39    38    58    60     9 
   39    38    58    63     9 
   40    38    58    59     9 
   40    38    58    60     9 
   40    38    58    63     9 
   38    40    41    42     9 
   38    40    41    43     9 
   38    40    41    60     9 
   40    41    43    44     9 
   40    41    43    57     9 
   42    41    43    44     9 
   42    41    43    57     9 
   60    41    43    44     9 
   60    41    43    57     9 
   40    41    60    58     9 
   40    41    60    61     9 
   40    41    60    62     9 
   42    41    60    58     9 
   42    41    60    61     9 
   42    41    60    62     9 
   43    41    60    58     9 
   43    41    60    61     9 
   43    41    60    62     9 
   41    43    44    45     9 
   41    43    44    46     9 
   57    43    44    45     9 
   57    43    44    46     9 
   41    43    57    47     9 
   41    43    57    56     9 
   44    43    57    47     9 
   44    43    57    56     9 
   43    44    46    47     9 
   45    44    46    47     9 
   44    46    47    48     9 
   44    46    47    57     9 
   46    47    48    49     9 
   46    47    48    50     9 
   57    47    48    49     9 
   57    47    48    50     9 
   46    47    57    43     9 
   46    47    57    56     9 
   48    47    57    43     9 
   48    47    57    56     9 
   47    48    50    51     9 
   47    48    50    52     9 
   49    48    50    51     9 
   49    48    50    52     9 
   48    50    52    53     9 
   48    50    52    56     9 
   51    50    52    53     9 
   51    50    52    56     9 
   50    52    53    54     9 
   50    52    53    55     9 
   56    52    53    54     9 
   56    52    53    55     9 
   50    52    56    57     9 
   53    52    56    57     9 
   52    56    57    43     9 
   52    56    57    47     9 
   38    58    60    41     9 
   38    58    60    61     9 
   38    58    60    62     9 
   59    58    60    41     9 
   59    58    60    61     9 
   59    58    60    62     9 
   63    58    60    41     9 
   63    58    60    61     9 
   63    58    60    62     9 
   38    58    63    64     9 
   59    58    63    64     9 
   60    58    63    64     9 
   58    63    64    65     9 
   58    63    64    66     9 
   58    63    64    67     9 
   63    64    67    68     9 
   65    64    67    68     9 
   66    64    67    68     9 
   64    67    68    69     9 
   64    67    68    70     9 
   64    67    68    71     9 
   67    68    71    72     9 
   67    68    71    73     9 
   67    68    71    91     9 
   69    68    71    72     9 
   69    68    71    73     9 
   69    68    71    91     9 
   70    68    71    72     9 
   70    68    71    73     9 
   70    68    71    91     9 
   68    71    73    74     9 
   72    71    73    74     9 
   91    71    73    74     9 
   68    71    91    92     9 
   68    71    91    93     9 
   68    71    91    96     9 
   72    71    91    92     9 
   72    71    91    93     9 
   72    71    91    96     9 
   73    71    91    92     9 
   73    71    91    93     9 
   73    71    91    96     9 
   71    73    74    75     9 
   71    73    74    76     9 
   71    73    74    93     9 
   73    74    76    77     9 
   73    74    76    90     9 
   75    74    76    77     9 
   75    74    76    90     9 
   93    74    76    77     9 
   93    74    76    90     9 
   73    74    93    91     9 
   73    74    93    94     9 
   73    74    93    95     9 
   75    74    93    91     9 
   75    74    93    94     9 
   75    74    93    95     9 
   76    74    93    91     9 
   76    74    93    94     9 
   76    74    93    95     9 
   74    76    77    78     9 
   74    76    77    79     9 
   90    76    77    78     9 
   90    76    77    79     9 
   74    76    90    80     9 
   74    76    90    89     9 
   77    76    90    80     9 
   77    76    90    89     9 
   76    77    79    80     9 
   78    77    79    80     9 
   77    79    80    81     9 
   77    79    80    90     9 
   79    80    81    82     9 
   79    80    81    83     9 
   90    80    81    82     9 
   90    80    81    83     9 
   79    80    90    76     9 
   79    80    90    89     9 
   81    80    90    76     9 
   81    80    90    89     9 
   80    81    83    84     9 
   80    81    83    85     9 
   82    81    83    84     9 
   82    81    83    85     9 
   81    83    85    86     9 
   81    83    85    89     9 
   84    83    85    86     9 
   84    83    85    89     9 
   83    85    86    87     9 
   83    85    86    88     9 
   89    85    86    87     9 
   89    85    86    88     9 
   83    85    89    90     9 
   86    85    89    90     9 
   85    89    90    76     9 
   85    89    90    80     9 
   71    91    93    74     9 
   71    91    93    94     9 
   71    91    93    95     9 
   92    91    93    74     9 
   92    91    93    94     9 
   92    91    93    95     9 
   96    91    93    74     9 
   96    91    93    94     9 
   96    91    93    95     9 
   71    91    96    97     9 
   92    91    96    97     9 
   93    91    96    97     9 
   91    96    97    98     9 
   91    96    97    99     9 
   91    96    97   100     9 
   96    97   100   101     9 
   98    97   100   101     9 
   99    97   100   101     9 
   97   100   101   102     9 
   97   100   101   103     9 
   97   100   101   104     9 
  100   101   104   105     9 
  100   101   104   106     9 
  100   101   104   123     9 
  102   101   104   105     9 
  102   101   104   106     9 
  102   101   104   123     9 
  103   101   104   105     9 
  103   101   104   106     9 
  103   101   104   123     9 
  101   104   106   107     9 
  105   104   106   107     9 
  123   104   106   107     9 
  101   104   123   124     9 
  101   104   123   125     9 
  101   104   123   128     9 
  105   104   123   124     9 
  105   104   123   125     9 
  105   104   123   128     9 
  106   104   123   124     9 
  106   104   123   125     9 
  106   104   123   128     9 
  104   106   107   108     9 
  104   106   107   109     9 
  104   106   107   125     9 
  106   107   109   110     9 
  106   107   109   121     9 
  108   107   109   110     9 
  108   107   109   121     9 
  125   107   109   110     9 
  125   107   109   121     9 
  106   107   125   123     9 
  106   107   125   126     9 
  106   107   125   127     9 
  108   107   125   123     9 
  108   107   125   126     9 
  108   107   125   127     9 
  109   107   125   123     9 
  109   107   125   126     9 
  109   107   125   127     9 
  107   109   110   111     9 
  107   109   110   112     9 
  121   109   110   111     9 
  121   109   110   112     9 
  107   109   121   119     9 
  107   109   121   122     9 
  110   109   121   119     9 
  110   109   121   122     9 
  109   110   112   113     9 
  109   110   112   117     9 
  111   110   112   113     9 
  111   110   112   117     9 
  110   112   113   114     9 
  110   112   113   115     9 
  110   112   113   116     9 
  117   112   113   114     9 
  117   112   113   115     9 
  117   112   113   116     9 
  110   112   117   118     9 
  110   112   117   119     9 
  113   112   117   118     9 
  113   112   117   119     9 
  112   117   119   120     9 
  112   117   119   121     9 
  118   117   119   120     9 
  118   117   119   121     9 
  117   119   121   109     9 
  117   119   121   122     9 
  120   119   121   109     9 
  120   119   121   122     9 
  104   123   125   107     9 
  104   123   125   126     9 
  104   123   125   127     9 
  124   123   125   107     9 
  124   123   125   126     9 
  124   123   125   127     9 
  128   123   125   107     9 
  128   123   125   126     9 
  128   123   125   127     9 
  104   123   128   129     9 
  124   123   128   129     9 
  125   123   128   129     9 
  123   128   129   130     9 
  123   128   129   131     9 
  123   128   129   132     9 
  128   129   132   133     9 
  130   129   132   133     9 
  131   129   132   133     9 
  129   132   133   134     9 
  129   132   133   135     9 
  129   132   133   136     9 
  132   133   136   137     9 
  132   133   136   138     9 
  132   133   136   153     9 
  134   133   136   137     9 
  134   133   136   138     9 
  134   133   136   153     9 
  135   133   136   137     9 
  135   133   136   138     9 
  135   133   136   153     9 
  133   136   138   139     9 
  137   136   138   139     9 
  153   136   138   139     9 
  133   136   153   154     9 
  133   136   153   155     9 
  133   136   153   158     9 
  137   136   153   154     9 
  137   136   153   155     9 
  137   136   153   158     9 
  138   136   153   154     9 
  138   136   153   155     9 
  138   136   153   158     9 
  136   138   139   140     9 
  136   138   139   141     9 
  136   138   139   155     9 
  138   139   141   142     9 
  138   139   141   151     9 
  140   139   141   142     9 
  140   139   141   151     9 
  155   139   141   142     9 
  155   139   141   151     9 
  138   139   155   153     9 
  138   139   155   156     9 
  138   139   155   157     9 
  140   139   155   153     9 
  140   139   155   156     9 
  140   139   155   157     9 
  141   139   155   153     9 
  141   139   155   156     9 
  141   139   155   157     9 
  139   141   142   143     9 
  139   141   142   144     9 
  151   141   142   143     9 
  151   141   142   144     9 
  139   141   151   150     9 
  139   141   151   152     9 
  142   141   151   150     9 
  142   141   151   152     9 
  141   142   144   145     9 
  141   142   144   146     9 
  143   142   144   145     9 
  143   142   144   146     9 
  142   144   146   147     9 
  142   144   146   150     9 
  145   144   146   147     9 
  145   144   146   150     9 
  144   146   147   148     9 
  144   146   147   149     9 
  150   146   147   148     9 
  150   146   147   149     9 
  144   146   150   151     9 
  147   146   150   151     9 
  146   150   151   141     9 
  146   150   151   152     9 
  136   153   155   139     9 
  136   153   155   156     9 
  136   153   155   157     9 
  154   153   155   139     9 
  154   153   155   156     9 
  154   153   155   157     9 
  158   153   155   139     9 
  158   153   155   156     9 
  158   153   155   157     9 
  136   153   158   159     9 
  154   153   158   159     9 
  155   153   158   159     9 
  153   158   159   160     9 
  153   158   159   161     9 
  153   158   159   162     9 
  158   159   162   163     9 
  160   159   162   163     9 
  161   159   162   163     9 
  159   162   163   164     9 
  159   162   163   165     9 
  159   162   163   166     9 
  162   163   166   167     9 
  162   163   166   168     9 
  162   163   166   183     9 
  164   163   166   167     9 
  164   163   166   168     9 
  164   163   166   183     9 
  165   163   166   167     9 
  165   163   166   168     9 
  165   163   166   183     9 
  163   166   168   169     9 
  167   166   168   169     9 
  183   166   168   169     9 
  163   166   183   184     9 
  163   166   183   185     9 
  163   166   183   188     9 
  167   166   183   184     9 
  167   166   183   185     9 
  167   166   183   188     9 
  168   166   183   184     9 
  168   166   183   185     9 
  168   166   183   188     9 
  166   168   169   170     9 
  166   168   169   171     9 
  166   168   169   185     9 
  168   169   171   172     9 
  168   169   171   181     9 
  170   169   171   172     9 
  170   169   171   181     9 
  185   169   171   172     9 
  185   169   171   181     9 
  168   169   185   183     9 
  168   169   185   186     9 
  168   169   185   187     9 
  170   169   185   183     9 
  170   169   185   186     9 
  170   169   185   187     9 
  171   169   185   183     9 
  171   169   185   186     9 
  171   169   185   187     9 
  169   171   172   173     9 
  169   171   172   174     9 
  181   171   172   173     9 
  181   171   172   174     9 
  169   171   181   180     9 
  169   171   181   182     9 
  172   171   181   180     9 
  172   171   181   182     9 
  171   172   174   175     9 
  171   172   174   176     9 
  173   172   174   175     9 
  173   172   174   176     9 
  172   174   176   177     9 
  172   174   176   180     9 
  175   174   176   177     9 
  175   174   176   180     9 
  174   176   177   178     9 
  174   176   177   179     9 
  180   176   177   178     9 
  180   176   177   179     9 
  174   176   180   181     9 
  177   176   180   181     9 
  176   180   181   171     9 
  176   180   181   182     9 
  166   183   185   169     9 
  166   183   185   186     9 
  166   183   185   187     9 
  184   183   185   169     9 
  184   183   185   186     9 
  184   183   185   187     9 
  188   183   185   169     9 
  188   183   185   186     9 
  188   183   185   187     9 
  166   183   188   189     9 
  184   183   188   189     9 
  185   183   188   189     9 
  183   188   189   190     9 
  183   188   189   191     9 
  183   188   189   192     9 
  188   189   192   193     9 
  190   189   192   193     9 
  191   189   192   193     9 
  189   192   193   194     9 
  189   192   193   195     9 
  189   192   193   196     9 
  192   193   196   197     9 
  192   193   196   198     9 
  192   193   196   213     9 
  194   193   196   197     9 
  194   193   196   198     9 
  194   193   196   213     9 
  195   193   196   197     9 
  195   193   196   198     9 
  195   193   196   213     9 
  193   196   198   199     9 
  197   196   198   199     9 
  213   196   198   199     9 
  193   196   213   214     9 
  193   196   213   215     9 
  193   196   213   218     9 
  197   196   213   214     9 
  197   196   213   215     9 
  197   196   213   218     9 
  198   196   213   214     9 
  198   196   213   215     9 
  198   196   213   218     9 
  196   198   199   200     9 
  196   198   199   201     9 
  196   198   199   215     9 
  198   199   201   202     9 
  198   199   201   211     9 
  200   199   201   202     9 
  200   199   201   211     9 
  215   199   201   202     9 
  215   199   201   211     9 
  198   199   215   213     9 
  198   199   215   216     9 
  198   199   215   217     9 
  200   199   215   213     9 
  200   199   215   216     9 
  200   199   215   217     9 
  201   199   215   213     9 
  201   199   215   216     9 
  201   199   215   217     9 
  199   201   202   203     9 
  199   201   202   204     9 
  211   201   202   203     9 
  211   201   202   204     9 
  199   201   211   210     9 
  199   201   211   212     9 
  202   201   211   210     9 
  202   201   211   212     9 
  201   202   204   205     9 
  201   202   204   206     9 
  203   202   204   205     9 
  203   202   204   206     9 
  202   204   206   207     9 
  202   204   206   210     9 
  205   204   206   207     9 
  205   204   206   210     9 
  204   206   207   208     9 
  204   206   207   209     9 
  210   206   207   208     9 
  210   206   207   209     9 
  204   206   210   211     9 
  207   206   210   211     9 
  206   210   211   201     9 
  206   210   211   212     9 
  196   213   215   199     9 
  196   213   215   216     9 
  196   213   215   217     9 
  214   213   215   199     9 
  214   213   215   216     9 
  214   213   215   217     9 
  218   213   215   199     9 
  218   213   215   216     9 
  218   213   215   217     9 
  196   213   218   219     9 
  214   213   218   219     9 
  215   213   218   219     9 
  213   218   219   220     9 
  213   218   219   221     9 
  213   218   219   222     9 
  218   219   222   223     9 
  220   219   222   223     9 
  221   219   222   223     9 
  219   222   223   224     9 
  219   222   223   225     9 
  219   222   223   226     9 
  222   223   226   227     9 
  222   223   226   228     9 
  222   223   226   245     9 
  224   223   226   227     9 
  224   223   226   228     9 
  224   223   226   245     9 
  225   223   226   227     9 
  225   223   226   228     9 
  225   223   226   245     9 
  223   226   228   229     9 
  227   226   228   229     9 
  245   226   228   229     9 
  223   226   245   246     9 
  223   226   245   247     9 
  223   226   245   250     9 
  227   226   245   246     9 
  227   226   245   247     9 
  227   226   245   250     9 
  228   226   245   246     9 
  228   226   245   247     9 
  228   226   245   250     9 
  226   228   229   230     9 
  226   228   229   231     9 
  226   228   229   247     9 
  228   229   231   232     9 
  228   229   231   244     9 
  230   229   231   232     9 
  230   229   231   244     9 
  247   229   231   232     9 
  247   229   231   244     9 
  228   229   247   245     9 
  228   229   247   248     9 
  228   229   247   249     9 
  230   229   247   245     9 
  230   229   247   248     9 
  230   229   247   249     9 
  231   229   247   245     9 
  231   229   247   248     9 
  231   229   247   249     9 
  229   231   232   233     9 
  229   231   232   234     9 
  244   231   232   233     9 
  244   231   232   234     9 
  229   231   244   235     9 
  229   231   244   243     9 
  232   231   244   235     9 
  232   231   244   243     9 
  231   232   234   235     9 
  233   232   234   235     9 
  232   234   235   236     9 
  232   234   235   244     9 
  234   235   236   237     9 
  234   235   236   240     9 
  244   235   236   237     9 
  244   235   236   240     9 
  234   235   244   231     9 
  234   235   244   243     9 
  236   235   244   231     9 
  236   235   244   243     9 
  235   236   237   238     9 
  235   236   237   239     9 
  240   236   237   238     9 
  240   236   237   239     9 
  235   236   240   241     9 
  237   236   240   241     9 
  236   240   241   242     9 
  236   240   241   243     9 
  240   241   243   244     9 
  242   241   243   244     9 
  241   243   244   231     9 
  241   243   244   235     9 
  226   245   247   229     9 
  226   245   247   248     9 
  226   245   247   249     9 
  246   245   247   229     9 
  246   245   247   248     9 
  246   245   247   249     9 
  250   245   247   229     9 
  250   245   247   248     9 
  250   245   247   249     9 
  226   245   250   251     9 
  246   245   250   251     9 
  247   245   250   251     9 
  245   250   251   252     9 
  245   250   251   253     9 
  245   250   251   254     9 
  250   251   254   255     9 
  252   251   254   255     9 
  253   251   254   255     9 
  251   254   255   256     9 
  251   254   255   257     9 
  251   254   255   258     9 
  254   255   258   259     9 
  254   255   258   260     9 
  254   255   258   275     9 
  256   255   258   259     9 
  256   255   258   260     9 
  256   255   258   275     9 
  257   255   258   259     9 
  257   255   258   260     9 
  257   255   258   275     9 
  255   258   260   261     9 
  259   258   260   261     9 
  275   258   260   261     9 
  255   258   275   276     9 
  255   258   275   277     9 
  255   258   275   280     9 
  259   258   275   276     9 
  259   258   275   277     9 
  259   258   275   280     9 
  260   258   275   276     9 
  260   258   275   277     9 
  260   258   275   280     9 
  258   260   261   262     9 
  258   260   261   263     9 
  258   260   261   277     9 
  260   261   263   264     9 
  260   261   263   273     9 
  262   261   263   264     9 
  262   261   263   273     9 
  277   261   263   264     9 
  277   261   263   273     9 
  260   261   277   275     9 
  260   261   277   278     9 
  260   261   277   279     9 
  262   261   277   275     9 
  262   261   277   278     9 
  262   261   277   279     9 
  263   261   277   275     9 
  263   261   277   278     9 
  263   261   277   279     9 
  261   263   264   265     9 
  261   263   264   266     9 
  273   263   264   265     9 
  273   263   264   266     9 
  261   263   273   272     9 
  261   263   273   274     9 
  264   263   273   272     9 
  264   263   273   274     9 
  263   264   266   267     9 
  263   264   266   268     9 
  265   264   266   267     9 
  265   264   266   268     9 
  264   266   268   269     9 
  264   266   268   272     9 
  267   266   268   269     9 
  267   266   268   272     9 
  266   268   269   270     9 
  266   268   269   271     9 
  272   268   269   270     9 
  272   268   269   271     9 
  266   268   272   273     9 
  269   268   272   273     9 
  268   272   273   263     9 
  268   272   273   274     9 
  258   275   277   261     9 
  258   275   277   278     9 
  258   275   277   279     9 
  276   275   277   261     9 
  276   275   277   278     9 
  276   275   277   279     9 
  280   275   277   261     9 
  280   275   277   278     9 
  280   275   277   279     9 
  258   275   280   281     9 
  276   275   280   281     9 
  277   275   280   281     9 
  275   280   281   282     9 
  275   280   281   283     9 
  275   280   281   284     9 
  280   281   284   285     9 
  282   281   284   285     9 
  283   281   284   285     9 
  281   284   285   286     9 
  281   284   285   287     9 
  281   284   285   288     9 
  284   285   288   289     9 
  284   285   288   290     9 
  284   285   288   308     9 
  286   285   288   289     9 
  286   285   288   290     9 
  286   285   288   308     9 
  287   285   288   289     9 
  287   285   288   290     9 
  287   285   288   308     9 
  285   288   290   291     9 
  289   288   290   291     9 
  308   288   290   291     9 
  285   288   308   309     9 
  285   288   308   310     9 
  285   288   308   313     9 
  289   288   308   309     9 
  289   288   308   310     9 
  289   288   308   313     9 
  290   288   308   309     9 
  290   288   308   310     9 
  290   288   308   313     9 
  288   290   291   292     9 
  288   290   291   293     9 
  288   290   291   310     9 
  290   291   293   294     9 
  290   291   293   307     9 
  292   291   293   294     9 
  292   291   293   307     9 
  310   291   293   294     9 
  310   291   293   307     9 
  290   291   310   308     9 
  290   291   310   311     9 
  290   291   310   312     9 
  292   291   310   308     9 
  292   291   310   311     9 
  292   291   310   312     9 
  293   291   310   308     9 
  293   291   310   311     9 
  293   291   310   312     9 
  291   293   294   295     9 
  291   293   294   296     9 
  307   293   294   295     9 
  307   293   294   296     9 
  291   293   307   297     9 
  291   293   307   306     9 
  294   293   307   297     9 
  294   293   307   306     9 
  293   294   296   297     9 
  295   294   296   297     9 
  294   296   297   298     9 
  294   296   297   307     9 
  296   297   298   299     9 
  296   297   298   300     9 
  307   297   298   299     9 
  307   297   298   300     9 
  296   297   307   293     9 
  296   297   307   306     9 
  298   297   307   293     9 
  298   297   307   306     9 
  297   298   300   301     9 
  297   298   300   302     9 
  299   298   300   301     9 
  299   298   300   302     9 
  298   300   302   303     9 
  298   300   302   306     9 
  301   300   302   303     9 
  301   300   302   306     9 
  300   302   303   304     9 
  300   302   303   305     9 
  306   302   303   304     9 
  306   302   303   305     9 
  300   302   306   307     9 
  303   302   306   307     9 
  302   306   307   293     9 
  302   306   307   297     9 
  288   308   310   291     9 
  288   308   310   311     9 
  288   308   310   312     9 
  309   308   310   291     9 
  309   308   310   311     9 
  309   308   310   312     9 
  313   308   310   291     9 
  313   308   310   311     9 
  313   308   310   312     9 
  288   308   313   314     9 
  309   308   313   314     9 
  310   308   313   314     9 
  308   313   314   315     9 
  308   313   314   316     9 
  308   313   314   317     9 
  313   314   317   318     9 
  315   314   317   318     9 
  316   314   317   318     9 
  314   317   318   319     9 
  314   317   318   320     9 
  314   317   318   321     9 
  317   318   321   322     9 
  317   318   321   323     9 
  317   318   321   338     9 
  319   318   321   322     9 
  319   318   321   323     9 
  319   318   321   338     9 
  320   318   321   322     9 
  320   318   321   323     9 
  320   318   321   338     9 
  318   321   323   324     9 
  322   321   323   324     9 
  338   321   323   324     9 
  318   321   338   339     9 
  318   321   338   340     9 
  318   321   338   343     9 
  322   321   338   339     9 
  322   321   338   340     9 
  322   321   338   343     9 
  323   321   338   339     9 
  323   321   338   340     9 
  323   321   338   343     9 
  321   323   324   325     9 
  321   323   324   326     9 
  321   323   324   340     9 
  323   324   326   327     9 
  323   324   326   336     9 
  325   324   326   327     9 
  325   324   326   336     9 
  340   324   326   327     9 
  340   324   326   336     9 
  323   324   340   338     9 
  323   324   340   341     9 
  323   324   340   342     9 
  325   324   340   338     9 
  325   324   340   341     9 
  325   324   340   342     9 
  326   324   340   338     9 
  326   324   340   341     9 
  326   324   340   342     9 
  324   326   327   328     9 
  324   326   327   329     9 
  336   326   327   328     9 
  336   326   327   329     9 
  324   326   336   335     9 
  324   326   336   337     9 
  327   326   336   335     9 
  327   326   336   337     9 
  326   327   329   330     9 
  326   327   329   331     9 
  328   327   329   330     9 
  328   327   329   331     9 
  327   329   331   332     9 
  327   329   331   335     9 
  330   329   331   332     9 
  330   329   331   335     9 
  329   331   332   333     9 
  329   331   332   334     9 
  335   331   332   333     9 
  335   331   332   334     9 
  329   331   335   336     9 
  332   331   335   336     9 
  331   335   336   326     9 
  331   335   336   337     9 
  321   338   340   324     9 
  321   338   340   341     9 
  321   338   340   342     9 
  339   338   340   324     9 
  339   338   340   341     9 
  339   338   340   342     9 
  343   338   340   324     9 
  343   338   340   341     9 
  343   338   340   342     9 
  321   338   343   344     9 
  339   338   343   344     9 
  340   338   343   344     9 

[ dihedrals ]
;  ai    aj    ak    al funct            c0            c1            c2            c3
    9    11    12    23     4 
   11    14    12    13     4 
   11    21    23    24     4 
   14    21    19    20     4 
   15    14    12    19     4 
   19    23    21    22     4 
   41    43    44    57     4 
   43    46    44    45     4 
   47    50    48    49     4 
   48    52    50    51     4 
   52    54    53    55     4 
   53    50    52    56     4 
   74    76    77    90     4 
   76    79    77    78     4 
   80    83    81    82     4 
   81    85    83    84     4 
   85    87    86    88     4 
   86    83    85    89     4 
  107   109   110   121     4 
  109   112   110   111     4 
  109   119   121   122     4 
  112   119   117   118     4 
  113   112   110   117     4 
  117   121   119   120     4 
  139   141   142   151     4 
  141   144   142   143     4 
  141   150   151   152     4 
  142   146   144   145     4 
  144   147   146   150     4 
  146   148   147   149     4 
  169   171   172   181     4 
  171   174   172   173     4 
  171   180   181   182     4 
  172   176   174   175     4 
  174   177   176   180     4 
  176   178   177   179     4 
  199   201   202   211     4 
  201   204   202   203     4 
  201   210   211   212     4 
  202   206   204   205     4 
  204   207   206   210     4 
  206   208   207   209     4 
  229   231   232   244     4 
  231   234   232   233     4 
  235   237   236   240     4 
  236   238   237   239     4 
  240   243   241   242     4 
  261   263   264   273     4 
  263   266   264   265     4 
  263   272   273   274     4 
  264   268   266   267     4 
  266   269   268   272     4 
  268   270   269   271     4 
  291   293   294   307     4 
  293   296   294   295     4 
  297   300   298   299     4 
  298   302   300   301     4 
  302   304   303   305     4 
  303   300   302   306     4 
  324   326   327   336     4 
  326   329   327   328     4 
  326   335   336   337     4 
  327   331   329   330     4 
  329   332   331   335     4 
  331   333   332   334     4 

; Include Position restraint file
#ifdef POSRES
#include "posre_DNA_chain_C.itp"
#endif

