;
;	File 'topol_DNA_chain_B.itp' was generated
;	By user: unknown (93529)
;	On host: chas009
;	At date: Fri Feb 27 10:57:00 2026
;
;	This is a include topology file
;
;	Created by:
;	              :-) GROMACS - gmx pdb2gmx, 2021.4-plumed-2.8.0 (-:
;	
;	Executable:   /home/apps/centos7/gromacs/2021.4/gcc9.1_ompi4.1.2/bin/gmx_mpi
;	Data prefix:  /home/apps/centos7/gromacs/2021.4/gcc9.1_ompi4.1.2
;	Working dir:  /scratch/mse/phd/msz208502/dev_gromacs/10_dsDNA
;	Command line:
;	  gmx_mpi pdb2gmx -f clean.pdb -o processed.gro -p topol.top -ter
;	Force field was read from the standard GROMACS share directory.
;

[ moleculetype ]
; Name            nrexcl
DNA_chain_B         3

[ atoms ]
;   nr       type  resnr residue  atom   cgnr     charge       mass  typeB    chargeB      massB
; residue   1 DA  rtp DA5  q -0.3
     1         OH      1     DA    O5'      1    -0.6318         16
     2         HO      1     DA    H5T      2     0.4422      1.008
     3         CT      1     DA    C5'      3    -0.0069      12.01
     4         H1      1     DA   H5'1      4     0.0754      1.008
     5         H1      1     DA   H5'2      5     0.0754      1.008
     6         CT      1     DA    C4'      6     0.1629      12.01
     7         H1      1     DA    H4'      7     0.1176      1.008
     8         OS      1     DA    O4'      8    -0.3691         16
     9         CT      1     DA    C1'      9     0.0431      12.01
    10         H2      1     DA    H1'     10     0.1838      1.008
    11         N*      1     DA     N9     11    -0.0268      14.01
    12         CK      1     DA     C8     12     0.1607      12.01
    13         H5      1     DA     H8     13     0.1877      1.008
    14         NB      1     DA     N7     14    -0.6175      14.01
    15         CB      1     DA     C5     15     0.0725      12.01
    16         CA      1     DA     C6     16     0.6897      12.01
    17         N2      1     DA     N6     17    -0.9123      14.01
    18          H      1     DA    H61     18     0.4167      1.008
    19          H      1     DA    H62     19     0.4167      1.008
    20         NC      1     DA     N1     20    -0.7624      14.01
    21         CQ      1     DA     C2     21     0.5716      12.01
    22         H5      1     DA     H2     22     0.0598      1.008
    23         NC      1     DA     N3     23    -0.7417      14.01
    24         CB      1     DA     C4     24       0.38      12.01
    25         CT      1     DA    C3'     25     0.0713      12.01
    26         H1      1     DA    H3'     26     0.0985      1.008
    27         CT      1     DA    C2'     27    -0.0854      12.01
    28         HC      1     DA   H2'1     28     0.0718      1.008
    29         HC      1     DA   H2'2     29     0.0718      1.008
    30         OS      1     DA    O3'     30    -0.5232         16   ; qtot -0.3079
; residue   2 DG  rtp DG   q -1.0
    31          P      2     DG      P     31     1.1659      30.97
    32         O2      2     DG    O1P     32    -0.7761         16
    33         O2      2     DG    O2P     33    -0.7761         16
    34         OS      2     DG    O5'     34    -0.4954         16
    35         CT      2     DG    C5'     35    -0.0069      12.01
    36         H1      2     DG   H5'1     36     0.0754      1.008
    37         H1      2     DG   H5'2     37     0.0754      1.008
    38         CT      2     DG    C4'     38     0.1629      12.01
    39         H1      2     DG    H4'     39     0.1176      1.008
    40         OS      2     DG    O4'     40    -0.3691         16
    41         CT      2     DG    C1'     41     0.0358      12.01
    42         H2      2     DG    H1'     42     0.1746      1.008
    43         N*      2     DG     N9     43     0.0577      14.01
    44         CK      2     DG     C8     44     0.0736      12.01
    45         H5      2     DG     H8     45     0.1997      1.008
    46         NB      2     DG     N7     46    -0.5725      14.01
    47         CB      2     DG     C5     47     0.1991      12.01
    48          C      2     DG     C6     48     0.4918      12.01
    49          O      2     DG     O6     49    -0.5699         16
    50         NA      2     DG     N1     50    -0.5053      14.01
    51          H      2     DG     H1     51      0.352      1.008
    52         CA      2     DG     C2     52     0.7432      12.01
    53         N2      2     DG     N2     53     -0.923      14.01
    54          H      2     DG    H21     54     0.4235      1.008
    55          H      2     DG    H22     55     0.4235      1.008
    56         NC      2     DG     N3     56    -0.6636      14.01
    57         CB      2     DG     C4     57     0.1814      12.01
    58         CT      2     DG    C3'     58     0.0713      12.01
    59         H1      2     DG    H3'     59     0.0985      1.008
    60         CT      2     DG    C2'     60    -0.0854      12.01
    61         HC      2     DG   H2'1     61     0.0718      1.008
    62         HC      2     DG   H2'2     62     0.0718      1.008
    63         OS      2     DG    O3'     63    -0.5232         16   ; qtot -1.308
; residue   3 DC  rtp DC   q -1.0
    64          P      3     DC      P     64     1.1659      30.97
    65         O2      3     DC    O1P     65    -0.7761         16
    66         O2      3     DC    O2P     66    -0.7761         16
    67         OS      3     DC    O5'     67    -0.4954         16
    68         CT      3     DC    C5'     68    -0.0069      12.01
    69         H1      3     DC   H5'1     69     0.0754      1.008
    70         H1      3     DC   H5'2     70     0.0754      1.008
    71         CT      3     DC    C4'     71     0.1629      12.01
    72         H1      3     DC    H4'     72     0.1176      1.008
    73         OS      3     DC    O4'     73    -0.3691         16
    74         CT      3     DC    C1'     74    -0.0116      12.01
    75         H2      3     DC    H1'     75     0.1963      1.008
    76         N*      3     DC     N1     76    -0.0339      14.01
    77         CM      3     DC     C6     77    -0.0183      12.01
    78         H4      3     DC     H6     78     0.2293      1.008
    79         CM      3     DC     C5     79    -0.5222      12.01
    80         HA      3     DC     H5     80     0.1863      1.008
    81         CA      3     DC     C4     81     0.8439      12.01
    82         N2      3     DC     N4     82    -0.9773      14.01
    83          H      3     DC    H41     83     0.4314      1.008
    84          H      3     DC    H42     84     0.4314      1.008
    85         NC      3     DC     N3     85    -0.7748      14.01
    86          C      3     DC     C2     86     0.7959      12.01
    87          O      3     DC     O2     87    -0.6548         16
    88         CT      3     DC    C3'     88     0.0713      12.01
    89         H1      3     DC    H3'     89     0.0985      1.008
    90         CT      3     DC    C2'     90    -0.0854      12.01
    91         HC      3     DC   H2'1     91     0.0718      1.008
    92         HC      3     DC   H2'2     92     0.0718      1.008
    93         OS      3     DC    O3'     93    -0.5232         16   ; qtot -2.308
; residue   4 DG  rtp DG   q -1.0
    94          P      4     DG      P     94     1.1659      30.97
    95         O2      4     DG    O1P     95    -0.7761         16
    96         O2      4     DG    O2P     96    -0.7761         16
    97         OS      4     DG    O5'     97    -0.4954         16
    98         CT      4     DG    C5'     98    -0.0069      12.01
    99         H1      4     DG   H5'1     99     0.0754      1.008
   100         H1      4     DG   H5'2    100     0.0754      1.008
   101         CT      4     DG    C4'    101     0.1629      12.01
   102         H1      4     DG    H4'    102     0.1176      1.008
   103         OS      4     DG    O4'    103    -0.3691         16
   104         CT      4     DG    C1'    104     0.0358      12.01
   105         H2      4     DG    H1'    105     0.1746      1.008
   106         N*      4     DG     N9    106     0.0577      14.01
   107         CK      4     DG     C8    107     0.0736      12.01
   108         H5      4     DG     H8    108     0.1997      1.008
   109         NB      4     DG     N7    109    -0.5725      14.01
   110         CB      4     DG     C5    110     0.1991      12.01
   111          C      4     DG     C6    111     0.4918      12.01
   112          O      4     DG     O6    112    -0.5699         16
   113         NA      4     DG     N1    113    -0.5053      14.01
   114          H      4     DG     H1    114      0.352      1.008
   115         CA      4     DG     C2    115     0.7432      12.01
   116         N2      4     DG     N2    116     -0.923      14.01
   117          H      4     DG    H21    117     0.4235      1.008
   118          H      4     DG    H22    118     0.4235      1.008
   119         NC      4     DG     N3    119    -0.6636      14.01
   120         CB      4     DG     C4    120     0.1814      12.01
   121         CT      4     DG    C3'    121     0.0713      12.01
   122         H1      4     DG    H3'    122     0.0985      1.008
   123         CT      4     DG    C2'    123    -0.0854      12.01
   124         HC      4     DG   H2'1    124     0.0718      1.008
   125         HC      4     DG   H2'2    125     0.0718      1.008
   126         OS      4     DG    O3'    126    -0.5232         16   ; qtot -3.308
; residue   5 DT  rtp DT   q -1.0
   127          P      5     DT      P    127     1.1659      30.97
   128         O2      5     DT    O1P    128    -0.7761         16
   129         O2      5     DT    O2P    129    -0.7761         16
   130         OS      5     DT    O5'    130    -0.4954         16
   131         CT      5     DT    C5'    131    -0.0069      12.01
   132         H1      5     DT   H5'1    132     0.0754      1.008
   133         H1      5     DT   H5'2    133     0.0754      1.008
   134         CT      5     DT    C4'    134     0.1629      12.01
   135         H1      5     DT    H4'    135     0.1176      1.008
   136         OS      5     DT    O4'    136    -0.3691         16
   137         CT      5     DT    C1'    137      0.068      12.01
   138         H2      5     DT    H1'    138     0.1804      1.008
   139         N*      5     DT     N1    139    -0.0239      14.01
   140         CM      5     DT     C6    140    -0.2209      12.01
   141         H4      5     DT     H6    141     0.2607      1.008
   142         CM      5     DT     C5    142     0.0025      12.01
   143         CT      5     DT     C7    143    -0.2269      12.01
   144         HC      5     DT    H71    144      0.077      1.008
   145         HC      5     DT    H72    145      0.077      1.008
   146         HC      5     DT    H73    146      0.077      1.008
   147          C      5     DT     C4    147     0.5194      12.01
   148          O      5     DT     O4    148    -0.5563         16
   149         NA      5     DT     N3    149     -0.434      14.01
   150          H      5     DT     H3    150      0.342      1.008
   151          C      5     DT     C2    151     0.5677      12.01
   152          O      5     DT     O2    152    -0.5881         16
   153         CT      5     DT    C3'    153     0.0713      12.01
   154         H1      5     DT    H3'    154     0.0985      1.008
   155         CT      5     DT    C2'    155    -0.0854      12.01
   156         HC      5     DT   H2'1    156     0.0718      1.008
   157         HC      5     DT   H2'2    157     0.0718      1.008
   158         OS      5     DT    O3'    158    -0.5232         16   ; qtot -4.308
; residue   6 DG  rtp DG   q -1.0
   159          P      6     DG      P    159     1.1659      30.97
   160         O2      6     DG    O1P    160    -0.7761         16
   161         O2      6     DG    O2P    161    -0.7761         16
   162         OS      6     DG    O5'    162    -0.4954         16
   163         CT      6     DG    C5'    163    -0.0069      12.01
   164         H1      6     DG   H5'1    164     0.0754      1.008
   165         H1      6     DG   H5'2    165     0.0754      1.008
   166         CT      6     DG    C4'    166     0.1629      12.01
   167         H1      6     DG    H4'    167     0.1176      1.008
   168         OS      6     DG    O4'    168    -0.3691         16
   169         CT      6     DG    C1'    169     0.0358      12.01
   170         H2      6     DG    H1'    170     0.1746      1.008
   171         N*      6     DG     N9    171     0.0577      14.01
   172         CK      6     DG     C8    172     0.0736      12.01
   173         H5      6     DG     H8    173     0.1997      1.008
   174         NB      6     DG     N7    174    -0.5725      14.01
   175         CB      6     DG     C5    175     0.1991      12.01
   176          C      6     DG     C6    176     0.4918      12.01
   177          O      6     DG     O6    177    -0.5699         16
   178         NA      6     DG     N1    178    -0.5053      14.01
   179          H      6     DG     H1    179      0.352      1.008
   180         CA      6     DG     C2    180     0.7432      12.01
   181         N2      6     DG     N2    181     -0.923      14.01
   182          H      6     DG    H21    182     0.4235      1.008
   183          H      6     DG    H22    183     0.4235      1.008
   184         NC      6     DG     N3    184    -0.6636      14.01
   185         CB      6     DG     C4    185     0.1814      12.01
   186         CT      6     DG    C3'    186     0.0713      12.01
   187         H1      6     DG    H3'    187     0.0985      1.008
   188         CT      6     DG    C2'    188    -0.0854      12.01
   189         HC      6     DG   H2'1    189     0.0718      1.008
   190         HC      6     DG   H2'2    190     0.0718      1.008
   191         OS      6     DG    O3'    191    -0.5232         16   ; qtot -5.308
; residue   7 DG  rtp DG   q -1.0
   192          P      7     DG      P    192     1.1659      30.97
   193         O2      7     DG    O1P    193    -0.7761         16
   194         O2      7     DG    O2P    194    -0.7761         16
   195         OS      7     DG    O5'    195    -0.4954         16
   196         CT      7     DG    C5'    196    -0.0069      12.01
   197         H1      7     DG   H5'1    197     0.0754      1.008
   198         H1      7     DG   H5'2    198     0.0754      1.008
   199         CT      7     DG    C4'    199     0.1629      12.01
   200         H1      7     DG    H4'    200     0.1176      1.008
   201         OS      7     DG    O4'    201    -0.3691         16
   202         CT      7     DG    C1'    202     0.0358      12.01
   203         H2      7     DG    H1'    203     0.1746      1.008
   204         N*      7     DG     N9    204     0.0577      14.01
   205         CK      7     DG     C8    205     0.0736      12.01
   206         H5      7     DG     H8    206     0.1997      1.008
   207         NB      7     DG     N7    207    -0.5725      14.01
   208         CB      7     DG     C5    208     0.1991      12.01
   209          C      7     DG     C6    209     0.4918      12.01
   210          O      7     DG     O6    210    -0.5699         16
   211         NA      7     DG     N1    211    -0.5053      14.01
   212          H      7     DG     H1    212      0.352      1.008
   213         CA      7     DG     C2    213     0.7432      12.01
   214         N2      7     DG     N2    214     -0.923      14.01
   215          H      7     DG    H21    215     0.4235      1.008
   216          H      7     DG    H22    216     0.4235      1.008
   217         NC      7     DG     N3    217    -0.6636      14.01
   218         CB      7     DG     C4    218     0.1814      12.01
   219         CT      7     DG    C3'    219     0.0713      12.01
   220         H1      7     DG    H3'    220     0.0985      1.008
   221         CT      7     DG    C2'    221    -0.0854      12.01
   222         HC      7     DG   H2'1    222     0.0718      1.008
   223         HC      7     DG   H2'2    223     0.0718      1.008
   224         OS      7     DG    O3'    224    -0.5232         16   ; qtot -6.308
; residue   8 DG  rtp DG   q -1.0
   225          P      8     DG      P    225     1.1659      30.97
   226         O2      8     DG    O1P    226    -0.7761         16
   227         O2      8     DG    O2P    227    -0.7761         16
   228         OS      8     DG    O5'    228    -0.4954         16
   229         CT      8     DG    C5'    229    -0.0069      12.01
   230         H1      8     DG   H5'1    230     0.0754      1.008
   231         H1      8     DG   H5'2    231     0.0754      1.008
   232         CT      8     DG    C4'    232     0.1629      12.01
   233         H1      8     DG    H4'    233     0.1176      1.008
   234         OS      8     DG    O4'    234    -0.3691         16
   235         CT      8     DG    C1'    235     0.0358      12.01
   236         H2      8     DG    H1'    236     0.1746      1.008
   237         N*      8     DG     N9    237     0.0577      14.01
   238         CK      8     DG     C8    238     0.0736      12.01
   239         H5      8     DG     H8    239     0.1997      1.008
   240         NB      8     DG     N7    240    -0.5725      14.01
   241         CB      8     DG     C5    241     0.1991      12.01
   242          C      8     DG     C6    242     0.4918      12.01
   243          O      8     DG     O6    243    -0.5699         16
   244         NA      8     DG     N1    244    -0.5053      14.01
   245          H      8     DG     H1    245      0.352      1.008
   246         CA      8     DG     C2    246     0.7432      12.01
   247         N2      8     DG     N2    247     -0.923      14.01
   248          H      8     DG    H21    248     0.4235      1.008
   249          H      8     DG    H22    249     0.4235      1.008
   250         NC      8     DG     N3    250    -0.6636      14.01
   251         CB      8     DG     C4    251     0.1814      12.01
   252         CT      8     DG    C3'    252     0.0713      12.01
   253         H1      8     DG    H3'    253     0.0985      1.008
   254         CT      8     DG    C2'    254    -0.0854      12.01
   255         HC      8     DG   H2'1    255     0.0718      1.008
   256         HC      8     DG   H2'2    256     0.0718      1.008
   257         OS      8     DG    O3'    257    -0.5232         16   ; qtot -7.308
; residue   9 DA  rtp DA   q -1.0
   258          P      9     DA      P    258     1.1659      30.97
   259         O2      9     DA    O1P    259    -0.7761         16
   260         O2      9     DA    O2P    260    -0.7761         16
   261         OS      9     DA    O5'    261    -0.4954         16
   262         CT      9     DA    C5'    262    -0.0069      12.01
   263         H1      9     DA   H5'1    263     0.0754      1.008
   264         H1      9     DA   H5'2    264     0.0754      1.008
   265         CT      9     DA    C4'    265     0.1629      12.01
   266         H1      9     DA    H4'    266     0.1176      1.008
   267         OS      9     DA    O4'    267    -0.3691         16
   268         CT      9     DA    C1'    268     0.0431      12.01
   269         H2      9     DA    H1'    269     0.1838      1.008
   270         N*      9     DA     N9    270    -0.0268      14.01
   271         CK      9     DA     C8    271     0.1607      12.01
   272         H5      9     DA     H8    272     0.1877      1.008
   273         NB      9     DA     N7    273    -0.6175      14.01
   274         CB      9     DA     C5    274     0.0725      12.01
   275         CA      9     DA     C6    275     0.6897      12.01
   276         N2      9     DA     N6    276    -0.9123      14.01
   277          H      9     DA    H61    277     0.4167      1.008
   278          H      9     DA    H62    278     0.4167      1.008
   279         NC      9     DA     N1    279    -0.7624      14.01
   280         CQ      9     DA     C2    280     0.5716      12.01
   281         H5      9     DA     H2    281     0.0598      1.008
   282         NC      9     DA     N3    282    -0.7417      14.01
   283         CB      9     DA     C4    283       0.38      12.01
   284         CT      9     DA    C3'    284     0.0713      12.01
   285         H1      9     DA    H3'    285     0.0985      1.008
   286         CT      9     DA    C2'    286    -0.0854      12.01
   287         HC      9     DA   H2'1    287     0.0718      1.008
   288         HC      9     DA   H2'2    288     0.0718      1.008
   289         OS      9     DA    O3'    289    -0.5232         16   ; qtot -8.308
; residue  10 DC  rtp DC   q -1.0
   290          P     10     DC      P    290     1.1659      30.97
   291         O2     10     DC    O1P    291    -0.7761         16
   292         O2     10     DC    O2P    292    -0.7761         16
   293         OS     10     DC    O5'    293    -0.4954         16
   294         CT     10     DC    C5'    294    -0.0069      12.01
   295         H1     10     DC   H5'1    295     0.0754      1.008
   296         H1     10     DC   H5'2    296     0.0754      1.008
   297         CT     10     DC    C4'    297     0.1629      12.01
   298         H1     10     DC    H4'    298     0.1176      1.008
   299         OS     10     DC    O4'    299    -0.3691         16
   300         CT     10     DC    C1'    300    -0.0116      12.01
   301         H2     10     DC    H1'    301     0.1963      1.008
   302         N*     10     DC     N1    302    -0.0339      14.01
   303         CM     10     DC     C6    303    -0.0183      12.01
   304         H4     10     DC     H6    304     0.2293      1.008
   305         CM     10     DC     C5    305    -0.5222      12.01
   306         HA     10     DC     H5    306     0.1863      1.008
   307         CA     10     DC     C4    307     0.8439      12.01
   308         N2     10     DC     N4    308    -0.9773      14.01
   309          H     10     DC    H41    309     0.4314      1.008
   310          H     10     DC    H42    310     0.4314      1.008
   311         NC     10     DC     N3    311    -0.7748      14.01
   312          C     10     DC     C2    312     0.7959      12.01
   313          O     10     DC     O2    313    -0.6548         16
   314         CT     10     DC    C3'    314     0.0713      12.01
   315         H1     10     DC    H3'    315     0.0985      1.008
   316         CT     10     DC    C2'    316    -0.0854      12.01
   317         HC     10     DC   H2'1    317     0.0718      1.008
   318         HC     10     DC   H2'2    318     0.0718      1.008
   319         OS     10     DC    O3'    319    -0.5232         16   ; qtot -9.308
; residue  11 DC  rtp DC3  q -0.7
   320          P     11     DC      P    320     1.1659      30.97
   321         O2     11     DC    O1P    321    -0.7761         16
   322         O2     11     DC    O2P    322    -0.7761         16
   323         OS     11     DC    O5'    323    -0.4954         16
   324         CT     11     DC    C5'    324    -0.0069      12.01
   325         H1     11     DC   H5'1    325     0.0754      1.008
   326         H1     11     DC   H5'2    326     0.0754      1.008
   327         CT     11     DC    C4'    327     0.1629      12.01
   328         H1     11     DC    H4'    328     0.1176      1.008
   329         OS     11     DC    O4'    329    -0.3691         16
   330         CT     11     DC    C1'    330    -0.0116      12.01
   331         H2     11     DC    H1'    331     0.1963      1.008
   332         N*     11     DC     N1    332    -0.0339      14.01
   333         CM     11     DC     C6    333    -0.0183      12.01
   334         H4     11     DC     H6    334     0.2293      1.008
   335         CM     11     DC     C5    335    -0.5222      12.01
   336         HA     11     DC     H5    336     0.1863      1.008
   337         CA     11     DC     C4    337     0.8439      12.01
   338         N2     11     DC     N4    338    -0.9773      14.01
   339          H     11     DC    H41    339     0.4314      1.008
   340          H     11     DC    H42    340     0.4314      1.008
   341         NC     11     DC     N3    341    -0.7748      14.01
   342          C     11     DC     C2    342     0.7959      12.01
   343          O     11     DC     O2    343    -0.6548         16
   344         CT     11     DC    C3'    344     0.0713      12.01
   345         H1     11     DC    H3'    345     0.0985      1.008
   346         CT     11     DC    C2'    346    -0.0854      12.01
   347         HC     11     DC   H2'1    347     0.0718      1.008
   348         HC     11     DC   H2'2    348     0.0718      1.008
   349         OH     11     DC    O3'    349    -0.6549         16
   350         HO     11     DC    H3T    350     0.4396      1.008   ; qtot -10

[ bonds ]
;  ai    aj funct            c0            c1            c2            c3
    1     2     1 
    1     3     1 
    3     4     1 
    3     5     1 
    3     6     1 
    6     7     1 
    6     8     1 
    6    25     1 
    8     9     1 
    9    10     1 
    9    11     1 
    9    27     1 
   11    12     1 
   11    24     1 
   12    13     1 
   12    14     1 
   14    15     1 
   15    16     1 
   15    24     1 
   16    17     1 
   16    20     1 
   17    18     1 
   17    19     1 
   20    21     1 
   21    22     1 
   21    23     1 
   23    24     1 
   25    26     1 
   25    27     1 
   25    30     1 
   27    28     1 
   27    29     1 
   30    31     1 
   31    32     1 
   31    33     1 
   31    34     1 
   34    35     1 
   35    36     1 
   35    37     1 
   35    38     1 
   38    39     1 
   38    40     1 
   38    58     1 
   40    41     1 
   41    42     1 
   41    43     1 
   41    60     1 
   43    44     1 
   43    57     1 
   44    45     1 
   44    46     1 
   46    47     1 
   47    48     1 
   47    57     1 
   48    49     1 
   48    50     1 
   50    51     1 
   50    52     1 
   52    53     1 
   52    56     1 
   53    54     1 
   53    55     1 
   56    57     1 
   58    59     1 
   58    60     1 
   58    63     1 
   60    61     1 
   60    62     1 
   63    64     1 
   64    65     1 
   64    66     1 
   64    67     1 
   67    68     1 
   68    69     1 
   68    70     1 
   68    71     1 
   71    72     1 
   71    73     1 
   71    88     1 
   73    74     1 
   74    75     1 
   74    76     1 
   74    90     1 
   76    77     1 
   76    86     1 
   77    78     1 
   77    79     1 
   79    80     1 
   79    81     1 
   81    82     1 
   81    85     1 
   82    83     1 
   82    84     1 
   85    86     1 
   86    87     1 
   88    89     1 
   88    90     1 
   88    93     1 
   90    91     1 
   90    92     1 
   93    94     1 
   94    95     1 
   94    96     1 
   94    97     1 
   97    98     1 
   98    99     1 
   98   100     1 
   98   101     1 
  101   102     1 
  101   103     1 
  101   121     1 
  103   104     1 
  104   105     1 
  104   106     1 
  104   123     1 
  106   107     1 
  106   120     1 
  107   108     1 
  107   109     1 
  109   110     1 
  110   111     1 
  110   120     1 
  111   112     1 
  111   113     1 
  113   114     1 
  113   115     1 
  115   116     1 
  115   119     1 
  116   117     1 
  116   118     1 
  119   120     1 
  121   122     1 
  121   123     1 
  121   126     1 
  123   124     1 
  123   125     1 
  126   127     1 
  127   128     1 
  127   129     1 
  127   130     1 
  130   131     1 
  131   132     1 
  131   133     1 
  131   134     1 
  134   135     1 
  134   136     1 
  134   153     1 
  136   137     1 
  137   138     1 
  137   139     1 
  137   155     1 
  139   140     1 
  139   151     1 
  140   141     1 
  140   142     1 
  142   143     1 
  142   147     1 
  143   144     1 
  143   145     1 
  143   146     1 
  147   148     1 
  147   149     1 
  149   150     1 
  149   151     1 
  151   152     1 
  153   154     1 
  153   155     1 
  153   158     1 
  155   156     1 
  155   157     1 
  158   159     1 
  159   160     1 
  159   161     1 
  159   162     1 
  162   163     1 
  163   164     1 
  163   165     1 
  163   166     1 
  166   167     1 
  166   168     1 
  166   186     1 
  168   169     1 
  169   170     1 
  169   171     1 
  169   188     1 
  171   172     1 
  171   185     1 
  172   173     1 
  172   174     1 
  174   175     1 
  175   176     1 
  175   185     1 
  176   177     1 
  176   178     1 
  178   179     1 
  178   180     1 
  180   181     1 
  180   184     1 
  181   182     1 
  181   183     1 
  184   185     1 
  186   187     1 
  186   188     1 
  186   191     1 
  188   189     1 
  188   190     1 
  191   192     1 
  192   193     1 
  192   194     1 
  192   195     1 
  195   196     1 
  196   197     1 
  196   198     1 
  196   199     1 
  199   200     1 
  199   201     1 
  199   219     1 
  201   202     1 
  202   203     1 
  202   204     1 
  202   221     1 
  204   205     1 
  204   218     1 
  205   206     1 
  205   207     1 
  207   208     1 
  208   209     1 
  208   218     1 
  209   210     1 
  209   211     1 
  211   212     1 
  211   213     1 
  213   214     1 
  213   217     1 
  214   215     1 
  214   216     1 
  217   218     1 
  219   220     1 
  219   221     1 
  219   224     1 
  221   222     1 
  221   223     1 
  224   225     1 
  225   226     1 
  225   227     1 
  225   228     1 
  228   229     1 
  229   230     1 
  229   231     1 
  229   232     1 
  232   233     1 
  232   234     1 
  232   252     1 
  234   235     1 
  235   236     1 
  235   237     1 
  235   254     1 
  237   238     1 
  237   251     1 
  238   239     1 
  238   240     1 
  240   241     1 
  241   242     1 
  241   251     1 
  242   243     1 
  242   244     1 
  244   245     1 
  244   246     1 
  246   247     1 
  246   250     1 
  247   248     1 
  247   249     1 
  250   251     1 
  252   253     1 
  252   254     1 
  252   257     1 
  254   255     1 
  254   256     1 
  257   258     1 
  258   259     1 
  258   260     1 
  258   261     1 
  261   262     1 
  262   263     1 
  262   264     1 
  262   265     1 
  265   266     1 
  265   267     1 
  265   284     1 
  267   268     1 
  268   269     1 
  268   270     1 
  268   286     1 
  270   271     1 
  270   283     1 
  271   272     1 
  271   273     1 
  273   274     1 
  274   275     1 
  274   283     1 
  275   276     1 
  275   279     1 
  276   277     1 
  276   278     1 
  279   280     1 
  280   281     1 
  280   282     1 
  282   283     1 
  284   285     1 
  284   286     1 
  284   289     1 
  286   287     1 
  286   288     1 
  289   290     1 
  290   291     1 
  290   292     1 
  290   293     1 
  293   294     1 
  294   295     1 
  294   296     1 
  294   297     1 
  297   298     1 
  297   299     1 
  297   314     1 
  299   300     1 
  300   301     1 
  300   302     1 
  300   316     1 
  302   303     1 
  302   312     1 
  303   304     1 
  303   305     1 
  305   306     1 
  305   307     1 
  307   308     1 
  307   311     1 
  308   309     1 
  308   310     1 
  311   312     1 
  312   313     1 
  314   315     1 
  314   316     1 
  314   319     1 
  316   317     1 
  316   318     1 
  319   320     1 
  320   321     1 
  320   322     1 
  320   323     1 
  323   324     1 
  324   325     1 
  324   326     1 
  324   327     1 
  327   328     1 
  327   329     1 
  327   344     1 
  329   330     1 
  330   331     1 
  330   332     1 
  330   346     1 
  332   333     1 
  332   342     1 
  333   334     1 
  333   335     1 
  335   336     1 
  335   337     1 
  337   338     1 
  337   341     1 
  338   339     1 
  338   340     1 
  341   342     1 
  342   343     1 
  344   345     1 
  344   346     1 
  344   349     1 
  346   347     1 
  346   348     1 
  349   350     1 

[ pairs ]
;  ai    aj funct            c0            c1            c2            c3
    1     7     1 
    1     8     1 
    1    25     1 
    2     4     1 
    2     5     1 
    2     6     1 
    3     9     1 
    3    26     1 
    3    27     1 
    3    30     1 
    4     7     1 
    4     8     1 
    4    25     1 
    5     7     1 
    5     8     1 
    5    25     1 
    6    10     1 
    6    11     1 
    6    28     1 
    6    29     1 
    6    31     1 
    7     9     1 
    7    26     1 
    7    27     1 
    7    30     1 
    8    12     1 
    8    24     1 
    8    26     1 
    8    28     1 
    8    29     1 
    8    30     1 
    9    13     1 
    9    14     1 
    9    15     1 
    9    23     1 
    9    26     1 
    9    30     1 
   10    12     1 
   10    24     1 
   10    25     1 
   10    28     1 
   10    29     1 
   11    16     1 
   11    21     1 
   11    25     1 
   11    28     1 
   11    29     1 
   12    16     1 
   12    23     1 
   12    27     1 
   13    15     1 
   13    24     1 
   14    17     1 
   14    20     1 
   14    23     1 
   15    18     1 
   15    19     1 
   15    21     1 
   16    22     1 
   16    23     1 
   17    21     1 
   17    24     1 
   18    20     1 
   19    20     1 
   20    24     1 
   22    24     1 
   24    27     1 
   25    32     1 
   25    33     1 
   25    34     1 
   26    28     1 
   26    29     1 
   26    31     1 
   27    31     1 
   28    30     1 
   29    30     1 
   30    35     1 
   31    36     1 
   31    37     1 
   31    38     1 
   32    35     1 
   33    35     1 
   34    39     1 
   34    40     1 
   34    58     1 
   35    41     1 
   35    59     1 
   35    60     1 
   35    63     1 
   36    39     1 
   36    40     1 
   36    58     1 
   37    39     1 
   37    40     1 
   37    58     1 
   38    42     1 
   38    43     1 
   38    61     1 
   38    62     1 
   38    64     1 
   39    41     1 
   39    59     1 
   39    60     1 
   39    63     1 
   40    44     1 
   40    57     1 
   40    59     1 
   40    61     1 
   40    62     1 
   40    63     1 
   41    45     1 
   41    46     1 
   41    47     1 
   41    56     1 
   41    59     1 
   41    63     1 
   42    44     1 
   42    57     1 
   42    58     1 
   42    61     1 
   42    62     1 
   43    48     1 
   43    52     1 
   43    58     1 
   43    61     1 
   43    62     1 
   44    48     1 
   44    56     1 
   44    60     1 
   45    47     1 
   45    57     1 
   46    49     1 
   46    50     1 
   46    56     1 
   47    51     1 
   47    52     1 
   48    53     1 
   48    56     1 
   49    51     1 
   49    52     1 
   49    57     1 
   50    54     1 
   50    55     1 
   50    57     1 
   51    53     1 
   51    56     1 
   53    57     1 
   54    56     1 
   55    56     1 
   57    60     1 
   58    65     1 
   58    66     1 
   58    67     1 
   59    61     1 
   59    62     1 
   59    64     1 
   60    64     1 
   61    63     1 
   62    63     1 
   63    68     1 
   64    69     1 
   64    70     1 
   64    71     1 
   65    68     1 
   66    68     1 
   67    72     1 
   67    73     1 
   67    88     1 
   68    74     1 
   68    89     1 
   68    90     1 
   68    93     1 
   69    72     1 
   69    73     1 
   69    88     1 
   70    72     1 
   70    73     1 
   70    88     1 
   71    75     1 
   71    76     1 
   71    91     1 
   71    92     1 
   71    94     1 
   72    74     1 
   72    89     1 
   72    90     1 
   72    93     1 
   73    77     1 
   73    86     1 
   73    89     1 
   73    91     1 
   73    92     1 
   73    93     1 
   74    78     1 
   74    79     1 
   74    85     1 
   74    87     1 
   74    89     1 
   74    93     1 
   75    77     1 
   75    86     1 
   75    88     1 
   75    91     1 
   75    92     1 
   76    80     1 
   76    81     1 
   76    88     1 
   76    91     1 
   76    92     1 
   77    82     1 
   77    85     1 
   77    87     1 
   77    90     1 
   78    80     1 
   78    81     1 
   78    86     1 
   79    83     1 
   79    84     1 
   79    86     1 
   80    82     1 
   80    85     1 
   81    87     1 
   82    86     1 
   83    85     1 
   84    85     1 
   86    90     1 
   88    95     1 
   88    96     1 
   88    97     1 
   89    91     1 
   89    92     1 
   89    94     1 
   90    94     1 
   91    93     1 
   92    93     1 
   93    98     1 
   94    99     1 
   94   100     1 
   94   101     1 
   95    98     1 
   96    98     1 
   97   102     1 
   97   103     1 
   97   121     1 
   98   104     1 
   98   122     1 
   98   123     1 
   98   126     1 
   99   102     1 
   99   103     1 
   99   121     1 
  100   102     1 
  100   103     1 
  100   121     1 
  101   105     1 
  101   106     1 
  101   124     1 
  101   125     1 
  101   127     1 
  102   104     1 
  102   122     1 
  102   123     1 
  102   126     1 
  103   107     1 
  103   120     1 
  103   122     1 
  103   124     1 
  103   125     1 
  103   126     1 
  104   108     1 
  104   109     1 
  104   110     1 
  104   119     1 
  104   122     1 
  104   126     1 
  105   107     1 
  105   120     1 
  105   121     1 
  105   124     1 
  105   125     1 
  106   111     1 
  106   115     1 
  106   121     1 
  106   124     1 
  106   125     1 
  107   111     1 
  107   119     1 
  107   123     1 
  108   110     1 
  108   120     1 
  109   112     1 
  109   113     1 
  109   119     1 
  110   114     1 
  110   115     1 
  111   116     1 
  111   119     1 
  112   114     1 
  112   115     1 
  112   120     1 
  113   117     1 
  113   118     1 
  113   120     1 
  114   116     1 
  114   119     1 
  116   120     1 
  117   119     1 
  118   119     1 
  120   123     1 
  121   128     1 
  121   129     1 
  121   130     1 
  122   124     1 
  122   125     1 
  122   127     1 
  123   127     1 
  124   126     1 
  125   126     1 
  126   131     1 
  127   132     1 
  127   133     1 
  127   134     1 
  128   131     1 
  129   131     1 
  130   135     1 
  130   136     1 
  130   153     1 
  131   137     1 
  131   154     1 
  131   155     1 
  131   158     1 
  132   135     1 
  132   136     1 
  132   153     1 
  133   135     1 
  133   136     1 
  133   153     1 
  134   138     1 
  134   139     1 
  134   156     1 
  134   157     1 
  134   159     1 
  135   137     1 
  135   154     1 
  135   155     1 
  135   158     1 
  136   140     1 
  136   151     1 
  136   154     1 
  136   156     1 
  136   157     1 
  136   158     1 
  137   141     1 
  137   142     1 
  137   149     1 
  137   152     1 
  137   154     1 
  137   158     1 
  138   140     1 
  138   151     1 
  138   153     1 
  138   156     1 
  138   157     1 
  139   143     1 
  139   147     1 
  139   150     1 
  139   153     1 
  139   156     1 
  139   157     1 
  140   144     1 
  140   145     1 
  140   146     1 
  140   148     1 
  140   149     1 
  140   152     1 
  140   155     1 
  141   143     1 
  141   147     1 
  141   151     1 
  142   150     1 
  142   151     1 
  143   148     1 
  143   149     1 
  144   147     1 
  145   147     1 
  146   147     1 
  147   152     1 
  148   150     1 
  148   151     1 
  150   152     1 
  151   155     1 
  153   160     1 
  153   161     1 
  153   162     1 
  154   156     1 
  154   157     1 
  154   159     1 
  155   159     1 
  156   158     1 
  157   158     1 
  158   163     1 
  159   164     1 
  159   165     1 
  159   166     1 
  160   163     1 
  161   163     1 
  162   167     1 
  162   168     1 
  162   186     1 
  163   169     1 
  163   187     1 
  163   188     1 
  163   191     1 
  164   167     1 
  164   168     1 
  164   186     1 
  165   167     1 
  165   168     1 
  165   186     1 
  166   170     1 
  166   171     1 
  166   189     1 
  166   190     1 
  166   192     1 
  167   169     1 
  167   187     1 
  167   188     1 
  167   191     1 
  168   172     1 
  168   185     1 
  168   187     1 
  168   189     1 
  168   190     1 
  168   191     1 
  169   173     1 
  169   174     1 
  169   175     1 
  169   184     1 
  169   187     1 
  169   191     1 
  170   172     1 
  170   185     1 
  170   186     1 
  170   189     1 
  170   190     1 
  171   176     1 
  171   180     1 
  171   186     1 
  171   189     1 
  171   190     1 
  172   176     1 
  172   184     1 
  172   188     1 
  173   175     1 
  173   185     1 
  174   177     1 
  174   178     1 
  174   184     1 
  175   179     1 
  175   180     1 
  176   181     1 
  176   184     1 
  177   179     1 
  177   180     1 
  177   185     1 
  178   182     1 
  178   183     1 
  178   185     1 
  179   181     1 
  179   184     1 
  181   185     1 
  182   184     1 
  183   184     1 
  185   188     1 
  186   193     1 
  186   194     1 
  186   195     1 
  187   189     1 
  187   190     1 
  187   192     1 
  188   192     1 
  189   191     1 
  190   191     1 
  191   196     1 
  192   197     1 
  192   198     1 
  192   199     1 
  193   196     1 
  194   196     1 
  195   200     1 
  195   201     1 
  195   219     1 
  196   202     1 
  196   220     1 
  196   221     1 
  196   224     1 
  197   200     1 
  197   201     1 
  197   219     1 
  198   200     1 
  198   201     1 
  198   219     1 
  199   203     1 
  199   204     1 
  199   222     1 
  199   223     1 
  199   225     1 
  200   202     1 
  200   220     1 
  200   221     1 
  200   224     1 
  201   205     1 
  201   218     1 
  201   220     1 
  201   222     1 
  201   223     1 
  201   224     1 
  202   206     1 
  202   207     1 
  202   208     1 
  202   217     1 
  202   220     1 
  202   224     1 
  203   205     1 
  203   218     1 
  203   219     1 
  203   222     1 
  203   223     1 
  204   209     1 
  204   213     1 
  204   219     1 
  204   222     1 
  204   223     1 
  205   209     1 
  205   217     1 
  205   221     1 
  206   208     1 
  206   218     1 
  207   210     1 
  207   211     1 
  207   217     1 
  208   212     1 
  208   213     1 
  209   214     1 
  209   217     1 
  210   212     1 
  210   213     1 
  210   218     1 
  211   215     1 
  211   216     1 
  211   218     1 
  212   214     1 
  212   217     1 
  214   218     1 
  215   217     1 
  216   217     1 
  218   221     1 
  219   226     1 
  219   227     1 
  219   228     1 
  220   222     1 
  220   223     1 
  220   225     1 
  221   225     1 
  222   224     1 
  223   224     1 
  224   229     1 
  225   230     1 
  225   231     1 
  225   232     1 
  226   229     1 
  227   229     1 
  228   233     1 
  228   234     1 
  228   252     1 
  229   235     1 
  229   253     1 
  229   254     1 
  229   257     1 
  230   233     1 
  230   234     1 
  230   252     1 
  231   233     1 
  231   234     1 
  231   252     1 
  232   236     1 
  232   237     1 
  232   255     1 
  232   256     1 
  232   258     1 
  233   235     1 
  233   253     1 
  233   254     1 
  233   257     1 
  234   238     1 
  234   251     1 
  234   253     1 
  234   255     1 
  234   256     1 
  234   257     1 
  235   239     1 
  235   240     1 
  235   241     1 
  235   250     1 
  235   253     1 
  235   257     1 
  236   238     1 
  236   251     1 
  236   252     1 
  236   255     1 
  236   256     1 
  237   242     1 
  237   246     1 
  237   252     1 
  237   255     1 
  237   256     1 
  238   242     1 
  238   250     1 
  238   254     1 
  239   241     1 
  239   251     1 
  240   243     1 
  240   244     1 
  240   250     1 
  241   245     1 
  241   246     1 
  242   247     1 
  242   250     1 
  243   245     1 
  243   246     1 
  243   251     1 
  244   248     1 
  244   249     1 
  244   251     1 
  245   247     1 
  245   250     1 
  247   251     1 
  248   250     1 
  249   250     1 
  251   254     1 
  252   259     1 
  252   260     1 
  252   261     1 
  253   255     1 
  253   256     1 
  253   258     1 
  254   258     1 
  255   257     1 
  256   257     1 
  257   262     1 
  258   263     1 
  258   264     1 
  258   265     1 
  259   262     1 
  260   262     1 
  261   266     1 
  261   267     1 
  261   284     1 
  262   268     1 
  262   285     1 
  262   286     1 
  262   289     1 
  263   266     1 
  263   267     1 
  263   284     1 
  264   266     1 
  264   267     1 
  264   284     1 
  265   269     1 
  265   270     1 
  265   287     1 
  265   288     1 
  265   290     1 
  266   268     1 
  266   285     1 
  266   286     1 
  266   289     1 
  267   271     1 
  267   283     1 
  267   285     1 
  267   287     1 
  267   288     1 
  267   289     1 
  268   272     1 
  268   273     1 
  268   274     1 
  268   282     1 
  268   285     1 
  268   289     1 
  269   271     1 
  269   283     1 
  269   284     1 
  269   287     1 
  269   288     1 
  270   275     1 
  270   280     1 
  270   284     1 
  270   287     1 
  270   288     1 
  271   275     1 
  271   282     1 
  271   286     1 
  272   274     1 
  272   283     1 
  273   276     1 
  273   279     1 
  273   282     1 
  274   277     1 
  274   278     1 
  274   280     1 
  275   281     1 
  275   282     1 
  276   280     1 
  276   283     1 
  277   279     1 
  278   279     1 
  279   283     1 
  281   283     1 
  283   286     1 
  284   291     1 
  284   292     1 
  284   293     1 
  285   287     1 
  285   288     1 
  285   290     1 
  286   290     1 
  287   289     1 
  288   289     1 
  289   294     1 
  290   295     1 
  290   296     1 
  290   297     1 
  291   294     1 
  292   294     1 
  293   298     1 
  293   299     1 
  293   314     1 
  294   300     1 
  294   315     1 
  294   316     1 
  294   319     1 
  295   298     1 
  295   299     1 
  295   314     1 
  296   298     1 
  296   299     1 
  296   314     1 
  297   301     1 
  297   302     1 
  297   317     1 
  297   318     1 
  297   320     1 
  298   300     1 
  298   315     1 
  298   316     1 
  298   319     1 
  299   303     1 
  299   312     1 
  299   315     1 
  299   317     1 
  299   318     1 
  299   319     1 
  300   304     1 
  300   305     1 
  300   311     1 
  300   313     1 
  300   315     1 
  300   319     1 
  301   303     1 
  301   312     1 
  301   314     1 
  301   317     1 
  301   318     1 
  302   306     1 
  302   307     1 
  302   314     1 
  302   317     1 
  302   318     1 
  303   308     1 
  303   311     1 
  303   313     1 
  303   316     1 
  304   306     1 
  304   307     1 
  304   312     1 
  305   309     1 
  305   310     1 
  305   312     1 
  306   308     1 
  306   311     1 
  307   313     1 
  308   312     1 
  309   311     1 
  310   311     1 
  312   316     1 
  314   321     1 
  314   322     1 
  314   323     1 
  315   317     1 
  315   318     1 
  315   320     1 
  316   320     1 
  317   319     1 
  318   319     1 
  319   324     1 
  320   325     1 
  320   326     1 
  320   327     1 
  321   324     1 
  322   324     1 
  323   328     1 
  323   329     1 
  323   344     1 
  324   330     1 
  324   345     1 
  324   346     1 
  324   349     1 
  325   328     1 
  325   329     1 
  325   344     1 
  326   328     1 
  326   329     1 
  326   344     1 
  327   331     1 
  327   332     1 
  327   347     1 
  327   348     1 
  327   350     1 
  328   330     1 
  328   345     1 
  328   346     1 
  328   349     1 
  329   333     1 
  329   342     1 
  329   345     1 
  329   347     1 
  329   348     1 
  329   349     1 
  330   334     1 
  330   335     1 
  330   341     1 
  330   343     1 
  330   345     1 
  330   349     1 
  331   333     1 
  331   342     1 
  331   344     1 
  331   347     1 
  331   348     1 
  332   336     1 
  332   337     1 
  332   344     1 
  332   347     1 
  332   348     1 
  333   338     1 
  333   341     1 
  333   343     1 
  333   346     1 
  334   336     1 
  334   337     1 
  334   342     1 
  335   339     1 
  335   340     1 
  335   342     1 
  336   338     1 
  336   341     1 
  337   343     1 
  338   342     1 
  339   341     1 
  340   341     1 
  342   346     1 
  345   347     1 
  345   348     1 
  345   350     1 
  346   350     1 
  347   349     1 
  348   349     1 

[ angles ]
;  ai    aj    ak funct            c0            c1            c2            c3
    2     1     3     1 
    1     3     4     1 
    1     3     5     1 
    1     3     6     1 
    4     3     5     1 
    4     3     6     1 
    5     3     6     1 
    3     6     7     1 
    3     6     8     1 
    3     6    25     1 
    7     6     8     1 
    7     6    25     1 
    8     6    25     1 
    6     8     9     1 
    8     9    10     1 
    8     9    11     1 
    8     9    27     1 
   10     9    11     1 
   10     9    27     1 
   11     9    27     1 
    9    11    12     1 
    9    11    24     1 
   12    11    24     1 
   11    12    13     1 
   11    12    14     1 
   13    12    14     1 
   12    14    15     1 
   14    15    16     1 
   14    15    24     1 
   16    15    24     1 
   15    16    17     1 
   15    16    20     1 
   17    16    20     1 
   16    17    18     1 
   16    17    19     1 
   18    17    19     1 
   16    20    21     1 
   20    21    22     1 
   20    21    23     1 
   22    21    23     1 
   21    23    24     1 
   11    24    15     1 
   11    24    23     1 
   15    24    23     1 
    6    25    26     1 
    6    25    27     1 
    6    25    30     1 
   26    25    27     1 
   26    25    30     1 
   27    25    30     1 
    9    27    25     1 
    9    27    28     1 
    9    27    29     1 
   25    27    28     1 
   25    27    29     1 
   28    27    29     1 
   25    30    31     1 
   30    31    32     1 
   30    31    33     1 
   30    31    34     1 
   32    31    33     1 
   32    31    34     1 
   33    31    34     1 
   31    34    35     1 
   34    35    36     1 
   34    35    37     1 
   34    35    38     1 
   36    35    37     1 
   36    35    38     1 
   37    35    38     1 
   35    38    39     1 
   35    38    40     1 
   35    38    58     1 
   39    38    40     1 
   39    38    58     1 
   40    38    58     1 
   38    40    41     1 
   40    41    42     1 
   40    41    43     1 
   40    41    60     1 
   42    41    43     1 
   42    41    60     1 
   43    41    60     1 
   41    43    44     1 
   41    43    57     1 
   44    43    57     1 
   43    44    45     1 
   43    44    46     1 
   45    44    46     1 
   44    46    47     1 
   46    47    48     1 
   46    47    57     1 
   48    47    57     1 
   47    48    49     1 
   47    48    50     1 
   49    48    50     1 
   48    50    51     1 
   48    50    52     1 
   51    50    52     1 
   50    52    53     1 
   50    52    56     1 
   53    52    56     1 
   52    53    54     1 
   52    53    55     1 
   54    53    55     1 
   52    56    57     1 
   43    57    47     1 
   43    57    56     1 
   47    57    56     1 
   38    58    59     1 
   38    58    60     1 
   38    58    63     1 
   59    58    60     1 
   59    58    63     1 
   60    58    63     1 
   41    60    58     1 
   41    60    61     1 
   41    60    62     1 
   58    60    61     1 
   58    60    62     1 
   61    60    62     1 
   58    63    64     1 
   63    64    65     1 
   63    64    66     1 
   63    64    67     1 
   65    64    66     1 
   65    64    67     1 
   66    64    67     1 
   64    67    68     1 
   67    68    69     1 
   67    68    70     1 
   67    68    71     1 
   69    68    70     1 
   69    68    71     1 
   70    68    71     1 
   68    71    72     1 
   68    71    73     1 
   68    71    88     1 
   72    71    73     1 
   72    71    88     1 
   73    71    88     1 
   71    73    74     1 
   73    74    75     1 
   73    74    76     1 
   73    74    90     1 
   75    74    76     1 
   75    74    90     1 
   76    74    90     1 
   74    76    77     1 
   74    76    86     1 
   77    76    86     1 
   76    77    78     1 
   76    77    79     1 
   78    77    79     1 
   77    79    80     1 
   77    79    81     1 
   80    79    81     1 
   79    81    82     1 
   79    81    85     1 
   82    81    85     1 
   81    82    83     1 
   81    82    84     1 
   83    82    84     1 
   81    85    86     1 
   76    86    85     1 
   76    86    87     1 
   85    86    87     1 
   71    88    89     1 
   71    88    90     1 
   71    88    93     1 
   89    88    90     1 
   89    88    93     1 
   90    88    93     1 
   74    90    88     1 
   74    90    91     1 
   74    90    92     1 
   88    90    91     1 
   88    90    92     1 
   91    90    92     1 
   88    93    94     1 
   93    94    95     1 
   93    94    96     1 
   93    94    97     1 
   95    94    96     1 
   95    94    97     1 
   96    94    97     1 
   94    97    98     1 
   97    98    99     1 
   97    98   100     1 
   97    98   101     1 
   99    98   100     1 
   99    98   101     1 
  100    98   101     1 
   98   101   102     1 
   98   101   103     1 
   98   101   121     1 
  102   101   103     1 
  102   101   121     1 
  103   101   121     1 
  101   103   104     1 
  103   104   105     1 
  103   104   106     1 
  103   104   123     1 
  105   104   106     1 
  105   104   123     1 
  106   104   123     1 
  104   106   107     1 
  104   106   120     1 
  107   106   120     1 
  106   107   108     1 
  106   107   109     1 
  108   107   109     1 
  107   109   110     1 
  109   110   111     1 
  109   110   120     1 
  111   110   120     1 
  110   111   112     1 
  110   111   113     1 
  112   111   113     1 
  111   113   114     1 
  111   113   115     1 
  114   113   115     1 
  113   115   116     1 
  113   115   119     1 
  116   115   119     1 
  115   116   117     1 
  115   116   118     1 
  117   116   118     1 
  115   119   120     1 
  106   120   110     1 
  106   120   119     1 
  110   120   119     1 
  101   121   122     1 
  101   121   123     1 
  101   121   126     1 
  122   121   123     1 
  122   121   126     1 
  123   121   126     1 
  104   123   121     1 
  104   123   124     1 
  104   123   125     1 
  121   123   124     1 
  121   123   125     1 
  124   123   125     1 
  121   126   127     1 
  126   127   128     1 
  126   127   129     1 
  126   127   130     1 
  128   127   129     1 
  128   127   130     1 
  129   127   130     1 
  127   130   131     1 
  130   131   132     1 
  130   131   133     1 
  130   131   134     1 
  132   131   133     1 
  132   131   134     1 
  133   131   134     1 
  131   134   135     1 
  131   134   136     1 
  131   134   153     1 
  135   134   136     1 
  135   134   153     1 
  136   134   153     1 
  134   136   137     1 
  136   137   138     1 
  136   137   139     1 
  136   137   155     1 
  138   137   139     1 
  138   137   155     1 
  139   137   155     1 
  137   139   140     1 
  137   139   151     1 
  140   139   151     1 
  139   140   141     1 
  139   140   142     1 
  141   140   142     1 
  140   142   143     1 
  140   142   147     1 
  143   142   147     1 
  142   143   144     1 
  142   143   145     1 
  142   143   146     1 
  144   143   145     1 
  144   143   146     1 
  145   143   146     1 
  142   147   148     1 
  142   147   149     1 
  148   147   149     1 
  147   149   150     1 
  147   149   151     1 
  150   149   151     1 
  139   151   149     1 
  139   151   152     1 
  149   151   152     1 
  134   153   154     1 
  134   153   155     1 
  134   153   158     1 
  154   153   155     1 
  154   153   158     1 
  155   153   158     1 
  137   155   153     1 
  137   155   156     1 
  137   155   157     1 
  153   155   156     1 
  153   155   157     1 
  156   155   157     1 
  153   158   159     1 
  158   159   160     1 
  158   159   161     1 
  158   159   162     1 
  160   159   161     1 
  160   159   162     1 
  161   159   162     1 
  159   162   163     1 
  162   163   164     1 
  162   163   165     1 
  162   163   166     1 
  164   163   165     1 
  164   163   166     1 
  165   163   166     1 
  163   166   167     1 
  163   166   168     1 
  163   166   186     1 
  167   166   168     1 
  167   166   186     1 
  168   166   186     1 
  166   168   169     1 
  168   169   170     1 
  168   169   171     1 
  168   169   188     1 
  170   169   171     1 
  170   169   188     1 
  171   169   188     1 
  169   171   172     1 
  169   171   185     1 
  172   171   185     1 
  171   172   173     1 
  171   172   174     1 
  173   172   174     1 
  172   174   175     1 
  174   175   176     1 
  174   175   185     1 
  176   175   185     1 
  175   176   177     1 
  175   176   178     1 
  177   176   178     1 
  176   178   179     1 
  176   178   180     1 
  179   178   180     1 
  178   180   181     1 
  178   180   184     1 
  181   180   184     1 
  180   181   182     1 
  180   181   183     1 
  182   181   183     1 
  180   184   185     1 
  171   185   175     1 
  171   185   184     1 
  175   185   184     1 
  166   186   187     1 
  166   186   188     1 
  166   186   191     1 
  187   186   188     1 
  187   186   191     1 
  188   186   191     1 
  169   188   186     1 
  169   188   189     1 
  169   188   190     1 
  186   188   189     1 
  186   188   190     1 
  189   188   190     1 
  186   191   192     1 
  191   192   193     1 
  191   192   194     1 
  191   192   195     1 
  193   192   194     1 
  193   192   195     1 
  194   192   195     1 
  192   195   196     1 
  195   196   197     1 
  195   196   198     1 
  195   196   199     1 
  197   196   198     1 
  197   196   199     1 
  198   196   199     1 
  196   199   200     1 
  196   199   201     1 
  196   199   219     1 
  200   199   201     1 
  200   199   219     1 
  201   199   219     1 
  199   201   202     1 
  201   202   203     1 
  201   202   204     1 
  201   202   221     1 
  203   202   204     1 
  203   202   221     1 
  204   202   221     1 
  202   204   205     1 
  202   204   218     1 
  205   204   218     1 
  204   205   206     1 
  204   205   207     1 
  206   205   207     1 
  205   207   208     1 
  207   208   209     1 
  207   208   218     1 
  209   208   218     1 
  208   209   210     1 
  208   209   211     1 
  210   209   211     1 
  209   211   212     1 
  209   211   213     1 
  212   211   213     1 
  211   213   214     1 
  211   213   217     1 
  214   213   217     1 
  213   214   215     1 
  213   214   216     1 
  215   214   216     1 
  213   217   218     1 
  204   218   208     1 
  204   218   217     1 
  208   218   217     1 
  199   219   220     1 
  199   219   221     1 
  199   219   224     1 
  220   219   221     1 
  220   219   224     1 
  221   219   224     1 
  202   221   219     1 
  202   221   222     1 
  202   221   223     1 
  219   221   222     1 
  219   221   223     1 
  222   221   223     1 
  219   224   225     1 
  224   225   226     1 
  224   225   227     1 
  224   225   228     1 
  226   225   227     1 
  226   225   228     1 
  227   225   228     1 
  225   228   229     1 
  228   229   230     1 
  228   229   231     1 
  228   229   232     1 
  230   229   231     1 
  230   229   232     1 
  231   229   232     1 
  229   232   233     1 
  229   232   234     1 
  229   232   252     1 
  233   232   234     1 
  233   232   252     1 
  234   232   252     1 
  232   234   235     1 
  234   235   236     1 
  234   235   237     1 
  234   235   254     1 
  236   235   237     1 
  236   235   254     1 
  237   235   254     1 
  235   237   238     1 
  235   237   251     1 
  238   237   251     1 
  237   238   239     1 
  237   238   240     1 
  239   238   240     1 
  238   240   241     1 
  240   241   242     1 
  240   241   251     1 
  242   241   251     1 
  241   242   243     1 
  241   242   244     1 
  243   242   244     1 
  242   244   245     1 
  242   244   246     1 
  245   244   246     1 
  244   246   247     1 
  244   246   250     1 
  247   246   250     1 
  246   247   248     1 
  246   247   249     1 
  248   247   249     1 
  246   250   251     1 
  237   251   241     1 
  237   251   250     1 
  241   251   250     1 
  232   252   253     1 
  232   252   254     1 
  232   252   257     1 
  253   252   254     1 
  253   252   257     1 
  254   252   257     1 
  235   254   252     1 
  235   254   255     1 
  235   254   256     1 
  252   254   255     1 
  252   254   256     1 
  255   254   256     1 
  252   257   258     1 
  257   258   259     1 
  257   258   260     1 
  257   258   261     1 
  259   258   260     1 
  259   258   261     1 
  260   258   261     1 
  258   261   262     1 
  261   262   263     1 
  261   262   264     1 
  261   262   265     1 
  263   262   264     1 
  263   262   265     1 
  264   262   265     1 
  262   265   266     1 
  262   265   267     1 
  262   265   284     1 
  266   265   267     1 
  266   265   284     1 
  267   265   284     1 
  265   267   268     1 
  267   268   269     1 
  267   268   270     1 
  267   268   286     1 
  269   268   270     1 
  269   268   286     1 
  270   268   286     1 
  268   270   271     1 
  268   270   283     1 
  271   270   283     1 
  270   271   272     1 
  270   271   273     1 
  272   271   273     1 
  271   273   274     1 
  273   274   275     1 
  273   274   283     1 
  275   274   283     1 
  274   275   276     1 
  274   275   279     1 
  276   275   279     1 
  275   276   277     1 
  275   276   278     1 
  277   276   278     1 
  275   279   280     1 
  279   280   281     1 
  279   280   282     1 
  281   280   282     1 
  280   282   283     1 
  270   283   274     1 
  270   283   282     1 
  274   283   282     1 
  265   284   285     1 
  265   284   286     1 
  265   284   289     1 
  285   284   286     1 
  285   284   289     1 
  286   284   289     1 
  268   286   284     1 
  268   286   287     1 
  268   286   288     1 
  284   286   287     1 
  284   286   288     1 
  287   286   288     1 
  284   289   290     1 
  289   290   291     1 
  289   290   292     1 
  289   290   293     1 
  291   290   292     1 
  291   290   293     1 
  292   290   293     1 
  290   293   294     1 
  293   294   295     1 
  293   294   296     1 
  293   294   297     1 
  295   294   296     1 
  295   294   297     1 
  296   294   297     1 
  294   297   298     1 
  294   297   299     1 
  294   297   314     1 
  298   297   299     1 
  298   297   314     1 
  299   297   314     1 
  297   299   300     1 
  299   300   301     1 
  299   300   302     1 
  299   300   316     1 
  301   300   302     1 
  301   300   316     1 
  302   300   316     1 
  300   302   303     1 
  300   302   312     1 
  303   302   312     1 
  302   303   304     1 
  302   303   305     1 
  304   303   305     1 
  303   305   306     1 
  303   305   307     1 
  306   305   307     1 
  305   307   308     1 
  305   307   311     1 
  308   307   311     1 
  307   308   309     1 
  307   308   310     1 
  309   308   310     1 
  307   311   312     1 
  302   312   311     1 
  302   312   313     1 
  311   312   313     1 
  297   314   315     1 
  297   314   316     1 
  297   314   319     1 
  315   314   316     1 
  315   314   319     1 
  316   314   319     1 
  300   316   314     1 
  300   316   317     1 
  300   316   318     1 
  314   316   317     1 
  314   316   318     1 
  317   316   318     1 
  314   319   320     1 
  319   320   321     1 
  319   320   322     1 
  319   320   323     1 
  321   320   322     1 
  321   320   323     1 
  322   320   323     1 
  320   323   324     1 
  323   324   325     1 
  323   324   326     1 
  323   324   327     1 
  325   324   326     1 
  325   324   327     1 
  326   324   327     1 
  324   327   328     1 
  324   327   329     1 
  324   327   344     1 
  328   327   329     1 
  328   327   344     1 
  329   327   344     1 
  327   329   330     1 
  329   330   331     1 
  329   330   332     1 
  329   330   346     1 
  331   330   332     1 
  331   330   346     1 
  332   330   346     1 
  330   332   333     1 
  330   332   342     1 
  333   332   342     1 
  332   333   334     1 
  332   333   335     1 
  334   333   335     1 
  333   335   336     1 
  333   335   337     1 
  336   335   337     1 
  335   337   338     1 
  335   337   341     1 
  338   337   341     1 
  337   338   339     1 
  337   338   340     1 
  339   338   340     1 
  337   341   342     1 
  332   342   341     1 
  332   342   343     1 
  341   342   343     1 
  327   344   345     1 
  327   344   346     1 
  327   344   349     1 
  345   344   346     1 
  345   344   349     1 
  346   344   349     1 
  330   346   344     1 
  330   346   347     1 
  330   346   348     1 
  344   346   347     1 
  344   346   348     1 
  347   346   348     1 
  344   349   350     1 

[ dihedrals ]
;  ai    aj    ak    al funct            c0            c1            c2            c3            c4            c5
    2     1     3     4     9 
    2     1     3     5     9 
    2     1     3     6     9 
    1     3     6     7     9 
    1     3     6     8     9 
    1     3     6    25     9 
    4     3     6     7     9 
    4     3     6     8     9 
    4     3     6    25     9 
    5     3     6     7     9 
    5     3     6     8     9 
    5     3     6    25     9 
    3     6     8     9     9 
    7     6     8     9     9 
   25     6     8     9     9 
    3     6    25    26     9 
    3     6    25    27     9 
    3     6    25    30     9 
    7     6    25    26     9 
    7     6    25    27     9 
    7     6    25    30     9 
    8     6    25    26     9 
    8     6    25    27     9 
    8     6    25    30     9 
    6     8     9    10     9 
    6     8     9    11     9 
    6     8     9    27     9 
    8     9    11    12     9 
    8     9    11    24     9 
   10     9    11    12     9 
   10     9    11    24     9 
   27     9    11    12     9 
   27     9    11    24     9 
    8     9    27    25     9 
    8     9    27    28     9 
    8     9    27    29     9 
   10     9    27    25     9 
   10     9    27    28     9 
   10     9    27    29     9 
   11     9    27    25     9 
   11     9    27    28     9 
   11     9    27    29     9 
    9    11    12    13     9 
    9    11    12    14     9 
   24    11    12    13     9 
   24    11    12    14     9 
    9    11    24    15     9 
    9    11    24    23     9 
   12    11    24    15     9 
   12    11    24    23     9 
   11    12    14    15     9 
   13    12    14    15     9 
   12    14    15    16     9 
   12    14    15    24     9 
   14    15    16    17     9 
   14    15    16    20     9 
   24    15    16    17     9 
   24    15    16    20     9 
   14    15    24    11     9 
   14    15    24    23     9 
   16    15    24    11     9 
   16    15    24    23     9 
   15    16    17    18     9 
   15    16    17    19     9 
   20    16    17    18     9 
   20    16    17    19     9 
   15    16    20    21     9 
   17    16    20    21     9 
   16    20    21    22     9 
   16    20    21    23     9 
   20    21    23    24     9 
   22    21    23    24     9 
   21    23    24    11     9 
   21    23    24    15     9 
    6    25    27     9     9 
    6    25    27    28     9 
    6    25    27    29     9 
   26    25    27     9     9 
   26    25    27    28     9 
   26    25    27    29     9 
   30    25    27     9     9 
   30    25    27    28     9 
   30    25    27    29     9 
    6    25    30    31     9 
   26    25    30    31     9 
   27    25    30    31     9 
   25    30    31    32     9 
   25    30    31    33     9 
   25    30    31    34     9 
   30    31    34    35     9 
   32    31    34    35     9 
   33    31    34    35     9 
   31    34    35    36     9 
   31    34    35    37     9 
   31    34    35    38     9 
   34    35    38    39     9 
   34    35    38    40     9 
   34    35    38    58     9 
   36    35    38    39     9 
   36    35    38    40     9 
   36    35    38    58     9 
   37    35    38    39     9 
   37    35    38    40     9 
   37    35    38    58     9 
   35    38    40    41     9 
   39    38    40    41     9 
   58    38    40    41     9 
   35    38    58    59     9 
   35    38    58    60     9 
   35    38    58    63     9 
   39    38    58    59     9 
   39    38    58    60     9 
   39    38    58    63     9 
   40    38    58    59     9 
   40    38    58    60     9 
   40    38    58    63     9 
   38    40    41    42     9 
   38    40    41    43     9 
   38    40    41    60     9 
   40    41    43    44     9 
   40    41    43    57     9 
   42    41    43    44     9 
   42    41    43    57     9 
   60    41    43    44     9 
   60    41    43    57     9 
   40    41    60    58     9 
   40    41    60    61     9 
   40    41    60    62     9 
   42    41    60    58     9 
   42    41    60    61     9 
   42    41    60    62     9 
   43    41    60    58     9 
   43    41    60    61     9 
   43    41    60    62     9 
   41    43    44    45     9 
   41    43    44    46     9 
   57    43    44    45     9 
   57    43    44    46     9 
   41    43    57    47     9 
   41    43    57    56     9 
   44    43    57    47     9 
   44    43    57    56     9 
   43    44    46    47     9 
   45    44    46    47     9 
   44    46    47    48     9 
   44    46    47    57     9 
   46    47    48    49     9 
   46    47    48    50     9 
   57    47    48    49     9 
   57    47    48    50     9 
   46    47    57    43     9 
   46    47    57    56     9 
   48    47    57    43     9 
   48    47    57    56     9 
   47    48    50    51     9 
   47    48    50    52     9 
   49    48    50    51     9 
   49    48    50    52     9 
   48    50    52    53     9 
   48    50    52    56     9 
   51    50    52    53     9 
   51    50    52    56     9 
   50    52    53    54     9 
   50    52    53    55     9 
   56    52    53    54     9 
   56    52    53    55     9 
   50    52    56    57     9 
   53    52    56    57     9 
   52    56    57    43     9 
   52    56    57    47     9 
   38    58    60    41     9 
   38    58    60    61     9 
   38    58    60    62     9 
   59    58    60    41     9 
   59    58    60    61     9 
   59    58    60    62     9 
   63    58    60    41     9 
   63    58    60    61     9 
   63    58    60    62     9 
   38    58    63    64     9 
   59    58    63    64     9 
   60    58    63    64     9 
   58    63    64    65     9 
   58    63    64    66     9 
   58    63    64    67     9 
   63    64    67    68     9 
   65    64    67    68     9 
   66    64    67    68     9 
   64    67    68    69     9 
   64    67    68    70     9 
   64    67    68    71     9 
   67    68    71    72     9 
   67    68    71    73     9 
   67    68    71    88     9 
   69    68    71    72     9 
   69    68    71    73     9 
   69    68    71    88     9 
   70    68    71    72     9 
   70    68    71    73     9 
   70    68    71    88     9 
   68    71    73    74     9 
   72    71    73    74     9 
   88    71    73    74     9 
   68    71    88    89     9 
   68    71    88    90     9 
   68    71    88    93     9 
   72    71    88    89     9 
   72    71    88    90     9 
   72    71    88    93     9 
   73    71    88    89     9 
   73    71    88    90     9 
   73    71    88    93     9 
   71    73    74    75     9 
   71    73    74    76     9 
   71    73    74    90     9 
   73    74    76    77     9 
   73    74    76    86     9 
   75    74    76    77     9 
   75    74    76    86     9 
   90    74    76    77     9 
   90    74    76    86     9 
   73    74    90    88     9 
   73    74    90    91     9 
   73    74    90    92     9 
   75    74    90    88     9 
   75    74    90    91     9 
   75    74    90    92     9 
   76    74    90    88     9 
   76    74    90    91     9 
   76    74    90    92     9 
   74    76    77    78     9 
   74    76    77    79     9 
   86    76    77    78     9 
   86    76    77    79     9 
   74    76    86    85     9 
   74    76    86    87     9 
   77    76    86    85     9 
   77    76    86    87     9 
   76    77    79    80     9 
   76    77    79    81     9 
   78    77    79    80     9 
   78    77    79    81     9 
   77    79    81    82     9 
   77    79    81    85     9 
   80    79    81    82     9 
   80    79    81    85     9 
   79    81    82    83     9 
   79    81    82    84     9 
   85    81    82    83     9 
   85    81    82    84     9 
   79    81    85    86     9 
   82    81    85    86     9 
   81    85    86    76     9 
   81    85    86    87     9 
   71    88    90    74     9 
   71    88    90    91     9 
   71    88    90    92     9 
   89    88    90    74     9 
   89    88    90    91     9 
   89    88    90    92     9 
   93    88    90    74     9 
   93    88    90    91     9 
   93    88    90    92     9 
   71    88    93    94     9 
   89    88    93    94     9 
   90    88    93    94     9 
   88    93    94    95     9 
   88    93    94    96     9 
   88    93    94    97     9 
   93    94    97    98     9 
   95    94    97    98     9 
   96    94    97    98     9 
   94    97    98    99     9 
   94    97    98   100     9 
   94    97    98   101     9 
   97    98   101   102     9 
   97    98   101   103     9 
   97    98   101   121     9 
   99    98   101   102     9 
   99    98   101   103     9 
   99    98   101   121     9 
  100    98   101   102     9 
  100    98   101   103     9 
  100    98   101   121     9 
   98   101   103   104     9 
  102   101   103   104     9 
  121   101   103   104     9 
   98   101   121   122     9 
   98   101   121   123     9 
   98   101   121   126     9 
  102   101   121   122     9 
  102   101   121   123     9 
  102   101   121   126     9 
  103   101   121   122     9 
  103   101   121   123     9 
  103   101   121   126     9 
  101   103   104   105     9 
  101   103   104   106     9 
  101   103   104   123     9 
  103   104   106   107     9 
  103   104   106   120     9 
  105   104   106   107     9 
  105   104   106   120     9 
  123   104   106   107     9 
  123   104   106   120     9 
  103   104   123   121     9 
  103   104   123   124     9 
  103   104   123   125     9 
  105   104   123   121     9 
  105   104   123   124     9 
  105   104   123   125     9 
  106   104   123   121     9 
  106   104   123   124     9 
  106   104   123   125     9 
  104   106   107   108     9 
  104   106   107   109     9 
  120   106   107   108     9 
  120   106   107   109     9 
  104   106   120   110     9 
  104   106   120   119     9 
  107   106   120   110     9 
  107   106   120   119     9 
  106   107   109   110     9 
  108   107   109   110     9 
  107   109   110   111     9 
  107   109   110   120     9 
  109   110   111   112     9 
  109   110   111   113     9 
  120   110   111   112     9 
  120   110   111   113     9 
  109   110   120   106     9 
  109   110   120   119     9 
  111   110   120   106     9 
  111   110   120   119     9 
  110   111   113   114     9 
  110   111   113   115     9 
  112   111   113   114     9 
  112   111   113   115     9 
  111   113   115   116     9 
  111   113   115   119     9 
  114   113   115   116     9 
  114   113   115   119     9 
  113   115   116   117     9 
  113   115   116   118     9 
  119   115   116   117     9 
  119   115   116   118     9 
  113   115   119   120     9 
  116   115   119   120     9 
  115   119   120   106     9 
  115   119   120   110     9 
  101   121   123   104     9 
  101   121   123   124     9 
  101   121   123   125     9 
  122   121   123   104     9 
  122   121   123   124     9 
  122   121   123   125     9 
  126   121   123   104     9 
  126   121   123   124     9 
  126   121   123   125     9 
  101   121   126   127     9 
  122   121   126   127     9 
  123   121   126   127     9 
  121   126   127   128     9 
  121   126   127   129     9 
  121   126   127   130     9 
  126   127   130   131     9 
  128   127   130   131     9 
  129   127   130   131     9 
  127   130   131   132     9 
  127   130   131   133     9 
  127   130   131   134     9 
  130   131   134   135     9 
  130   131   134   136     9 
  130   131   134   153     9 
  132   131   134   135     9 
  132   131   134   136     9 
  132   131   134   153     9 
  133   131   134   135     9 
  133   131   134   136     9 
  133   131   134   153     9 
  131   134   136   137     9 
  135   134   136   137     9 
  153   134   136   137     9 
  131   134   153   154     9 
  131   134   153   155     9 
  131   134   153   158     9 
  135   134   153   154     9 
  135   134   153   155     9 
  135   134   153   158     9 
  136   134   153   154     9 
  136   134   153   155     9 
  136   134   153   158     9 
  134   136   137   138     9 
  134   136   137   139     9 
  134   136   137   155     9 
  136   137   139   140     9 
  136   137   139   151     9 
  138   137   139   140     9 
  138   137   139   151     9 
  155   137   139   140     9 
  155   137   139   151     9 
  136   137   155   153     9 
  136   137   155   156     9 
  136   137   155   157     9 
  138   137   155   153     9 
  138   137   155   156     9 
  138   137   155   157     9 
  139   137   155   153     9 
  139   137   155   156     9 
  139   137   155   157     9 
  137   139   140   141     9 
  137   139   140   142     9 
  151   139   140   141     9 
  151   139   140   142     9 
  137   139   151   149     9 
  137   139   151   152     9 
  140   139   151   149     9 
  140   139   151   152     9 
  139   140   142   143     9 
  139   140   142   147     9 
  141   140   142   143     9 
  141   140   142   147     9 
  140   142   143   144     9 
  140   142   143   145     9 
  140   142   143   146     9 
  147   142   143   144     9 
  147   142   143   145     9 
  147   142   143   146     9 
  140   142   147   148     9 
  140   142   147   149     9 
  143   142   147   148     9 
  143   142   147   149     9 
  142   147   149   150     9 
  142   147   149   151     9 
  148   147   149   150     9 
  148   147   149   151     9 
  147   149   151   139     9 
  147   149   151   152     9 
  150   149   151   139     9 
  150   149   151   152     9 
  134   153   155   137     9 
  134   153   155   156     9 
  134   153   155   157     9 
  154   153   155   137     9 
  154   153   155   156     9 
  154   153   155   157     9 
  158   153   155   137     9 
  158   153   155   156     9 
  158   153   155   157     9 
  134   153   158   159     9 
  154   153   158   159     9 
  155   153   158   159     9 
  153   158   159   160     9 
  153   158   159   161     9 
  153   158   159   162     9 
  158   159   162   163     9 
  160   159   162   163     9 
  161   159   162   163     9 
  159   162   163   164     9 
  159   162   163   165     9 
  159   162   163   166     9 
  162   163   166   167     9 
  162   163   166   168     9 
  162   163   166   186     9 
  164   163   166   167     9 
  164   163   166   168     9 
  164   163   166   186     9 
  165   163   166   167     9 
  165   163   166   168     9 
  165   163   166   186     9 
  163   166   168   169     9 
  167   166   168   169     9 
  186   166   168   169     9 
  163   166   186   187     9 
  163   166   186   188     9 
  163   166   186   191     9 
  167   166   186   187     9 
  167   166   186   188     9 
  167   166   186   191     9 
  168   166   186   187     9 
  168   166   186   188     9 
  168   166   186   191     9 
  166   168   169   170     9 
  166   168   169   171     9 
  166   168   169   188     9 
  168   169   171   172     9 
  168   169   171   185     9 
  170   169   171   172     9 
  170   169   171   185     9 
  188   169   171   172     9 
  188   169   171   185     9 
  168   169   188   186     9 
  168   169   188   189     9 
  168   169   188   190     9 
  170   169   188   186     9 
  170   169   188   189     9 
  170   169   188   190     9 
  171   169   188   186     9 
  171   169   188   189     9 
  171   169   188   190     9 
  169   171   172   173     9 
  169   171   172   174     9 
  185   171   172   173     9 
  185   171   172   174     9 
  169   171   185   175     9 
  169   171   185   184     9 
  172   171   185   175     9 
  172   171   185   184     9 
  171   172   174   175     9 
  173   172   174   175     9 
  172   174   175   176     9 
  172   174   175   185     9 
  174   175   176   177     9 
  174   175   176   178     9 
  185   175   176   177     9 
  185   175   176   178     9 
  174   175   185   171     9 
  174   175   185   184     9 
  176   175   185   171     9 
  176   175   185   184     9 
  175   176   178   179     9 
  175   176   178   180     9 
  177   176   178   179     9 
  177   176   178   180     9 
  176   178   180   181     9 
  176   178   180   184     9 
  179   178   180   181     9 
  179   178   180   184     9 
  178   180   181   182     9 
  178   180   181   183     9 
  184   180   181   182     9 
  184   180   181   183     9 
  178   180   184   185     9 
  181   180   184   185     9 
  180   184   185   171     9 
  180   184   185   175     9 
  166   186   188   169     9 
  166   186   188   189     9 
  166   186   188   190     9 
  187   186   188   169     9 
  187   186   188   189     9 
  187   186   188   190     9 
  191   186   188   169     9 
  191   186   188   189     9 
  191   186   188   190     9 
  166   186   191   192     9 
  187   186   191   192     9 
  188   186   191   192     9 
  186   191   192   193     9 
  186   191   192   194     9 
  186   191   192   195     9 
  191   192   195   196     9 
  193   192   195   196     9 
  194   192   195   196     9 
  192   195   196   197     9 
  192   195   196   198     9 
  192   195   196   199     9 
  195   196   199   200     9 
  195   196   199   201     9 
  195   196   199   219     9 
  197   196   199   200     9 
  197   196   199   201     9 
  197   196   199   219     9 
  198   196   199   200     9 
  198   196   199   201     9 
  198   196   199   219     9 
  196   199   201   202     9 
  200   199   201   202     9 
  219   199   201   202     9 
  196   199   219   220     9 
  196   199   219   221     9 
  196   199   219   224     9 
  200   199   219   220     9 
  200   199   219   221     9 
  200   199   219   224     9 
  201   199   219   220     9 
  201   199   219   221     9 
  201   199   219   224     9 
  199   201   202   203     9 
  199   201   202   204     9 
  199   201   202   221     9 
  201   202   204   205     9 
  201   202   204   218     9 
  203   202   204   205     9 
  203   202   204   218     9 
  221   202   204   205     9 
  221   202   204   218     9 
  201   202   221   219     9 
  201   202   221   222     9 
  201   202   221   223     9 
  203   202   221   219     9 
  203   202   221   222     9 
  203   202   221   223     9 
  204   202   221   219     9 
  204   202   221   222     9 
  204   202   221   223     9 
  202   204   205   206     9 
  202   204   205   207     9 
  218   204   205   206     9 
  218   204   205   207     9 
  202   204   218   208     9 
  202   204   218   217     9 
  205   204   218   208     9 
  205   204   218   217     9 
  204   205   207   208     9 
  206   205   207   208     9 
  205   207   208   209     9 
  205   207   208   218     9 
  207   208   209   210     9 
  207   208   209   211     9 
  218   208   209   210     9 
  218   208   209   211     9 
  207   208   218   204     9 
  207   208   218   217     9 
  209   208   218   204     9 
  209   208   218   217     9 
  208   209   211   212     9 
  208   209   211   213     9 
  210   209   211   212     9 
  210   209   211   213     9 
  209   211   213   214     9 
  209   211   213   217     9 
  212   211   213   214     9 
  212   211   213   217     9 
  211   213   214   215     9 
  211   213   214   216     9 
  217   213   214   215     9 
  217   213   214   216     9 
  211   213   217   218     9 
  214   213   217   218     9 
  213   217   218   204     9 
  213   217   218   208     9 
  199   219   221   202     9 
  199   219   221   222     9 
  199   219   221   223     9 
  220   219   221   202     9 
  220   219   221   222     9 
  220   219   221   223     9 
  224   219   221   202     9 
  224   219   221   222     9 
  224   219   221   223     9 
  199   219   224   225     9 
  220   219   224   225     9 
  221   219   224   225     9 
  219   224   225   226     9 
  219   224   225   227     9 
  219   224   225   228     9 
  224   225   228   229     9 
  226   225   228   229     9 
  227   225   228   229     9 
  225   228   229   230     9 
  225   228   229   231     9 
  225   228   229   232     9 
  228   229   232   233     9 
  228   229   232   234     9 
  228   229   232   252     9 
  230   229   232   233     9 
  230   229   232   234     9 
  230   229   232   252     9 
  231   229   232   233     9 
  231   229   232   234     9 
  231   229   232   252     9 
  229   232   234   235     9 
  233   232   234   235     9 
  252   232   234   235     9 
  229   232   252   253     9 
  229   232   252   254     9 
  229   232   252   257     9 
  233   232   252   253     9 
  233   232   252   254     9 
  233   232   252   257     9 
  234   232   252   253     9 
  234   232   252   254     9 
  234   232   252   257     9 
  232   234   235   236     9 
  232   234   235   237     9 
  232   234   235   254     9 
  234   235   237   238     9 
  234   235   237   251     9 
  236   235   237   238     9 
  236   235   237   251     9 
  254   235   237   238     9 
  254   235   237   251     9 
  234   235   254   252     9 
  234   235   254   255     9 
  234   235   254   256     9 
  236   235   254   252     9 
  236   235   254   255     9 
  236   235   254   256     9 
  237   235   254   252     9 
  237   235   254   255     9 
  237   235   254   256     9 
  235   237   238   239     9 
  235   237   238   240     9 
  251   237   238   239     9 
  251   237   238   240     9 
  235   237   251   241     9 
  235   237   251   250     9 
  238   237   251   241     9 
  238   237   251   250     9 
  237   238   240   241     9 
  239   238   240   241     9 
  238   240   241   242     9 
  238   240   241   251     9 
  240   241   242   243     9 
  240   241   242   244     9 
  251   241   242   243     9 
  251   241   242   244     9 
  240   241   251   237     9 
  240   241   251   250     9 
  242   241   251   237     9 
  242   241   251   250     9 
  241   242   244   245     9 
  241   242   244   246     9 
  243   242   244   245     9 
  243   242   244   246     9 
  242   244   246   247     9 
  242   244   246   250     9 
  245   244   246   247     9 
  245   244   246   250     9 
  244   246   247   248     9 
  244   246   247   249     9 
  250   246   247   248     9 
  250   246   247   249     9 
  244   246   250   251     9 
  247   246   250   251     9 
  246   250   251   237     9 
  246   250   251   241     9 
  232   252   254   235     9 
  232   252   254   255     9 
  232   252   254   256     9 
  253   252   254   235     9 
  253   252   254   255     9 
  253   252   254   256     9 
  257   252   254   235     9 
  257   252   254   255     9 
  257   252   254   256     9 
  232   252   257   258     9 
  253   252   257   258     9 
  254   252   257   258     9 
  252   257   258   259     9 
  252   257   258   260     9 
  252   257   258   261     9 
  257   258   261   262     9 
  259   258   261   262     9 
  260   258   261   262     9 
  258   261   262   263     9 
  258   261   262   264     9 
  258   261   262   265     9 
  261   262   265   266     9 
  261   262   265   267     9 
  261   262   265   284     9 
  263   262   265   266     9 
  263   262   265   267     9 
  263   262   265   284     9 
  264   262   265   266     9 
  264   262   265   267     9 
  264   262   265   284     9 
  262   265   267   268     9 
  266   265   267   268     9 
  284   265   267   268     9 
  262   265   284   285     9 
  262   265   284   286     9 
  262   265   284   289     9 
  266   265   284   285     9 
  266   265   284   286     9 
  266   265   284   289     9 
  267   265   284   285     9 
  267   265   284   286     9 
  267   265   284   289     9 
  265   267   268   269     9 
  265   267   268   270     9 
  265   267   268   286     9 
  267   268   270   271     9 
  267   268   270   283     9 
  269   268   270   271     9 
  269   268   270   283     9 
  286   268   270   271     9 
  286   268   270   283     9 
  267   268   286   284     9 
  267   268   286   287     9 
  267   268   286   288     9 
  269   268   286   284     9 
  269   268   286   287     9 
  269   268   286   288     9 
  270   268   286   284     9 
  270   268   286   287     9 
  270   268   286   288     9 
  268   270   271   272     9 
  268   270   271   273     9 
  283   270   271   272     9 
  283   270   271   273     9 
  268   270   283   274     9 
  268   270   283   282     9 
  271   270   283   274     9 
  271   270   283   282     9 
  270   271   273   274     9 
  272   271   273   274     9 
  271   273   274   275     9 
  271   273   274   283     9 
  273   274   275   276     9 
  273   274   275   279     9 
  283   274   275   276     9 
  283   274   275   279     9 
  273   274   283   270     9 
  273   274   283   282     9 
  275   274   283   270     9 
  275   274   283   282     9 
  274   275   276   277     9 
  274   275   276   278     9 
  279   275   276   277     9 
  279   275   276   278     9 
  274   275   279   280     9 
  276   275   279   280     9 
  275   279   280   281     9 
  275   279   280   282     9 
  279   280   282   283     9 
  281   280   282   283     9 
  280   282   283   270     9 
  280   282   283   274     9 
  265   284   286   268     9 
  265   284   286   287     9 
  265   284   286   288     9 
  285   284   286   268     9 
  285   284   286   287     9 
  285   284   286   288     9 
  289   284   286   268     9 
  289   284   286   287     9 
  289   284   286   288     9 
  265   284   289   290     9 
  285   284   289   290     9 
  286   284   289   290     9 
  284   289   290   291     9 
  284   289   290   292     9 
  284   289   290   293     9 
  289   290   293   294     9 
  291   290   293   294     9 
  292   290   293   294     9 
  290   293   294   295     9 
  290   293   294   296     9 
  290   293   294   297     9 
  293   294   297   298     9 
  293   294   297   299     9 
  293   294   297   314     9 
  295   294   297   298     9 
  295   294   297   299     9 
  295   294   297   314     9 
  296   294   297   298     9 
  296   294   297   299     9 
  296   294   297   314     9 
  294   297   299   300     9 
  298   297   299   300     9 
  314   297   299   300     9 
  294   297   314   315     9 
  294   297   314   316     9 
  294   297   314   319     9 
  298   297   314   315     9 
  298   297   314   316     9 
  298   297   314   319     9 
  299   297   314   315     9 
  299   297   314   316     9 
  299   297   314   319     9 
  297   299   300   301     9 
  297   299   300   302     9 
  297   299   300   316     9 
  299   300   302   303     9 
  299   300   302   312     9 
  301   300   302   303     9 
  301   300   302   312     9 
  316   300   302   303     9 
  316   300   302   312     9 
  299   300   316   314     9 
  299   300   316   317     9 
  299   300   316   318     9 
  301   300   316   314     9 
  301   300   316   317     9 
  301   300   316   318     9 
  302   300   316   314     9 
  302   300   316   317     9 
  302   300   316   318     9 
  300   302   303   304     9 
  300   302   303   305     9 
  312   302   303   304     9 
  312   302   303   305     9 
  300   302   312   311     9 
  300   302   312   313     9 
  303   302   312   311     9 
  303   302   312   313     9 
  302   303   305   306     9 
  302   303   305   307     9 
  304   303   305   306     9 
  304   303   305   307     9 
  303   305   307   308     9 
  303   305   307   311     9 
  306   305   307   308     9 
  306   305   307   311     9 
  305   307   308   309     9 
  305   307   308   310     9 
  311   307   308   309     9 
  311   307   308   310     9 
  305   307   311   312     9 
  308   307   311   312     9 
  307   311   312   302     9 
  307   311   312   313     9 
  297   314   316   300     9 
  297   314   316   317     9 
  297   314   316   318     9 
  315   314   316   300     9 
  315   314   316   317     9 
  315   314   316   318     9 
  319   314   316   300     9 
  319   314   316   317     9 
  319   314   316   318     9 
  297   314   319   320     9 
  315   314   319   320     9 
  316   314   319   320     9 
  314   319   320   321     9 
  314   319   320   322     9 
  314   319   320   323     9 
  319   320   323   324     9 
  321   320   323   324     9 
  322   320   323   324     9 
  320   323   324   325     9 
  320   323   324   326     9 
  320   323   324   327     9 
  323   324   327   328     9 
  323   324   327   329     9 
  323   324   327   344     9 
  325   324   327   328     9 
  325   324   327   329     9 
  325   324   327   344     9 
  326   324   327   328     9 
  326   324   327   329     9 
  326   324   327   344     9 
  324   327   329   330     9 
  328   327   329   330     9 
  344   327   329   330     9 
  324   327   344   345     9 
  324   327   344   346     9 
  324   327   344   349     9 
  328   327   344   345     9 
  328   327   344   346     9 
  328   327   344   349     9 
  329   327   344   345     9 
  329   327   344   346     9 
  329   327   344   349     9 
  327   329   330   331     9 
  327   329   330   332     9 
  327   329   330   346     9 
  329   330   332   333     9 
  329   330   332   342     9 
  331   330   332   333     9 
  331   330   332   342     9 
  346   330   332   333     9 
  346   330   332   342     9 
  329   330   346   344     9 
  329   330   346   347     9 
  329   330   346   348     9 
  331   330   346   344     9 
  331   330   346   347     9 
  331   330   346   348     9 
  332   330   346   344     9 
  332   330   346   347     9 
  332   330   346   348     9 
  330   332   333   334     9 
  330   332   333   335     9 
  342   332   333   334     9 
  342   332   333   335     9 
  330   332   342   341     9 
  330   332   342   343     9 
  333   332   342   341     9 
  333   332   342   343     9 
  332   333   335   336     9 
  332   333   335   337     9 
  334   333   335   336     9 
  334   333   335   337     9 
  333   335   337   338     9 
  333   335   337   341     9 
  336   335   337   338     9 
  336   335   337   341     9 
  335   337   338   339     9 
  335   337   338   340     9 
  341   337   338   339     9 
  341   337   338   340     9 
  335   337   341   342     9 
  338   337   341   342     9 
  337   341   342   332     9 
  337   341   342   343     9 
  327   344   346   330     9 
  327   344   346   347     9 
  327   344   346   348     9 
  345   344   346   330     9 
  345   344   346   347     9 
  345   344   346   348     9 
  349   344   346   330     9 
  349   344   346   347     9 
  349   344   346   348     9 
  327   344   349   350     9 
  345   344   349   350     9 
  346   344   349   350     9 

[ dihedrals ]
;  ai    aj    ak    al funct            c0            c1            c2            c3
    9    11    12    24     4 
   11    14    12    13     4 
   15    17    16    20     4 
   16    18    17    19     4 
   20    23    21    22     4 
   41    43    44    57     4 
   43    46    44    45     4 
   47    50    48    49     4 
   48    52    50    51     4 
   52    54    53    55     4 
   53    50    52    56     4 
   74    76    77    86     4 
   76    79    77    78     4 
   76    85    86    87     4 
   77    81    79    80     4 
   79    82    81    85     4 
   81    83    82    84     4 
  104   106   107   120     4 
  106   109   107   108     4 
  110   113   111   112     4 
  111   115   113   114     4 
  115   117   116   118     4 
  116   113   115   119     4 
  137   139   140   151     4 
  139   142   140   141     4 
  139   149   151   152     4 
  142   149   147   148     4 
  143   142   140   147     4 
  147   151   149   150     4 
  169   171   172   185     4 
  171   174   172   173     4 
  175   178   176   177     4 
  176   180   178   179     4 
  180   182   181   183     4 
  181   178   180   184     4 
  202   204   205   218     4 
  204   207   205   206     4 
  208   211   209   210     4 
  209   213   211   212     4 
  213   215   214   216     4 
  214   211   213   217     4 
  235   237   238   251     4 
  237   240   238   239     4 
  241   244   242   243     4 
  242   246   244   245     4 
  246   248   247   249     4 
  247   244   246   250     4 
  268   270   271   283     4 
  270   273   271   272     4 
  274   276   275   279     4 
  275   277   276   278     4 
  279   282   280   281     4 
  300   302   303   312     4 
  302   305   303   304     4 
  302   311   312   313     4 
  303   307   305   306     4 
  305   308   307   311     4 
  307   309   308   310     4 
  330   332   333   342     4 
  332   335   333   334     4 
  332   341   342   343     4 
  333   337   335   336     4 
  335   338   337   341     4 
  337   339   338   340     4 

; Include Position restraint file
#ifdef POSRES
#include "posre_DNA_chain_B.itp"
#endif

