;
;	File 'topol.top' was generated
;	By user: unknown (93529)
;	On host: chas009
;	At date: Fri Feb 27 10:57:00 2026
;
;	This is a standalone topology file
;
;	Created by:
;	              :-) GROMACS - gmx pdb2gmx, 2021.4-plumed-2.8.0 (-:
;	
;	Executable:   /home/apps/centos7/gromacs/2021.4/gcc9.1_ompi4.1.2/bin/gmx_mpi
;	Data prefix:  /home/apps/centos7/gromacs/2021.4/gcc9.1_ompi4.1.2
;	Working dir:  /scratch/mse/phd/msz208502/dev_gromacs/10_dsDNA
;	Command line:
;	  gmx_mpi pdb2gmx -f clean.pdb -o processed.gro -p topol.top -ter
;	Force field was read from the standard GROMACS share directory.
;

; Include forcefield parameters
#include "amber99sb-ildn.ff/forcefield.itp"

; Include chain topologies
#include "topol_DNA_chain_B.itp"
#include "topol_DNA_chain_C.itp"
#include "topol_Protein_chain_A.itp"

; Include water topology
#include "amber99sb-ildn.ff/tip3p.itp"

#ifdef POSRES_WATER
; Position restraint for each water oxygen
[ position_restraints ]
;  i funct       fcx        fcy        fcz
   1    1       1000       1000       1000
#endif

; Include topology for ions
#include "amber99sb-ildn.ff/ions.itp"

[ system ]
; Name
Protein in water

[ molecules ]
; Compound        #mols
DNA_chain_B         1
DNA_chain_C         1
Protein_chain_A     1
SOL         8963
NA               10
