GRA in water
 8893
    1GRA     C1    1   1.690   1.474   2.578
    1GRA     C2    2   1.814   1.541   2.563
    1GRA     C3    3   1.815   1.682   2.544
    1GRA     C4    4   1.691   1.752   2.539
    2GRA     C1    5   1.691   1.894   2.532
    2GRA     C2    6   1.815   1.966   2.531
    2GRA     C3    7   1.816   2.111   2.532
    2GRA     C4    8   1.695   2.185   2.534
    3GRA     C1    9   1.696   2.328   2.540
    3GRA     C2   10   1.820   2.398   2.539
    3GRA     C3   11   1.823   2.543   2.539
    3GRA     C4   12   1.702   2.615   2.542
    4GRA     C1   13   1.700   2.757   2.540
    4GRA     C2   14   1.821   2.834   2.538
    4GRA     C3   15   1.820   2.981   2.553
    4GRA     C4   16   1.689   3.008   2.600
    5GRA     C1   17   1.937   1.472   2.580
    5GRA     C2   18   2.062   1.539   2.564
    5GRA     C3   19   2.062   1.681   2.546
    5GRA     C4   20   1.939   1.751   2.540
    6GRA     C1   21   1.939   1.896   2.534
    6GRA     C2   22   2.063   1.965   2.534
    6GRA     C3   23   2.064   2.111   2.533
    6GRA     C4   24   1.941   2.181   2.533
    7GRA     C1   25   1.942   2.327   2.535
    7GRA     C2   26   2.066   2.397   2.533
    7GRA     C3   27   2.067   2.544   2.531
    7GRA     C4   28   1.945   2.614   2.534
    8GRA     C1   29   1.944   2.760   2.533
    8GRA     C2   30   2.068   2.833   2.535
    8GRA     C3   31   2.068   2.978   2.557
    8GRA     C4   32   1.943   2.997   2.620
    9GRA     C1   33   2.185   1.469   2.577
    9GRA     C2   34   2.308   1.537   2.558
    9GRA     C3   35   2.308   1.680   2.546
    9GRA     C4   36   2.186   1.750   2.543
   10GRA     C1   37   2.186   1.895   2.537
   10GRA     C2   38   2.310   1.964   2.537
   10GRA     C3   39   2.310   2.110   2.533
   10GRA     C4   40   2.187   2.180   2.532
   11GRA     C1   41   2.188   2.327   2.530
   11GRA     C2   42   2.311   2.395   2.526
   11GRA     C3   43   2.313   2.543   2.525
   11GRA     C4   44   2.190   2.613   2.527
   12GRA     C1   45   2.191   2.760   2.528
   12GRA     C2   46   2.316   2.831   2.531
   12GRA     C3   47   2.321   2.976   2.558
   12GRA     C4   48   2.195   3.000   2.616
   13GRA     C1   49   2.433   1.467   2.565
   13GRA     C2   50   2.556   1.536   2.551
   13GRA     C3   51   2.556   1.679   2.548
   13GRA     C4   52   2.432   1.749   2.545
   14GRA     C1   53   2.433   1.894   2.542
   14GRA     C2   54   2.557   1.964   2.547
   14GRA     C3   55   2.557   2.109   2.542
   14GRA     C4   56   2.434   2.179   2.534
   15GRA     C1   57   2.434   2.325   2.528
   15GRA     C2   58   2.557   2.394   2.527
   15GRA     C3   59   2.558   2.540   2.520
   15GRA     C4   60   2.436   2.611   2.519
   16GRA     C1   61   2.438   2.757   2.521
   16GRA     C2   62   2.564   2.827   2.521
   16GRA     C3   63   2.568   2.972   2.550
   16GRA     C4   64   2.447   2.991   2.620
   17GRA     C1   65   2.679   1.466   2.551
   17GRA     C2   66   2.803   1.535   2.548
   17GRA     C3   67   2.803   1.677   2.553
   17GRA     C4   68   2.680   1.749   2.553
   18GRA     C1   69   2.681   1.893   2.556
   18GRA     C2   70   2.804   1.965   2.565
   18GRA     C3   71   2.803   2.108   2.563
   18GRA     C4   72   2.681   2.179   2.548
   19GRA     C1   73   2.680   2.323   2.538
   19GRA     C2   74   2.802   2.394   2.539
   19GRA     C3   75   2.800   2.535   2.525
   19GRA     C4   76   2.681   2.610   2.515
   20GRA     C1   77   2.688   2.754   2.509
   20GRA     C2   78   2.811   2.830   2.502
   20GRA     C3   79   2.809   2.974   2.522
   20GRA     C4   80   2.697   2.984   2.605
    1GRA2    C1   81   1.702   1.474   1.895
    1GRA2    C2   82   1.822   1.548   1.913
    1GRA2    C3   83   1.822   1.689   1.928
    1GRA2    C4   84   1.700   1.760   1.926
    2GRA2    C1   85   1.696   1.901   1.934
    2GRA2    C2   86   1.819   1.971   1.941
    2GRA2    C3   87   1.819   2.113   1.947
    2GRA2    C4   88   1.697   2.184   1.947
    3GRA2    C1   89   1.697   2.326   1.952
    3GRA2    C2   90   1.821   2.396   1.959
    3GRA2    C3   91   1.821   2.538   1.964
    3GRA2    C4   92   1.697   2.605   1.962
    4GRA2    C1   93   1.698   2.746   1.959
    4GRA2    C2   94   1.818   2.825   1.962
    4GRA2    C3   95   1.812   2.968   1.934
    4GRA2    C4   96   1.692   2.987   1.861
    5GRA2    C1   97   1.945   1.480   1.905
    5GRA2    C2   98   2.067   1.549   1.924
    5GRA2    C3   99   2.067   1.688   1.939
    5GRA2    C4  100   1.944   1.759   1.937
    6GRA2    C1  101   1.943   1.901   1.942
    6GRA2    C2  102   2.067   1.971   1.948
    6GRA2    C3  103   2.067   2.113   1.952
    6GRA2    C4  104   1.944   2.184   1.952
    7GRA2    C1  105   1.944   2.326   1.959
    7GRA2    C2  106   2.069   2.397   1.963
    7GRA2    C3  107   2.069   2.540   1.967
    7GRA2    C4  108   1.945   2.611   1.970
    8GRA2    C1  109   1.943   2.754   1.972
    8GRA2    C2  110   2.068   2.827   1.973
    8GRA2    C3  111   2.070   2.971   1.953
    8GRA2    C4  112   1.944   3.005   1.898
    9GRA2    C1  113   2.190   1.479   1.917
    9GRA2    C2  114   2.312   1.546   1.936
    9GRA2    C3  115   2.311   1.686   1.948
    9GRA2    C4  116   2.190   1.758   1.947
   10GRA2    C1  117   2.190   1.900   1.951
   10GRA2    C2  118   2.314   1.969   1.956
   10GRA2    C3  119   2.315   2.112   1.955
   10GRA2    C4  120   2.192   2.184   1.955
   11GRA2    C1  121   2.192   2.326   1.959
   11GRA2    C2  122   2.317   2.396   1.958
   11GRA2    C3  123   2.317   2.539   1.960
   11GRA2    C4  124   2.193   2.610   1.966
   12GRA2    C1  125   2.193   2.753   1.971
   12GRA2    C2  126   2.319   2.827   1.966
   12GRA2    C3  127   2.313   2.973   1.976
   12GRA2    C4  128   2.197   2.990   1.897
   13GRA2    C1  129   2.432   1.472   1.933
   13GRA2    C2  130   2.555   1.539   1.950
   13GRA2    C3  131   2.556   1.681   1.958
   13GRA2    C4  132   2.435   1.754   1.956
   14GRA2    C1  133   2.437   1.897   1.959
   14GRA2    C2  134   2.562   1.966   1.962
   14GRA2    C3  135   2.563   2.109   1.959
   14GRA2    C4  136   2.440   2.181   1.956
   15GRA2    C1  137   2.440   2.324   1.956
   15GRA2    C2  138   2.565   2.393   1.955
   15GRA2    C3  139   2.566   2.536   1.951
   15GRA2    C4  140   2.443   2.609   1.954
   16GRA2    C1  141   2.444   2.752   1.952
   16GRA2    C2  142   2.572   2.819   1.939
   16GRA2    C3  143   2.576   2.962   1.937
   16GRA2    C4  144   2.448   3.012   1.965
   17GRA2    C1  145   2.675   1.464   1.945
   17GRA2    C2  146   2.799   1.531   1.956
   17GRA2    C3  147   2.799   1.672   1.961
   17GRA2    C4  148   2.680   1.749   1.963
   18GRA2    C1  149   2.684   1.892   1.966
   18GRA2    C2  150   2.808   1.962   1.972
   18GRA2    C3  151   2.810   2.104   1.968
   18GRA2    C4  152   2.688   2.177   1.961
   19GRA2    C1  153   2.688   2.320   1.956
   19GRA2    C2  154   2.813   2.389   1.954
   19GRA2    C3  155   2.815   2.530   1.950
   19GRA2    C4  156   2.692   2.604   1.947
   20GRA2    C1  157   2.697   2.745   1.941
   20GRA2    C2  158   2.825   2.812   1.961
   20GRA2    C3  159   2.836   2.953   1.982
   20GRA2    C4  160   2.705   3.002   1.974
   21SOL     OW  161   0.238   0.645   0.113
   21SOL    HW1  162   0.166   0.612   0.174
   21SOL    HW2  163   0.234   0.596   0.026
   22SOL     OW  164   0.198   0.292   0.991
   22SOL    HW1  165   0.236   0.268   1.080
   22SOL    HW2  166   0.131   0.223   0.964
   23SOL     OW  167   0.009   0.379   0.641
   23SOL    HW1  168   4.428   0.420   0.684
   23SOL    HW2  169   4.480   0.303   0.582
   24SOL     OW  170   0.566   1.282   1.175
   24SOL    HW1  171   0.476   1.282   1.132
   24SOL    HW2  172   0.585   1.373   1.212
   25SOL     OW  173   1.557   1.511   0.707
   25SOL    HW1  174   1.512   1.491   0.795
   25SOL    HW2  175   1.488   1.521   0.636
   26SOL     OW  176   1.134   0.702   0.704
   26SOL    HW1  177   1.184   0.787   0.686
   26SOL    HW2  178   1.081   0.712   0.788
   27SOL     OW  179   1.773   0.602   0.233
   27SOL    HW1  180   1.745   0.601   0.137
   27SOL    HW2  181   1.728   0.527   0.282
   28SOL     OW  182   0.757   1.146   1.035
   28SOL    HW1  183   0.684   1.177   1.097
   28SOL    HW2  184   0.795   1.224   0.987
   29SOL     OW  185   0.861   0.780   1.818
   29SOL    HW1  186   0.851   0.849   1.889
   29SOL    HW2  187   0.887   0.824   1.732
   30SOL     OW  188   0.685   1.006   0.653
   30SOL    HW1  189   0.754   0.990   0.723
   30SOL    HW2  190   0.609   1.058   0.693
   31SOL     OW  191   0.707   1.154   1.810
   31SOL    HW1  192   0.759   1.235   1.837
   31SOL    HW2  193   0.618   1.182   1.773
   32SOL     OW  194   0.334   1.425   1.069
   32SOL    HW1  195   0.249   1.400   1.023
   32SOL    HW2  196   0.390   1.481   1.008
   33SOL     OW  197   1.461   1.497   1.349
   33SOL    HW1  198   1.505   1.586   1.359
   33SOL    HW2  199   1.403   1.479   1.429
   34SOL     OW  200   0.437   0.396   1.493
   34SOL    HW1  201   0.528   0.355   1.494
   34SOL    HW2  202   0.368   0.324   1.503
   35SOL     OW  203   1.614   0.450   0.740
   35SOL    HW1  204   1.530   0.471   0.690
   35SOL    HW2  205   1.637   0.527   0.800
   36SOL     OW  206   0.238   1.693   0.490
   36SOL    HW1  207   0.232   1.784   0.529
   36SOL    HW2  208   0.298   1.694   0.410
   37SOL     OW  209   1.135   1.340   1.694
   37SOL    HW1  210   1.182   1.340   1.782
   37SOL    HW2  211   1.079   1.258   1.686
   38SOL     OW  212   0.244   1.430   0.535
   38SOL    HW1  213   0.238   1.529   0.531
   38SOL    HW2  214   0.172   1.394   0.594
   39SOL     OW  215   0.247   1.081   0.888
   39SOL    HW1  216   0.265   0.987   0.916
   39SOL    HW2  217   0.185   1.124   0.954
   40SOL     OW  218   0.613   1.793   1.432
   40SOL    HW1  219   0.526   1.771   1.477
   40SOL    HW2  220   0.640   1.886   1.456
   41SOL     OW  221   0.588   0.975   0.156
   41SOL    HW1  222   0.582   1.049   0.089
   41SOL    HW2  223   0.643   1.004   0.234
   42SOL     OW  224   1.586   0.116   1.476
   42SOL    HW1  225   1.596   0.182   1.401
   42SOL    HW2  226   1.576   0.164   1.563
   43SOL     OW  227   0.134   0.645   0.575
   43SOL    HW1  228   0.083   0.560   0.584
   43SOL    HW2  229   0.108   0.708   0.647
   44SOL     OW  230   1.842   1.756   0.340
   44SOL    HW1  231   1.915   1.735   0.405
   44SOL    HW2  232   1.856   1.847   0.302
   45SOL     OW  233   0.052   1.585   0.206
   45SOL    HW1  234   0.048   1.503   0.148
   45SOL    HW2  235   4.468   1.637   0.195
   46SOL     OW  236   1.692   0.922   0.640
   46SOL    HW1  237   1.779   0.876   0.624
   46SOL    HW2  238   1.668   0.975   0.559
   47SOL     OW  239   1.648   1.110   0.435
   47SOL    HW1  240   1.738   1.114   0.392
   47SOL    HW2  241   1.646   1.173   0.512
   48SOL     OW  242   0.108   0.761   1.593
   48SOL    HW1  243   0.206   0.755   1.573
   48SOL    HW2  244   0.079   0.857   1.591
   49SOL     OW  245   0.609   1.383   0.734
   49SOL    HW1  246   0.562   1.296   0.746
   49SOL    HW2  247   0.595   1.416   0.640
   50SOL     OW  248   1.293   1.239   1.423
   50SOL    HW1  249   1.322   1.168   1.359
   50SOL    HW2  250   1.347   1.233   1.507
   51SOL     OW  251   0.813   0.014   0.550
   51SOL    HW1  252   0.858   0.093   0.509
   51SOL    HW2  253   0.714   0.023   0.540
   52SOL     OW  254   0.185   0.945   1.278
   52SOL    HW1  255   0.280   0.926   1.255
   52SOL    HW2  256   0.127   0.923   1.199
   53SOL     OW  257   1.534   0.988   0.210
   53SOL    HW1  258   1.457   0.927   0.232
   53SOL    HW2  259   1.568   1.030   0.293
   54SOL     OW  260   1.183   1.803   1.617
   54SOL    HW1  261   1.199   1.869   1.544
   54SOL    HW2  262   1.201   1.710   1.584
   55SOL     OW  263   0.317   0.260   1.775
   55SOL    HW1  264   0.391   0.316   1.813
   55SOL    HW2  265   0.236   0.269   1.832
   56SOL     OW  266   1.464   1.419   0.954
   56SOL    HW1  267   1.395   1.437   1.024
   56SOL    HW2  268   1.457   1.324   0.923
   57SOL     OW  269   1.656   1.734   0.580
   57SOL    HW1  270   1.639   1.710   0.485
   57SOL    HW2  271   1.631   1.658   0.639
   58SOL     OW  272   0.601   0.727   0.274
   58SOL    HW1  273   0.609   0.807   0.215
   58SOL    HW2  274   0.529   0.743   0.342
   59SOL     OW  275   1.289   0.355   0.934
   59SOL    HW1  276   1.195   0.325   0.918
   59SOL    HW2  277   1.333   0.294   1.000
   60SOL     OW  278   1.584   1.670   0.309
   60SOL    HW1  279   1.680   1.700   0.307
   60SOL    HW2  280   1.554   1.653   0.215
   61SOL     OW  281   0.796   0.613   1.455
   61SOL    HW1  282   0.768   0.593   1.549
   61SOL    HW2  283   0.750   0.551   1.392
   62SOL     OW  284   1.389   0.475   1.677
   62SOL    HW1  285   1.387   0.523   1.764
   62SOL    HW2  286   1.458   0.403   1.679
   63SOL     OW  287   0.958   0.888   1.579
   63SOL    HW1  288   1.016   0.813   1.545
   63SOL    HW2  289   0.907   0.927   1.503
   64SOL     OW  290   0.997   0.414   1.234
   64SOL    HW1  291   0.913   0.433   1.285
   64SOL    HW2  292   0.975   0.360   1.153
   65SOL     OW  293   1.039   0.705   0.439
   65SOL    HW1  294   1.058   0.695   0.536
   65SOL    HW2  295   0.956   0.654   0.415
   66SOL     OW  296   0.100   0.821   0.783
   66SOL    HW1  297   0.190   0.805   0.823
   66SOL    HW2  298   0.042   0.867   0.849
   67SOL     OW  299   0.123   1.856   1.578
   67SOL    HW1  300   0.121   1.828   1.674
   67SOL    HW2  301   0.044   1.818   1.531
   68SOL     OW  302   0.868   0.352   0.199
   68SOL    HW1  303   0.915   0.408   0.131
   68SOL    HW2  304   0.885   0.255   0.179
   69SOL     OW  305   1.705   0.576   1.826
   69SOL    HW1  306   1.669   0.658   1.780
   69SOL    HW2  307   1.740   0.512   1.757
   70SOL     OW  308   1.375   1.145   0.540
   70SOL    HW1  309   1.457   1.122   0.487
   70SOL    HW2  310   1.320   1.211   0.489
   71SOL     OW  311   0.541   0.201   0.905
   71SOL    HW1  312   0.560   0.221   1.001
   71SOL    HW2  313   0.537   0.286   0.853
   72SOL     OW  314   1.011   1.440   0.475
   72SOL    HW1  315   0.962   1.513   0.425
   72SOL    HW2  316   0.998   1.452   0.573
   73SOL     OW  317   0.355   1.808   0.857
   73SOL    HW1  318   0.399   1.718   0.867
   73SOL    HW2  319   0.424   1.879   0.869
   74SOL     OW  320   1.797   1.062   0.868
   74SOL    HW1  321   1.742   1.044   0.786
   74SOL    HW2  322   1.737   1.066   0.948
   75SOL     OW  323   1.227   1.538   1.513
   75SOL    HW1  324   1.214   1.464   1.579
   75SOL    HW2  325   1.164   1.526   1.436
   76SOL     OW  326   0.323   0.945   0.234
   76SOL    HW1  327   0.416   0.963   0.203
   76SOL    HW2  328   0.302   0.848   0.223
   77SOL     OW  329   1.478   0.740   0.724
   77SOL    HW1  330   1.460   0.690   0.809
   77SOL    HW2  331   1.556   0.801   0.737
   78SOL     OW  332   0.464   1.259   1.732
   78SOL    HW1  333   0.437   1.267   1.636
   78SOL    HW2  334   0.384   1.266   1.790
   79SOL     OW  335   1.140   1.779   0.254
   79SOL    HW1  336   1.072   1.738   0.314
   79SOL    HW2  337   1.157   1.718   0.177
   80SOL     OW  338   0.171   0.265   1.507
   80SOL    HW1  339   0.134   0.354   1.480
   80SOL    HW2  340   0.203   0.270   1.602
   81SOL     OW  341   1.624   1.388   0.099
   81SOL    HW1  342   1.582   1.478   0.088
   81SOL    HW2  343   1.553   1.318   0.094
   82SOL     OW  344   0.476   1.724   0.340
   82SOL    HW1  345   0.493   1.789   0.414
   82SOL    HW2  346   0.546   1.734   0.269
   83SOL     OW  347   1.419   0.132   0.424
   83SOL    HW1  348   1.391   0.089   0.338
   83SOL    HW2  349   1.519   0.134   0.430
   84SOL     OW  350   0.257   1.791   1.234
   84SOL    HW1  351   0.309   1.717   1.277
   84SOL    HW2  352   0.225   1.761   1.144
   85SOL     OW  353   0.937   1.699   0.899
   85SOL    HW1  354   1.018   1.647   0.926
   85SOL    HW2  355   0.889   1.650   0.826
   86SOL     OW  356   0.390   0.692   0.475
   86SOL    HW1  357   0.422   0.597   0.483
   86SOL    HW2  358   0.294   0.696   0.503
   87SOL     OW  359   1.525   0.232   1.723
   87SOL    HW1  360   1.527   0.257   1.819
   87SOL    HW2  361   1.448   0.171   1.705
   88SOL     OW  362   0.602   0.086   0.121
   88SOL    HW1  363   0.698   0.069   0.141
   88SOL    HW2  364   0.594   0.121   0.027
   89SOL     OW  365   0.769   0.269   1.754
   89SOL    HW1  366   0.838   0.197   1.763
   89SOL    HW2  367   0.721   0.281   1.841
   90SOL     OW  368   0.878   1.517   1.192
   90SOL    HW1  369   0.859   1.483   1.100
   90SOL    HW2  370   0.949   1.462   1.234
   91SOL     OW  371   1.344   0.589   1.431
   91SOL    HW1  372   1.370   0.555   1.522
   91SOL    HW2  373   1.377   0.683   1.420
   92SOL     OW  374   0.814   1.397   0.933
   92SOL    HW1  375   0.903   1.387   0.889
   92SOL    HW2  376   0.742   1.395   0.864
   93SOL     OW  377   0.921   0.514   0.900
   93SOL    HW1  378   0.901   0.515   0.802
   93SOL    HW2  379   0.964   0.427   0.925
   94SOL     OW  380   0.556   0.073   0.512
   94SOL    HW1  381   0.464   0.055   0.548
   94SOL    HW2  382   0.551   0.146   0.444
   95SOL     OW  383   1.441   1.205   0.065
   95SOL    HW1  384   1.461   1.114   0.102
   95SOL    HW2  385   1.342   1.218   0.059
   96SOL     OW  386   0.319   0.064   0.193
   96SOL    HW1  387   0.411   0.094   0.170
   96SOL    HW2  388   0.324   4.484   0.252
   97SOL     OW  389   0.948   0.229   0.447
   97SOL    HW1  390   0.895   0.289   0.387
   97SOL    HW2  391   1.042   0.263   0.454
   98SOL     OW  392   1.080   0.679   1.461
   98SOL    HW1  393   1.001   0.618   1.462
   98SOL    HW2  394   1.164   0.625   1.449
   99SOL     OW  395   1.225   1.567   0.793
   99SOL    HW1  396   1.241   1.639   0.725
   99SOL    HW2  397   1.293   1.574   0.866
  100SOL     OW  398   0.463   1.146   0.737
  100SOL    HW1  399   0.390   1.128   0.803
  100SOL    HW2  400   0.429   1.134   0.644
  101SOL     OW  401   1.269   1.797   0.604
  101SOL    HW1  402   1.316   1.860   0.542
  101SOL    HW2  403   1.200   1.847   0.656
  102SOL     OW  404   1.085   0.574   0.019
  102SOL    HW1  405   0.990   0.599   0.003
  102SOL    HW2  406   1.107   0.585   0.116
  103SOL     OW  407   0.091   0.526   1.409
  103SOL    HW1  408   0.158   0.532   1.336
  103SOL    HW2  409   0.062   0.618   1.436
  104SOL     OW  410   0.564   0.241   1.168
  104SOL    HW1  411   0.599   0.152   1.197
  104SOL    HW2  412   0.466   0.246   1.186
  105SOL     OW  413   0.865   0.504   0.626
  105SOL    HW1  414   0.814   0.552   0.555
  105SOL    HW2  415   0.848   0.405   0.618
  106SOL     OW  416   0.971   0.031   0.769
  106SOL    HW1  417   0.915   0.027   0.687
  106SOL    HW2  418   0.982   4.439   0.807
  107SOL     OW  419   1.439   1.163   0.857
  107SOL    HW1  420   1.366   1.094   0.861
  107SOL    HW2  421   1.464   1.181   0.762
  108SOL     OW  422   1.469   0.601   0.981
  108SOL    HW1  423   1.412   0.518   0.980
  108SOL    HW2  424   1.531   0.597   1.059
  109SOL     OW  425   1.854   0.817   0.380
  109SOL    HW1  426   1.907   0.765   0.447
  109SOL    HW2  427   1.817   0.755   0.311
  110SOL     OW  428   0.484   1.404   0.187
  110SOL    HW1  429   0.395   1.375   0.225
  110SOL    HW2  430   0.481   1.398   0.088
  111SOL     OW  431   1.668   1.267   0.651
  111SOL    HW1  432   1.768   1.269   0.659
  111SOL    HW2  433   1.631   1.358   0.671
  112SOL     OW  434   1.418   0.600   0.115
  112SOL    HW1  435   1.339   0.590   0.177
  112SOL    HW2  436   1.459   0.511   0.098
  113SOL     OW  437   0.529   0.264   0.320
  113SOL    HW1  438   0.566   0.200   0.252
  113SOL    HW2  439   0.517   0.354   0.278
  114SOL     OW  440   1.756   1.233   1.574
  114SOL    HW1  441   1.847   1.192   1.569
  114SOL    HW2  442   1.765   1.329   1.603
  115SOL     OW  443   1.060   1.351   1.337
  115SOL    HW1  444   0.979   1.321   1.388
  115SOL    HW2  445   1.142   1.312   1.378
  116SOL     OW  446   1.602   1.628   1.648
  116SOL    HW1  447   1.598   1.666   1.555
  116SOL    HW2  448   1.686   1.575   1.659
  117SOL     OW  449   1.127   1.207   1.108
  117SOL    HW1  450   1.069   1.243   1.181
  117SOL    HW2  451   1.090   1.234   1.020
  118SOL     OW  452   1.631   1.100   1.081
  118SOL    HW1  453   1.628   1.166   1.156
  118SOL    HW2  454   1.550   1.111   1.023
  119SOL     OW  455   0.905   0.130   1.388
  119SOL    HW1  456   0.926   0.084   1.302
  119SOL    HW2  457   0.990   0.146   1.438
  120SOL     OW  458   0.981   1.114   1.721
  120SOL    HW1  459   0.885   1.132   1.744
  120SOL    HW2  460   0.986   1.032   1.663
  121SOL     OW  461   0.714   1.057   0.380
  121SOL    HW1  462   0.698   1.044   0.477
  121SOL    HW2  463   0.793   1.003   0.351
  122SOL     OW  464   0.430   0.823   1.240
  122SOL    HW1  465   0.503   0.836   1.307
  122SOL    HW2  466   0.364   0.755   1.274
  123SOL     OW  467   1.269   0.379   1.271
  123SOL    HW1  468   1.305   0.458   1.321
  123SOL    HW2  469   1.176   0.398   1.241
  124SOL     OW  470   0.063   1.575   1.339
  124SOL    HW1  471   0.029   1.665   1.309
  124SOL    HW2  472   0.163   1.578   1.345
  125SOL     OW  473   0.352   1.110   0.491
  125SOL    HW1  474   0.352   1.190   0.431
  125SOL    HW2  475   0.360   1.027   0.436
  126SOL     OW  476   0.563   0.536   0.857
  126SOL    HW1  477   0.576   0.596   0.779
  126SOL    HW2  478   0.624   0.565   0.931
  127SOL     OW  479   1.254   1.365   0.395
  127SOL    HW1  480   1.322   1.433   0.423
  127SOL    HW2  481   1.163   1.393   0.428
  128SOL     OW  482   1.277   1.457   1.146
  128SOL    HW1  483   1.335   1.461   1.227
  128SOL    HW2  484   1.220   1.375   1.150
  129SOL     OW  485   1.585   0.628   0.478
  129SOL    HW1  486   1.534   0.678   0.549
  129SOL    HW2  487   1.621   0.693   0.412
  130SOL     OW  488   0.351   1.527   1.317
  130SOL    HW1  489   0.331   1.480   1.231
  130SOL    HW2  490   0.450   1.541   1.325
  131SOL     OW  491   0.476   0.759   1.660
  131SOL    HW1  492   0.506   0.803   1.576
  131SOL    HW2  493   0.509   0.664   1.661
  132SOL     OW  494   1.599   0.780   1.678
  132SOL    HW1  495   1.507   0.821   1.676
  132SOL    HW2  496   1.656   0.822   1.607
  133SOL     OW  497   1.003   0.088   1.724
  133SOL    HW1  498   1.030   0.178   1.691
  133SOL    HW2  499   1.032   0.018   1.659
  134SOL     OW  500   0.495   0.048   1.750
  134SOL    HW1  501   0.480   4.493   1.667
  134SOL    HW2  502   0.424   0.119   1.755
  135SOL     OW  503   0.588   0.872   1.026
  135SOL    HW1  504   0.620   0.966   1.021
  135SOL    HW2  505   0.528   0.861   1.105
  136SOL     OW  506   1.362   0.858   1.033
  136SOL    HW1  507   1.276   0.858   0.982
  136SOL    HW2  508   1.402   0.766   1.031
  137SOL     OW  509   1.194   0.557   0.280
  137SOL    HW1  510   1.211   0.470   0.326
  137SOL    HW2  511   1.146   0.619   0.342
  138SOL     OW  512   0.287   0.218   1.234
  138SOL    HW1  513   0.250   0.240   1.324
  138SOL    HW2  514   0.325   0.125   1.235
  139SOL     OW  515   0.050   1.313   1.286
  139SOL    HW1  516   0.082   1.259   1.364
  139SOL    HW2  517   0.050   1.410   1.310
  140SOL     OW  518   0.727   0.633   1.061
  140SOL    HW1  519   0.801   0.607   0.998
  140SOL    HW2  520   0.694   0.724   1.036
  141SOL     OW  521   1.729   0.960   1.849
  141SOL    HW1  522   1.682   0.901   1.783
  141SOL    HW2  523   1.671   0.973   1.930
  142SOL     OW  524   0.314   0.076   0.632
  142SOL    HW1  525   0.298   0.169   0.666
  142SOL    HW2  526   0.306   0.011   0.708
  143SOL     OW  527   1.611   0.381   0.371
  143SOL    HW1  528   1.644   0.312   0.435
  143SOL    HW2  529   1.586   0.464   0.420
  144SOL     OW  530   1.024   0.759   0.963
  144SOL    HW1  531   1.027   0.780   1.061
  144SOL    HW2  532   0.994   0.664   0.950
  145SOL     OW  533   0.981   1.563   1.710
  145SOL    HW1  534   0.965   1.611   1.624
  145SOL    HW2  535   1.028   1.477   1.692
  146SOL     OW  536   1.852   1.508   1.603
  146SOL    HW1  537   1.869   1.536   1.509
  146SOL    HW2  538   1.937   1.518   1.656
  147SOL     OW  539   0.348   0.929   1.816
  147SOL    HW1  540   0.420   0.961   1.877
  147SOL    HW2  541   0.387   0.861   1.753
  148SOL     OW  542   1.582   0.223   0.150
  148SOL    HW1  543   1.487   0.201   0.127
  148SOL    HW2  544   1.583   0.293   0.221
  149SOL     OW  545   1.299   0.833   0.031
  149SOL    HW1  546   1.345   0.747   0.051
  149SOL    HW2  547   1.342   0.876   4.451
  150SOL     OW  548   1.066   1.335   0.851
  150SOL    HW1  549   1.067   1.256   0.790
  150SOL    HW2  550   1.130   1.404   0.818
  151SOL     OW  551   0.319   0.812   0.948
  151SOL    HW1  552   0.417   0.834   0.943
  151SOL    HW2  553   0.308   0.717   0.979
  152SOL     OW  554   0.337   0.525   0.995
  152SOL    HW1  555   0.288   0.440   0.978
  152SOL    HW2  556   0.418   0.530   0.936
  153SOL     OW  557   1.135   0.376   1.694
  153SOL    HW1  558   1.083   0.442   1.748
  153SOL    HW2  559   1.227   0.412   1.678
  154SOL     OW  560   1.160   0.214   1.475
  154SOL    HW1  561   1.150   0.279   1.551
  154SOL    HW2  562   1.195   0.263   1.395
  155SOL     OW  563   4.495   1.303   0.174
  155SOL    HW1  564   4.401   1.337   0.181
  155SOL    HW2  565   0.005   1.219   0.228
  156SOL     OW  566   0.097   1.779   0.940
  156SOL    HW1  567   0.052   1.720   0.873
  156SOL    HW2  568   0.189   1.801   0.907
  157SOL     OW  569   0.500   1.574   0.907
  157SOL    HW1  570   0.569   1.641   0.932
  157SOL    HW2  571   0.540   1.505   0.847
  158SOL     OW  572   0.989   0.798   1.230
  158SOL    HW1  573   1.043   0.769   1.309
  158SOL    HW2  574   0.897   0.758   1.236
  159SOL     OW  575   0.036   0.563   1.109
  159SOL    HW1  576   0.116   0.519   1.067
  159SOL    HW2  577   0.023   0.525   1.201
  160SOL     OW  578   0.181   0.519   1.712
  160SOL    HW1  579   0.269   0.497   1.668
  160SOL    HW2  580   0.145   0.604   1.672
  161SOL     OW  581   1.376   0.940   1.659
  161SOL    HW1  582   1.395   1.038   1.667
  161SOL    HW2  583   1.375   0.914   1.563
  162SOL     OW  584   0.815   0.573   0.351
  162SOL    HW1  585   0.817   0.490   0.296
  162SOL    HW2  586   0.738   0.631   0.322
  163SOL     OW  587   1.644   0.603   1.190
  163SOL    HW1  588   1.625   0.541   1.266
  163SOL    HW2  589   1.734   0.583   1.151
  164SOL     OW  590   0.273   1.561   1.743
  164SOL    HW1  591   0.220   1.623   1.800
  164SOL    HW2  592   0.251   1.466   1.767
  165SOL     OW  593   0.682   0.465   1.266
  165SOL    HW1  594   0.644   0.379   1.233
  165SOL    HW2  595   0.694   0.528   1.189
  166SOL     OW  596   0.929   1.679   1.465
  166SOL    HW1  597   0.900   1.643   1.377
  166SOL    HW2  598   0.932   1.779   1.461
  167SOL     OW  599   0.491   0.498   0.198
  167SOL    HW1  600   0.542   0.582   0.214
  167SOL    HW2  601   0.396   0.521   0.176
  168SOL     OW  602   0.161   1.138   1.463
  168SOL    HW1  603   0.148   1.094   1.551
  168SOL    HW2  604   0.173   1.069   1.392
  169SOL     OW  605   1.326   1.048   1.224
  169SOL    HW1  606   1.355   0.981   1.156
  169SOL    HW2  607   1.251   1.103   1.187
  170SOL     OW  608   1.308   0.856   0.306
  170SOL    HW1  609   1.228   0.837   0.363
  170SOL    HW2  610   1.285   0.843   0.210
  171SOL     OW  611   1.770   1.741   1.150
  171SOL    HW1  612   1.831   1.775   1.078
  171SOL    HW2  613   1.742   1.648   1.128
  172SOL     OW  614   1.244   1.733   1.116
  172SOL    HW1  615   1.328   1.756   1.067
  172SOL    HW2  616   1.242   1.635   1.137
  173SOL     OW  617   0.068   1.190   1.049
  173SOL    HW1  618   0.073   1.225   1.143
  173SOL    HW2  619   0.014   1.254   0.993
  174SOL     OW  620   0.680   1.665   1.724
  174SOL    HW1  621   0.623   1.747   1.726
  174SOL    HW2  622   0.746   1.672   1.649
  175SOL     OW  623   0.876   0.061   0.141
  175SOL    HW1  624   0.951   0.095   0.084
  175SOL    HW2  625   0.913   0.024   0.226
  176SOL     OW  626   1.722   0.137   0.502
  176SOL    HW1  627   1.786   0.123   0.426
  176SOL    HW2  628   1.721   0.056   0.560
  177SOL     OW  629   1.398   1.576   0.486
  177SOL    HW1  630   1.462   1.605   0.414
  177SOL    HW2  631   1.345   1.655   0.518
  178SOL     OW  632   0.125   1.802   1.848
  178SOL    HW1  633   0.078   1.726   1.894
  178SOL    HW2  634   0.190   1.844   1.911
  179SOL     OW  635   1.281   0.926   0.669
  179SOL    HW1  636   1.355   0.858   0.677
  179SOL    HW2  637   1.313   1.004   0.616
  180SOL     OW  638   0.817   1.274   1.432
  180SOL    HW1  639   0.791   1.314   1.520
  180SOL    HW2  640   0.746   1.292   1.364
  181SOL     OW  641   0.688   1.575   0.170
  181SOL    HW1  642   0.674   1.605   0.076
  181SOL    HW2  643   0.626   1.499   0.191
  182SOL     OW  644   1.634   1.729   1.391
  182SOL    HW1  645   1.682   1.734   1.303
  182SOL    HW2  646   1.617   1.822   1.424
  183SOL     OW  647   1.839   0.159   0.964
  183SOL    HW1  648   1.874   0.076   0.920
  183SOL    HW2  649   1.748   0.179   0.929
  184SOL     OW  650   0.266   0.326   0.725
  184SOL    HW1  651   0.181   0.362   0.687
  184SOL    HW2  652   0.257   0.314   0.824
  185SOL     OW  653   1.213   1.606   0.046
  185SOL    HW1  654   1.210   1.507   0.064
  185SOL    HW2  655   1.178   1.624   4.454
  186SOL     OW  656   0.825   1.009   1.374
  186SOL    HW1  657   0.870   0.998   1.285
  186SOL    HW2  658   0.826   1.106   1.399
  187SOL     OW  659   0.908   0.899   0.283
  187SOL    HW1  660   0.972   0.946   0.222
  187SOL    HW2  661   0.959   0.835   0.342
  188SOL     OW  662   1.492   1.627   0.046
  188SOL    HW1  663   1.393   1.618   0.042
  188SOL    HW2  664   1.526   1.658   4.457
  189SOL     OW  665   0.370   1.304   1.489
  189SOL    HW1  666   0.359   1.387   1.435
  189SOL    HW2  667   0.292   1.244   1.474
  190SOL     OW  668   1.616   1.284   1.284
  190SOL    HW1  669   1.676   1.270   1.362
  190SOL    HW2  670   1.550   1.356   1.304
  191SOL     OW  671   1.049   1.106   0.707
  191SOL    HW1  672   0.974   1.055   0.750
  191SOL    HW2  673   1.111   1.042   0.662
  192SOL     OW  674   1.010   0.240   0.991
  192SOL    HW1  675   1.017   0.211   0.896
  192SOL    HW2  676   1.002   0.159   1.050
  193SOL     OW  677   0.602   1.490   0.483
  193SOL    HW1  678   0.640   1.431   0.412
  193SOL    HW2  679   0.535   1.552   0.442
  194SOL     OW  680   1.723   0.393   1.378
  194SOL    HW1  681   1.794   0.463   1.378
  194SOL    HW2  682   1.750   0.317   1.319
  195SOL     OW  683   0.251   1.327   0.292
  195SOL    HW1  684   0.164   1.345   0.246
  195SOL    HW2  685   0.252   1.374   0.380
  196SOL     OW  686   0.121   1.014   1.698
  196SOL    HW1  687   0.047   1.043   1.758
  196SOL    HW2  688   0.202   0.992   1.752
  197SOL     OW  689   0.663   0.208   1.496
  197SOL    HW1  690   0.745   0.180   1.446
  197SOL    HW2  691   0.686   0.224   1.592
  198SOL     OW  692   0.021   0.335   0.018
  198SOL    HW1  693   4.424   0.340   4.494
  198SOL    HW2  694   0.070   0.409   4.471
  199SOL     OW  695   1.430   0.858   1.399
  199SOL    HW1  696   1.376   0.920   1.343
  199SOL    HW2  697   1.525   0.860   1.369
  200SOL     OW  698   0.086   0.195   0.314
  200SOL    HW1  699   0.053   0.243   0.233
  200SOL    HW2  700   0.160   0.133   0.288
  201SOL     OW  701   1.184   1.344   0.118
  201SOL    HW1  702   1.085   1.347   0.109
  201SOL    HW2  703   1.208   1.345   0.215
  202SOL     OW  704   0.623   0.831   1.427
  202SOL    HW1  705   0.677   0.914   1.415
  202SOL    HW2  706   0.684   0.753   1.439
  203SOL     OW  707   1.486   1.777   0.977
  203SOL    HW1  708   1.510   1.833   0.898
  203SOL    HW2  709   1.569   1.755   1.029
  204SOL     OW  710   0.716   0.561   1.706
  204SOL    HW1  711   0.749   0.634   1.766
  204SOL    HW2  712   0.757   0.474   1.735
  205SOL     OW  713   1.468   1.207   1.633
  205SOL    HW1  714   1.451   1.215   1.732
  205SOL    HW2  715   1.566   1.215   1.615
  206SOL     OW  716   0.381   1.742   1.564
  206SOL    HW1  717   0.293   1.787   1.547
  206SOL    HW2  718   0.365   1.655   1.612
  207SOL     OW  719   1.674   0.881   1.255
  207SOL    HW1  720   1.662   0.790   1.215
  207SOL    HW2  721   1.661   0.951   1.184
  208SOL     OW  722   1.226   0.328   0.445
  208SOL    HW1  723   1.287   0.249   0.444
  208SOL    HW2  724   1.241   0.381   0.528
  209SOL     OW  725   0.587   0.741   0.666
  209SOL    HW1  726   0.632   0.829   0.652
  209SOL    HW2  727   0.513   0.731   0.599
  210SOL     OW  728   1.762   0.362   1.642
  210SOL    HW1  729   1.748   0.376   1.544
  210SOL    HW2  730   1.682   0.316   1.682
  211SOL     OW  731   1.745   0.932   1.510
  211SOL    HW1  732   1.746   1.029   1.532
  211SOL    HW2  733   1.729   0.920   1.412
  212SOL     OW  734   0.916   1.380   0.066
  212SOL    HW1  735   0.841   1.359   0.129
  212SOL    HW2  736   0.882   1.437   4.492
  213SOL     OW  737   0.661   1.795   0.951
  213SOL    HW1  738   0.633   1.887   0.922
  213SOL    HW2  739   0.759   1.784   0.937
  214SOL     OW  740   0.867   0.967   0.858
  214SOL    HW1  741   0.919   0.890   0.896
  214SOL    HW2  742   0.830   1.022   0.932
  215SOL     OW  743   1.074   0.983   0.072
  215SOL    HW1  744   1.069   1.049   4.497
  215SOL    HW2  745   1.155   0.925   0.062
  216SOL     OW  746   1.853   1.560   0.849
  216SOL    HW1  747   1.779   1.547   0.782
  216SOL    HW2  748   1.850   1.485   0.916
  217SOL     OW  749   0.230   1.307   1.856
  217SOL    HW1  750   0.166   1.237   1.824
  217SOL    HW2  751   0.221   1.316   1.955
  218SOL     OW  752   0.099   1.233   0.662
  218SOL    HW1  753   0.109   1.191   0.752
  218SOL    HW2  754   0.169   1.198   0.600
  219SOL     OW  755   0.679   1.402   1.628
  219SOL    HW1  756   0.598   1.351   1.657
  219SOL    HW2  757   0.676   1.495   1.665
  220SOL     OW  758   1.808   0.183   1.237
  220SOL    HW1  759   1.809   0.088   1.267
  220SOL    HW2  760   1.824   0.187   1.138
  221SOL     OW  761   0.440   0.428   0.529
  221SOL    HW1  762   0.463   0.358   0.461
  221SOL    HW2  763   0.379   0.389   0.597
  222SOL     OW  764   1.697   1.489   1.102
  222SOL    HW1  765   1.615   1.466   1.050
  222SOL    HW2  766   1.715   1.418   1.170
  223SOL     OW  767   0.312   0.501   1.258
  223SOL    HW1  768   0.387   0.458   1.308
  223SOL    HW2  769   0.339   0.512   1.162
  224SOL     OW  770   0.825   1.578   0.680
  224SOL    HW1  771   0.826   1.623   0.590
  224SOL    HW2  772   0.743   1.521   0.688
  225SOL     OW  773   1.432   0.217   1.118
  225SOL    HW1  774   1.472   0.141   1.169
  225SOL    HW2  775   1.378   0.274   1.181
  226SOL     OW  776   0.996   0.015   1.148
  226SOL    HW1  777   0.941   4.433   1.133
  226SOL    HW2  778   1.092   4.490   1.162
  227SOL     OW  779   0.770   1.318   0.314
  227SOL    HW1  780   0.733   1.226   0.328
  227SOL    HW2  781   0.858   1.326   0.361
  228SOL     OW  782   0.624   1.561   1.287
  228SOL    HW1  783   0.623   1.646   1.339
  228SOL    HW2  784   0.713   1.549   1.244
  229SOL     OW  785   1.340   0.046   0.187
  229SOL    HW1  786   1.392   4.478   0.135
  229SOL    HW2  787   1.247   0.014   0.200
  230SOL     OW  788   1.314   0.464   0.683
  230SOL    HW1  789   1.250   0.541   0.680
  230SOL    HW2  790   1.303   0.416   0.770
  231SOL     OW  791   1.586   0.205   0.868
  231SOL    HW1  792   1.522   0.215   0.945
  231SOL    HW2  793   1.591   0.292   0.819
  232SOL     OW  794   0.040   1.051   0.290
  232SOL    HW1  795   0.139   1.053   0.275
  232SOL    HW2  796   0.020   1.009   0.379
  233SOL     OW  797   0.876   1.644   0.360
  233SOL    HW1  798   0.806   1.612   0.297
  233SOL    HW2  799   0.843   1.725   0.408
  234SOL     OW  800   0.245   0.622   1.981
  234SOL    HW1  801   0.166   0.610   2.039
  234SOL    HW2  802   0.220   0.607   1.885
  235SOL     OW  803   0.198   0.292   2.853
  235SOL    HW1  804   0.236   0.268   2.942
  235SOL    HW2  805   0.130   0.223   2.826
  236SOL     OW  806   0.008   0.378   2.502
  236SOL    HW1  807   4.428   0.420   2.545
  236SOL    HW2  808   4.478   0.302   2.444
  237SOL     OW  809   0.566   1.282   3.037
  237SOL    HW1  810   0.476   1.282   2.995
  237SOL    HW2  811   0.586   1.373   3.073
  238SOL     OW  812   1.132   0.703   2.563
  238SOL    HW1  813   1.184   0.787   2.547
  238SOL    HW2  814   1.080   0.711   2.648
  239SOL     OW  815   1.763   0.605   2.089
  239SOL    HW1  816   1.744   0.597   1.991
  239SOL    HW2  817   1.730   0.524   2.136
  240SOL     OW  818   0.756   1.145   2.897
  240SOL    HW1  819   0.684   1.177   2.958
  240SOL    HW2  820   0.796   1.224   2.849
  241SOL     OW  821   0.861   0.780   3.680
  241SOL    HW1  822   0.851   0.850   3.750
  241SOL    HW2  823   0.887   0.823   3.593
  242SOL     OW  824   0.685   1.007   2.514
  242SOL    HW1  825   0.754   0.990   2.584
  242SOL    HW2  826   0.609   1.058   2.555
  243SOL     OW  827   0.707   1.154   3.673
  243SOL    HW1  828   0.759   1.235   3.699
  243SOL    HW2  829   0.619   1.183   3.635
  244SOL     OW  830   0.334   1.425   2.931
  244SOL    HW1  831   0.249   1.399   2.885
  244SOL    HW2  832   0.390   1.481   2.870
  245SOL     OW  833   1.460   1.497   3.210
  245SOL    HW1  834   1.506   1.586   3.219
  245SOL    HW2  835   1.406   1.479   3.292
  246SOL     OW  836   0.436   0.395   3.356
  246SOL    HW1  837   0.528   0.355   3.356
  246SOL    HW2  838   0.368   0.323   3.365
  247SOL     OW  839   1.614   0.449   2.601
  247SOL    HW1  840   1.530   0.472   2.551
  247SOL    HW2  841   1.640   0.526   2.659
  248SOL     OW  842   0.244   1.693   2.342
  248SOL    HW1  843   0.233   1.781   2.389
  248SOL    HW2  844   0.310   1.704   2.267
  249SOL     OW  845   1.135   1.340   3.556
  249SOL    HW1  846   1.180   1.341   3.646
  249SOL    HW2  847   1.080   1.257   3.548
  250SOL     OW  848   0.244   1.429   2.390
  250SOL    HW1  849   0.238   1.529   2.393
  250SOL    HW2  850   0.178   1.390   2.454
  251SOL     OW  851   0.247   1.081   2.750
  251SOL    HW1  852   0.266   0.987   2.778
  251SOL    HW2  853   0.186   1.124   2.817
  252SOL     OW  854   0.612   1.793   3.294
  252SOL    HW1  855   0.526   1.771   3.339
  252SOL    HW2  856   0.640   1.886   3.318
  253SOL     OW  857   0.585   0.986   1.998
  253SOL    HW1  858   0.629   1.034   1.922
  253SOL    HW2  859   0.630   1.009   2.084
  254SOL     OW  860   1.586   0.116   3.338
  254SOL    HW1  861   1.596   0.181   3.263
  254SOL    HW2  862   1.576   0.165   3.424
  255SOL     OW  863   0.135   0.644   2.438
  255SOL    HW1  864   0.082   0.560   2.446
  255SOL    HW2  865   0.107   0.709   2.509
  256SOL     OW  866   1.812   1.782   2.233
  256SOL    HW1  867   1.892   1.726   2.253
  256SOL    HW2  868   1.839   1.878   2.226
  257SOL     OW  869   0.026   1.601   1.998
  257SOL    HW1  870   0.019   1.501   2.000
  257SOL    HW2  871   0.013   1.636   2.091
  258SOL     OW  872   1.692   0.923   2.501
  258SOL    HW1  873   1.781   0.879   2.491
  258SOL    HW2  874   1.670   0.973   2.417
  259SOL     OW  875   1.653   1.110   2.293
  259SOL    HW1  876   1.739   1.104   2.243
  259SOL    HW2  877   1.662   1.178   2.366
  260SOL     OW  878   0.108   0.761   3.456
  260SOL    HW1  879   0.205   0.754   3.434
  260SOL    HW2  880   0.079   0.857   3.454
  261SOL     OW  881   0.609   1.383   2.597
  261SOL    HW1  882   0.562   1.295   2.609
  261SOL    HW2  883   0.596   1.414   2.503
  262SOL     OW  884   1.292   1.238   3.287
  262SOL    HW1  885   1.322   1.169   3.221
  262SOL    HW2  886   1.348   1.231   3.370
  263SOL     OW  887   0.815   0.014   2.406
  263SOL    HW1  888   0.857   0.101   2.383
  263SOL    HW2  889   0.715   0.021   2.398
  264SOL     OW  890   0.185   0.945   3.140
  264SOL    HW1  891   0.280   0.926   3.117
  264SOL    HW2  892   0.127   0.923   3.061
  265SOL     OW  893   1.536   0.993   2.061
  265SOL    HW1  894   1.460   0.932   2.085
  265SOL    HW2  895   1.577   1.030   2.144
  266SOL     OW  896   1.183   1.803   3.480
  266SOL    HW1  897   1.199   1.868   3.406
  266SOL    HW2  898   1.200   1.710   3.446
  267SOL     OW  899   0.316   0.261   3.637
  267SOL    HW1  900   0.392   0.315   3.674
  267SOL    HW2  901   0.237   0.270   3.697
  268SOL     OW  902   1.472   1.416   2.830
  268SOL    HW1  903   1.396   1.433   2.892
  268SOL    HW2  904   1.461   1.327   2.786
  269SOL     OW  905   0.597   0.725   2.128
  269SOL    HW1  906   0.604   0.806   2.070
  269SOL    HW2  907   0.526   0.740   2.197
  270SOL     OW  908   1.291   0.357   2.796
  270SOL    HW1  909   1.198   0.326   2.775
  270SOL    HW2  910   1.332   0.295   2.862
  271SOL     OW  911   1.571   1.652   2.176
  271SOL    HW1  912   1.660   1.697   2.187
  271SOL    HW2  913   1.549   1.646   2.079
  272SOL     OW  914   0.795   0.613   3.317
  272SOL    HW1  915   0.768   0.593   3.411
  272SOL    HW2  916   0.750   0.551   3.254
  273SOL     OW  917   1.389   0.475   3.538
  273SOL    HW1  918   1.388   0.523   3.626
  273SOL    HW2  919   1.458   0.403   3.540
  274SOL     OW  920   0.958   0.888   3.441
  274SOL    HW1  921   1.016   0.813   3.407
  274SOL    HW2  922   0.907   0.927   3.364
  275SOL     OW  923   0.997   0.414   3.096
  275SOL    HW1  924   0.912   0.432   3.145
  275SOL    HW2  925   0.977   0.359   3.015
  276SOL     OW  926   1.047   0.698   2.290
  276SOL    HW1  927   1.066   0.693   2.388
  276SOL    HW2  928   0.963   0.648   2.269
  277SOL     OW  929   0.099   0.825   2.645
  277SOL    HW1  930   0.190   0.805   2.683
  277SOL    HW2  931   0.042   0.867   2.715
  278SOL     OW  932   0.122   1.857   3.441
  278SOL    HW1  933   0.121   1.828   3.536
  278SOL    HW2  934   0.044   1.818   3.393
  279SOL     OW  935   0.853   0.368   2.042
  279SOL    HW1  936   0.928   0.411   1.991
  279SOL    HW2  937   0.871   0.270   2.050
  280SOL     OW  938   1.706   0.578   3.689
  280SOL    HW1  939   1.670   0.659   3.643
  280SOL    HW2  940   1.741   0.513   3.621
  281SOL     OW  941   1.379   1.146   2.404
  281SOL    HW1  942   1.456   1.120   2.345
  281SOL    HW2  943   1.321   1.212   2.357
  282SOL     OW  944   0.540   0.201   2.767
  282SOL    HW1  945   0.560   0.221   2.864
  282SOL    HW2  946   0.534   0.287   2.716
  283SOL     OW  947   1.001   1.442   2.332
  283SOL    HW1  948   0.963   1.520   2.282
  283SOL    HW2  949   1.001   1.463   2.430
  284SOL     OW  950   0.356   1.808   2.719
  284SOL    HW1  951   0.399   1.718   2.730
  284SOL    HW2  952   0.424   1.880   2.732
  285SOL     OW  953   1.797   1.056   2.734
  285SOL    HW1  954   1.745   1.038   2.651
  285SOL    HW2  955   1.735   1.064   2.812
  286SOL     OW  956   1.226   1.539   3.376
  286SOL    HW1  957   1.213   1.463   3.440
  286SOL    HW2  958   1.167   1.526   3.297
  287SOL     OW  959   0.319   0.954   2.110
  287SOL    HW1  960   0.409   0.980   2.074
  287SOL    HW2  961   0.297   0.861   2.080
  288SOL     OW  962   1.477   0.741   2.587
  288SOL    HW1  963   1.461   0.690   2.672
  288SOL    HW2  964   1.556   0.801   2.598
  289SOL     OW  965   0.464   1.258   3.594
  289SOL    HW1  966   0.437   1.267   3.498
  289SOL    HW2  967   0.384   1.266   3.652
  290SOL     OW  968   1.114   1.777   2.092
  290SOL    HW1  969   1.043   1.732   2.146
  290SOL    HW2  970   1.141   1.717   2.016
  291SOL     OW  971   0.171   0.265   3.369
  291SOL    HW1  972   0.134   0.355   3.342
  291SOL    HW2  973   0.204   0.270   3.463
  292SOL     OW  974   0.469   1.741   2.177
  292SOL    HW1  975   0.506   1.800   2.250
  292SOL    HW2  976   0.544   1.708   2.120
  293SOL     OW  977   1.417   0.131   2.277
  293SOL    HW1  978   1.397   0.083   2.192
  293SOL    HW2  979   1.515   0.131   2.293
  294SOL     OW  980   0.256   1.791   3.096
  294SOL    HW1  981   0.309   1.718   3.139
  294SOL    HW2  982   0.225   1.761   3.006
  295SOL     OW  983   0.938   1.698   2.763
  295SOL    HW1  984   1.023   1.650   2.783
  295SOL    HW2  985   0.890   1.650   2.690
  296SOL     OW  986   0.391   0.691   2.338
  296SOL    HW1  987   0.422   0.596   2.347
  296SOL    HW2  988   0.295   0.697   2.365
  297SOL     OW  989   1.526   0.232   3.585
  297SOL    HW1  990   1.527   0.257   3.681
  297SOL    HW2  991   1.448   0.171   3.567
  298SOL     OW  992   0.622   0.119   1.979
  298SOL    HW1  993   0.716   0.090   1.995
  298SOL    HW2  994   0.590   0.085   1.891
  299SOL     OW  995   0.769   0.269   3.616
  299SOL    HW1  996   0.838   0.197   3.625
  299SOL    HW2  997   0.722   0.281   3.703
  300SOL     OW  998   0.876   1.516   3.055
  300SOL    HW1  999   0.860   1.485   2.962
  300SOL    HW2 1000   0.950   1.462   3.096
  301SOL     OW 1001   1.344   0.589   3.293
  301SOL    HW1 1002   1.370   0.555   3.383
  301SOL    HW2 1003   1.377   0.683   3.282
  302SOL     OW 1004   0.814   1.397   2.796
  302SOL    HW1 1005   0.904   1.387   2.752
  302SOL    HW2 1006   0.743   1.395   2.725
  303SOL     OW 1007   0.920   0.514   2.763
  303SOL    HW1 1008   0.901   0.514   2.665
  303SOL    HW2 1009   0.963   0.428   2.789
  304SOL     OW 1010   0.556   0.069   2.370
  304SOL    HW1 1011   0.465   0.053   2.410
  304SOL    HW2 1012   0.551   0.145   2.306
  305SOL     OW 1013   1.421   1.187   1.896
  305SOL    HW1 1014   1.462   1.118   1.956
  305SOL    HW2 1015   1.343   1.229   1.942
  306SOL     OW 1016   0.302   0.073   2.049
  306SOL    HW1 1017   0.385   0.127   2.036
  306SOL    HW2 1018   0.323   4.493   2.105
  307SOL     OW 1019   0.950   0.242   2.336
  307SOL    HW1 1020   0.892   0.288   2.269
  307SOL    HW2 1021   1.044   0.274   2.327
  308SOL     OW 1022   1.080   0.679   3.324
  308SOL    HW1 1023   1.002   0.617   3.324
  308SOL    HW2 1024   1.164   0.625   3.311
  309SOL     OW 1025   1.221   1.572   2.662
  309SOL    HW1 1026   1.241   1.634   2.586
  309SOL    HW2 1027   1.302   1.563   2.720
  310SOL     OW 1028   0.463   1.146   2.599
  310SOL    HW1 1029   0.391   1.128   2.666
  310SOL    HW2 1030   0.428   1.132   2.507
  311SOL     OW 1031   1.273   1.797   2.468
  311SOL    HW1 1032   1.315   1.857   2.400
  311SOL    HW2 1033   1.203   1.848   2.518
  312SOL     OW 1034   1.028   0.548   1.880
  312SOL    HW1 1035   0.979   0.632   1.858
  312SOL    HW2 1036   1.092   0.564   1.954
  313SOL     OW 1037   0.091   0.525   3.271
  313SOL    HW1 1038   0.158   0.531   3.197
  313SOL    HW2 1039   0.062   0.618   3.297
  314SOL     OW 1040   0.564   0.241   3.030
  314SOL    HW1 1041   0.600   0.153   3.060
  314SOL    HW2 1042   0.466   0.245   3.049
  315SOL     OW 1043   0.867   0.499   2.489
  315SOL    HW1 1044   0.814   0.552   2.422
  315SOL    HW2 1045   0.855   0.401   2.471
  316SOL     OW 1046   0.971   0.028   2.632
  316SOL    HW1 1047   0.917   0.025   2.548
  316SOL    HW2 1048   0.981   4.436   2.669
  317SOL     OW 1049   1.437   1.164   2.717
  317SOL    HW1 1050   1.369   1.091   2.728
  317SOL    HW2 1051   1.443   1.188   2.620
  318SOL     OW 1052   1.468   0.601   2.843
  318SOL    HW1 1053   1.412   0.518   2.842
  318SOL    HW2 1054   1.531   0.598   2.921
  319SOL     OW 1055   1.843   0.808   2.247
  319SOL    HW1 1056   1.902   0.758   2.310
  319SOL    HW2 1057   1.813   0.747   2.173
  320SOL     OW 1058   0.491   1.412   2.025
  320SOL    HW1 1059   0.410   1.383   2.077
  320SOL    HW2 1060   0.475   1.398   1.928
  321SOL     OW 1061   1.391   0.570   1.932
  321SOL    HW1 1062   1.329   0.554   2.009
  321SOL    HW2 1063   1.485   0.551   1.960
  322SOL     OW 1064   0.526   0.266   2.182
  322SOL    HW1 1065   0.570   0.207   2.114
  322SOL    HW2 1066   0.510   0.356   2.143
  323SOL     OW 1067   1.756   1.234   3.438
  323SOL    HW1 1068   1.847   1.193   3.429
  323SOL    HW2 1069   1.764   1.328   3.470
  324SOL     OW 1070   1.059   1.350   3.199
  324SOL    HW1 1071   0.979   1.321   3.250
  324SOL    HW2 1072   1.142   1.311   3.240
  325SOL     OW 1073   1.608   1.626   3.513
  325SOL    HW1 1074   1.601   1.662   3.420
  325SOL    HW2 1075   1.694   1.577   3.523
  326SOL     OW 1076   1.126   1.205   2.970
  326SOL    HW1 1077   1.069   1.244   3.043
  326SOL    HW2 1078   1.091   1.236   2.881
  327SOL     OW 1079   1.628   1.099   2.943
  327SOL    HW1 1080   1.627   1.165   3.018
  327SOL    HW2 1081   1.549   1.114   2.884
  328SOL     OW 1082   0.905   0.130   3.250
  328SOL    HW1 1083   0.926   0.084   3.163
  328SOL    HW2 1084   0.990   0.146   3.300
  329SOL     OW 1085   0.981   1.113   3.583
  329SOL    HW1 1086   0.885   1.132   3.605
  329SOL    HW2 1087   0.986   1.032   3.525
  330SOL     OW 1088   0.709   1.056   2.235
  330SOL    HW1 1089   0.694   1.045   2.333
  330SOL    HW2 1090   0.789   1.003   2.208
  331SOL     OW 1091   0.430   0.823   3.102
  331SOL    HW1 1092   0.502   0.835   3.170
  331SOL    HW2 1093   0.365   0.755   3.135
  332SOL     OW 1094   1.269   0.378   3.134
  332SOL    HW1 1095   1.305   0.458   3.183
  332SOL    HW2 1096   1.176   0.398   3.102
  333SOL     OW 1097   0.063   1.575   3.201
  333SOL    HW1 1098   0.029   1.665   3.171
  333SOL    HW2 1099   0.163   1.577   3.207
  334SOL     OW 1100   0.352   1.108   2.355
  334SOL    HW1 1101   0.361   1.188   2.296
  334SOL    HW2 1102   0.355   1.025   2.299
  335SOL     OW 1103   0.563   0.535   2.719
  335SOL    HW1 1104   0.576   0.596   2.641
  335SOL    HW2 1105   0.624   0.564   2.793
  336SOL     OW 1106   1.245   1.347   2.255
  336SOL    HW1 1107   1.305   1.423   2.280
  336SOL    HW2 1108   1.152   1.366   2.284
  337SOL     OW 1109   1.273   1.457   3.010
  337SOL    HW1 1110   1.335   1.461   3.088
  337SOL    HW2 1111   1.219   1.373   3.014
  338SOL     OW 1112   1.582   0.626   2.336
  338SOL    HW1 1113   1.535   0.678   2.407
  338SOL    HW2 1114   1.633   0.688   2.277
  339SOL     OW 1115   0.351   1.527   3.179
  339SOL    HW1 1116   0.331   1.480   3.094
  339SOL    HW2 1117   0.450   1.541   3.187
  340SOL     OW 1118   0.476   0.759   3.522
  340SOL    HW1 1119   0.506   0.804   3.438
  340SOL    HW2 1120   0.509   0.665   3.523
  341SOL     OW 1121   1.599   0.781   3.540
  341SOL    HW1 1122   1.507   0.821   3.537
  341SOL    HW2 1123   1.656   0.822   3.469
  342SOL     OW 1124   1.004   0.089   3.587
  342SOL    HW1 1125   1.031   0.179   3.552
  342SOL    HW2 1126   1.032   0.018   3.522
  343SOL     OW 1127   0.494   0.048   3.612
  343SOL    HW1 1128   0.480   4.493   3.529
  343SOL    HW2 1129   0.424   0.119   3.617
  344SOL     OW 1130   0.587   0.872   2.887
  344SOL    HW1 1131   0.621   0.966   2.883
  344SOL    HW2 1132   0.528   0.862   2.967
  345SOL     OW 1133   1.362   0.858   2.895
  345SOL    HW1 1134   1.276   0.858   2.844
  345SOL    HW2 1135   1.402   0.766   2.892
  346SOL     OW 1136   1.205   0.533   2.129
  346SOL    HW1 1137   1.213   0.448   2.181
  346SOL    HW2 1138   1.161   0.602   2.186
  347SOL     OW 1139   0.287   0.218   3.096
  347SOL    HW1 1140   0.250   0.240   3.186
  347SOL    HW2 1141   0.325   0.126   3.097
  348SOL     OW 1142   0.050   1.313   3.148
  348SOL    HW1 1143   0.082   1.259   3.226
  348SOL    HW2 1144   0.050   1.410   3.172
  349SOL     OW 1145   0.727   0.633   2.923
  349SOL    HW1 1146   0.801   0.606   2.861
  349SOL    HW2 1147   0.695   0.725   2.898
  350SOL     OW 1148   1.732   0.957   3.712
  350SOL    HW1 1149   1.684   0.901   3.645
  350SOL    HW2 1150   1.673   0.973   3.792
  351SOL     OW 1151   0.316   0.075   2.494
  351SOL    HW1 1152   0.299   0.168   2.527
  351SOL    HW2 1153   0.305   0.011   2.570
  352SOL     OW 1154   1.614   0.376   2.229
  352SOL    HW1 1155   1.647   0.307   2.293
  352SOL    HW2 1156   1.589   0.459   2.279
  353SOL     OW 1157   1.024   0.759   2.825
  353SOL    HW1 1158   1.027   0.780   2.922
  353SOL    HW2 1159   0.994   0.664   2.812
  354SOL     OW 1160   0.982   1.563   3.574
  354SOL    HW1 1161   0.965   1.612   3.488
  354SOL    HW2 1162   1.030   1.478   3.555
  355SOL     OW 1163   1.858   1.510   3.469
  355SOL    HW1 1164   1.871   1.534   3.373
  355SOL    HW2 1165   1.942   1.529   3.520
  356SOL     OW 1166   0.348   0.928   3.680
  356SOL    HW1 1167   0.421   0.962   3.739
  356SOL    HW2 1168   0.386   0.861   3.616
  357SOL     OW 1169   1.532   0.266   1.992
  357SOL    HW1 1170   1.456   0.205   2.015
  357SOL    HW2 1171   1.562   0.314   2.074
  358SOL     OW 1172   1.296   0.828   1.896
  358SOL    HW1 1173   1.336   0.736   1.901
  358SOL    HW2 1174   1.324   0.872   1.810
  359SOL     OW 1175   1.066   1.334   2.714
  359SOL    HW1 1176   1.067   1.257   2.651
  359SOL    HW2 1177   1.129   1.405   2.682
  360SOL     OW 1178   0.319   0.812   2.810
  360SOL    HW1 1179   0.416   0.834   2.806
  360SOL    HW2 1180   0.308   0.717   2.841
  361SOL     OW 1181   0.337   0.525   2.857
  361SOL    HW1 1182   0.288   0.440   2.840
  361SOL    HW2 1183   0.418   0.530   2.798
  362SOL     OW 1184   1.135   0.376   3.557
  362SOL    HW1 1185   1.083   0.442   3.610
  362SOL    HW2 1186   1.227   0.412   3.540
  363SOL     OW 1187   1.160   0.214   3.337
  363SOL    HW1 1188   1.150   0.279   3.413
  363SOL    HW2 1189   1.195   0.263   3.257
  364SOL     OW 1190   4.490   1.321   2.064
  364SOL    HW1 1191   4.394   1.340   2.045
  364SOL    HW2 1192   0.001   1.225   2.089
  365SOL     OW 1193   0.097   1.780   2.802
  365SOL    HW1 1194   0.052   1.718   2.737
  365SOL    HW2 1195   0.189   1.802   2.769
  366SOL     OW 1196   0.500   1.574   2.769
  366SOL    HW1 1197   0.569   1.641   2.795
  366SOL    HW2 1198   0.541   1.504   2.710
  367SOL     OW 1199   0.989   0.798   3.092
  367SOL    HW1 1200   1.043   0.770   3.171
  367SOL    HW2 1201   0.897   0.758   3.098
  368SOL     OW 1202   0.038   0.564   2.972
  368SOL    HW1 1203   0.115   0.519   2.928
  368SOL    HW2 1204   0.022   0.524   3.062
  369SOL     OW 1205   0.180   0.518   3.572
  369SOL    HW1 1206   0.269   0.495   3.532
  369SOL    HW2 1207   0.146   0.604   3.534
  370SOL     OW 1208   1.376   0.941   3.520
  370SOL    HW1 1209   1.397   1.039   3.525
  370SOL    HW2 1210   1.374   0.913   3.424
  371SOL     OW 1211   0.812   0.575   2.213
  371SOL    HW1 1212   0.818   0.497   2.150
  371SOL    HW2 1213   0.735   0.633   2.186
  372SOL     OW 1214   1.644   0.602   3.051
  372SOL    HW1 1215   1.625   0.541   3.128
  372SOL    HW2 1216   1.734   0.582   3.013
  373SOL     OW 1217   0.273   1.561   3.605
  373SOL    HW1 1218   0.220   1.623   3.663
  373SOL    HW2 1219   0.251   1.466   3.629
  374SOL     OW 1220   0.682   0.465   3.128
  374SOL    HW1 1221   0.644   0.379   3.095
  374SOL    HW2 1222   0.693   0.528   3.051
  375SOL     OW 1223   0.927   1.680   3.329
  375SOL    HW1 1224   0.901   1.642   3.240
  375SOL    HW2 1225   0.932   1.780   3.323
  376SOL     OW 1226   0.472   0.494   2.050
  376SOL    HW1 1227   0.537   0.567   2.071
  376SOL    HW2 1228   0.382   0.533   2.034
  377SOL     OW 1229   0.161   1.138   3.325
  377SOL    HW1 1230   0.148   1.093   3.413
  377SOL    HW2 1231   0.172   1.069   3.254
  378SOL     OW 1232   1.324   1.048   3.087
  378SOL    HW1 1233   1.355   0.982   3.018
  378SOL    HW2 1234   1.250   1.103   3.049
  379SOL     OW 1235   1.308   0.855   2.167
  379SOL    HW1 1236   1.228   0.829   2.222
  379SOL    HW2 1237   1.287   0.844   2.070
  380SOL     OW 1238   1.762   1.745   3.018
  380SOL    HW1 1239   1.834   1.774   2.955
  380SOL    HW2 1240   1.735   1.651   2.997
  381SOL     OW 1241   1.244   1.734   2.982
  381SOL    HW1 1242   1.326   1.757   2.929
  381SOL    HW2 1243   1.241   1.636   2.998
  382SOL     OW 1244   0.068   1.191   2.911
  382SOL    HW1 1245   0.075   1.225   3.005
  382SOL    HW2 1246   0.012   1.252   2.857
  383SOL     OW 1247   0.680   1.665   3.586
  383SOL    HW1 1248   0.623   1.748   3.587
  383SOL    HW2 1249   0.746   1.672   3.511
  384SOL     OW 1250   1.718   0.132   2.357
  384SOL    HW1 1251   1.796   0.136   2.295
  384SOL    HW2 1252   1.729   0.054   2.419
  385SOL     OW 1253   1.376   1.568   2.336
  385SOL    HW1 1254   1.453   1.595   2.278
  385SOL    HW2 1255   1.337   1.649   2.380
  386SOL     OW 1256   0.125   1.802   3.711
  386SOL    HW1 1257   0.078   1.727   3.756
  386SOL    HW2 1258   0.190   1.844   3.774
  387SOL     OW 1259   1.281   0.925   2.529
  387SOL    HW1 1260   1.354   0.859   2.540
  387SOL    HW2 1261   1.314   1.004   2.478
  388SOL     OW 1262   0.817   1.274   3.295
  388SOL    HW1 1263   0.790   1.314   3.382
  388SOL    HW2 1264   0.747   1.292   3.226
  389SOL     OW 1265   0.671   1.614   2.017
  389SOL    HW1 1266   0.685   1.629   1.919
  389SOL    HW2 1267   0.616   1.532   2.031
  390SOL     OW 1268   1.630   1.729   3.256
  390SOL    HW1 1269   1.677   1.732   3.168
  390SOL    HW2 1270   1.615   1.822   3.289
  391SOL     OW 1271   1.839   0.158   2.827
  391SOL    HW1 1272   1.875   0.077   2.781
  391SOL    HW2 1273   1.748   0.179   2.791
  392SOL     OW 1274   0.266   0.326   2.586
  392SOL    HW1 1275   0.180   0.362   2.549
  392SOL    HW2 1276   0.256   0.314   2.685
  393SOL     OW 1277   1.187   1.607   1.893
  393SOL    HW1 1278   1.190   1.513   1.926
  393SOL    HW2 1279   1.121   1.614   1.818
  394SOL     OW 1280   0.825   1.009   3.235
  394SOL    HW1 1281   0.871   0.997   3.148
  394SOL    HW2 1282   0.826   1.105   3.261
  395SOL     OW 1283   0.917   0.910   2.149
  395SOL    HW1 1284   0.980   0.945   2.080
  395SOL    HW2 1285   0.961   0.836   2.200
  396SOL     OW 1286   1.452   1.638   1.898
  396SOL    HW1 1287   1.353   1.625   1.889
  396SOL    HW2 1288   1.496   1.625   1.810
  397SOL     OW 1289   0.370   1.304   3.352
  397SOL    HW1 1290   0.359   1.387   3.297
  397SOL    HW2 1291   0.292   1.244   3.336
  398SOL     OW 1292   1.614   1.281   3.146
  398SOL    HW1 1293   1.679   1.274   3.222
  398SOL    HW2 1294   1.550   1.356   3.164
  399SOL     OW 1295   1.049   1.103   2.570
  399SOL    HW1 1296   0.975   1.052   2.613
  399SOL    HW2 1297   1.114   1.039   2.529
  400SOL     OW 1298   1.004   0.241   2.860
  400SOL    HW1 1299   1.017   0.219   2.763
  400SOL    HW2 1300   1.000   0.157   2.914
  401SOL     OW 1301   0.600   1.485   2.346
  401SOL    HW1 1302   0.646   1.433   2.273
  401SOL    HW2 1303   0.533   1.547   2.305
  402SOL     OW 1304   1.723   0.393   3.240
  402SOL    HW1 1305   1.794   0.463   3.239
  402SOL    HW2 1306   1.750   0.317   3.181
  403SOL     OW 1307   0.248   1.347   2.140
  403SOL    HW1 1308   0.150   1.345   2.120
  403SOL    HW2 1309   0.262   1.381   2.233
  404SOL     OW 1310   0.120   1.013   3.560
  404SOL    HW1 1311   0.047   1.046   3.620
  404SOL    HW2 1312   0.201   0.992   3.615
  405SOL     OW 1313   0.663   0.208   3.358
  405SOL    HW1 1314   0.745   0.180   3.308
  405SOL    HW2 1315   0.687   0.223   3.454
  406SOL     OW 1316   0.071   0.323   1.888
  406SOL    HW1 1317   4.472   0.326   1.897
  406SOL    HW2 1318   0.105   0.412   1.856
  407SOL     OW 1319   1.430   0.858   3.261
  407SOL    HW1 1320   1.376   0.920   3.205
  407SOL    HW2 1321   1.525   0.860   3.231
  408SOL     OW 1322   0.085   0.186   2.163
  408SOL    HW1 1323   0.073   0.264   2.101
  408SOL    HW2 1324   0.166   0.135   2.138
  409SOL     OW 1325   1.182   1.344   1.981
  409SOL    HW1 1326   1.087   1.313   1.977
  409SOL    HW2 1327   1.214   1.344   2.076
  410SOL     OW 1328   0.623   0.831   3.290
  410SOL    HW1 1329   0.676   0.914   3.276
  410SOL    HW2 1330   0.684   0.753   3.301
  411SOL     OW 1331   1.483   1.782   2.847
  411SOL    HW1 1332   1.508   1.832   2.764
  411SOL    HW2 1333   1.566   1.751   2.894
  412SOL     OW 1334   0.716   0.561   3.568
  412SOL    HW1 1335   0.749   0.634   3.628
  412SOL    HW2 1336   0.756   0.474   3.597
  413SOL     OW 1337   1.467   1.204   3.499
  413SOL    HW1 1338   1.454   1.216   3.597
  413SOL    HW2 1339   1.564   1.215   3.477
  414SOL     OW 1340   0.381   1.742   3.426
  414SOL    HW1 1341   0.293   1.787   3.409
  414SOL    HW2 1342   0.365   1.656   3.473
  415SOL     OW 1343   1.673   0.881   3.118
  415SOL    HW1 1344   1.662   0.790   3.076
  415SOL    HW2 1345   1.661   0.951   3.048
  416SOL     OW 1346   1.220   0.325   2.312
  416SOL    HW1 1347   1.288   0.253   2.298
  416SOL    HW2 1348   1.245   0.379   2.392
  417SOL     OW 1349   0.588   0.740   2.527
  417SOL    HW1 1350   0.632   0.829   2.515
  417SOL    HW2 1351   0.514   0.730   2.461
  418SOL     OW 1352   1.762   0.362   3.505
  418SOL    HW1 1353   1.749   0.376   3.407
  418SOL    HW2 1354   1.682   0.316   3.543
  419SOL     OW 1355   1.747   0.933   3.373
  419SOL    HW1 1356   1.745   1.031   3.394
  419SOL    HW2 1357   1.729   0.920   3.275
  420SOL     OW 1358   0.863   1.368   1.893
  420SOL    HW1 1359   0.821   1.391   1.981
  420SOL    HW2 1360   0.884   1.452   1.843
  421SOL     OW 1361   0.661   1.795   2.813
  421SOL    HW1 1362   0.634   1.887   2.784
  421SOL    HW2 1363   0.759   1.783   2.799
  422SOL     OW 1364   0.866   0.965   2.719
  422SOL    HW1 1365   0.919   0.890   2.758
  422SOL    HW2 1366   0.830   1.022   2.793
  423SOL     OW 1367   1.079   0.987   1.947
  423SOL    HW1 1368   1.053   1.042   1.868
  423SOL    HW2 1369   1.159   0.932   1.925
  424SOL     OW 1370   0.230   1.307   3.719
  424SOL    HW1 1371   0.165   1.239   3.685
  424SOL    HW2 1372   0.220   1.317   3.818
  425SOL     OW 1373   0.103   1.238   2.524
  425SOL    HW1 1374   0.102   1.192   2.613
  425SOL    HW2 1375   0.168   1.193   2.463
  426SOL     OW 1376   0.679   1.401   3.491
  426SOL    HW1 1377   0.597   1.352   3.519
  426SOL    HW2 1378   0.676   1.495   3.527
  427SOL     OW 1379   1.807   0.183   3.099
  427SOL    HW1 1380   1.810   0.087   3.129
  427SOL    HW2 1381   1.824   0.187   3.000
  428SOL     OW 1382   0.440   0.428   2.392
  428SOL    HW1 1383   0.462   0.357   2.325
  428SOL    HW2 1384   0.378   0.390   2.461
  429SOL     OW 1385   1.697   1.496   2.966
  429SOL    HW1 1386   1.618   1.469   2.910
  429SOL    HW2 1387   1.720   1.422   3.029
  430SOL     OW 1388   0.313   0.502   3.120
  430SOL    HW1 1389   0.387   0.458   3.170
  430SOL    HW2 1390   0.339   0.513   3.024
  431SOL     OW 1391   0.823   1.581   2.544
  431SOL    HW1 1392   0.827   1.623   2.454
  431SOL    HW2 1393   0.742   1.522   2.550
  432SOL     OW 1394   1.431   0.217   2.980
  432SOL    HW1 1395   1.473   0.141   3.031
  432SOL    HW2 1396   1.378   0.273   3.043
  433SOL     OW 1397   0.996   0.013   3.011
  433SOL    HW1 1398   0.943   4.430   2.996
  433SOL    HW2 1399   1.092   4.490   3.024
  434SOL     OW 1400   0.771   1.331   2.173
  434SOL    HW1 1401   0.737   1.238   2.180
  434SOL    HW2 1402   0.857   1.339   2.223
  435SOL     OW 1403   0.623   1.561   3.149
  435SOL    HW1 1404   0.623   1.646   3.201
  435SOL    HW2 1405   0.713   1.548   3.106
  436SOL     OW 1406   1.340   0.054   2.014
  436SOL    HW1 1407   1.384   4.477   1.967
  436SOL    HW2 1408   1.260   0.021   2.064
  437SOL     OW 1409   1.313   0.463   2.544
  437SOL    HW1 1410   1.250   0.541   2.541
  437SOL    HW2 1411   1.304   0.416   2.631
  438SOL     OW 1412   1.586   0.205   2.730
  438SOL    HW1 1413   1.522   0.215   2.807
  438SOL    HW2 1414   1.592   0.292   2.680
  439SOL     OW 1415   0.043   1.054   2.150
  439SOL    HW1 1416   0.142   1.043   2.140
  439SOL    HW2 1417   0.014   1.012   2.236
  440SOL     OW 1418   0.878   1.651   2.209
  440SOL    HW1 1419   0.807   1.630   2.142
  440SOL    HW2 1420   0.851   1.732   2.261
  441SOL     OW 1421   0.244   0.617   3.845
  441SOL    HW1 1422   0.164   0.614   3.905
  441SOL    HW2 1423   0.215   0.608   3.750
  442SOL     OW 1424   1.758   0.606   3.955
  442SOL    HW1 1425   1.744   0.600   3.856
  442SOL    HW2 1426   1.729   0.520   3.998
  443SOL     OW 1427   0.702   1.008   4.366
  443SOL    HW1 1428   0.764   0.984   4.441
  443SOL    HW2 1429   0.627   1.064   4.401
  444SOL     OW 1430   1.620   0.467   4.445
  444SOL    HW1 1431   1.540   0.473   4.386
  444SOL    HW2 1432   1.630   0.552   4.496
  445SOL     OW 1433   0.243   1.692   4.196
  445SOL    HW1 1434   0.222   1.775   4.248
  445SOL    HW2 1435   0.313   1.712   4.127
  446SOL     OW 1436   0.251   1.429   4.257
  446SOL    HW1 1437   0.246   1.529   4.257
  446SOL    HW2 1438   0.175   1.391   4.309
  447SOL     OW 1439   0.584   0.986   3.859
  447SOL    HW1 1440   0.629   1.034   3.784
  447SOL    HW2 1441   0.630   1.010   3.945
  448SOL     OW 1442   0.131   0.624   4.338
  448SOL    HW1 1443   0.075   0.588   4.264
  448SOL    HW2 1444   0.089   0.707   4.375
  449SOL     OW 1445   1.842   1.761   4.066
  449SOL    HW1 1446   1.908   1.727   4.133
  449SOL    HW2 1447   1.863   1.856   4.043
  450SOL     OW 1448   0.026   1.601   3.860
  450SOL    HW1 1449   0.019   1.501   3.862
  450SOL    HW2 1450   0.015   1.636   3.953
  451SOL     OW 1451   1.681   0.908   4.343
  451SOL    HW1 1452   1.778   0.885   4.347
  451SOL    HW2 1453   1.665   0.973   4.268
  452SOL     OW 1454   1.650   1.106   4.149
  452SOL    HW1 1455   1.737   1.110   4.100
  452SOL    HW2 1456   1.647   1.179   4.218
  453SOL     OW 1457   0.611   1.391   4.433
  453SOL    HW1 1458   0.579   1.297   4.450
  453SOL    HW2 1459   0.587   1.418   4.340
  454SOL     OW 1460   0.809   0.008   4.253
  454SOL    HW1 1461   0.854   0.098   4.252
  454SOL    HW2 1462   0.710   0.020   4.251
  455SOL     OW 1463   1.533   0.991   3.923
  455SOL    HW1 1464   1.459   0.929   3.949
  455SOL    HW2 1465   1.573   1.033   4.005
  456SOL     OW 1466   1.642   1.714   4.312
  456SOL    HW1 1467   1.619   1.692   4.217
  456SOL    HW2 1468   1.700   1.642   4.350
  457SOL     OW 1469   0.597   0.725   3.990
  457SOL    HW1 1470   0.605   0.805   3.931
  457SOL    HW2 1471   0.528   0.742   4.060
  458SOL     OW 1472   1.313   0.330   0.150
  458SOL    HW1 1473   1.217   0.304   0.137
  458SOL    HW2 1474   1.343   0.301   0.241
  459SOL     OW 1475   1.584   1.668   4.033
  459SOL    HW1 1476   1.677   1.706   4.033
  459SOL    HW2 1477   1.555   1.649   3.940
  460SOL     OW 1478   1.044   0.696   4.148
  460SOL    HW1 1479   1.057   0.696   4.247
  460SOL    HW2 1480   0.960   0.648   4.124
  461SOL     OW 1481   0.096   0.851   0.016
  461SOL    HW1 1482   0.160   0.780   0.046
  461SOL    HW2 1483   0.027   0.866   0.088
  462SOL     OW 1484   0.852   0.370   3.901
  462SOL    HW1 1485   0.928   0.412   3.851
  462SOL    HW2 1486   0.870   0.272   3.913
  463SOL     OW 1487   1.349   1.127   4.251
  463SOL    HW1 1488   1.446   1.116   4.227
  463SOL    HW2 1489   1.312   1.207   4.203
  464SOL     OW 1490   1.003   1.441   4.190
  464SOL    HW1 1491   0.964   1.518   4.140
  464SOL    HW2 1492   0.992   1.455   4.288
  465SOL     OW 1493   0.366   1.800   0.066
  465SOL    HW1 1494   0.356   1.710   0.109
  465SOL    HW2 1495   0.434   1.853   0.116
  466SOL     OW 1496   1.795   1.059   0.055
  466SOL    HW1 1497   1.721   1.032   4.493
  466SOL    HW2 1498   1.760   1.062   0.149
  467SOL     OW 1499   0.322   0.953   3.974
  467SOL    HW1 1500   0.410   0.980   3.934
  467SOL    HW2 1501   0.298   0.861   3.941
  468SOL     OW 1502   1.119   1.777   3.952
  468SOL    HW1 1503   1.046   1.734   4.007
  468SOL    HW2 1504   1.146   1.716   3.878
  469SOL     OW 1505   1.628   1.380   3.808
  469SOL    HW1 1506   1.589   1.470   3.796
  469SOL    HW2 1507   1.558   1.310   3.793
  470SOL     OW 1508   0.471   1.743   4.038
  470SOL    HW1 1509   0.508   1.799   4.112
  470SOL    HW2 1510   0.546   1.710   3.981
  471SOL     OW 1511   1.421   0.117   4.145
  471SOL    HW1 1512   1.399   0.081   4.054
  471SOL    HW2 1513   1.519   0.135   4.152
  472SOL     OW 1514   0.935   1.701   0.073
  472SOL    HW1 1515   0.973   1.633   0.136
  472SOL    HW2 1516   0.881   1.654   0.003
  473SOL     OW 1517   0.386   0.693   4.201
  473SOL    HW1 1518   0.419   0.599   4.205
  473SOL    HW2 1519   0.292   0.697   4.233
  474SOL     OW 1520   0.621   0.121   3.841
  474SOL    HW1 1521   0.713   0.089   3.859
  474SOL    HW2 1522   0.590   0.085   3.753
  475SOL     OW 1523   0.550   0.059   4.220
  475SOL    HW1 1524   0.464   0.053   4.271
  475SOL    HW2 1525   0.552   0.145   4.168
  476SOL     OW 1526   1.428   1.196   3.768
  476SOL    HW1 1527   1.462   1.118   3.820
  476SOL    HW2 1528   1.339   1.224   3.804
  477SOL     OW 1529   0.303   0.073   3.909
  477SOL    HW1 1530   0.387   0.126   3.897
  477SOL    HW2 1531   0.322   4.494   3.968
  478SOL     OW 1532   0.948   0.252   4.216
  478SOL    HW1 1533   0.895   0.267   4.133
  478SOL    HW2 1534   1.046   0.265   4.196
  479SOL     OW 1535   0.492   1.151   4.459
  479SOL    HW1 1536   0.415   1.145   0.022
  479SOL    HW2 1537   0.459   1.142   4.365
  480SOL     OW 1538   1.277   1.799   4.317
  480SOL    HW1 1539   1.322   1.862   4.254
  480SOL    HW2 1540   1.214   1.850   4.375
  481SOL     OW 1541   1.028   0.548   3.741
  481SOL    HW1 1542   0.979   0.632   3.720
  481SOL    HW2 1543   1.093   0.565   3.815
  482SOL     OW 1544   0.863   0.469   4.358
  482SOL    HW1 1545   0.808   0.527   4.298
  482SOL    HW2 1546   0.886   0.385   4.310
  483SOL     OW 1547   1.854   0.818   4.098
  483SOL    HW1 1548   1.913   0.768   4.162
  483SOL    HW2 1549   1.816   0.755   4.030
  484SOL     OW 1550   0.491   1.412   3.888
  484SOL    HW1 1551   0.410   1.383   3.940
  484SOL    HW2 1552   0.474   1.398   3.790
  485SOL     OW 1553   1.680   1.290   4.339
  485SOL    HW1 1554   1.777   1.284   4.363
  485SOL    HW2 1555   1.628   1.324   4.417
  486SOL     OW 1556   1.392   0.571   3.793
  486SOL    HW1 1557   1.330   0.554   3.870
  486SOL    HW2 1558   1.486   0.551   3.821
  487SOL     OW 1559   0.529   0.269   4.045
  487SOL    HW1 1560   0.570   0.208   3.978
  487SOL    HW2 1561   0.511   0.358   4.003
  488SOL     OW 1562   1.044   1.160   0.339
  488SOL    HW1 1563   1.065   1.228   0.410
  488SOL    HW2 1564   1.071   1.196   0.250
  489SOL     OW 1565   0.711   1.057   4.092
  489SOL    HW1 1566   0.697   1.045   4.191
  489SOL    HW2 1567   0.791   1.004   4.064
  490SOL     OW 1568   0.384   1.097   4.209
  490SOL    HW1 1569   0.367   1.185   4.165
  490SOL    HW2 1570   0.374   1.024   4.141
  491SOL     OW 1571   1.247   1.351   4.110
  491SOL    HW1 1572   1.308   1.424   4.141
  491SOL    HW2 1573   1.154   1.369   4.143
  492SOL     OW 1574   1.584   0.637   4.198
  492SOL    HW1 1575   1.557   0.709   4.262
  492SOL    HW2 1576   1.631   0.678   4.120
  493SOL     OW 1577   1.206   0.531   3.990
  493SOL    HW1 1578   1.212   0.445   4.042
  493SOL    HW2 1579   1.164   0.601   4.046
  494SOL     OW 1580   0.321   0.079   4.366
  494SOL    HW1 1581   0.289   0.166   4.403
  494SOL    HW2 1582   0.314   0.008   4.436
  495SOL     OW 1583   1.613   0.378   4.093
  495SOL    HW1 1584   1.649   0.308   4.156
  495SOL    HW2 1585   1.587   0.459   4.145
  496SOL     OW 1586   1.533   0.266   3.855
  496SOL    HW1 1587   1.457   0.205   3.877
  496SOL    HW2 1588   1.562   0.314   3.937
  497SOL     OW 1589   1.295   0.828   3.755
  497SOL    HW1 1590   1.336   0.737   3.762
  497SOL    HW2 1591   1.324   0.871   3.670
  498SOL     OW 1592   4.490   1.321   3.924
  498SOL    HW1 1593   4.394   1.340   3.906
  498SOL    HW2 1594   0.001   1.226   3.952
  499SOL     OW 1595   0.814   0.573   4.074
  499SOL    HW1 1596   0.818   0.496   4.012
  499SOL    HW2 1597   0.736   0.631   4.050
  500SOL     OW 1598   0.473   0.494   3.911
  500SOL    HW1 1599   0.537   0.568   3.932
  500SOL    HW2 1600   0.382   0.532   3.896
  501SOL     OW 1601   1.311   0.844   4.026
  501SOL    HW1 1602   1.228   0.837   4.081
  501SOL    HW2 1603   1.287   0.840   3.929
  502SOL     OW 1604   1.706   0.130   4.209
  502SOL    HW1 1605   1.791   0.142   4.158
  502SOL    HW2 1606   1.721   0.067   4.285
  503SOL     OW 1607   1.380   1.571   4.192
  503SOL    HW1 1608   1.454   1.600   4.132
  503SOL    HW2 1609   1.342   1.652   4.238
  504SOL     OW 1610   0.672   1.614   3.878
  504SOL    HW1 1611   0.685   1.629   3.780
  504SOL    HW2 1612   0.616   1.532   3.891
  505SOL     OW 1613   1.835   0.159   0.220
  505SOL    HW1 1614   1.874   0.088   0.161
  505SOL    HW2 1615   1.742   0.180   0.190
  506SOL     OW 1616   1.205   1.607   3.755
  506SOL    HW1 1617   1.199   1.513   3.789
  506SOL    HW2 1618   1.139   1.620   3.682
  507SOL     OW 1619   0.918   0.910   4.009
  507SOL    HW1 1620   0.981   0.945   3.940
  507SOL    HW2 1621   0.961   0.835   4.059
  508SOL     OW 1622   1.495   1.625   3.765
  508SOL    HW1 1623   1.395   1.620   3.759
  508SOL    HW2 1624   1.533   1.631   3.673
  509SOL     OW 1625   0.594   1.490   4.189
  509SOL    HW1 1626   0.641   1.438   4.118
  509SOL    HW2 1627   0.526   1.551   4.146
  510SOL     OW 1628   0.248   1.346   4.005
  510SOL    HW1 1629   0.150   1.346   3.985
  510SOL    HW2 1630   0.263   1.381   4.098
  511SOL     OW 1631   0.072   0.327   3.755
  511SOL    HW1 1632   4.472   0.327   3.755
  511SOL    HW2 1633   0.105   0.412   3.714
  512SOL     OW 1634   0.084   0.186   4.022
  512SOL    HW1 1635   0.077   0.263   3.958
  512SOL    HW2 1636   0.166   0.133   4.000
  513SOL     OW 1637   1.182   1.342   3.842
  513SOL    HW1 1638   1.087   1.313   3.838
  513SOL    HW2 1639   1.214   1.343   3.937
  514SOL     OW 1640   1.221   0.316   4.167
  514SOL    HW1 1641   1.288   0.243   4.156
  514SOL    HW2 1642   1.245   0.372   4.247
  515SOL     OW 1643   0.603   0.745   4.368
  515SOL    HW1 1644   0.636   0.840   4.361
  515SOL    HW2 1645   0.518   0.736   4.317
  516SOL     OW 1646   0.864   1.368   3.755
  516SOL    HW1 1647   0.821   1.391   3.842
  516SOL    HW2 1648   0.884   1.451   3.704
  517SOL     OW 1649   0.654   1.865   0.169
  517SOL    HW1 1650   0.667   1.942   0.106
  517SOL    HW2 1651   0.738   1.812   0.174
  518SOL     OW 1652   1.080   0.988   3.809
  518SOL    HW1 1653   1.052   1.042   3.730
  518SOL    HW2 1654   1.159   0.932   3.786
  519SOL     OW 1655   0.066   1.262   4.364
  519SOL    HW1 1656   0.042   1.272   4.461
  519SOL    HW2 1657   0.138   1.194   4.354
  520SOL     OW 1658   0.425   0.428   4.246
  520SOL    HW1 1659   0.461   0.359   4.184
  520SOL    HW2 1660   0.404   0.386   4.334
  521SOL     OW 1661   0.813   1.564   4.382
  521SOL    HW1 1662   0.807   1.613   4.295
  521SOL    HW2 1663   0.733   1.505   4.392
  522SOL     OW 1664   0.771   1.331   4.033
  522SOL    HW1 1665   0.737   1.237   4.040
  522SOL    HW2 1666   0.858   1.339   4.082
  523SOL     OW 1667   1.342   0.054   3.880
  523SOL    HW1 1668   1.385   4.478   3.830
  523SOL    HW2 1669   1.260   0.021   3.927
  524SOL     OW 1670   1.291   0.435   4.399
  524SOL    HW1 1671   1.225   0.508   4.416
  524SOL    HW2 1672   1.317   0.394   4.486
  525SOL     OW 1673   0.042   1.053   4.011
  525SOL    HW1 1674   0.141   1.043   4.003
  525SOL    HW2 1675   0.013   1.018   4.100
  526SOL     OW 1676   0.878   1.649   4.069
  526SOL    HW1 1677   0.807   1.628   4.002
  526SOL    HW2 1678   0.852   1.731   4.120
  527SOL     OW 1679   0.240   2.506   0.113
  527SOL    HW1 1680   0.167   2.474   0.174
  527SOL    HW2 1681   0.230   2.462   0.023
  528SOL     OW 1682   0.213   2.138   0.993
  528SOL    HW1 1683   0.252   2.111   1.081
  528SOL    HW2 1684   0.133   2.082   0.973
  529SOL     OW 1685   0.011   2.249   0.636
  529SOL    HW1 1686   4.431   2.284   0.685
  529SOL    HW2 1687   4.489   2.161   0.593
  530SOL     OW 1688   0.567   3.144   1.175
  530SOL    HW1 1689   0.476   3.143   1.133
  530SOL    HW2 1690   0.585   3.236   1.211
  531SOL     OW 1691   1.557   3.373   0.707
  531SOL    HW1 1692   1.512   3.353   0.795
  531SOL    HW2 1693   1.488   3.383   0.636
  532SOL     OW 1694   1.131   2.563   0.705
  532SOL    HW1 1695   1.184   2.646   0.685
  532SOL    HW2 1696   1.081   2.575   0.790
  533SOL     OW 1697   1.773   2.464   0.233
  533SOL    HW1 1698   1.749   2.458   0.136
  533SOL    HW2 1699   1.728   2.390   0.282
  534SOL     OW 1700   0.757   3.008   1.035
  534SOL    HW1 1701   0.684   3.039   1.096
  534SOL    HW2 1702   0.795   3.087   0.987
  535SOL     OW 1703   0.861   2.643   1.818
  535SOL    HW1 1704   0.850   2.713   1.888
  535SOL    HW2 1705   0.887   2.686   1.731
  536SOL     OW 1706   0.685   2.868   0.654
  536SOL    HW1 1707   0.754   2.852   0.724
  536SOL    HW2 1708   0.609   2.920   0.692
  537SOL     OW 1709   0.707   3.016   1.811
  537SOL    HW1 1710   0.759   3.098   1.837
  537SOL    HW2 1711   0.619   3.044   1.773
  538SOL     OW 1712   0.334   3.287   1.069
  538SOL    HW1 1713   0.249   3.261   1.023
  538SOL    HW2 1714   0.389   3.343   1.008
  539SOL     OW 1715   1.461   3.359   1.348
  539SOL    HW1 1716   1.506   3.448   1.358
  539SOL    HW2 1717   1.404   3.342   1.428
  540SOL     OW 1718   0.443   2.265   1.495
  540SOL    HW1 1719   0.527   2.211   1.496
  540SOL    HW2 1720   0.364   2.203   1.498
  541SOL     OW 1721   1.615   2.313   0.740
  541SOL    HW1 1722   1.535   2.336   0.685
  541SOL    HW2 1723   1.636   2.389   0.802
  542SOL     OW 1724   0.238   3.554   0.491
  542SOL    HW1 1725   0.232   3.646   0.529
  542SOL    HW2 1726   0.297   3.556   0.409
  543SOL     OW 1727   1.135   3.202   1.693
  543SOL    HW1 1728   1.180   3.202   1.783
  543SOL    HW2 1729   1.079   3.119   1.685
  544SOL     OW 1730   0.244   3.292   0.536
  544SOL    HW1 1731   0.238   3.391   0.531
  544SOL    HW2 1732   0.171   3.256   0.594
  545SOL     OW 1733   0.247   2.943   0.888
  545SOL    HW1 1734   0.265   2.849   0.916
  545SOL    HW2 1735   0.186   2.986   0.954
  546SOL     OW 1736   0.613   3.654   1.433
  546SOL    HW1 1737   0.526   3.632   1.477
  546SOL    HW2 1738   0.640   3.748   1.457
  547SOL     OW 1739   0.588   2.835   0.156
  547SOL    HW1 1740   0.582   2.909   0.090
  547SOL    HW2 1741   0.642   2.864   0.235
  548SOL     OW 1742   1.594   1.982   1.470
  548SOL    HW1 1743   1.593   2.061   1.409
  548SOL    HW2 1744   1.590   2.014   1.565
  549SOL     OW 1745   0.134   2.508   0.574
  549SOL    HW1 1746   0.085   2.421   0.584
  549SOL    HW2 1747   0.107   2.570   0.647
  550SOL     OW 1748   1.842   3.617   0.341
  550SOL    HW1 1749   1.916   3.598   0.405
  550SOL    HW2 1750   1.854   3.708   0.301
  551SOL     OW 1751   0.052   3.447   0.206
  551SOL    HW1 1752   0.048   3.366   0.147
  551SOL    HW2 1753   4.469   3.500   0.195
  552SOL     OW 1754   1.691   2.783   0.639
  552SOL    HW1 1755   1.779   2.738   0.625
  552SOL    HW2 1756   1.668   2.837   0.558
  553SOL     OW 1757   1.648   2.971   0.435
  553SOL    HW1 1758   1.738   2.975   0.392
  553SOL    HW2 1759   1.646   3.035   0.512
  554SOL     OW 1760   0.112   2.622   1.594
  554SOL    HW1 1761   0.210   2.617   1.577
  554SOL    HW2 1762   0.081   2.717   1.590
  555SOL     OW 1763   0.609   3.245   0.734
  555SOL    HW1 1764   0.562   3.158   0.746
  555SOL    HW2 1765   0.595   3.278   0.640
  556SOL     OW 1766   1.293   3.101   1.423
  556SOL    HW1 1767   1.322   3.030   1.358
  556SOL    HW2 1768   1.347   3.093   1.507
  557SOL     OW 1769   0.813   1.865   0.506
  557SOL    HW1 1770   0.856   1.954   0.489
  557SOL    HW2 1771   0.714   1.878   0.517
  558SOL     OW 1772   0.186   2.807   1.278
  558SOL    HW1 1773   0.281   2.787   1.255
  558SOL    HW2 1774   0.127   2.784   1.200
  559SOL     OW 1775   1.534   2.850   0.210
  559SOL    HW1 1776   1.458   2.788   0.231
  559SOL    HW2 1777   1.567   2.892   0.294
  560SOL     OW 1778   1.185   3.665   1.619
  560SOL    HW1 1779   1.198   3.730   1.544
  560SOL    HW2 1780   1.200   3.572   1.584
  561SOL     OW 1781   0.329   2.116   1.801
  561SOL    HW1 1782   0.387   2.193   1.827
  561SOL    HW2 1783   0.238   2.129   1.840
  562SOL     OW 1784   1.464   3.281   0.954
  562SOL    HW1 1785   1.395   3.299   1.024
  562SOL    HW2 1786   1.456   3.187   0.923
  563SOL     OW 1787   1.655   3.597   0.580
  563SOL    HW1 1788   1.640   3.572   0.485
  563SOL    HW2 1789   1.631   3.520   0.639
  564SOL     OW 1790   0.598   2.580   0.270
  564SOL    HW1 1791   0.608   2.661   0.211
  564SOL    HW2 1792   0.529   2.598   0.339
  565SOL     OW 1793   1.280   2.207   0.932
  565SOL    HW1 1794   1.185   2.175   0.937
  565SOL    HW2 1795   1.336   2.157   0.998
  566SOL     OW 1796   1.584   3.532   0.308
  566SOL    HW1 1797   1.680   3.562   0.307
  566SOL    HW2 1798   1.554   3.514   0.215
  567SOL     OW 1799   0.793   2.475   1.454
  567SOL    HW1 1800   0.767   2.455   1.548
  567SOL    HW2 1801   0.747   2.410   1.392
  568SOL     OW 1802   1.389   2.334   1.677
  568SOL    HW1 1803   1.390   2.384   1.763
  568SOL    HW2 1804   1.460   2.263   1.678
  569SOL     OW 1805   0.959   2.750   1.579
  569SOL    HW1 1806   1.016   2.675   1.545
  569SOL    HW2 1807   0.907   2.789   1.503
  570SOL     OW 1808   0.994   2.272   1.236
  570SOL    HW1 1809   0.913   2.301   1.286
  570SOL    HW2 1810   0.967   2.221   1.155
  571SOL     OW 1811   1.041   2.566   0.436
  571SOL    HW1 1812   1.060   2.558   0.534
  571SOL    HW2 1813   0.957   2.517   0.414
  572SOL     OW 1814   0.100   2.684   0.783
  572SOL    HW1 1815   0.190   2.667   0.823
  572SOL    HW2 1816   0.041   2.729   0.850
  573SOL     OW 1817   0.124   3.716   1.578
  573SOL    HW1 1818   0.121   3.690   1.674
  573SOL    HW2 1819   0.043   3.681   1.531
  574SOL     OW 1820   0.883   2.223   0.199
  574SOL    HW1 1821   0.903   2.277   0.118
  574SOL    HW2 1822   0.891   2.126   0.177
  575SOL     OW 1823   1.374   3.006   0.540
  575SOL    HW1 1824   1.457   2.984   0.487
  575SOL    HW2 1825   1.320   3.073   0.489
  576SOL     OW 1826   0.548   2.045   0.895
  576SOL    HW1 1827   0.552   2.072   0.991
  576SOL    HW2 1828   0.552   2.128   0.838
  577SOL     OW 1829   1.011   3.303   0.475
  577SOL    HW1 1830   0.962   3.375   0.425
  577SOL    HW2 1831   0.997   3.315   0.573
  578SOL     OW 1832   0.355   3.670   0.858
  578SOL    HW1 1833   0.398   3.580   0.868
  578SOL    HW2 1834   0.424   3.741   0.868
  579SOL     OW 1835   1.797   2.923   0.868
  579SOL    HW1 1836   1.741   2.906   0.786
  579SOL    HW2 1837   1.737   2.928   0.948
  580SOL     OW 1838   1.227   3.400   1.514
  580SOL    HW1 1839   1.213   3.325   1.578
  580SOL    HW2 1840   1.165   3.389   1.436
  581SOL     OW 1841   0.323   2.807   0.234
  581SOL    HW1 1842   0.416   2.824   0.203
  581SOL    HW2 1843   0.301   2.710   0.224
  582SOL     OW 1844   1.477   2.601   0.726
  582SOL    HW1 1845   1.462   2.552   0.812
  582SOL    HW2 1846   1.555   2.662   0.735
  583SOL     OW 1847   0.465   3.121   1.732
  583SOL    HW1 1848   0.437   3.129   1.636
  583SOL    HW2 1849   0.384   3.127   1.790
  584SOL     OW 1850   1.141   3.641   0.254
  584SOL    HW1 1851   1.073   3.600   0.314
  584SOL    HW2 1852   1.158   3.580   0.176
  585SOL     OW 1853   0.197   2.143   1.489
  585SOL    HW1 1854   0.128   2.215   1.487
  585SOL    HW2 1855   0.185   2.087   1.571
  586SOL     OW 1856   1.624   3.250   0.099
  586SOL    HW1 1857   1.582   3.340   0.087
  586SOL    HW2 1858   1.553   3.180   0.095
  587SOL     OW 1859   0.476   3.586   0.339
  587SOL    HW1 1860   0.493   3.650   0.414
  587SOL    HW2 1861   0.547   3.596   0.269
  588SOL     OW 1862   1.403   1.971   0.427
  588SOL    HW1 1863   1.392   1.938   0.334
  588SOL    HW2 1864   1.500   1.978   0.450
  589SOL     OW 1865   0.260   3.656   1.231
  589SOL    HW1 1866   0.308   3.582   1.277
  589SOL    HW2 1867   0.224   3.625   1.144
  590SOL     OW 1868   0.937   3.561   0.899
  590SOL    HW1 1869   1.018   3.509   0.926
  590SOL    HW2 1870   0.889   3.512   0.826
  591SOL     OW 1871   0.390   2.555   0.475
  591SOL    HW1 1872   0.421   2.460   0.484
  591SOL    HW2 1873   0.294   2.561   0.503
  592SOL     OW 1874   1.527   2.085   1.725
  592SOL    HW1 1875   1.538   2.102   1.823
  592SOL    HW2 1876   1.457   2.015   1.711
  593SOL     OW 1877   0.768   2.136   1.753
  593SOL    HW1 1878   0.845   2.073   1.756
  593SOL    HW2 1879   0.713   2.126   1.837
  594SOL     OW 1880   0.878   3.380   1.192
  594SOL    HW1 1881   0.859   3.346   1.100
  594SOL    HW2 1882   0.949   3.324   1.234
  595SOL     OW 1883   1.343   2.451   1.433
  595SOL    HW1 1884   1.372   2.415   1.522
  595SOL    HW2 1885   1.378   2.545   1.423
  596SOL     OW 1886   0.814   3.259   0.933
  596SOL    HW1 1887   0.903   3.249   0.889
  596SOL    HW2 1888   0.742   3.257   0.864
  597SOL     OW 1889   0.926   2.370   0.902
  597SOL    HW1 1890   0.901   2.363   0.806
  597SOL    HW2 1891   0.962   2.282   0.933
  598SOL     OW 1892   0.548   1.926   0.510
  598SOL    HW1 1893   0.463   1.924   0.563
  598SOL    HW2 1894   0.548   2.007   0.451
  599SOL     OW 1895   1.441   3.067   0.065
  599SOL    HW1 1896   1.461   2.977   0.102
  599SOL    HW2 1897   1.342   3.080   0.058
  600SOL     OW 1898   0.939   2.106   0.463
  600SOL    HW1 1899   0.902   2.152   0.382
  600SOL    HW2 1900   1.038   2.120   0.466
  601SOL     OW 1901   1.080   2.541   1.459
  601SOL    HW1 1902   1.003   2.478   1.466
  601SOL    HW2 1903   1.165   2.489   1.453
  602SOL     OW 1904   1.224   3.430   0.794
  602SOL    HW1 1905   1.242   3.500   0.725
  602SOL    HW2 1906   1.294   3.435   0.865
  603SOL     OW 1907   0.464   3.008   0.737
  603SOL    HW1 1908   0.391   2.990   0.803
  603SOL    HW2 1909   0.429   2.996   0.644
  604SOL     OW 1910   1.269   3.659   0.604
  604SOL    HW1 1911   1.317   3.721   0.542
  604SOL    HW2 1912   1.200   3.709   0.655
  605SOL     OW 1913   1.081   2.444   0.016
  605SOL    HW1 1914   0.985   2.468   0.005
  605SOL    HW2 1915   1.105   2.444   0.113
  606SOL     OW 1916   0.081   2.396   1.404
  606SOL    HW1 1917   0.155   2.393   1.337
  606SOL    HW2 1918   0.068   2.491   1.435
  607SOL     OW 1919   0.562   2.087   1.166
  607SOL    HW1 1920   0.608   2.003   1.195
  607SOL    HW2 1921   0.466   2.084   1.193
  608SOL     OW 1922   0.870   2.322   0.638
  608SOL    HW1 1923   0.820   2.383   0.576
  608SOL    HW2 1924   0.890   2.236   0.591
  609SOL     OW 1925   1.015   1.912   0.750
  609SOL    HW1 1926   0.952   1.910   0.672
  609SOL    HW2 1927   0.994   1.836   0.811
  610SOL     OW 1928   1.438   3.026   0.857
  610SOL    HW1 1929   1.367   2.956   0.861
  610SOL    HW2 1930   1.463   3.043   0.762
  611SOL     OW 1931   1.469   2.462   0.982
  611SOL    HW1 1932   1.415   2.378   0.983
  611SOL    HW2 1933   1.533   2.462   1.059
  612SOL     OW 1934   1.855   2.679   0.379
  612SOL    HW1 1935   1.906   2.626   0.447
  612SOL    HW2 1936   1.817   2.617   0.310
  613SOL     OW 1937   0.484   3.266   0.187
  613SOL    HW1 1938   0.395   3.237   0.225
  613SOL    HW2 1939   0.481   3.260   0.088
  614SOL     OW 1940   1.668   3.129   0.652
  614SOL    HW1 1941   1.768   3.131   0.659
  614SOL    HW2 1942   1.631   3.220   0.671
  615SOL     OW 1943   1.420   2.459   0.119
  615SOL    HW1 1944   1.341   2.447   0.180
  615SOL    HW2 1945   1.454   2.370   0.090
  616SOL     OW 1946   0.528   2.125   0.325
  616SOL    HW1 1947   0.569   2.062   0.260
  616SOL    HW2 1948   0.510   2.212   0.280
  617SOL     OW 1949   1.759   3.095   1.576
  617SOL    HW1 1950   1.851   3.060   1.554
  617SOL    HW2 1951   1.766   3.189   1.608
  618SOL     OW 1952   1.060   3.213   1.337
  618SOL    HW1 1953   0.979   3.183   1.388
  618SOL    HW2 1954   1.142   3.173   1.378
  619SOL     OW 1955   1.608   3.489   1.651
  619SOL    HW1 1956   1.601   3.525   1.558
  619SOL    HW2 1957   1.694   3.438   1.661
  620SOL     OW 1958   1.127   3.069   1.108
  620SOL    HW1 1959   1.068   3.105   1.181
  620SOL    HW2 1960   1.090   3.097   1.019
  621SOL     OW 1961   1.631   2.962   1.080
  621SOL    HW1 1962   1.628   3.027   1.156
  621SOL    HW2 1963   1.550   2.973   1.023
  622SOL     OW 1964   0.919   1.962   1.397
  622SOL    HW1 1965   0.940   1.938   1.303
  622SOL    HW2 1966   1.000   2.004   1.440
  623SOL     OW 1967   0.981   2.975   1.721
  623SOL    HW1 1968   0.885   2.993   1.744
  623SOL    HW2 1969   0.987   2.894   1.663
  624SOL     OW 1970   0.714   2.919   0.379
  624SOL    HW1 1971   0.698   2.906   0.477
  624SOL    HW2 1972   0.794   2.865   0.351
  625SOL     OW 1973   0.430   2.684   1.240
  625SOL    HW1 1974   0.503   2.698   1.307
  625SOL    HW2 1975   0.365   2.618   1.276
  626SOL     OW 1976   1.267   2.242   1.272
  626SOL    HW1 1977   1.303   2.320   1.323
  626SOL    HW2 1978   1.173   2.261   1.245
  627SOL     OW 1979   0.063   3.437   1.339
  627SOL    HW1 1980   0.029   3.527   1.310
  627SOL    HW2 1981   0.163   3.440   1.345
  628SOL     OW 1982   0.353   2.972   0.491
  628SOL    HW1 1983   0.352   3.052   0.431
  628SOL    HW2 1984   0.359   2.889   0.435
  629SOL     OW 1985   0.562   2.402   0.859
  629SOL    HW1 1986   0.575   2.463   0.780
  629SOL    HW2 1987   0.623   2.431   0.933
  630SOL     OW 1988   1.253   3.227   0.395
  630SOL    HW1 1989   1.322   3.295   0.423
  630SOL    HW2 1990   1.163   3.255   0.428
  631SOL     OW 1991   1.276   3.319   1.146
  631SOL    HW1 1992   1.335   3.323   1.227
  631SOL    HW2 1993   1.220   3.236   1.150
  632SOL     OW 1994   1.585   2.490   0.479
  632SOL    HW1 1995   1.534   2.542   0.549
  632SOL    HW2 1996   1.621   2.554   0.410
  633SOL     OW 1997   0.351   3.389   1.317
  633SOL    HW1 1998   0.330   3.342   1.232
  633SOL    HW2 1999   0.450   3.403   1.325
  634SOL     OW 2000   0.472   2.620   1.657
  634SOL    HW1 2001   0.505   2.664   1.574
  634SOL    HW2 2002   0.504   2.525   1.660
  635SOL     OW 2003   1.588   2.628   1.664
  635SOL    HW1 2004   1.504   2.681   1.674
  635SOL    HW2 2005   1.654   2.679   1.610
  636SOL     OW 2006   0.996   1.981   1.753
  636SOL    HW1 2007   1.049   2.062   1.727
  636SOL    HW2 2008   1.047   1.899   1.729
  637SOL     OW 2009   0.495   1.906   1.745
  637SOL    HW1 2010   0.458   1.845   1.676
  637SOL    HW2 2011   0.433   1.983   1.759
  638SOL     OW 2012   0.589   2.733   1.026
  638SOL    HW1 2013   0.619   2.828   1.021
  638SOL    HW2 2014   0.527   2.722   1.104
  639SOL     OW 2015   1.362   2.721   1.033
  639SOL    HW1 2016   1.276   2.720   0.982
  639SOL    HW2 2017   1.402   2.629   1.033
  640SOL     OW 2018   1.198   2.411   0.281
  640SOL    HW1 2019   1.213   2.326   0.333
  640SOL    HW2 2020   1.150   2.477   0.339
  641SOL     OW 2021   0.303   2.055   1.240
  641SOL    HW1 2022   0.265   2.096   1.324
  641SOL    HW2 2023   0.286   1.957   1.241
  642SOL     OW 2024   0.050   3.175   1.286
  642SOL    HW1 2025   0.082   3.121   1.364
  642SOL    HW2 2026   0.050   3.272   1.309
  643SOL     OW 2027   0.728   2.495   1.061
  643SOL    HW1 2028   0.802   2.470   0.998
  643SOL    HW2 2029   0.694   2.586   1.038
  644SOL     OW 2030   0.308   1.933   0.622
  644SOL    HW1 2031   0.286   2.026   0.650
  644SOL    HW2 2032   0.304   1.873   0.702
  645SOL     OW 2033   1.609   2.240   0.376
  645SOL    HW1 2034   1.641   2.172   0.442
  645SOL    HW2 2035   1.587   2.325   0.424
  646SOL     OW 2036   1.024   2.619   0.963
  646SOL    HW1 2037   1.026   2.642   1.060
  646SOL    HW2 2038   0.996   2.524   0.951
  647SOL     OW 2039   0.983   3.426   1.712
  647SOL    HW1 2040   0.966   3.474   1.625
  647SOL    HW2 2041   1.029   3.340   1.693
  648SOL     OW 2042   1.857   3.371   1.606
  648SOL    HW1 2043   1.870   3.396   1.510
  648SOL    HW2 2044   1.941   3.392   1.656
  649SOL     OW 2045   0.349   2.791   1.816
  649SOL    HW1 2046   0.421   2.822   1.877
  649SOL    HW2 2047   0.386   2.723   1.752
  650SOL     OW 2048   1.583   2.095   0.150
  650SOL    HW1 2049   1.493   2.056   0.135
  650SOL    HW2 2050   1.580   2.158   0.227
  651SOL     OW 2051   1.300   2.694   0.032
  651SOL    HW1 2052   1.346   2.607   0.051
  651SOL    HW2 2053   1.341   2.736   4.451
  652SOL     OW 2054   1.066   3.197   0.851
  652SOL    HW1 2055   1.067   3.118   0.790
  652SOL    HW2 2056   1.130   3.266   0.818
  653SOL     OW 2057   0.319   2.673   0.948
  653SOL    HW1 2058   0.416   2.695   0.944
  653SOL    HW2 2059   0.308   2.579   0.979
  654SOL     OW 2060   0.333   2.383   0.994
  654SOL    HW1 2061   0.291   2.294   0.981
  654SOL    HW2 2062   0.415   2.390   0.936
  655SOL     OW 2063   1.133   2.239   1.683
  655SOL    HW1 2064   1.083   2.296   1.748
  655SOL    HW2 2065   1.227   2.274   1.674
  656SOL     OW 2066   1.161   2.069   1.472
  656SOL    HW1 2067   1.149   2.131   1.549
  656SOL    HW2 2068   1.199   2.119   1.394
  657SOL     OW 2069   4.495   3.164   0.174
  657SOL    HW1 2070   4.401   3.198   0.181
  657SOL    HW2 2071   0.005   3.081   0.228
  658SOL     OW 2072   0.097   3.641   0.940
  658SOL    HW1 2073   0.051   3.582   0.874
  658SOL    HW2 2074   0.189   3.663   0.907
  659SOL     OW 2075   0.500   3.436   0.907
  659SOL    HW1 2076   0.569   3.503   0.932
  659SOL    HW2 2077   0.540   3.367   0.847
  660SOL     OW 2078   0.988   2.659   1.229
  660SOL    HW1 2079   1.043   2.631   1.308
  660SOL    HW2 2080   0.896   2.621   1.237
  661SOL     OW 2081   0.034   2.421   1.106
  661SOL    HW1 2082   0.120   2.385   1.069
  661SOL    HW2 2083   0.024   2.391   1.201
  662SOL     OW 2084   0.181   2.379   1.715
  662SOL    HW1 2085   0.260   2.344   1.664
  662SOL    HW2 2086   0.148   2.463   1.673
  663SOL     OW 2087   1.375   2.804   1.660
  663SOL    HW1 2088   1.396   2.902   1.663
  663SOL    HW2 2089   1.375   2.773   1.564
  664SOL     OW 2090   0.815   2.435   0.359
  664SOL    HW1 2091   0.827   2.356   0.299
  664SOL    HW2 2092   0.738   2.490   0.327
  665SOL     OW 2093   1.645   2.467   1.189
  665SOL    HW1 2094   1.626   2.405   1.266
  665SOL    HW2 2095   1.734   2.446   1.150
  666SOL     OW 2096   0.275   3.423   1.744
  666SOL    HW1 2097   0.220   3.485   1.799
  666SOL    HW2 2098   0.251   3.328   1.767
  667SOL     OW 2099   0.685   2.320   1.263
  667SOL    HW1 2100   0.642   2.235   1.231
  667SOL    HW2 2101   0.693   2.384   1.187
  668SOL     OW 2102   0.929   3.542   1.466
  668SOL    HW1 2103   0.900   3.504   1.378
  668SOL    HW2 2104   0.931   3.642   1.460
  669SOL     OW 2105   0.467   2.354   0.194
  669SOL    HW1 2106   0.535   2.426   0.207
  669SOL    HW2 2107   0.377   2.394   0.182
  670SOL     OW 2108   0.161   3.000   1.463
  670SOL    HW1 2109   0.148   2.956   1.551
  670SOL    HW2 2110   0.173   2.931   1.392
  671SOL     OW 2111   1.326   2.911   1.223
  671SOL    HW1 2112   1.355   2.844   1.155
  671SOL    HW2 2113   1.250   2.966   1.186
  672SOL     OW 2114   1.308   2.717   0.307
  672SOL    HW1 2115   1.226   2.699   0.362
  672SOL    HW2 2116   1.286   2.704   0.210
  673SOL     OW 2117   1.770   3.604   1.150
  673SOL    HW1 2118   1.831   3.638   1.078
  673SOL    HW2 2119   1.742   3.510   1.129
  674SOL     OW 2120   1.244   3.596   1.117
  674SOL    HW1 2121   1.328   3.618   1.067
  674SOL    HW2 2122   1.242   3.498   1.137
  675SOL     OW 2123   0.068   3.052   1.049
  675SOL    HW1 2124   0.073   3.087   1.143
  675SOL    HW2 2125   0.014   3.116   0.993
  676SOL     OW 2126   0.681   3.528   1.724
  676SOL    HW1 2127   0.622   3.609   1.725
  676SOL    HW2 2128   0.745   3.534   1.648
  677SOL     OW 2129   0.931   1.973   0.131
  677SOL    HW1 2130   0.934   1.937   0.038
  677SOL    HW2 2131   0.967   1.904   0.194
  678SOL     OW 2132   1.720   2.003   0.513
  678SOL    HW1 2133   1.778   1.984   0.434
  678SOL    HW2 2134   1.699   1.917   0.560
  679SOL     OW 2135   1.398   3.438   0.486
  679SOL    HW1 2136   1.462   3.467   0.415
  679SOL    HW2 2137   1.345   3.517   0.517
  680SOL     OW 2138   0.126   3.663   1.848
  680SOL    HW1 2139   0.078   3.588   1.894
  680SOL    HW2 2140   0.190   3.706   1.911
  681SOL     OW 2141   1.281   2.786   0.668
  681SOL    HW1 2142   1.355   2.720   0.677
  681SOL    HW2 2143   1.312   2.865   0.615
  682SOL     OW 2144   0.817   3.136   1.432
  682SOL    HW1 2145   0.790   3.176   1.520
  682SOL    HW2 2146   0.746   3.153   1.364
  683SOL     OW 2147   0.688   3.437   0.170
  683SOL    HW1 2148   0.673   3.467   0.076
  683SOL    HW2 2149   0.626   3.361   0.191
  684SOL     OW 2150   1.631   3.591   1.391
  684SOL    HW1 2151   1.681   3.594   1.304
  684SOL    HW2 2152   1.616   3.684   1.424
  685SOL     OW 2153   1.840   2.034   0.965
  685SOL    HW1 2154   1.874   1.944   0.938
  685SOL    HW2 2155   1.749   2.049   0.926
  686SOL     OW 2156   0.266   2.183   0.720
  686SOL    HW1 2157   0.180   2.223   0.687
  686SOL    HW2 2158   0.260   2.168   0.818
  687SOL     OW 2159   1.213   3.468   0.046
  687SOL    HW1 2160   1.210   3.370   0.064
  687SOL    HW2 2161   1.178   3.486   4.454
  688SOL     OW 2162   0.825   2.871   1.374
  688SOL    HW1 2163   0.871   2.859   1.286
  688SOL    HW2 2164   0.826   2.968   1.399
  689SOL     OW 2165   0.909   2.761   0.283
  689SOL    HW1 2166   0.972   2.808   0.222
  689SOL    HW2 2167   0.960   2.697   0.341
  690SOL     OW 2168   1.492   3.489   0.046
  690SOL    HW1 2169   1.393   3.480   0.042
  690SOL    HW2 2170   1.527   3.520   4.458
  691SOL     OW 2171   0.371   3.166   1.489
  691SOL    HW1 2172   0.359   3.249   1.435
  691SOL    HW2 2173   0.292   3.106   1.475
  692SOL     OW 2174   1.614   3.145   1.283
  692SOL    HW1 2175   1.678   3.135   1.359
  692SOL    HW2 2176   1.549   3.218   1.304
  693SOL     OW 2177   1.049   2.968   0.708
  693SOL    HW1 2178   0.974   2.917   0.750
  693SOL    HW2 2179   1.111   2.904   0.662
  694SOL     OW 2180   1.020   2.100   0.966
  694SOL    HW1 2181   1.013   2.055   0.877
  694SOL    HW2 2182   1.016   2.032   1.039
  695SOL     OW 2183   0.602   3.352   0.483
  695SOL    HW1 2184   0.640   3.293   0.412
  695SOL    HW2 2185   0.535   3.414   0.442
  696SOL     OW 2186   1.718   2.258   1.374
  696SOL    HW1 2187   1.791   2.326   1.380
  696SOL    HW2 2188   1.749   2.180   1.319
  697SOL     OW 2189   0.251   3.190   0.292
  697SOL    HW1 2190   0.164   3.207   0.246
  697SOL    HW2 2191   0.252   3.236   0.381
  698SOL     OW 2192   0.121   2.876   1.697
  698SOL    HW1 2193   0.047   2.904   1.758
  698SOL    HW2 2194   0.202   2.854   1.752
  699SOL     OW 2195   0.676   2.061   1.498
  699SOL    HW1 2196   0.762   2.039   1.451
  699SOL    HW2 2197   0.696   2.087   1.593
  700SOL     OW 2198   0.071   2.201   0.035
  700SOL    HW1 2199   4.480   2.178   0.002
  700SOL    HW2 2200   0.104   2.283   4.489
  701SOL     OW 2201   1.427   2.722   1.399
  701SOL    HW1 2202   1.377   2.785   1.341
  701SOL    HW2 2203   1.523   2.720   1.372
  702SOL     OW 2204   0.078   2.044   0.299
  702SOL    HW1 2205   0.078   2.115   0.229
  702SOL    HW2 2206   0.163   1.992   0.295
  703SOL     OW 2207   1.184   3.207   0.118
  703SOL    HW1 2208   1.084   3.209   0.109
  703SOL    HW2 2209   1.208   3.207   0.215
  704SOL     OW 2210   0.623   2.693   1.428
  704SOL    HW1 2211   0.678   2.776   1.415
  704SOL    HW2 2212   0.683   2.615   1.439
  705SOL     OW 2213   1.486   3.640   0.978
  705SOL    HW1 2214   1.511   3.694   0.898
  705SOL    HW2 2215   1.569   3.616   1.029
  706SOL     OW 2216   0.717   2.424   1.706
  706SOL    HW1 2217   0.752   2.496   1.766
  706SOL    HW2 2218   0.756   2.336   1.734
  707SOL     OW 2219   1.466   3.068   1.636
  707SOL    HW1 2220   1.448   3.080   1.734
  707SOL    HW2 2221   1.564   3.078   1.619
  708SOL     OW 2222   0.381   3.604   1.564
  708SOL    HW1 2223   0.294   3.649   1.548
  708SOL    HW2 2224   0.366   3.517   1.612
  709SOL     OW 2225   1.674   2.742   1.257
  709SOL    HW1 2226   1.663   2.651   1.218
  709SOL    HW2 2227   1.662   2.811   1.186
  710SOL     OW 2228   1.227   2.183   0.453
  710SOL    HW1 2229   1.288   2.104   0.450
  710SOL    HW2 2230   1.247   2.237   0.535
  711SOL     OW 2231   0.589   2.603   0.665
  711SOL    HW1 2232   0.633   2.692   0.651
  711SOL    HW2 2233   0.515   2.592   0.599
  712SOL     OW 2234   1.777   2.183   1.630
  712SOL    HW1 2235   1.751   2.223   1.543
  712SOL    HW2 2236   1.695   2.158   1.682
  713SOL     OW 2237   1.744   2.800   1.514
  713SOL    HW1 2238   1.737   2.898   1.527
  713SOL    HW2 2239   1.728   2.777   1.418
  714SOL     OW 2240   0.916   3.242   0.067
  714SOL    HW1 2241   0.841   3.221   0.129
  714SOL    HW2 2242   0.882   3.299   4.492
  715SOL     OW 2243   0.662   3.657   0.952
  715SOL    HW1 2244   0.633   3.748   0.922
  715SOL    HW2 2245   0.760   3.645   0.936
  716SOL     OW 2246   0.867   2.828   0.858
  716SOL    HW1 2247   0.919   2.752   0.897
  716SOL    HW2 2248   0.830   2.884   0.932
  717SOL     OW 2249   1.074   2.845   0.073
  717SOL    HW1 2250   1.069   2.910   4.497
  717SOL    HW2 2251   1.155   2.787   0.062
  718SOL     OW 2252   1.853   3.422   0.849
  718SOL    HW1 2253   1.780   3.409   0.782
  718SOL    HW2 2254   1.850   3.348   0.916
  719SOL     OW 2255   0.230   3.169   1.856
  719SOL    HW1 2256   0.166   3.099   1.823
  719SOL    HW2 2257   0.220   3.178   1.955
  720SOL     OW 2258   0.099   3.095   0.662
  720SOL    HW1 2259   0.109   3.053   0.752
  720SOL    HW2 2260   0.169   3.060   0.600
  721SOL     OW 2261   0.680   3.264   1.630
  721SOL    HW1 2262   0.598   3.213   1.656
  721SOL    HW2 2263   0.675   3.357   1.665
  722SOL     OW 2264   1.810   2.048   1.235
  722SOL    HW1 2265   1.821   1.952   1.261
  722SOL    HW2 2266   1.822   2.057   1.136
  723SOL     OW 2267   0.435   2.294   0.527
  723SOL    HW1 2268   0.464   2.222   0.464
  723SOL    HW2 2269   0.381   2.254   0.601
  724SOL     OW 2270   1.697   3.352   1.102
  724SOL    HW1 2271   1.615   3.327   1.051
  724SOL    HW2 2272   1.717   3.281   1.170
  725SOL     OW 2273   0.306   2.350   1.257
  725SOL    HW1 2274   0.382   2.313   1.312
  725SOL    HW2 2275   0.337   2.365   1.164
  726SOL     OW 2276   0.825   3.441   0.680
  726SOL    HW1 2277   0.826   3.485   0.590
  726SOL    HW2 2278   0.743   3.383   0.688
  727SOL     OW 2279   1.432   2.087   1.119
  727SOL    HW1 2280   1.463   2.003   1.163
  727SOL    HW2 2281   1.377   2.140   1.183
  728SOL     OW 2282   1.008   1.883   1.146
  728SOL    HW1 2283   0.945   1.815   1.107
  728SOL    HW2 2284   1.100   1.844   1.148
  729SOL     OW 2285   0.770   3.180   0.315
  729SOL    HW1 2286   0.733   3.088   0.328
  729SOL    HW2 2287   0.858   3.187   0.361
  730SOL     OW 2288   0.624   3.422   1.287
  730SOL    HW1 2289   0.623   3.508   1.339
  730SOL    HW2 2290   0.713   3.411   1.244
  731SOL     OW 2291   1.364   1.902   0.169
  731SOL    HW1 2292   1.394   1.855   0.085
  731SOL    HW2 2293   1.277   1.863   0.199
  732SOL     OW 2294   1.294   2.323   0.684
  732SOL    HW1 2295   1.240   2.406   0.689
  732SOL    HW2 2296   1.294   2.277   0.773
  733SOL     OW 2297   1.588   2.071   0.879
  733SOL    HW1 2298   1.522   2.084   0.952
  733SOL    HW2 2299   1.589   2.153   0.820
  734SOL     OW 2300   0.040   2.913   0.290
  734SOL    HW1 2301   0.139   2.915   0.275
  734SOL    HW2 2302   0.020   2.871   0.379
  735SOL     OW 2303   0.876   3.506   0.360
  735SOL    HW1 2304   0.806   3.473   0.297
  735SOL    HW2 2305   0.843   3.588   0.408
  736SOL     OW 2306   0.247   2.487   1.980
  736SOL    HW1 2307   0.167   2.473   2.039
  736SOL    HW2 2308   0.221   2.466   1.886
  737SOL     OW 2309   0.213   2.138   2.855
  737SOL    HW1 2310   0.252   2.111   2.943
  737SOL    HW2 2311   0.133   2.083   2.835
  738SOL     OW 2312   0.011   2.249   2.499
  738SOL    HW1 2313   4.430   2.285   2.545
  738SOL    HW2 2314   4.488   2.164   2.451
  739SOL     OW 2315   0.567   3.144   3.037
  739SOL    HW1 2316   0.476   3.143   2.995
  739SOL    HW2 2317   0.585   3.235   3.074
  740SOL     OW 2318   1.560   3.376   2.570
  740SOL    HW1 2319   1.518   3.347   2.656
  740SOL    HW2 2320   1.491   3.374   2.497
  741SOL     OW 2321   1.126   2.564   2.564
  741SOL    HW1 2322   1.178   2.646   2.544
  741SOL    HW2 2323   1.078   2.575   2.651
  742SOL     OW 2324   0.756   3.008   2.897
  742SOL    HW1 2325   0.684   3.039   2.958
  742SOL    HW2 2326   0.796   3.086   2.849
  743SOL     OW 2327   0.860   2.643   3.680
  743SOL    HW1 2328   0.851   2.713   3.751
  743SOL    HW2 2329   0.887   2.686   3.593
  744SOL     OW 2330   0.685   2.869   2.514
  744SOL    HW1 2331   0.754   2.852   2.585
  744SOL    HW2 2332   0.609   2.920   2.554
  745SOL     OW 2333   0.707   3.016   3.672
  745SOL    HW1 2334   0.759   3.097   3.699
  745SOL    HW2 2335   0.619   3.045   3.635
  746SOL     OW 2336   0.334   3.287   2.931
  746SOL    HW1 2337   0.249   3.261   2.885
  746SOL    HW2 2338   0.389   3.344   2.870
  747SOL     OW 2339   1.461   3.360   3.210
  747SOL    HW1 2340   1.507   3.448   3.220
  747SOL    HW2 2341   1.406   3.341   3.291
  748SOL     OW 2342   0.443   2.264   3.357
  748SOL    HW1 2343   0.527   2.211   3.358
  748SOL    HW2 2344   0.364   2.203   3.360
  749SOL     OW 2345   0.245   3.555   2.342
  749SOL    HW1 2346   0.233   3.643   2.389
  749SOL    HW2 2347   0.308   3.567   2.266
  750SOL     OW 2348   1.135   3.202   3.556
  750SOL    HW1 2349   1.180   3.203   3.646
  750SOL    HW2 2350   1.080   3.119   3.548
  751SOL     OW 2351   0.245   3.291   2.391
  751SOL    HW1 2352   0.238   3.391   2.394
  751SOL    HW2 2353   0.178   3.251   2.454
  752SOL     OW 2354   0.248   2.943   2.751
  752SOL    HW1 2355   0.266   2.848   2.778
  752SOL    HW2 2356   0.186   2.986   2.817
  753SOL     OW 2357   0.613   3.655   3.294
  753SOL    HW1 2358   0.526   3.633   3.339
  753SOL    HW2 2359   0.640   3.748   3.319
  754SOL     OW 2360   0.585   2.847   1.998
  754SOL    HW1 2361   0.629   2.896   1.922
  754SOL    HW2 2362   0.630   2.871   2.084
  755SOL     OW 2363   1.596   1.983   3.334
  755SOL    HW1 2364   1.592   2.062   3.273
  755SOL    HW2 2365   1.588   2.015   3.429
  756SOL     OW 2366   0.136   2.508   2.438
  756SOL    HW1 2367   0.085   2.422   2.446
  756SOL    HW2 2368   0.106   2.571   2.510
  757SOL     OW 2369   1.843   3.623   2.195
  757SOL    HW1 2370   1.898   3.590   2.272
  757SOL    HW2 2371   1.868   3.718   2.175
  758SOL     OW 2372   0.027   3.463   1.998
  758SOL    HW1 2373   0.019   3.363   2.000
  758SOL    HW2 2374   0.011   3.499   2.090
  759SOL     OW 2375   1.638   2.973   2.284
  759SOL    HW1 2376   1.731   2.970   2.246
  759SOL    HW2 2377   1.640   3.019   2.373
  760SOL     OW 2378   0.111   2.621   3.457
  760SOL    HW1 2379   0.209   2.616   3.437
  760SOL    HW2 2380   0.081   2.716   3.453
  761SOL     OW 2381   0.610   3.245   2.597
  761SOL    HW1 2382   0.563   3.157   2.609
  761SOL    HW2 2383   0.597   3.277   2.503
  762SOL     OW 2384   1.293   3.101   3.286
  762SOL    HW1 2385   1.322   3.031   3.221
  762SOL    HW2 2386   1.348   3.094   3.369
  763SOL     OW 2387   0.812   1.864   2.366
  763SOL    HW1 2388   0.858   1.951   2.350
  763SOL    HW2 2389   0.714   1.879   2.378
  764SOL     OW 2390   0.185   2.807   3.140
  764SOL    HW1 2391   0.281   2.788   3.117
  764SOL    HW2 2392   0.127   2.783   3.062
  765SOL     OW 2393   1.480   2.883   2.084
  765SOL    HW1 2394   1.425   2.805   2.115
  765SOL    HW2 2395   1.546   2.907   2.156
  766SOL     OW 2396   1.184   3.665   3.480
  766SOL    HW1 2397   1.199   3.730   3.406
  766SOL    HW2 2398   1.200   3.572   3.447
  767SOL     OW 2399   0.328   2.117   3.663
  767SOL    HW1 2400   0.388   2.192   3.688
  767SOL    HW2 2401   0.238   2.130   3.706
  768SOL     OW 2402   1.464   3.281   2.817
  768SOL    HW1 2403   1.396   3.301   2.887
  768SOL    HW2 2404   1.453   3.186   2.786
  769SOL     OW 2405   1.661   3.592   2.438
  769SOL    HW1 2406   1.634   3.570   2.344
  769SOL    HW2 2407   1.634   3.518   2.500
  770SOL     OW 2408   0.598   2.586   2.128
  770SOL    HW1 2409   0.605   2.666   2.069
  770SOL    HW2 2410   0.528   2.601   2.197
  771SOL     OW 2411   1.281   2.206   2.796
  771SOL    HW1 2412   1.186   2.176   2.797
  771SOL    HW2 2413   1.334   2.156   2.864
  772SOL     OW 2414   1.584   3.532   2.170
  772SOL    HW1 2415   1.677   3.568   2.167
  772SOL    HW2 2416   1.552   3.516   2.076
  773SOL     OW 2417   0.793   2.474   3.316
  773SOL    HW1 2418   0.767   2.455   3.410
  773SOL    HW2 2419   0.747   2.410   3.254
  774SOL     OW 2420   1.393   2.333   3.540
  774SOL    HW1 2421   1.390   2.382   3.627
  774SOL    HW2 2422   1.460   2.258   3.546
  775SOL     OW 2423   0.958   2.750   3.441
  775SOL    HW1 2424   1.016   2.675   3.407
  775SOL    HW2 2425   0.907   2.789   3.364
  776SOL     OW 2426   0.994   2.273   3.098
  776SOL    HW1 2427   0.912   2.300   3.148
  776SOL    HW2 2428   0.968   2.220   3.017
  777SOL     OW 2429   1.047   2.562   2.290
  777SOL    HW1 2430   1.065   2.556   2.388
  777SOL    HW2 2431   0.963   2.511   2.268
  778SOL     OW 2432   0.099   2.688   2.645
  778SOL    HW1 2433   0.189   2.667   2.682
  778SOL    HW2 2434   0.042   2.729   2.717
  779SOL     OW 2435   0.124   3.715   3.440
  779SOL    HW1 2436   0.121   3.690   3.536
  779SOL    HW2 2437   0.043   3.681   3.393
  780SOL     OW 2438   0.886   2.211   2.056
  780SOL    HW1 2439   0.931   2.275   1.995
  780SOL    HW2 2440   0.903   2.117   2.024
  781SOL     OW 2441   1.711   2.441   3.689
  781SOL    HW1 2442   1.672   2.521   3.643
  781SOL    HW2 2443   1.736   2.372   3.621
  782SOL     OW 2444   1.383   3.009   2.402
  782SOL    HW1 2445   1.454   2.981   2.338
  782SOL    HW2 2446   1.320   3.073   2.357
  783SOL     OW 2447   0.547   2.045   2.757
  783SOL    HW1 2448   0.552   2.072   2.853
  783SOL    HW2 2449   0.552   2.127   2.700
  784SOL     OW 2450   1.004   3.308   2.333
  784SOL    HW1 2451   0.964   3.383   2.282
  784SOL    HW2 2452   0.995   3.325   2.431
  785SOL     OW 2453   0.356   3.669   2.719
  785SOL    HW1 2454   0.399   3.580   2.730
  785SOL    HW2 2455   0.424   3.741   2.731
  786SOL     OW 2456   1.226   3.401   3.376
  786SOL    HW1 2457   1.214   3.326   3.441
  786SOL    HW2 2458   1.166   3.388   3.297
  787SOL     OW 2459   0.319   2.816   2.110
  787SOL    HW1 2460   0.409   2.841   2.074
  787SOL    HW2 2461   0.297   2.723   2.081
  788SOL     OW 2462   1.431   2.600   2.608
  788SOL    HW1 2463   1.423   2.527   2.675
  788SOL    HW2 2464   1.519   2.646   2.619
  789SOL     OW 2465   0.464   3.120   3.593
  789SOL    HW1 2466   0.437   3.129   3.498
  789SOL    HW2 2467   0.384   3.128   3.652
  790SOL     OW 2468   1.120   3.638   2.092
  790SOL    HW1 2469   1.045   3.596   2.144
  790SOL    HW2 2470   1.145   3.578   2.016
  791SOL     OW 2471   0.197   2.143   3.351
  791SOL    HW1 2472   0.128   2.214   3.349
  791SOL    HW2 2473   0.185   2.086   3.432
  792SOL     OW 2474   1.635   3.272   1.950
  792SOL    HW1 2475   1.582   3.355   1.933
  792SOL    HW2 2476   1.576   3.192   1.942
  793SOL     OW 2477   0.469   3.604   2.176
  793SOL    HW1 2478   0.506   3.661   2.250
  793SOL    HW2 2479   0.545   3.570   2.120
  794SOL     OW 2480   1.399   1.969   2.285
  794SOL    HW1 2481   1.375   1.948   2.190
  794SOL    HW2 2482   1.499   1.966   2.295
  795SOL     OW 2483   0.260   3.657   3.094
  795SOL    HW1 2484   0.309   3.582   3.139
  795SOL    HW2 2485   0.224   3.624   3.006
  796SOL     OW 2486   0.937   3.561   2.762
  796SOL    HW1 2487   1.019   3.510   2.788
  796SOL    HW2 2488   0.889   3.512   2.689
  797SOL     OW 2489   0.392   2.554   2.338
  797SOL    HW1 2490   0.422   2.459   2.346
  797SOL    HW2 2491   0.295   2.561   2.365
  798SOL     OW 2492   1.538   2.087   3.591
  798SOL    HW1 2493   1.545   2.110   3.688
  798SOL    HW2 2494   1.467   2.018   3.578
  799SOL     OW 2495   0.627   1.986   1.968
  799SOL    HW1 2496   0.709   1.931   1.986
  799SOL    HW2 2497   0.581   1.951   1.886
  800SOL     OW 2498   0.768   2.136   3.615
  800SOL    HW1 2499   0.845   2.072   3.619
  800SOL    HW2 2500   0.714   2.127   3.699
  801SOL     OW 2501   0.877   3.379   3.054
  801SOL    HW1 2502   0.859   3.346   2.962
  801SOL    HW2 2503   0.949   3.324   3.096
  802SOL     OW 2504   1.343   2.451   3.296
  802SOL    HW1 2505   1.373   2.415   3.384
  802SOL    HW2 2506   1.378   2.544   3.284
  803SOL     OW 2507   0.814   3.259   2.796
  803SOL    HW1 2508   0.904   3.249   2.752
  803SOL    HW2 2509   0.743   3.257   2.726
  804SOL     OW 2510   0.926   2.370   2.765
  804SOL    HW1 2511   0.901   2.363   2.668
  804SOL    HW2 2512   0.961   2.282   2.796
  805SOL     OW 2513   0.547   1.924   2.364
  805SOL    HW1 2514   0.464   1.921   2.420
  805SOL    HW2 2515   0.546   2.006   2.307
  806SOL     OW 2516   1.411   3.068   1.902
  806SOL    HW1 2517   1.441   2.992   1.960
  806SOL    HW2 2518   1.322   3.102   1.935
  807SOL     OW 2519   0.296   1.907   2.041
  807SOL    HW1 2520   0.353   1.982   2.007
  807SOL    HW2 2521   0.353   1.839   2.086
  808SOL     OW 2522   0.939   2.106   2.327
  808SOL    HW1 2523   0.902   2.151   2.245
  808SOL    HW2 2524   1.038   2.117   2.329
  809SOL     OW 2525   1.080   2.541   3.322
  809SOL    HW1 2526   1.003   2.478   3.327
  809SOL    HW2 2527   1.165   2.488   3.314
  810SOL     OW 2528   1.224   3.430   2.656
  810SOL    HW1 2529   1.242   3.500   2.587
  810SOL    HW2 2530   1.295   3.434   2.726
  811SOL     OW 2531   0.464   3.008   2.599
  811SOL    HW1 2532   0.391   2.990   2.666
  811SOL    HW2 2533   0.429   2.994   2.507
  812SOL     OW 2534   1.270   3.656   2.466
  812SOL    HW1 2535   1.318   3.718   2.403
  812SOL    HW2 2536   1.202   3.707   2.518
  813SOL     OW 2537   1.023   2.407   1.883
  813SOL    HW1 2538   0.979   2.493   1.858
  813SOL    HW2 2539   1.092   2.424   1.953
  814SOL     OW 2540   0.081   2.396   3.267
  814SOL    HW1 2541   0.154   2.392   3.199
  814SOL    HW2 2542   0.068   2.491   3.296
  815SOL     OW 2543   0.562   2.087   3.028
  815SOL    HW1 2544   0.608   2.003   3.057
  815SOL    HW2 2545   0.466   2.083   3.055
  816SOL     OW 2546   0.869   2.321   2.501
  816SOL    HW1 2547   0.820   2.382   2.438
  816SOL    HW2 2548   0.892   2.236   2.455
  817SOL     OW 2549   1.013   1.914   2.615
  817SOL    HW1 2550   0.954   1.910   2.534
  817SOL    HW2 2551   0.994   1.836   2.674
  818SOL     OW 2552   1.421   3.029   2.721
  818SOL    HW1 2553   1.357   2.953   2.735
  818SOL    HW2 2554   1.430   3.046   2.623
  819SOL     OW 2555   1.462   2.458   2.849
  819SOL    HW1 2556   1.412   2.372   2.853
  819SOL    HW2 2557   1.532   2.459   2.921
  820SOL     OW 2558   1.843   2.677   2.246
  820SOL    HW1 2559   1.885   2.615   2.311
  820SOL    HW2 2560   1.824   2.628   2.161
  821SOL     OW 2561   0.491   3.274   2.025
  821SOL    HW1 2562   0.411   3.245   2.077
  821SOL    HW2 2563   0.475   3.260   1.928
  822SOL     OW 2564   1.390   2.431   1.937
  822SOL    HW1 2565   1.324   2.413   2.009
  822SOL    HW2 2566   1.482   2.410   1.969
  823SOL     OW 2567   0.527   2.124   2.181
  823SOL    HW1 2568   0.568   2.068   2.108
  823SOL    HW2 2569   0.508   2.216   2.145
  824SOL     OW 2570   1.755   3.097   3.436
  824SOL    HW1 2571   1.846   3.055   3.429
  824SOL    HW2 2572   1.764   3.190   3.470
  825SOL     OW 2573   1.060   3.213   3.198
  825SOL    HW1 2574   0.979   3.183   3.250
  825SOL    HW2 2575   1.142   3.173   3.240
  826SOL     OW 2576   1.608   3.489   3.512
  826SOL    HW1 2577   1.601   3.524   3.419
  826SOL    HW2 2578   1.694   3.439   3.523
  827SOL     OW 2579   1.126   3.068   2.970
  827SOL    HW1 2580   1.069   3.105   3.043
  827SOL    HW2 2581   1.090   3.097   2.881
  828SOL     OW 2582   1.642   2.965   2.940
  828SOL    HW1 2583   1.633   3.030   3.016
  828SOL    HW2 2584   1.562   2.972   2.881
  829SOL     OW 2585   0.919   1.962   3.259
  829SOL    HW1 2586   0.940   1.937   3.165
  829SOL    HW2 2587   1.000   2.004   3.302
  830SOL     OW 2588   0.981   2.975   3.583
  830SOL    HW1 2589   0.885   2.994   3.605
  830SOL    HW2 2590   0.986   2.894   3.525
  831SOL     OW 2591   0.709   2.919   2.235
  831SOL    HW1 2592   0.694   2.907   2.333
  831SOL    HW2 2593   0.789   2.866   2.208
  832SOL     OW 2594   0.430   2.684   3.102
  832SOL    HW1 2595   0.503   2.698   3.169
  832SOL    HW2 2596   0.365   2.618   3.137
  833SOL     OW 2597   1.265   2.243   3.136
  833SOL    HW1 2598   1.302   2.321   3.186
  833SOL    HW2 2599   1.171   2.262   3.108
  834SOL     OW 2600   0.063   3.437   3.200
  834SOL    HW1 2601   0.029   3.527   3.173
  834SOL    HW2 2602   0.162   3.440   3.207
  835SOL     OW 2603   0.353   2.970   2.354
  835SOL    HW1 2604   0.359   3.049   2.295
  835SOL    HW2 2605   0.354   2.886   2.299
  836SOL     OW 2606   0.561   2.403   2.721
  836SOL    HW1 2607   0.575   2.463   2.642
  836SOL    HW2 2608   0.623   2.430   2.795
  837SOL     OW 2609   1.246   3.212   2.256
  837SOL    HW1 2610   1.307   3.286   2.284
  837SOL    HW2 2611   1.153   3.232   2.286
  838SOL     OW 2612   1.276   3.319   3.008
  838SOL    HW1 2613   1.336   3.324   3.089
  838SOL    HW2 2614   1.221   3.236   3.012
  839SOL     OW 2615   1.575   2.492   2.308
  839SOL    HW1 2616   1.515   2.521   2.383
  839SOL    HW2 2617   1.613   2.573   2.263
  840SOL     OW 2618   0.351   3.389   3.179
  840SOL    HW1 2619   0.330   3.342   3.094
  840SOL    HW2 2620   0.450   3.403   3.187
  841SOL     OW 2621   0.471   2.620   3.519
  841SOL    HW1 2622   0.505   2.665   3.437
  841SOL    HW2 2623   0.505   2.526   3.522
  842SOL     OW 2624   1.599   2.643   3.541
  842SOL    HW1 2625   1.507   2.682   3.538
  842SOL    HW2 2626   1.656   2.684   3.469
  843SOL     OW 2627   0.997   1.981   3.616
  843SOL    HW1 2628   1.049   2.062   3.588
  843SOL    HW2 2629   1.047   1.899   3.589
  844SOL     OW 2630   0.495   1.906   3.607
  844SOL    HW1 2631   0.458   1.845   3.538
  844SOL    HW2 2632   0.433   1.983   3.621
  845SOL     OW 2633   0.588   2.734   2.888
  845SOL    HW1 2634   0.620   2.828   2.883
  845SOL    HW2 2635   0.527   2.723   2.967
  846SOL     OW 2636   1.362   2.721   2.895
  846SOL    HW1 2637   1.275   2.718   2.845
  846SOL    HW2 2638   1.403   2.630   2.894
  847SOL     OW 2639   1.204   2.390   2.132
  847SOL    HW1 2640   1.215   2.306   2.186
  847SOL    HW2 2641   1.163   2.461   2.188
  848SOL     OW 2642   0.303   2.055   3.102
  848SOL    HW1 2643   0.266   2.096   3.186
  848SOL    HW2 2644   0.286   1.957   3.103
  849SOL     OW 2645   0.050   3.174   3.148
  849SOL    HW1 2646   0.082   3.121   3.226
  849SOL    HW2 2647   0.050   3.272   3.171
  850SOL     OW 2648   0.728   2.495   2.923
  850SOL    HW1 2649   0.802   2.470   2.860
  850SOL    HW2 2650   0.695   2.586   2.900
  851SOL     OW 2651   1.731   2.820   3.712
  851SOL    HW1 2652   1.685   2.762   3.646
  851SOL    HW2 2653   1.673   2.835   3.791
  852SOL     OW 2654   0.307   1.931   2.484
  852SOL    HW1 2655   0.286   2.026   2.510
  852SOL    HW2 2656   0.306   1.873   2.566
  853SOL     OW 2657   1.616   2.229   2.237
  853SOL    HW1 2658   1.623   2.170   2.318
  853SOL    HW2 2659   1.590   2.322   2.266
  854SOL     OW 2660   1.024   2.619   2.824
  854SOL    HW1 2661   1.027   2.642   2.922
  854SOL    HW2 2662   0.996   2.524   2.813
  855SOL     OW 2663   0.982   3.426   3.574
  855SOL    HW1 2664   0.966   3.474   3.488
  855SOL    HW2 2665   1.030   3.340   3.555
  856SOL     OW 2666   1.858   3.373   3.468
  856SOL    HW1 2667   1.872   3.397   3.372
  856SOL    HW2 2668   1.942   3.391   3.520
  857SOL     OW 2669   0.348   2.790   3.680
  857SOL    HW1 2670   0.422   2.823   3.738
  857SOL    HW2 2671   0.385   2.722   3.616
  858SOL     OW 2672   1.294   2.688   1.896
  858SOL    HW1 2673   1.336   2.597   1.901
  858SOL    HW2 2674   1.324   2.733   1.812
  859SOL     OW 2675   1.065   3.197   2.713
  859SOL    HW1 2676   1.066   3.119   2.651
  859SOL    HW2 2677   1.129   3.266   2.681
  860SOL     OW 2678   0.319   2.673   2.810
  860SOL    HW1 2679   0.416   2.695   2.806
  860SOL    HW2 2680   0.308   2.578   2.841
  861SOL     OW 2681   0.333   2.383   2.856
  861SOL    HW1 2682   0.291   2.294   2.843
  861SOL    HW2 2683   0.415   2.390   2.799
  862SOL     OW 2684   1.135   2.240   3.545
  862SOL    HW1 2685   1.084   2.297   3.610
  862SOL    HW2 2686   1.228   2.274   3.537
  863SOL     OW 2687   1.161   2.069   3.334
  863SOL    HW1 2688   1.149   2.132   3.411
  863SOL    HW2 2689   1.198   2.119   3.256
  864SOL     OW 2690   4.490   3.183   2.064
  864SOL    HW1 2691   4.394   3.202   2.045
  864SOL    HW2 2692   0.001   3.087   2.089
  865SOL     OW 2693   0.097   3.642   2.802
  865SOL    HW1 2694   0.052   3.580   2.738
  865SOL    HW2 2695   0.189   3.664   2.769
  866SOL     OW 2696   0.499   3.436   2.769
  866SOL    HW1 2697   0.568   3.503   2.794
  866SOL    HW2 2698   0.541   3.366   2.710
  867SOL     OW 2699   0.988   2.659   3.091
  867SOL    HW1 2700   1.043   2.631   3.170
  867SOL    HW2 2701   0.896   2.621   3.099
  868SOL     OW 2702   0.035   2.422   2.969
  868SOL    HW1 2703   0.120   2.385   2.931
  868SOL    HW2 2704   0.024   2.390   3.063
  869SOL     OW 2705   0.180   2.377   3.576
  869SOL    HW1 2706   0.260   2.343   3.527
  869SOL    HW2 2707   0.149   2.463   3.535
  870SOL     OW 2708   1.376   2.803   3.520
  870SOL    HW1 2709   1.397   2.901   3.525
  870SOL    HW2 2710   1.375   2.774   3.424
  871SOL     OW 2711   0.816   2.432   2.214
  871SOL    HW1 2712   0.823   2.352   2.155
  871SOL    HW2 2713   0.738   2.488   2.186
  872SOL     OW 2714   1.646   2.465   3.051
  872SOL    HW1 2715   1.627   2.404   3.128
  872SOL    HW2 2716   1.735   2.443   3.012
  873SOL     OW 2717   0.274   3.423   3.605
  873SOL    HW1 2718   0.220   3.485   3.662
  873SOL    HW2 2719   0.251   3.328   3.629
  874SOL     OW 2720   0.684   2.320   3.125
  874SOL    HW1 2721   0.642   2.235   3.093
  874SOL    HW2 2722   0.693   2.384   3.049
  875SOL     OW 2723   0.928   3.542   3.328
  875SOL    HW1 2724   0.900   3.505   3.240
  875SOL    HW2 2725   0.932   3.642   3.323
  876SOL     OW 2726   0.472   2.356   2.053
  876SOL    HW1 2727   0.536   2.429   2.073
  876SOL    HW2 2728   0.381   2.394   2.036
  877SOL     OW 2729   0.161   3.000   3.325
  877SOL    HW1 2730   0.148   2.955   3.413
  877SOL    HW2 2731   0.173   2.931   3.254
  878SOL     OW 2732   1.325   2.911   3.086
  878SOL    HW1 2733   1.356   2.844   3.018
  878SOL    HW2 2734   1.250   2.965   3.048
  879SOL     OW 2735   1.300   2.699   2.173
  879SOL    HW1 2736   1.216   2.680   2.222
  879SOL    HW2 2737   1.283   2.696   2.074
  880SOL     OW 2738   1.770   3.604   3.012
  880SOL    HW1 2739   1.831   3.638   2.940
  880SOL    HW2 2740   1.742   3.510   2.991
  881SOL     OW 2741   1.244   3.596   2.978
  881SOL    HW1 2742   1.327   3.618   2.929
  881SOL    HW2 2743   1.242   3.498   2.999
  882SOL     OW 2744   0.068   3.053   2.911
  882SOL    HW1 2745   0.075   3.087   3.005
  882SOL    HW2 2746   0.011   3.115   2.857
  883SOL     OW 2747   0.680   3.527   3.586
  883SOL    HW1 2748   0.623   3.609   3.587
  883SOL    HW2 2749   0.746   3.534   3.511
  884SOL     OW 2750   1.392   3.430   2.343
  884SOL    HW1 2751   1.457   3.460   2.273
  884SOL    HW2 2752   1.341   3.509   2.377
  885SOL     OW 2753   0.126   3.663   3.710
  885SOL    HW1 2754   0.078   3.588   3.756
  885SOL    HW2 2755   0.190   3.706   3.773
  886SOL     OW 2756   1.267   2.795   2.525
  886SOL    HW1 2757   1.335   2.725   2.547
  886SOL    HW2 2758   1.311   2.868   2.473
  887SOL     OW 2759   0.817   3.136   3.294
  887SOL    HW1 2760   0.791   3.176   3.382
  887SOL    HW2 2761   0.746   3.154   3.226
  888SOL     OW 2762   0.672   3.476   2.016
  888SOL    HW1 2763   0.685   3.491   1.918
  888SOL    HW2 2764   0.616   3.395   2.031
  889SOL     OW 2765   1.630   3.591   3.252
  889SOL    HW1 2766   1.681   3.594   3.166
  889SOL    HW2 2767   1.616   3.683   3.286
  890SOL     OW 2768   1.839   2.033   2.837
  890SOL    HW1 2769   1.868   1.941   2.813
  890SOL    HW2 2770   1.745   2.048   2.807
  891SOL     OW 2771   0.266   2.182   2.581
  891SOL    HW1 2772   0.180   2.223   2.548
  891SOL    HW2 2773   0.260   2.168   2.680
  892SOL     OW 2774   1.205   3.469   1.893
  892SOL    HW1 2775   1.198   3.375   1.927
  892SOL    HW2 2776   1.139   3.482   1.819
  893SOL     OW 2777   0.825   2.871   3.236
  893SOL    HW1 2778   0.871   2.859   3.148
  893SOL    HW2 2779   0.826   2.968   3.261
  894SOL     OW 2780   0.918   2.773   2.149
  894SOL    HW1 2781   0.981   2.807   2.079
  894SOL    HW2 2782   0.961   2.698   2.199
  895SOL     OW 2783   1.488   3.500   1.900
  895SOL    HW1 2784   1.389   3.489   1.894
  895SOL    HW2 2785   1.527   3.502   1.808
  896SOL     OW 2786   0.370   3.166   3.351
  896SOL    HW1 2787   0.359   3.249   3.297
  896SOL    HW2 2788   0.292   3.106   3.336
  897SOL     OW 2789   1.616   3.146   3.145
  897SOL    HW1 2790   1.677   3.133   3.222
  897SOL    HW2 2791   1.550   3.219   3.166
  898SOL     OW 2792   1.048   2.966   2.569
  898SOL    HW1 2793   0.973   2.916   2.613
  898SOL    HW2 2794   1.115   2.902   2.533
  899SOL     OW 2795   1.019   2.100   2.829
  899SOL    HW1 2796   1.013   2.055   2.740
  899SOL    HW2 2797   1.017   2.032   2.901
  900SOL     OW 2798   0.602   3.349   2.346
  900SOL    HW1 2799   0.645   3.296   2.273
  900SOL    HW2 2800   0.531   3.408   2.306
  901SOL     OW 2801   1.722   2.256   3.243
  901SOL    HW1 2802   1.794   2.326   3.242
  901SOL    HW2 2803   1.750   2.179   3.186
  902SOL     OW 2804   0.249   3.209   2.141
  902SOL    HW1 2805   0.151   3.206   2.120
  902SOL    HW2 2806   0.262   3.243   2.234
  903SOL     OW 2807   0.120   2.875   3.560
  903SOL    HW1 2808   0.047   2.907   3.619
  903SOL    HW2 2809   0.201   2.854   3.615
  904SOL     OW 2810   0.676   2.061   3.360
  904SOL    HW1 2811   0.762   2.039   3.313
  904SOL    HW2 2812   0.697   2.087   3.455
  905SOL     OW 2813   0.073   2.190   1.894
  905SOL    HW1 2814   4.474   2.192   1.893
  905SOL    HW2 2815   0.109   2.274   1.855
  906SOL     OW 2816   1.430   2.720   3.262
  906SOL    HW1 2817   1.376   2.782   3.205
  906SOL    HW2 2818   1.525   2.722   3.231
  907SOL     OW 2819   0.086   2.038   2.167
  907SOL    HW1 2820   0.074   2.115   2.104
  907SOL    HW2 2821   0.166   1.984   2.140
  908SOL     OW 2822   1.179   3.207   1.982
  908SOL    HW1 2823   1.084   3.176   1.977
  908SOL    HW2 2824   1.209   3.203   2.078
  909SOL     OW 2825   0.623   2.693   3.290
  909SOL    HW1 2826   0.677   2.776   3.277
  909SOL    HW2 2827   0.683   2.615   3.301
  910SOL     OW 2828   1.486   3.641   2.841
  910SOL    HW1 2829   1.510   3.694   2.760
  910SOL    HW2 2830   1.569   3.616   2.892
  911SOL     OW 2831   0.717   2.424   3.568
  911SOL    HW1 2832   0.752   2.496   3.628
  911SOL    HW2 2833   0.756   2.336   3.596
  912SOL     OW 2834   1.467   3.067   3.499
  912SOL    HW1 2835   1.453   3.078   3.597
  912SOL    HW2 2836   1.565   3.077   3.477
  913SOL     OW 2837   0.381   3.604   3.426
  913SOL    HW1 2838   0.293   3.649   3.410
  913SOL    HW2 2839   0.366   3.517   3.474
  914SOL     OW 2840   1.672   2.744   3.117
  914SOL    HW1 2841   1.663   2.653   3.076
  914SOL    HW2 2842   1.666   2.813   3.045
  915SOL     OW 2843   1.219   2.180   2.320
  915SOL    HW1 2844   1.285   2.106   2.304
  915SOL    HW2 2845   1.246   2.232   2.401
  916SOL     OW 2846   0.590   2.603   2.527
  916SOL    HW1 2847   0.632   2.692   2.513
  916SOL    HW2 2848   0.515   2.591   2.461
  917SOL     OW 2849   1.761   2.223   3.511
  917SOL    HW1 2850   1.747   2.238   3.413
  917SOL    HW2 2851   1.688   2.163   3.546
  918SOL     OW 2852   1.746   2.795   3.373
  918SOL    HW1 2853   1.746   2.893   3.393
  918SOL    HW2 2854   1.730   2.782   3.275
  919SOL     OW 2855   0.866   3.230   1.894
  919SOL    HW1 2856   0.820   3.253   1.980
  919SOL    HW2 2857   0.884   3.314   1.843
  920SOL     OW 2858   0.661   3.656   2.812
  920SOL    HW1 2859   0.634   3.749   2.784
  920SOL    HW2 2860   0.759   3.645   2.799
  921SOL     OW 2861   0.866   2.828   2.720
  921SOL    HW1 2862   0.918   2.752   2.759
  921SOL    HW2 2863   0.829   2.884   2.794
  922SOL     OW 2864   1.080   2.850   1.948
  922SOL    HW1 2865   1.053   2.903   1.868
  922SOL    HW2 2866   1.160   2.794   1.926
  923SOL     OW 2867   1.854   3.416   2.706
  923SOL    HW1 2868   1.774   3.407   2.647
  923SOL    HW2 2869   1.849   3.348   2.780
  924SOL     OW 2870   0.231   3.169   3.719
  924SOL    HW1 2871   0.165   3.101   3.685
  924SOL    HW2 2872   0.219   3.179   3.817
  925SOL     OW 2873   0.104   3.101   2.524
  925SOL    HW1 2874   0.101   3.054   2.613
  925SOL    HW2 2875   0.168   3.055   2.464
  926SOL     OW 2876   0.679   3.264   3.491
  926SOL    HW1 2877   0.598   3.213   3.519
  926SOL    HW2 2878   0.676   3.357   3.527
  927SOL     OW 2879   1.812   2.048   3.104
  927SOL    HW1 2880   1.820   1.951   3.129
  927SOL    HW2 2881   1.824   2.058   3.005
  928SOL     OW 2882   0.436   2.292   2.387
  928SOL    HW1 2883   0.463   2.218   2.325
  928SOL    HW2 2884   0.382   2.254   2.462
  929SOL     OW 2885   1.698   3.353   2.963
  929SOL    HW1 2886   1.615   3.328   2.913
  929SOL    HW2 2887   1.718   3.283   3.031
  930SOL     OW 2888   0.306   2.350   3.120
  930SOL    HW1 2889   0.382   2.313   3.174
  930SOL    HW2 2890   0.337   2.366   3.026
  931SOL     OW 2891   0.824   3.442   2.543
  931SOL    HW1 2892   0.825   3.486   2.453
  931SOL    HW2 2893   0.743   3.383   2.551
  932SOL     OW 2894   1.427   2.085   2.988
  932SOL    HW1 2895   1.454   1.999   3.032
  932SOL    HW2 2896   1.372   2.138   3.052
  933SOL     OW 2897   1.008   1.882   3.008
  933SOL    HW1 2898   0.946   1.815   2.967
  933SOL    HW2 2899   1.101   1.844   3.011
  934SOL     OW 2900   0.771   3.193   2.173
  934SOL    HW1 2901   0.735   3.100   2.179
  934SOL    HW2 2902   0.858   3.198   2.222
  935SOL     OW 2903   0.624   3.423   3.149
  935SOL    HW1 2904   0.623   3.508   3.201
  935SOL    HW2 2905   0.713   3.410   3.106
  936SOL     OW 2906   1.343   1.911   2.024
  936SOL    HW1 2907   1.386   1.847   1.960
  936SOL    HW2 2908   1.253   1.876   2.052
  937SOL     OW 2909   1.289   2.320   2.546
  937SOL    HW1 2910   1.237   2.405   2.551
  937SOL    HW2 2911   1.291   2.277   2.637
  938SOL     OW 2912   1.582   2.065   2.769
  938SOL    HW1 2913   1.517   2.072   2.845
  938SOL    HW2 2914   1.567   2.141   2.706
  939SOL     OW 2915   0.044   2.916   2.151
  939SOL    HW1 2916   0.142   2.904   2.140
  939SOL    HW2 2917   0.014   2.874   2.236
  940SOL     OW 2918   0.879   3.514   2.208
  940SOL    HW1 2919   0.808   3.491   2.141
  940SOL    HW2 2920   0.851   3.594   2.261
  941SOL     OW 2921   0.245   2.480   3.846
  941SOL    HW1 2922   0.164   2.478   3.905
  941SOL    HW2 2923   0.217   2.467   3.751
  942SOL     OW 2924   1.761   2.466   3.955
  942SOL    HW1 2925   1.745   2.461   3.857
  942SOL    HW2 2926   1.725   2.383   3.999
  943SOL     OW 2927   0.702   2.871   4.366
  943SOL    HW1 2928   0.764   2.847   4.441
  943SOL    HW2 2929   0.627   2.926   4.401
  944SOL     OW 2930   1.626   2.334   4.442
  944SOL    HW1 2931   1.543   2.330   4.386
  944SOL    HW2 2932   1.623   2.416   4.500
  945SOL     OW 2933   0.245   3.553   4.197
  945SOL    HW1 2934   0.221   3.636   4.247
  945SOL    HW2 2935   0.312   3.575   4.127
  946SOL     OW 2936   0.251   3.290   4.257
  946SOL    HW1 2937   0.246   3.390   4.257
  946SOL    HW2 2938   0.174   3.253   4.309
  947SOL     OW 2939   0.584   2.848   3.859
  947SOL    HW1 2940   0.629   2.896   3.783
  947SOL    HW2 2941   0.630   2.872   3.945
  948SOL     OW 2942   0.131   2.483   4.342
  948SOL    HW1 2943   0.080   2.449   4.263
  948SOL    HW2 2944   0.088   2.566   4.376
  949SOL     OW 2945   1.842   3.623   4.066
  949SOL    HW1 2946   1.908   3.589   4.133
  949SOL    HW2 2947   1.862   3.718   4.044
  950SOL     OW 2948   0.026   3.463   3.860
  950SOL    HW1 2949   0.019   3.363   3.862
  950SOL    HW2 2950   0.014   3.499   3.953
  951SOL     OW 2951   1.681   2.772   4.343
  951SOL    HW1 2952   1.778   2.747   4.345
  951SOL    HW2 2953   1.664   2.835   4.268
  952SOL     OW 2954   1.650   2.968   4.149
  952SOL    HW1 2955   1.737   2.972   4.100
  952SOL    HW2 2956   1.647   3.041   4.218
  953SOL     OW 2957   0.612   3.252   4.433
  953SOL    HW1 2958   0.579   3.159   4.450
  953SOL    HW2 2959   0.588   3.280   4.340
  954SOL     OW 2960   0.808   1.860   4.217
  954SOL    HW1 2961   0.860   1.945   4.216
  954SOL    HW2 2962   0.711   1.881   4.234
  955SOL     OW 2963   1.533   2.854   3.923
  955SOL    HW1 2964   1.460   2.791   3.949
  955SOL    HW2 2965   1.573   2.895   4.005
  956SOL     OW 2966   1.640   3.575   4.313
  956SOL    HW1 2967   1.620   3.554   4.217
  956SOL    HW2 2968   1.701   3.504   4.350
  957SOL     OW 2969   0.598   2.586   3.989
  957SOL    HW1 2970   0.607   2.666   3.930
  957SOL    HW2 2971   0.529   2.604   4.060
  958SOL     OW 2972   1.285   2.176   0.136
  958SOL    HW1 2973   1.186   2.170   0.144
  958SOL    HW2 2974   1.328   2.152   0.224
  959SOL     OW 2975   1.585   3.530   4.033
  959SOL    HW1 2976   1.677   3.568   4.033
  959SOL    HW2 2977   1.556   3.511   3.940
  960SOL     OW 2978   1.044   2.560   4.147
  960SOL    HW1 2979   1.059   2.557   4.246
  960SOL    HW2 2980   0.961   2.510   4.124
  961SOL     OW 2981   0.096   2.712   0.017
  961SOL    HW1 2982   0.160   2.642   0.048
  961SOL    HW2 2983   0.027   2.728   0.087
  962SOL     OW 2984   0.885   2.211   3.917
  962SOL    HW1 2985   0.931   2.275   3.857
  962SOL    HW2 2986   0.903   2.117   3.886
  963SOL     OW 2987   1.349   2.990   4.252
  963SOL    HW1 2988   1.445   2.977   4.227
  963SOL    HW2 2989   1.312   3.069   4.203
  964SOL     OW 2990   1.003   3.303   4.190
  964SOL    HW1 2991   0.964   3.380   4.140
  964SOL    HW2 2992   0.992   3.317   4.288
  965SOL     OW 2993   0.366   3.660   0.065
  965SOL    HW1 2994   0.357   3.571   0.109
  965SOL    HW2 2995   0.432   3.716   0.116
  966SOL     OW 2996   1.795   2.920   0.055
  966SOL    HW1 2997   1.722   2.893   4.493
  966SOL    HW2 2998   1.760   2.923   0.148
  967SOL     OW 2999   0.322   2.814   3.974
  967SOL    HW1 3000   0.410   2.842   3.934
  967SOL    HW2 3001   0.298   2.723   3.941
  968SOL     OW 3002   1.118   3.640   3.952
  968SOL    HW1 3003   1.047   3.597   4.007
  968SOL    HW2 3004   1.146   3.578   3.878
  969SOL     OW 3005   1.629   3.242   3.808
  969SOL    HW1 3006   1.588   3.332   3.796
  969SOL    HW2 3007   1.558   3.172   3.793
  970SOL     OW 3008   0.471   3.605   4.038
  970SOL    HW1 3009   0.508   3.661   4.112
  970SOL    HW2 3010   0.546   3.572   3.981
  971SOL     OW 3011   1.405   1.973   4.149
  971SOL    HW1 3012   1.392   1.943   4.055
  971SOL    HW2 3013   1.503   1.979   4.168
  972SOL     OW 3014   0.935   3.562   0.073
  972SOL    HW1 3015   0.973   3.494   0.136
  972SOL    HW2 3016   0.881   3.516   0.003
  973SOL     OW 3017   0.386   2.556   4.201
  973SOL    HW1 3018   0.418   2.461   4.204
  973SOL    HW2 3019   0.292   2.560   4.233
  974SOL     OW 3020   0.627   1.986   3.830
  974SOL    HW1 3021   0.709   1.932   3.849
  974SOL    HW2 3022   0.581   1.951   3.749
  975SOL     OW 3023   0.546   1.925   4.228
  975SOL    HW1 3024   0.462   1.923   4.281
  975SOL    HW2 3025   0.546   2.006   4.169
  976SOL     OW 3026   1.428   3.058   3.768
  976SOL    HW1 3027   1.463   2.980   3.820
  976SOL    HW2 3028   1.339   3.086   3.804
  977SOL     OW 3029   0.297   1.907   3.902
  977SOL    HW1 3030   0.354   1.982   3.869
  977SOL    HW2 3031   0.354   1.839   3.948
  978SOL     OW 3032   0.941   2.105   4.189
  978SOL    HW1 3033   0.902   2.148   4.107
  978SOL    HW2 3034   1.041   2.118   4.188
  979SOL     OW 3035   0.492   3.013   4.459
  979SOL    HW1 3036   0.415   3.007   0.022
  979SOL    HW2 3037   0.459   3.003   4.365
  980SOL     OW 3038   1.277   3.661   4.317
  980SOL    HW1 3039   1.323   3.724   4.254
  980SOL    HW2 3040   1.214   3.713   4.375
  981SOL     OW 3041   1.024   2.407   3.745
  981SOL    HW1 3042   0.980   2.493   3.720
  981SOL    HW2 3043   1.093   2.424   3.815
  982SOL     OW 3044   0.853   2.313   4.359
  982SOL    HW1 3045   0.807   2.375   4.295
  982SOL    HW2 3046   0.883   2.231   4.310
  983SOL     OW 3047   1.855   2.680   4.098
  983SOL    HW1 3048   1.913   2.629   4.161
  983SOL    HW2 3049   1.816   2.616   4.031
  984SOL     OW 3050   0.491   3.274   3.888
  984SOL    HW1 3051   0.410   3.245   3.940
  984SOL    HW2 3052   0.474   3.260   3.790
  985SOL     OW 3053   1.680   3.152   4.339
  985SOL    HW1 3054   1.777   3.146   4.363
  985SOL    HW2 3055   1.628   3.186   4.417
  986SOL     OW 3056   1.391   2.435   3.795
  986SOL    HW1 3057   1.329   2.415   3.871
  986SOL    HW2 3058   1.483   2.403   3.818
  987SOL     OW 3059   0.530   2.126   4.044
  987SOL    HW1 3060   0.569   2.068   3.972
  987SOL    HW2 3061   0.509   2.216   4.006
  988SOL     OW 3062   1.043   3.022   0.339
  988SOL    HW1 3063   1.066   3.090   0.410
  988SOL    HW2 3064   1.072   3.057   0.250
  989SOL     OW 3065   0.711   2.919   4.092
  989SOL    HW1 3066   0.698   2.907   4.191
  989SOL    HW2 3067   0.791   2.866   4.064
  990SOL     OW 3068   0.384   2.959   4.209
  990SOL    HW1 3069   0.367   3.047   4.166
  990SOL    HW2 3070   0.374   2.886   4.140
  991SOL     OW 3071   1.247   3.213   4.110
  991SOL    HW1 3072   1.308   3.286   4.141
  991SOL    HW2 3073   1.154   3.231   4.143
  992SOL     OW 3074   1.584   2.501   4.196
  992SOL    HW1 3075   1.556   2.571   4.262
  992SOL    HW2 3076   1.629   2.544   4.118
  993SOL     OW 3077   1.205   2.389   3.992
  993SOL    HW1 3078   1.215   2.306   4.047
  993SOL    HW2 3079   1.164   2.461   4.047
  994SOL     OW 3080   0.309   1.941   4.347
  994SOL    HW1 3081   0.249   2.017   4.372
  994SOL    HW2 3082   0.313   1.876   4.423
  995SOL     OW 3083   1.622   2.240   4.094
  995SOL    HW1 3084   1.643   2.165   4.157
  995SOL    HW2 3085   1.589   2.319   4.147
  996SOL     OW 3086   1.532   2.135   3.855
  996SOL    HW1 3087   1.463   2.066   3.877
  996SOL    HW2 3088   1.567   2.175   3.939
  997SOL     OW 3089   1.295   2.690   3.755
  997SOL    HW1 3090   1.336   2.599   3.763
  997SOL    HW2 3091   1.324   2.733   3.670
  998SOL     OW 3092   4.490   3.183   3.924
  998SOL    HW1 3093   4.394   3.202   3.906
  998SOL    HW2 3094   0.001   3.088   3.952
  999SOL     OW 3095   0.816   2.431   4.075
  999SOL    HW1 3096   0.822   2.351   4.016
  999SOL    HW2 3097   0.738   2.488   4.047
 1000SOL     OW 3098   0.473   2.355   3.915
 1000SOL    HW1 3099   0.536   2.430   3.935
 1000SOL    HW2 3100   0.381   2.392   3.899
 1001SOL     OW 3101   1.310   2.708   4.026
 1001SOL    HW1 3102   1.227   2.697   4.081
 1001SOL    HW2 3103   1.287   2.702   3.929
 1002SOL     OW 3104   1.700   1.995   4.224
 1002SOL    HW1 3105   1.790   1.997   4.180
 1002SOL    HW2 3106   1.690   1.909   4.276
 1003SOL     OW 3107   1.379   3.433   4.192
 1003SOL    HW1 3108   1.455   3.462   4.132
 1003SOL    HW2 3109   1.342   3.514   4.238
 1004SOL     OW 3110   0.672   3.476   3.878
 1004SOL    HW1 3111   0.685   3.491   3.780
 1004SOL    HW2 3112   0.616   3.394   3.892
 1005SOL     OW 3113   1.829   1.997   0.214
 1005SOL    HW1 3114   1.875   1.963   0.133
 1005SOL    HW2 3115   1.741   2.038   0.188
 1006SOL     OW 3116   1.205   3.469   3.755
 1006SOL    HW1 3117   1.199   3.375   3.790
 1006SOL    HW2 3118   1.139   3.482   3.682
 1007SOL     OW 3119   0.918   2.772   4.009
 1007SOL    HW1 3120   0.981   2.807   3.940
 1007SOL    HW2 3121   0.962   2.698   4.060
 1008SOL     OW 3122   1.494   3.488   3.765
 1008SOL    HW1 3123   1.395   3.482   3.759
 1008SOL    HW2 3124   1.533   3.493   3.673
 1009SOL     OW 3125   0.594   3.353   4.189
 1009SOL    HW1 3126   0.640   3.300   4.118
 1009SOL    HW2 3127   0.525   3.412   4.147
 1010SOL     OW 3128   0.248   3.208   4.005
 1010SOL    HW1 3129   0.150   3.208   3.985
 1010SOL    HW2 3130   0.263   3.243   4.098
 1011SOL     OW 3131   0.074   2.196   3.764
 1011SOL    HW1 3132   4.475   2.190   3.751
 1011SOL    HW2 3133   0.109   2.275   3.713
 1012SOL     OW 3134   0.086   2.039   4.025
 1012SOL    HW1 3135   0.077   2.115   3.961
 1012SOL    HW2 3136   0.167   1.984   4.001
 1013SOL     OW 3137   1.182   3.205   3.842
 1013SOL    HW1 3138   1.087   3.175   3.838
 1013SOL    HW2 3139   1.214   3.205   3.936
 1014SOL     OW 3140   1.219   2.176   4.176
 1014SOL    HW1 3141   1.285   2.103   4.161
 1014SOL    HW2 3142   1.245   2.229   4.256
 1015SOL     OW 3143   0.602   2.609   4.370
 1015SOL    HW1 3144   0.636   2.702   4.361
 1015SOL    HW2 3145   0.517   2.599   4.317
 1016SOL     OW 3146   0.864   3.230   3.755
 1016SOL    HW1 3147   0.821   3.253   3.842
 1016SOL    HW2 3148   0.884   3.314   3.705
 1017SOL     OW 3149   0.655   3.728   0.171
 1017SOL    HW1 3150   0.666   3.803   0.105
 1017SOL    HW2 3151   0.739   3.674   0.174
 1018SOL     OW 3152   1.079   2.850   3.809
 1018SOL    HW1 3153   1.053   2.904   3.729
 1018SOL    HW2 3154   1.159   2.794   3.787
 1019SOL     OW 3155   0.065   3.123   4.363
 1019SOL    HW1 3156   0.042   3.134   4.460
 1019SOL    HW2 3157   0.139   3.056   4.354
 1020SOL     OW 3158   0.418   2.288   4.241
 1020SOL    HW1 3159   0.459   2.219   4.181
 1020SOL    HW2 3160   0.418   2.254   4.335
 1021SOL     OW 3161   0.813   3.426   4.382
 1021SOL    HW1 3162   0.807   3.475   4.295
 1021SOL    HW2 3163   0.733   3.367   4.392
 1022SOL     OW 3164   0.771   3.193   4.033
 1022SOL    HW1 3165   0.737   3.099   4.040
 1022SOL    HW2 3166   0.858   3.201   4.082
 1023SOL     OW 3167   1.350   1.915   3.887
 1023SOL    HW1 3168   1.386   1.855   3.815
 1023SOL    HW2 3169   1.260   1.882   3.916
 1024SOL     OW 3170   1.292   2.307   4.399
 1024SOL    HW1 3171   1.222   2.376   4.419
 1024SOL    HW2 3172   1.306   2.249   4.479
 1025SOL     OW 3173   0.042   2.915   4.011
 1025SOL    HW1 3174   0.141   2.906   4.003
 1025SOL    HW2 3175   0.013   2.880   4.100
 1026SOL     OW 3176   0.878   3.511   4.069
 1026SOL    HW1 3177   0.807   3.490   4.002
 1026SOL    HW2 3178   0.852   3.593   4.120
 1027SOL     OW 3179   0.236   4.298   0.105
 1027SOL    HW1 3180   0.160   4.315   0.168
 1027SOL    HW2 3181   0.204   4.308   0.010
 1028SOL     OW 3182   0.211   3.998   0.993
 1028SOL    HW1 3183   0.249   3.970   1.081
 1028SOL    HW2 3184   0.131   3.941   0.971
 1029SOL     OW 3185   0.003   4.096   0.628
 1029SOL    HW1 3186   4.425   4.131   0.679
 1029SOL    HW2 3187   4.481   4.007   0.589
 1030SOL     OW 3188   1.739   4.330   0.223
 1030SOL    HW1 3189   1.784   4.297   0.140
 1030SOL    HW2 3190   1.726   4.254   0.286
 1031SOL     OW 3191   0.728   0.269   0.685
 1031SOL    HW1 3192   0.725   0.199   0.757
 1031SOL    HW2 3193   0.635   0.289   0.655
 1032SOL     OW 3194   0.443   4.119   1.487
 1032SOL    HW1 3195   0.528   4.066   1.491
 1032SOL    HW2 3196   0.365   4.057   1.498
 1033SOL     OW 3197   1.617   4.174   0.741
 1033SOL    HW1 3198   1.540   4.197   0.681
 1033SOL    HW2 3199   1.627   4.245   0.810
 1034SOL     OW 3200   1.597   3.844   1.473
 1034SOL    HW1 3201   1.591   3.922   1.410
 1034SOL    HW2 3202   1.588   3.877   1.567
 1035SOL     OW 3203   0.162   4.324   0.634
 1035SOL    HW1 3204   0.107   4.246   0.604
 1035SOL    HW2 3205   0.115   4.409   0.610
 1036SOL     OW 3206   0.117   4.496   1.590
 1036SOL    HW1 3207   0.215   4.479   1.594
 1036SOL    HW2 3208   0.100   0.083   1.543
 1037SOL     OW 3209   0.813   3.728   0.507
 1037SOL    HW1 3210   0.856   3.817   0.490
 1037SOL    HW2 3211   0.714   3.740   0.517
 1038SOL     OW 3212   0.329   3.977   1.803
 1038SOL    HW1 3213   0.383   4.059   1.824
 1038SOL    HW2 3214   0.236   3.990   1.836
 1039SOL     OW 3215   1.278   4.068   0.932
 1039SOL    HW1 3216   1.184   4.035   0.939
 1039SOL    HW2 3217   1.335   4.018   0.997
 1040SOL     OW 3218   0.821   4.308   1.451
 1040SOL    HW1 3219   0.782   4.314   1.542
 1040SOL    HW2 3220   0.756   4.265   1.388
 1041SOL     OW 3221   1.396   4.196   1.677
 1041SOL    HW1 3222   1.391   4.243   1.765
 1041SOL    HW2 3223   1.459   4.119   1.683
 1042SOL     OW 3224   0.996   4.144   1.232
 1042SOL    HW1 3225   0.923   4.169   1.296
 1042SOL    HW2 3226   0.960   4.083   1.162
 1043SOL     OW 3227   1.052   4.414   0.432
 1043SOL    HW1 3228   1.056   4.457   0.522
 1043SOL    HW2 3229   0.959   4.384   0.412
 1044SOL     OW 3230   0.056   0.055   0.846
 1044SOL    HW1 3231   0.151   0.024   0.850
 1044SOL    HW2 3232   0.043   0.115   0.767
 1045SOL     OW 3233   0.881   4.081   0.196
 1045SOL    HW1 3234   0.900   4.134   0.114
 1045SOL    HW2 3235   0.891   3.983   0.176
 1046SOL     OW 3236   1.706   4.298   1.828
 1046SOL    HW1 3237   1.715   4.393   1.796
 1046SOL    HW2 3238   1.729   4.236   1.753
 1047SOL     OW 3239   0.549   3.906   0.895
 1047SOL    HW1 3240   0.552   3.933   0.991
 1047SOL    HW2 3241   0.547   3.988   0.837
 1048SOL     OW 3242   1.486   4.463   0.736
 1048SOL    HW1 3243   1.465   4.403   0.813
 1048SOL    HW2 3244   1.529   0.047   0.770
 1049SOL     OW 3245   0.193   4.003   1.487
 1049SOL    HW1 3246   0.131   4.081   1.489
 1049SOL    HW2 3247   0.184   3.951   1.573
 1050SOL     OW 3248   1.403   3.832   0.427
 1050SOL    HW1 3249   1.393   3.799   0.334
 1050SOL    HW2 3250   1.500   3.841   0.450
 1051SOL     OW 3251   0.348   4.379   0.412
 1051SOL    HW1 3252   0.402   4.303   0.449
 1051SOL    HW2 3253   0.289   4.416   0.484
 1052SOL     OW 3254   1.537   3.949   1.728
 1052SOL    HW1 3255   1.545   3.972   1.825
 1052SOL    HW2 3256   1.466   3.879   1.716
 1053SOL     OW 3257   0.769   4.000   1.755
 1053SOL    HW1 3258   0.845   3.936   1.756
 1053SOL    HW2 3259   0.711   3.985   1.835
 1054SOL     OW 3260   1.347   4.310   1.430
 1054SOL    HW1 3261   1.369   4.270   1.519
 1054SOL    HW2 3262   1.382   4.404   1.426
 1055SOL     OW 3263   0.921   4.235   0.897
 1055SOL    HW1 3264   0.897   4.221   0.801
 1055SOL    HW2 3265   0.962   4.152   0.933
 1056SOL     OW 3266   0.548   3.788   0.510
 1056SOL    HW1 3267   0.463   3.785   0.563
 1056SOL    HW2 3268   0.547   3.869   0.450
 1057SOL     OW 3269   0.939   3.970   0.464
 1057SOL    HW1 3270   0.902   4.012   0.381
 1057SOL    HW2 3271   1.038   3.982   0.466
 1058SOL     OW 3272   1.077   4.393   1.512
 1058SOL    HW1 3273   0.988   4.364   1.477
 1058SOL    HW2 3274   1.150   4.351   1.458
 1059SOL     OW 3275   1.082   4.315   0.015
 1059SOL    HW1 3276   0.983   4.325   4.500
 1059SOL    HW2 3277   1.099   4.302   0.113
 1060SOL     OW 3278   0.087   4.260   1.407
 1060SOL    HW1 3279   0.165   4.269   1.345
 1060SOL    HW2 3280   0.055   4.351   1.434
 1061SOL     OW 3281   0.562   3.949   1.166
 1061SOL    HW1 3282   0.606   3.864   1.195
 1061SOL    HW2 3283   0.466   3.948   1.194
 1062SOL     OW 3284   0.870   4.189   0.636
 1062SOL    HW1 3285   0.832   4.255   0.572
 1062SOL    HW2 3286   0.888   4.103   0.589
 1063SOL     OW 3287   1.014   3.774   0.750
 1063SOL    HW1 3288   0.952   3.772   0.672
 1063SOL    HW2 3289   0.994   3.698   0.811
 1064SOL     OW 3290   1.477   4.311   0.971
 1064SOL    HW1 3291   1.416   4.233   0.985
 1064SOL    HW2 3292   1.533   4.325   1.053
 1065SOL     OW 3293   1.431   4.304   0.113
 1065SOL    HW1 3294   1.347   4.296   0.167
 1065SOL    HW2 3295   1.467   4.213   0.094
 1066SOL     OW 3296   0.526   3.987   0.325
 1066SOL    HW1 3297   0.565   3.923   0.259
 1066SOL    HW2 3298   0.512   4.076   0.280
 1067SOL     OW 3299   0.919   3.824   1.397
 1067SOL    HW1 3300   0.941   3.799   1.303
 1067SOL    HW2 3301   1.000   3.866   1.440
 1068SOL     OW 3302   0.437   0.001   1.255
 1068SOL    HW1 3303   0.496   0.014   1.335
 1068SOL    HW2 3304   0.395   4.410   1.260
 1069SOL     OW 3305   1.266   4.102   1.272
 1069SOL    HW1 3306   1.303   4.180   1.322
 1069SOL    HW2 3307   1.172   4.123   1.244
 1070SOL     OW 3308   0.557   4.261   0.867
 1070SOL    HW1 3309   0.575   4.303   0.778
 1070SOL    HW2 3310   0.625   4.292   0.933
 1071SOL     OW 3311   1.585   4.347   0.480
 1071SOL    HW1 3312   1.531   4.406   0.540
 1071SOL    HW2 3313   1.620   4.400   0.403
 1072SOL     OW 3314   0.997   3.843   1.754
 1072SOL    HW1 3315   1.049   3.924   1.727
 1072SOL    HW2 3316   1.047   3.761   1.728
 1073SOL     OW 3317   0.495   3.768   1.745
 1073SOL    HW1 3318   0.457   3.707   1.676
 1073SOL    HW2 3319   0.433   3.845   1.760
 1074SOL     OW 3320   1.208   4.277   0.276
 1074SOL    HW1 3321   1.224   4.189   0.321
 1074SOL    HW2 3322   1.154   4.336   0.337
 1075SOL     OW 3323   0.301   3.924   1.243
 1075SOL    HW1 3324   0.263   3.958   1.329
 1075SOL    HW2 3325   0.287   3.825   1.238
 1076SOL     OW 3326   0.737   4.359   1.051
 1076SOL    HW1 3327   0.809   4.320   0.994
 1076SOL    HW2 3328   0.727   4.456   1.031
 1077SOL     OW 3329   1.749   0.140   1.859
 1077SOL    HW1 3330   1.692   0.145   1.778
 1077SOL    HW2 3331   1.698   0.172   1.939
 1078SOL     OW 3332   0.308   3.794   0.622
 1078SOL    HW1 3333   0.285   3.888   0.649
 1078SOL    HW2 3334   0.303   3.734   0.702
 1079SOL     OW 3335   1.605   4.095   0.379
 1079SOL    HW1 3336   1.642   4.030   0.445
 1079SOL    HW2 3337   1.587   4.182   0.425
 1080SOL     OW 3338   1.580   3.964   0.147
 1080SOL    HW1 3339   1.492   3.917   0.136
 1080SOL    HW2 3340   1.578   4.020   0.229
 1081SOL     OW 3341   0.320   0.017   0.922
 1081SOL    HW1 3342   0.404   0.070   0.926
 1081SOL    HW2 3343   0.331   4.434   0.977
 1082SOL     OW 3344   0.336   4.236   1.011
 1082SOL    HW1 3345   0.288   4.151   0.991
 1082SOL    HW2 3346   0.414   4.246   0.950
 1083SOL     OW 3347   1.138   4.096   1.686
 1083SOL    HW1 3348   1.083   4.156   1.745
 1083SOL    HW2 3349   1.229   4.136   1.674
 1084SOL     OW 3350   1.161   3.930   1.472
 1084SOL    HW1 3351   1.150   3.992   1.549
 1084SOL    HW2 3352   1.199   3.981   1.394
 1085SOL     OW 3353   0.026   4.277   1.109
 1085SOL    HW1 3354   0.113   4.254   1.065
 1085SOL    HW2 3355   0.029   4.250   1.205
 1086SOL     OW 3356   0.180   4.238   1.700
 1086SOL    HW1 3357   0.265   4.214   1.654
 1086SOL    HW2 3358   0.141   4.319   1.658
 1087SOL     OW 3359   0.819   4.300   0.339
 1087SOL    HW1 3360   0.827   4.215   0.287
 1087SOL    HW2 3361   0.724   4.331   0.336
 1088SOL     OW 3362   1.640   4.320   1.189
 1088SOL    HW1 3363   1.627   4.259   1.267
 1088SOL    HW2 3364   1.731   4.305   1.150
 1089SOL     OW 3365   0.676   4.186   1.260
 1089SOL    HW1 3366   0.637   4.099   1.228
 1089SOL    HW2 3367   0.689   4.247   1.182
 1090SOL     OW 3368   0.483   4.220   0.196
 1090SOL    HW1 3369   0.535   4.305   0.189
 1090SOL    HW2 3370   0.387   4.239   0.177
 1091SOL     OW 3371   0.933   3.832   0.130
 1091SOL    HW1 3372   0.935   3.797   0.037
 1091SOL    HW2 3373   0.969   3.763   0.193
 1092SOL     OW 3374   1.721   3.865   0.513
 1092SOL    HW1 3375   1.777   3.846   0.433
 1092SOL    HW2 3376   1.700   3.779   0.560
 1093SOL     OW 3377   1.279   0.138   0.679
 1093SOL    HW1 3378   1.340   0.060   0.686
 1093SOL    HW2 3379   1.326   0.213   0.633
 1094SOL     OW 3380   1.839   3.896   0.965
 1094SOL    HW1 3381   1.874   3.806   0.938
 1094SOL    HW2 3382   1.749   3.910   0.926
 1095SOL     OW 3383   0.268   4.043   0.721
 1095SOL    HW1 3384   0.187   4.091   0.688
 1095SOL    HW2 3385   0.260   4.028   0.820
 1096SOL     OW 3386   1.065   0.303   0.727
 1096SOL    HW1 3387   0.971   0.280   0.700
 1096SOL    HW2 3388   1.127   0.231   0.696
 1097SOL     OW 3389   1.019   3.962   0.965
 1097SOL    HW1 3390   1.012   3.916   0.877
 1097SOL    HW2 3391   1.016   3.894   1.039
 1098SOL     OW 3392   1.723   4.115   1.380
 1098SOL    HW1 3393   1.794   4.186   1.378
 1098SOL    HW2 3394   1.750   4.039   1.321
 1099SOL     OW 3395   0.676   3.922   1.499
 1099SOL    HW1 3396   0.762   3.901   1.451
 1099SOL    HW2 3397   0.696   3.949   1.593
 1100SOL     OW 3398   0.065   4.054   0.037
 1100SOL    HW1 3399   4.476   4.046   4.493
 1100SOL    HW2 3400   0.109   4.140   0.009
 1101SOL     OW 3401   0.079   3.907   0.301
 1101SOL    HW1 3402   0.075   3.973   0.226
 1101SOL    HW2 3403   0.163   3.854   0.294
 1102SOL     OW 3404   0.725   4.286   1.704
 1102SOL    HW1 3405   0.729   4.342   1.786
 1102SOL    HW2 3406   0.756   4.193   1.725
 1103SOL     OW 3407   1.227   4.043   0.452
 1103SOL    HW1 3408   1.288   3.964   0.447
 1103SOL    HW2 3409   1.249   4.097   0.533
 1104SOL     OW 3410   1.758   4.090   1.647
 1104SOL    HW1 3411   1.745   4.100   1.549
 1104SOL    HW2 3412   1.689   4.028   1.684
 1105SOL     OW 3413   1.082   0.214   0.050
 1105SOL    HW1 3414   1.057   0.287   4.487
 1105SOL    HW2 3415   1.161   0.165   0.015
 1106SOL     OW 3416   1.811   3.909   1.235
 1106SOL    HW1 3417   1.824   3.813   1.261
 1106SOL    HW2 3418   1.821   3.919   1.136
 1107SOL     OW 3419   0.451   4.151   0.539
 1107SOL    HW1 3420   0.468   4.081   0.469
 1107SOL    HW2 3421   0.387   4.116   0.606
 1108SOL     OW 3422   0.322   4.256   1.276
 1108SOL    HW1 3423   0.378   4.191   1.327
 1108SOL    HW2 3424   0.335   4.241   1.178
 1109SOL     OW 3425   1.433   3.949   1.118
 1109SOL    HW1 3426   1.463   3.864   1.161
 1109SOL    HW2 3427   1.377   4.001   1.183
 1110SOL     OW 3428   1.008   3.745   1.146
 1110SOL    HW1 3429   0.945   3.678   1.107
 1110SOL    HW2 3430   1.101   3.706   1.148
 1111SOL     OW 3431   1.364   3.766   0.168
 1111SOL    HW1 3432   1.396   3.718   0.086
 1111SOL    HW2 3433   1.278   3.726   0.198
 1112SOL     OW 3434   1.299   4.177   0.683
 1112SOL    HW1 3435   1.251   4.265   0.690
 1112SOL    HW2 3436   1.299   4.132   0.773
 1113SOL     OW 3437   1.588   3.933   0.878
 1113SOL    HW1 3438   1.522   3.946   0.952
 1113SOL    HW2 3439   1.590   4.015   0.821
 1114SOL     OW 3440   0.232   4.285   1.974
 1114SOL    HW1 3441   0.161   4.326   2.032
 1114SOL    HW2 3442   0.220   4.317   1.880
 1115SOL     OW 3443   0.212   3.998   2.854
 1115SOL    HW1 3444   0.249   3.970   2.943
 1115SOL    HW2 3445   0.131   3.942   2.834
 1116SOL     OW 3446   0.003   4.096   2.491
 1116SOL    HW1 3447   4.424   4.133   2.540
 1116SOL    HW2 3448   4.478   4.010   2.448
 1117SOL     OW 3449   1.734   4.333   2.098
 1117SOL    HW1 3450   1.734   4.320   1.998
 1117SOL    HW2 3451   1.730   4.243   2.143
 1118SOL     OW 3452   0.723   0.265   2.542
 1118SOL    HW1 3453   0.725   0.205   2.622
 1118SOL    HW2 3454   0.629   0.291   2.522
 1119SOL     OW 3455   0.443   4.119   3.349
 1119SOL    HW1 3456   0.528   4.067   3.353
 1119SOL    HW2 3457   0.366   4.056   3.360
 1120SOL     OW 3458   1.617   4.174   2.601
 1120SOL    HW1 3459   1.540   4.197   2.542
 1120SOL    HW2 3460   1.628   4.246   2.671
 1121SOL     OW 3461   1.597   3.845   3.335
 1121SOL    HW1 3462   1.591   3.922   3.272
 1121SOL    HW2 3463   1.588   3.877   3.429
 1122SOL     OW 3464   0.162   4.325   2.495
 1122SOL    HW1 3465   0.105   4.247   2.468
 1122SOL    HW2 3466   0.115   4.410   2.471
 1123SOL     OW 3467   0.117   4.497   3.454
 1123SOL    HW1 3468   0.215   4.478   3.455
 1123SOL    HW2 3469   0.100   0.082   3.405
 1124SOL     OW 3470   0.812   3.726   2.366
 1124SOL    HW1 3471   0.857   3.814   2.351
 1124SOL    HW2 3472   0.714   3.741   2.378
 1125SOL     OW 3473   0.329   3.978   3.663
 1125SOL    HW1 3474   0.384   4.057   3.687
 1125SOL    HW2 3475   0.236   3.990   3.699
 1126SOL     OW 3476   1.278   4.068   2.795
 1126SOL    HW1 3477   1.184   4.035   2.801
 1126SOL    HW2 3478   1.335   4.018   2.859
 1127SOL     OW 3479   0.821   4.308   3.313
 1127SOL    HW1 3480   0.782   4.313   3.404
 1127SOL    HW2 3481   0.755   4.265   3.251
 1128SOL     OW 3482   1.396   4.197   3.539
 1128SOL    HW1 3483   1.391   4.243   3.628
 1128SOL    HW2 3484   1.458   4.119   3.546
 1129SOL     OW 3485   0.996   4.144   3.094
 1129SOL    HW1 3486   0.924   4.168   3.158
 1129SOL    HW2 3487   0.960   4.082   3.024
 1130SOL     OW 3488   1.056   4.410   2.281
 1130SOL    HW1 3489   1.063   4.446   2.374
 1130SOL    HW2 3490   0.965   4.371   2.266
 1131SOL     OW 3491   0.056   0.055   2.708
 1131SOL    HW1 3492   0.152   0.026   2.713
 1131SOL    HW2 3493   0.042   0.113   2.629
 1132SOL     OW 3494   0.885   4.066   2.054
 1132SOL    HW1 3495   0.931   4.132   1.994
 1132SOL    HW2 3496   0.901   3.973   2.019
 1133SOL     OW 3497   1.707   4.300   3.691
 1133SOL    HW1 3498   1.715   4.393   3.657
 1133SOL    HW2 3499   1.728   4.236   3.617
 1134SOL     OW 3500   0.549   3.906   2.756
 1134SOL    HW1 3501   0.552   3.933   2.853
 1134SOL    HW2 3502   0.548   3.988   2.699
 1135SOL     OW 3503   1.487   4.463   2.598
 1135SOL    HW1 3504   1.465   4.403   2.675
 1135SOL    HW2 3505   1.530   0.046   2.632
 1136SOL     OW 3506   0.193   4.002   3.349
 1136SOL    HW1 3507   0.131   4.081   3.351
 1136SOL    HW2 3508   0.185   3.952   3.435
 1137SOL     OW 3509   1.401   3.830   2.290
 1137SOL    HW1 3510   1.387   3.804   2.194
 1137SOL    HW2 3511   1.499   3.841   2.307
 1138SOL     OW 3512   0.350   4.375   2.273
 1138SOL    HW1 3513   0.401   4.300   2.314
 1138SOL    HW2 3514   0.292   4.418   2.343
 1139SOL     OW 3515   1.537   3.949   3.591
 1139SOL    HW1 3516   1.544   3.972   3.688
 1139SOL    HW2 3517   1.467   3.878   3.579
 1140SOL     OW 3518   0.629   3.849   1.966
 1140SOL    HW1 3519   0.708   3.791   1.985
 1140SOL    HW2 3520   0.580   3.814   1.886
 1141SOL     OW 3521   0.768   3.999   3.616
 1141SOL    HW1 3522   0.845   3.936   3.618
 1141SOL    HW2 3523   0.713   3.987   3.698
 1142SOL     OW 3524   1.346   4.310   3.293
 1142SOL    HW1 3525   1.369   4.270   3.382
 1142SOL    HW2 3526   1.382   4.403   3.288
 1143SOL     OW 3527   0.921   4.235   2.759
 1143SOL    HW1 3528   0.897   4.220   2.663
 1143SOL    HW2 3529   0.963   4.152   2.796
 1144SOL     OW 3530   0.547   3.786   2.365
 1144SOL    HW1 3531   0.464   3.783   2.420
 1144SOL    HW2 3532   0.546   3.868   2.307
 1145SOL     OW 3533   0.295   3.769   2.041
 1145SOL    HW1 3534   0.351   3.844   2.006
 1145SOL    HW2 3535   0.353   3.701   2.086
 1146SOL     OW 3536   0.938   3.969   2.327
 1146SOL    HW1 3537   0.902   4.011   2.244
 1146SOL    HW2 3538   1.038   3.980   2.330
 1147SOL     OW 3539   1.077   4.394   3.374
 1147SOL    HW1 3540   0.988   4.364   3.339
 1147SOL    HW2 3541   1.150   4.351   3.320
 1148SOL     OW 3542   1.025   4.268   1.887
 1148SOL    HW1 3543   1.002   4.357   1.849
 1148SOL    HW2 3544   1.092   4.280   1.960
 1149SOL     OW 3545   0.087   4.260   3.270
 1149SOL    HW1 3546   0.165   4.268   3.207
 1149SOL    HW2 3547   0.054   4.352   3.294
 1150SOL     OW 3548   0.562   3.948   3.027
 1150SOL    HW1 3549   0.606   3.864   3.058
 1150SOL    HW2 3550   0.466   3.947   3.056
 1151SOL     OW 3551   0.871   4.189   2.499
 1151SOL    HW1 3552   0.831   4.254   2.434
 1151SOL    HW2 3553   0.890   4.103   2.452
 1152SOL     OW 3554   1.013   3.775   2.614
 1152SOL    HW1 3555   0.953   3.772   2.534
 1152SOL    HW2 3556   0.994   3.698   2.674
 1153SOL     OW 3557   1.477   4.311   2.833
 1153SOL    HW1 3558   1.417   4.233   2.847
 1153SOL    HW2 3559   1.533   4.326   2.915
 1154SOL     OW 3560   1.399   4.296   1.934
 1154SOL    HW1 3561   1.335   4.271   2.006
 1154SOL    HW2 3562   1.489   4.256   1.954
 1155SOL     OW 3563   0.527   3.986   2.179
 1155SOL    HW1 3564   0.566   3.930   2.107
 1155SOL    HW2 3565   0.510   4.078   2.144
 1156SOL     OW 3566   0.919   3.825   3.259
 1156SOL    HW1 3567   0.941   3.799   3.165
 1156SOL    HW2 3568   1.000   3.866   3.302
 1157SOL     OW 3569   0.437   0.001   3.117
 1157SOL    HW1 3570   0.497   0.014   3.196
 1157SOL    HW2 3571   0.395   4.410   3.122
 1158SOL     OW 3572   1.266   4.102   3.134
 1158SOL    HW1 3573   1.304   4.180   3.184
 1158SOL    HW2 3574   1.172   4.123   3.106
 1159SOL     OW 3575   0.557   4.260   2.728
 1159SOL    HW1 3576   0.574   4.305   2.641
 1159SOL    HW2 3577   0.625   4.291   2.795
 1160SOL     OW 3578   1.574   4.343   2.337
 1160SOL    HW1 3579   1.536   4.407   2.403
 1160SOL    HW2 3580   1.633   4.392   2.272
 1161SOL     OW 3581   0.997   3.843   3.615
 1161SOL    HW1 3582   1.050   3.924   3.589
 1161SOL    HW2 3583   1.047   3.761   3.590
 1162SOL     OW 3584   0.495   3.768   3.607
 1162SOL    HW1 3585   0.457   3.707   3.538
 1162SOL    HW2 3586   0.433   3.845   3.622
 1163SOL     OW 3587   1.211   4.255   2.130
 1163SOL    HW1 3588   1.224   4.170   2.181
 1163SOL    HW2 3589   1.159   4.319   2.185
 1164SOL     OW 3590   0.300   3.924   3.105
 1164SOL    HW1 3591   0.263   3.958   3.191
 1164SOL    HW2 3592   0.287   3.825   3.100
 1165SOL     OW 3593   0.736   4.358   2.913
 1165SOL    HW1 3594   0.809   4.319   2.856
 1165SOL    HW2 3595   0.728   4.456   2.894
 1166SOL     OW 3596   1.750   0.140   3.722
 1166SOL    HW1 3597   1.693   0.144   3.640
 1166SOL    HW2 3598   1.697   0.173   3.800
 1167SOL     OW 3599   0.307   3.793   2.484
 1167SOL    HW1 3600   0.285   3.887   2.510
 1167SOL    HW2 3601   0.305   3.735   2.565
 1168SOL     OW 3602   1.616   4.093   2.233
 1168SOL    HW1 3603   1.644   4.025   2.300
 1168SOL    HW2 3604   1.590   4.178   2.280
 1169SOL     OW 3605   1.530   3.997   1.992
 1169SOL    HW1 3606   1.462   3.927   2.013
 1169SOL    HW2 3607   1.566   4.037   2.076
 1170SOL     OW 3608   0.320   0.017   2.784
 1170SOL    HW1 3609   0.404   0.071   2.788
 1170SOL    HW2 3610   0.331   4.434   2.839
 1171SOL     OW 3611   0.336   4.236   2.873
 1171SOL    HW1 3612   0.288   4.151   2.852
 1171SOL    HW2 3613   0.414   4.246   2.812
 1172SOL     OW 3614   1.138   4.096   3.548
 1172SOL    HW1 3615   1.083   4.156   3.607
 1172SOL    HW2 3616   1.229   4.136   3.535
 1173SOL     OW 3617   1.160   3.930   3.333
 1173SOL    HW1 3618   1.149   3.992   3.411
 1173SOL    HW2 3619   1.199   3.981   3.256
 1174SOL     OW 3620   0.027   4.278   2.972
 1174SOL    HW1 3621   0.113   4.255   2.927
 1174SOL    HW2 3622   0.030   4.249   3.067
 1175SOL     OW 3623   0.178   4.237   3.561
 1175SOL    HW1 3624   0.265   4.212   3.518
 1175SOL    HW2 3625   0.142   4.320   3.519
 1176SOL     OW 3626   0.821   4.289   2.202
 1176SOL    HW1 3627   0.821   4.206   2.145
 1176SOL    HW2 3628   0.729   4.328   2.204
 1177SOL     OW 3629   1.640   4.320   3.051
 1177SOL    HW1 3630   1.627   4.259   3.129
 1177SOL    HW2 3631   1.731   4.306   3.012
 1178SOL     OW 3632   0.675   4.186   3.122
 1178SOL    HW1 3633   0.637   4.099   3.090
 1178SOL    HW2 3634   0.689   4.247   3.044
 1179SOL     OW 3635   0.484   4.222   2.053
 1179SOL    HW1 3636   0.530   4.309   2.068
 1179SOL    HW2 3637   0.386   4.237   2.040
 1180SOL     OW 3638   1.718   3.864   2.371
 1180SOL    HW1 3639   1.796   3.856   2.309
 1180SOL    HW2 3640   1.701   3.776   2.415
 1181SOL     OW 3641   1.280   0.137   2.541
 1181SOL    HW1 3642   1.342   0.060   2.549
 1181SOL    HW2 3643   1.325   0.210   2.489
 1182SOL     OW 3644   1.840   3.895   2.827
 1182SOL    HW1 3645   1.873   3.805   2.800
 1182SOL    HW2 3646   1.749   3.911   2.788
 1183SOL     OW 3647   0.268   4.042   2.583
 1183SOL    HW1 3648   0.187   4.090   2.550
 1183SOL    HW2 3649   0.261   4.028   2.682
 1184SOL     OW 3650   0.911   0.096   2.087
 1184SOL    HW1 3651   0.994   0.140   2.053
 1184SOL    HW2 3652   0.931   0.048   2.172
 1185SOL     OW 3653   1.068   0.302   2.603
 1185SOL    HW1 3654   0.977   0.293   2.561
 1185SOL    HW2 3655   1.130   0.235   2.563
 1186SOL     OW 3656   1.019   3.962   2.828
 1186SOL    HW1 3657   1.013   3.916   2.739
 1186SOL    HW2 3658   1.016   3.894   2.901
 1187SOL     OW 3659   1.723   4.115   3.242
 1187SOL    HW1 3660   1.793   4.186   3.240
 1187SOL    HW2 3661   1.750   4.039   3.183
 1188SOL     OW 3662   0.676   3.922   3.361
 1188SOL    HW1 3663   0.762   3.901   3.313
 1188SOL    HW2 3664   0.696   3.949   3.455
 1189SOL     OW 3665   0.070   4.046   1.891
 1189SOL    HW1 3666   4.470   4.056   1.888
 1189SOL    HW2 3667   0.113   4.135   1.876
 1190SOL     OW 3668   0.087   3.900   2.168
 1190SOL    HW1 3669   0.072   3.975   2.103
 1190SOL    HW2 3670   0.165   3.846   2.139
 1191SOL     OW 3671   0.725   4.286   3.566
 1191SOL    HW1 3672   0.729   4.342   3.649
 1191SOL    HW2 3673   0.756   4.193   3.586
 1192SOL     OW 3674   1.222   4.042   2.318
 1192SOL    HW1 3675   1.286   3.965   2.305
 1192SOL    HW2 3676   1.249   4.093   2.399
 1193SOL     OW 3677   1.757   4.091   3.510
 1193SOL    HW1 3678   1.745   4.100   3.411
 1193SOL    HW2 3679   1.689   4.028   3.546
 1194SOL     OW 3680   1.111   0.227   1.967
 1194SOL    HW1 3681   1.087   0.276   1.883
 1194SOL    HW2 3682   1.195   0.174   1.952
 1195SOL     OW 3683   1.811   3.909   3.097
 1195SOL    HW1 3684   1.823   3.814   3.124
 1195SOL    HW2 3685   1.821   3.918   2.998
 1196SOL     OW 3686   0.451   4.149   2.399
 1196SOL    HW1 3687   0.467   4.076   2.331
 1196SOL    HW2 3688   0.387   4.116   2.468
 1197SOL     OW 3689   0.322   4.256   3.137
 1197SOL    HW1 3690   0.378   4.191   3.189
 1197SOL    HW2 3691   0.336   4.240   3.040
 1198SOL     OW 3692   1.433   3.949   2.980
 1198SOL    HW1 3693   1.463   3.864   3.023
 1198SOL    HW2 3694   1.377   4.001   3.045
 1199SOL     OW 3695   1.008   3.745   3.008
 1199SOL    HW1 3696   0.945   3.678   2.969
 1199SOL    HW2 3697   1.101   3.706   3.010
 1200SOL     OW 3698   1.350   3.777   2.025
 1200SOL    HW1 3699   1.387   3.717   1.954
 1200SOL    HW2 3700   1.260   3.744   2.053
 1201SOL     OW 3701   1.299   4.177   2.546
 1201SOL    HW1 3702   1.253   4.265   2.554
 1201SOL    HW2 3703   1.300   4.132   2.635
 1202SOL     OW 3704   1.589   3.933   2.740
 1202SOL    HW1 3705   1.522   3.946   2.814
 1202SOL    HW2 3706   1.590   4.015   2.682
 1203SOL     OW 3707   0.234   4.285   3.835
 1203SOL    HW1 3708   0.167   4.325   3.897
 1203SOL    HW2 3709   0.218   4.320   3.742
 1204SOL     OW 3710   1.738   4.328   3.963
 1204SOL    HW1 3711   1.736   4.321   3.863
 1204SOL    HW2 3712   1.724   4.237   4.003
 1205SOL     OW 3713   0.670   0.251   4.415
 1205SOL    HW1 3714   0.762   0.249   4.453
 1205SOL    HW2 3715   0.631   0.342   4.428
 1206SOL     OW 3716   1.637   4.199   4.445
 1206SOL    HW1 3717   1.554   4.195   4.389
 1206SOL    HW2 3718   1.624   4.264   0.020
 1207SOL     OW 3719   0.281   0.320   0.104
 1207SOL    HW1 3720   0.294   0.237   0.159
 1207SOL    HW2 3721   0.207   0.375   0.143
 1208SOL     OW 3722   0.132   4.306   4.359
 1208SOL    HW1 3723   0.116   4.260   4.272
 1208SOL    HW2 3724   0.099   4.400   4.353
 1209SOL     OW 3725   0.808   3.723   4.217
 1209SOL    HW1 3726   0.860   3.808   4.217
 1209SOL    HW2 3727   0.711   3.743   4.234
 1210SOL     OW 3728   1.282   4.039   0.137
 1210SOL    HW1 3729   1.183   4.022   0.145
 1210SOL    HW2 3730   1.327   4.010   0.221
 1211SOL     OW 3731   1.056   4.412   4.143
 1211SOL    HW1 3732   1.063   4.435   4.240
 1211SOL    HW2 3733   0.966   4.374   4.124
 1212SOL     OW 3734   0.080   0.053   0.043
 1212SOL    HW1 3735   0.168   0.036   0.087
 1212SOL    HW2 3736   0.074   0.148   0.014
 1213SOL     OW 3737   0.883   4.062   3.915
 1213SOL    HW1 3738   0.929   4.130   3.858
 1213SOL    HW2 3739   0.905   3.970   3.882
 1214SOL     OW 3740   1.406   3.835   4.149
 1214SOL    HW1 3741   1.393   3.805   4.054
 1214SOL    HW2 3742   1.504   3.841   4.169
 1215SOL     OW 3743   0.338   4.378   4.131
 1215SOL    HW1 3744   0.391   4.304   4.173
 1215SOL    HW2 3745   0.290   4.429   4.203
 1216SOL     OW 3746   0.627   3.849   3.829
 1216SOL    HW1 3747   0.708   3.793   3.849
 1216SOL    HW2 3748   0.581   3.813   3.748
 1217SOL     OW 3749   0.546   3.787   4.228
 1217SOL    HW1 3750   0.462   3.785   4.282
 1217SOL    HW2 3751   0.546   3.867   4.169
 1218SOL     OW 3752   0.296   3.769   3.902
 1218SOL    HW1 3753   0.352   3.844   3.868
 1218SOL    HW2 3754   0.354   3.701   3.947
 1219SOL     OW 3755   0.941   3.969   4.190
 1219SOL    HW1 3756   0.902   4.007   4.106
 1219SOL    HW2 3757   1.040   3.981   4.188
 1220SOL     OW 3758   1.026   4.267   3.748
 1220SOL    HW1 3759   1.002   4.357   3.711
 1220SOL    HW2 3760   1.091   4.279   3.823
 1221SOL     OW 3761   0.853   4.176   4.365
 1221SOL    HW1 3762   0.822   4.250   4.305
 1221SOL    HW2 3763   0.881   4.097   4.311
 1222SOL     OW 3764   1.400   4.297   3.797
 1222SOL    HW1 3765   1.335   4.271   3.868
 1222SOL    HW2 3766   1.488   4.253   3.815
 1223SOL     OW 3767   0.528   3.986   4.043
 1223SOL    HW1 3768   0.567   3.929   3.971
 1223SOL    HW2 3769   0.510   4.078   4.007
 1224SOL     OW 3770   1.582   4.355   4.195
 1224SOL    HW1 3771   1.528   4.431   4.232
 1224SOL    HW2 3772   1.637   4.388   4.118
 1225SOL     OW 3773   1.211   4.256   3.992
 1225SOL    HW1 3774   1.223   4.169   4.041
 1225SOL    HW2 3775   1.158   4.319   4.049
 1226SOL     OW 3776   0.309   3.806   4.349
 1226SOL    HW1 3777   0.245   3.878   4.375
 1226SOL    HW2 3778   0.314   3.738   4.422
 1227SOL     OW 3779   1.620   4.097   4.095
 1227SOL    HW1 3780   1.644   4.023   4.157
 1227SOL    HW2 3781   1.591   4.177   4.148
 1228SOL     OW 3782   1.529   3.999   3.854
 1228SOL    HW1 3783   1.463   3.927   3.876
 1228SOL    HW2 3784   1.567   4.036   3.939
 1229SOL     OW 3785   0.825   4.295   4.047
 1229SOL    HW1 3786   0.817   4.206   4.003
 1229SOL    HW2 3787   0.734   4.328   4.072
 1230SOL     OW 3788   0.484   4.221   3.916
 1230SOL    HW1 3789   0.531   4.308   3.930
 1230SOL    HW2 3790   0.386   4.238   3.902
 1231SOL     OW 3791   1.697   3.855   4.222
 1231SOL    HW1 3792   1.789   3.862   4.183
 1231SOL    HW2 3793   1.690   3.772   4.277
 1232SOL     OW 3794   1.285   0.130   4.403
 1232SOL    HW1 3795   1.343   0.056   4.368
 1232SOL    HW2 3796   1.312   0.216   4.360
 1233SOL     OW 3797   1.823   3.857   0.215
 1233SOL    HW1 3798   1.879   3.836   0.135
 1233SOL    HW2 3799   1.738   3.900   0.185
 1234SOL     OW 3800   0.910   0.108   3.961
 1234SOL    HW1 3801   0.996   0.142   3.923
 1234SOL    HW2 3802   0.930   0.046   4.036
 1235SOL     OW 3803   0.070   4.046   3.757
 1235SOL    HW1 3804   4.471   4.054   3.747
 1235SOL    HW2 3805   0.112   4.135   3.737
 1236SOL     OW 3806   0.088   3.904   4.026
 1236SOL    HW1 3807   0.076   3.976   3.958
 1236SOL    HW2 3808   0.166   3.846   4.000
 1237SOL     OW 3809   1.220   4.037   4.171
 1237SOL    HW1 3810   1.286   3.963   4.159
 1237SOL    HW2 3811   1.243   4.091   4.252
 1238SOL     OW 3812   1.112   0.226   3.829
 1238SOL    HW1 3813   1.086   0.274   3.746
 1238SOL    HW2 3814   1.195   0.172   3.812
 1239SOL     OW 3815   0.435   4.149   4.251
 1239SOL    HW1 3816   0.466   4.077   4.189
 1239SOL    HW2 3817   0.402   4.109   4.336
 1240SOL     OW 3818   1.350   3.777   3.886
 1240SOL    HW1 3819   1.387   3.716   3.816
 1240SOL    HW2 3820   1.260   3.745   3.915
 1241SOL     OW 3821   1.286   4.167   4.395
 1241SOL    HW1 3822   1.219   4.238   4.417
 1241SOL    HW2 3823   1.304   4.112   4.477
 1242SOL     OW 3824   2.085   0.648   0.117
 1242SOL    HW1 3825   2.019   0.601   0.175
 1242SOL    HW2 3826   2.123   0.584   0.050
 1243SOL     OW 3827   2.072   0.295   0.990
 1243SOL    HW1 3828   2.106   0.269   1.080
 1243SOL    HW2 3829   1.984   0.249   0.973
 1244SOL     OW 3830   1.868   0.382   0.636
 1244SOL    HW1 3831   1.783   0.413   0.678
 1244SOL    HW2 3832   1.851   0.300   0.582
 1245SOL     OW 3833   2.429   1.282   1.175
 1245SOL    HW1 3834   2.338   1.278   1.132
 1245SOL    HW2 3835   2.445   1.375   1.209
 1246SOL     OW 3836   3.419   1.511   0.707
 1246SOL    HW1 3837   3.375   1.491   0.795
 1246SOL    HW2 3838   3.350   1.521   0.636
 1247SOL     OW 3839   2.995   0.702   0.703
 1247SOL    HW1 3840   3.046   0.787   0.686
 1247SOL    HW2 3841   2.943   0.712   0.788
 1248SOL     OW 3842   3.636   0.602   0.233
 1248SOL    HW1 3843   3.606   0.601   0.138
 1248SOL    HW2 3844   3.590   0.528   0.282
 1249SOL     OW 3845   2.619   1.146   1.035
 1249SOL    HW1 3846   2.547   1.177   1.097
 1249SOL    HW2 3847   2.658   1.225   0.987
 1250SOL     OW 3848   2.725   0.780   1.819
 1250SOL    HW1 3849   2.708   0.850   1.889
 1250SOL    HW2 3850   2.750   0.825   1.733
 1251SOL     OW 3851   2.547   1.006   0.653
 1251SOL    HW1 3852   2.617   0.990   0.723
 1251SOL    HW2 3853   2.471   1.058   0.692
 1252SOL     OW 3854   2.567   1.157   1.811
 1252SOL    HW1 3855   2.610   1.245   1.829
 1252SOL    HW2 3856   2.476   1.172   1.773
 1253SOL     OW 3857   2.188   1.433   1.068
 1253SOL    HW1 3858   2.114   1.389   1.017
 1253SOL    HW2 3859   2.247   1.483   1.005
 1254SOL     OW 3860   3.324   1.497   1.347
 1254SOL    HW1 3861   3.370   1.586   1.356
 1254SOL    HW2 3862   3.266   1.482   1.427
 1255SOL     OW 3863   2.303   0.396   1.492
 1255SOL    HW1 3864   2.389   0.344   1.492
 1255SOL    HW2 3865   2.226   0.333   1.502
 1256SOL     OW 3866   3.476   0.450   0.740
 1256SOL    HW1 3867   3.392   0.471   0.690
 1256SOL    HW2 3868   3.500   0.526   0.799
 1257SOL     OW 3869   2.080   1.716   0.474
 1257SOL    HW1 3870   2.104   1.795   0.531
 1257SOL    HW2 3871   2.155   1.699   0.409
 1258SOL     OW 3872   2.996   1.337   1.692
 1258SOL    HW1 3873   3.043   1.339   1.780
 1258SOL    HW2 3874   2.941   1.253   1.686
 1259SOL     OW 3875   2.089   1.443   0.537
 1259SOL    HW1 3876   2.074   1.541   0.538
 1259SOL    HW2 3877   2.025   1.398   0.599
 1260SOL     OW 3878   2.119   1.090   0.897
 1260SOL    HW1 3879   2.116   0.997   0.933
 1260SOL    HW2 3880   2.057   1.148   0.949
 1261SOL     OW 3881   2.464   1.803   1.407
 1261SOL    HW1 3882   2.392   1.772   1.470
 1261SOL    HW2 3883   2.502   1.889   1.441
 1262SOL     OW 3884   2.451   0.973   0.157
 1262SOL    HW1 3885   2.444   1.048   0.091
 1262SOL    HW2 3886   2.506   1.003   0.236
 1263SOL     OW 3887   3.448   0.116   1.476
 1263SOL    HW1 3888   3.459   0.181   1.401
 1263SOL    HW2 3889   3.438   0.165   1.562
 1264SOL     OW 3890   1.977   0.654   0.562
 1264SOL    HW1 3891   1.945   0.560   0.577
 1264SOL    HW2 3892   1.968   0.707   0.646
 1265SOL     OW 3893   3.704   1.757   0.341
 1265SOL    HW1 3894   3.777   1.735   0.405
 1265SOL    HW2 3895   3.719   1.848   0.303
 1266SOL     OW 3896   1.877   1.601   0.114
 1266SOL    HW1 3897   1.879   1.503   0.136
 1266SOL    HW2 3898   1.866   1.653   0.199
 1267SOL     OW 3899   3.553   0.921   0.640
 1267SOL    HW1 3900   3.642   0.876   0.626
 1267SOL    HW2 3901   3.531   0.975   0.558
 1268SOL     OW 3902   3.510   1.110   0.435
 1268SOL    HW1 3903   3.600   1.113   0.392
 1268SOL    HW2 3904   3.508   1.173   0.512
 1269SOL     OW 3905   1.982   0.743   1.586
 1269SOL    HW1 3906   2.080   0.760   1.601
 1269SOL    HW2 3907   1.932   0.829   1.593
 1270SOL     OW 3908   2.471   1.384   0.734
 1270SOL    HW1 3909   2.425   1.296   0.746
 1270SOL    HW2 3910   2.457   1.416   0.640
 1271SOL     OW 3911   3.154   1.237   1.424
 1271SOL    HW1 3912   3.184   1.168   1.359
 1271SOL    HW2 3913   3.210   1.231   1.507
 1272SOL     OW 3914   2.673   0.014   0.550
 1272SOL    HW1 3915   2.718   0.094   0.508
 1272SOL    HW2 3916   2.574   0.025   0.542
 1273SOL     OW 3917   2.055   0.970   1.267
 1273SOL    HW1 3918   2.142   0.923   1.253
 1273SOL    HW2 3919   1.981   0.914   1.229
 1274SOL     OW 3920   3.395   0.988   0.210
 1274SOL    HW1 3921   3.319   0.927   0.232
 1274SOL    HW2 3922   3.430   1.030   0.293
 1275SOL     OW 3923   3.065   1.800   1.612
 1275SOL    HW1 3924   3.073   1.862   1.533
 1275SOL    HW2 3925   3.071   1.706   1.581
 1276SOL     OW 3926   2.178   0.256   1.784
 1276SOL    HW1 3927   2.247   0.321   1.812
 1276SOL    HW2 3928   2.097   0.265   1.843
 1277SOL     OW 3929   3.325   1.419   0.954
 1277SOL    HW1 3930   3.257   1.437   1.024
 1277SOL    HW2 3931   3.318   1.325   0.923
 1278SOL     OW 3932   3.517   1.735   0.580
 1278SOL    HW1 3933   3.501   1.710   0.485
 1278SOL    HW2 3934   3.493   1.658   0.639
 1279SOL     OW 3935   2.457   0.719   0.269
 1279SOL    HW1 3936   2.471   0.800   0.211
 1279SOL    HW2 3937   2.390   0.741   0.340
 1280SOL     OW 3938   3.151   0.355   0.934
 1280SOL    HW1 3939   3.057   0.325   0.919
 1280SOL    HW2 3940   3.196   0.295   1.000
 1281SOL     OW 3941   3.447   1.669   0.309
 1281SOL    HW1 3942   3.542   1.700   0.308
 1281SOL    HW2 3943   3.416   1.652   0.215
 1282SOL     OW 3944   2.657   0.615   1.455
 1282SOL    HW1 3945   2.629   0.594   1.549
 1282SOL    HW2 3946   2.613   0.551   1.392
 1283SOL     OW 3947   3.251   0.476   1.677
 1283SOL    HW1 3948   3.250   0.523   1.765
 1283SOL    HW2 3949   3.319   0.402   1.679
 1284SOL     OW 3950   2.823   0.890   1.579
 1284SOL    HW1 3951   2.879   0.813   1.546
 1284SOL    HW2 3952   2.770   0.927   1.503
 1285SOL     OW 3953   2.858   0.414   1.234
 1285SOL    HW1 3954   2.773   0.433   1.284
 1285SOL    HW2 3955   2.838   0.360   1.153
 1286SOL     OW 3956   2.901   0.705   0.439
 1286SOL    HW1 3957   2.920   0.696   0.536
 1286SOL    HW2 3958   2.818   0.654   0.416
 1287SOL     OW 3959   1.952   0.823   0.776
 1287SOL    HW1 3960   2.038   0.811   0.826
 1287SOL    HW2 3961   1.903   0.902   0.812
 1288SOL     OW 3962   1.989   1.824   1.591
 1288SOL    HW1 3963   1.950   1.811   1.682
 1288SOL    HW2 3964   1.917   1.854   1.528
 1289SOL     OW 3965   2.730   0.352   0.198
 1289SOL    HW1 3966   2.778   0.408   0.131
 1289SOL    HW2 3967   2.746   0.256   0.179
 1290SOL     OW 3968   3.568   0.577   1.826
 1290SOL    HW1 3969   3.532   0.658   1.780
 1290SOL    HW2 3970   3.602   0.512   1.758
 1291SOL     OW 3971   3.236   1.145   0.539
 1291SOL    HW1 3972   3.319   1.122   0.488
 1291SOL    HW2 3973   3.182   1.212   0.488
 1292SOL     OW 3974   2.398   0.202   0.904
 1292SOL    HW1 3975   2.419   0.218   1.001
 1292SOL    HW2 3976   2.396   0.289   0.856
 1293SOL     OW 3977   2.873   1.441   0.475
 1293SOL    HW1 3978   2.824   1.513   0.426
 1293SOL    HW2 3979   2.861   1.453   0.573
 1294SOL     OW 3980   2.217   1.806   0.858
 1294SOL    HW1 3981   2.261   1.717   0.868
 1294SOL    HW2 3982   2.285   1.878   0.874
 1295SOL     OW 3983   3.658   1.062   0.869
 1295SOL    HW1 3984   3.603   1.044   0.787
 1295SOL    HW2 3985   3.598   1.066   0.949
 1296SOL     OW 3986   3.094   1.535   1.507
 1296SOL    HW1 3987   3.078   1.465   1.576
 1296SOL    HW2 3988   3.030   1.522   1.431
 1297SOL     OW 3989   2.186   0.953   0.226
 1297SOL    HW1 3990   2.283   0.961   0.202
 1297SOL    HW2 3991   2.158   0.857   0.218
 1298SOL     OW 3992   3.339   0.740   0.725
 1298SOL    HW1 3993   3.323   0.690   0.809
 1298SOL    HW2 3994   3.418   0.800   0.736
 1299SOL     OW 3995   2.328   1.251   1.725
 1299SOL    HW1 3996   2.297   1.266   1.631
 1299SOL    HW2 3997   2.249   1.242   1.785
 1300SOL     OW 3998   3.002   1.779   0.253
 1300SOL    HW1 3999   2.934   1.738   0.314
 1300SOL    HW2 4000   3.019   1.718   0.176
 1301SOL     OW 4001   2.054   0.272   1.508
 1301SOL    HW1 4002   1.983   0.340   1.488
 1301SOL    HW2 4003   2.064   0.263   1.607
 1302SOL     OW 4004   3.486   1.388   0.099
 1302SOL    HW1 4005   3.444   1.478   0.088
 1302SOL    HW2 4006   3.415   1.318   0.094
 1303SOL     OW 4007   2.336   1.721   0.346
 1303SOL    HW1 4008   2.356   1.789   0.416
 1303SOL    HW2 4009   2.402   1.729   0.271
 1304SOL     OW 4010   3.281   0.133   0.424
 1304SOL    HW1 4011   3.254   0.089   0.338
 1304SOL    HW2 4012   3.381   0.134   0.431
 1305SOL     OW 4013   2.117   1.792   1.232
 1305SOL    HW1 4014   2.176   1.727   1.279
 1305SOL    HW2 4015   2.098   1.760   1.140
 1306SOL     OW 4016   2.798   1.698   0.900
 1306SOL    HW1 4017   2.881   1.648   0.925
 1306SOL    HW2 4018   2.751   1.650   0.826
 1307SOL     OW 4019   2.249   0.692   0.476
 1307SOL    HW1 4020   2.280   0.598   0.486
 1307SOL    HW2 4021   2.152   0.698   0.501
 1308SOL     OW 4022   3.387   0.232   1.723
 1308SOL    HW1 4023   3.389   0.257   1.820
 1308SOL    HW2 4024   3.310   0.171   1.705
 1309SOL     OW 4025   2.473   0.088   0.125
 1309SOL    HW1 4026   2.571   0.071   0.138
 1309SOL    HW2 4027   2.456   0.115   0.031
 1310SOL     OW 4028   2.633   0.271   1.754
 1310SOL    HW1 4029   2.700   0.198   1.764
 1310SOL    HW2 4030   2.579   0.280   1.838
 1311SOL     OW 4031   2.738   1.517   1.192
 1311SOL    HW1 4032   2.721   1.484   1.099
 1311SOL    HW2 4033   2.811   1.462   1.234
 1312SOL     OW 4034   3.206   0.589   1.431
 1312SOL    HW1 4035   3.232   0.555   1.521
 1312SOL    HW2 4036   3.239   0.682   1.420
 1313SOL     OW 4037   2.676   1.397   0.933
 1313SOL    HW1 4038   2.765   1.387   0.890
 1313SOL    HW2 4039   2.604   1.395   0.863
 1314SOL     OW 4040   2.783   0.514   0.900
 1314SOL    HW1 4041   2.764   0.514   0.802
 1314SOL    HW2 4042   2.826   0.427   0.926
 1315SOL     OW 4043   2.412   0.075   0.522
 1315SOL    HW1 4044   2.319   0.049   0.548
 1315SOL    HW2 4045   2.408   0.143   0.449
 1316SOL     OW 4046   3.303   1.205   0.065
 1316SOL    HW1 4047   3.323   1.114   0.102
 1316SOL    HW2 4048   3.204   1.217   0.058
 1317SOL     OW 4049   2.176   0.033   0.160
 1317SOL    HW1 4050   2.208   0.128   0.167
 1317SOL    HW2 4051   2.204   4.484   0.243
 1318SOL     OW 4052   2.809   0.229   0.446
 1318SOL    HW1 4053   2.757   0.289   0.386
 1318SOL    HW2 4054   2.903   0.262   0.454
 1319SOL     OW 4055   2.942   0.679   1.462
 1319SOL    HW1 4056   2.862   0.618   1.463
 1319SOL    HW2 4057   3.025   0.624   1.449
 1320SOL     OW 4058   3.086   1.568   0.794
 1320SOL    HW1 4059   3.103   1.639   0.725
 1320SOL    HW2 4060   3.156   1.573   0.865
 1321SOL     OW 4061   2.327   1.147   0.737
 1321SOL    HW1 4062   2.256   1.129   0.804
 1321SOL    HW2 4063   2.291   1.133   0.645
 1322SOL     OW 4064   3.131   1.797   0.603
 1322SOL    HW1 4065   3.178   1.860   0.542
 1322SOL    HW2 4066   3.062   1.847   0.656
 1323SOL     OW 4067   2.948   0.574   0.019
 1323SOL    HW1 4068   2.852   0.598   0.002
 1323SOL    HW2 4069   2.969   0.586   0.116
 1324SOL     OW 4070   1.943   0.555   1.392
 1324SOL    HW1 4071   2.037   0.553   1.357
 1324SOL    HW2 4072   1.934   0.627   1.460
 1325SOL     OW 4073   2.427   0.240   1.167
 1325SOL    HW1 4074   2.462   0.153   1.203
 1325SOL    HW2 4075   2.331   0.251   1.193
 1326SOL     OW 4076   2.726   0.505   0.626
 1326SOL    HW1 4077   2.676   0.552   0.554
 1326SOL    HW2 4078   2.713   0.406   0.617
 1327SOL     OW 4079   2.833   0.032   0.769
 1327SOL    HW1 4080   2.776   0.027   0.687
 1327SOL    HW2 4081   2.845   4.441   0.807
 1328SOL     OW 4082   3.300   1.164   0.857
 1328SOL    HW1 4083   3.229   1.094   0.860
 1328SOL    HW2 4084   3.327   1.181   0.763
 1329SOL     OW 4085   3.330   0.601   0.981
 1329SOL    HW1 4086   3.274   0.518   0.981
 1329SOL    HW2 4087   3.393   0.598   1.059
 1330SOL     OW 4088   3.716   0.817   0.380
 1330SOL    HW1 4089   3.768   0.765   0.447
 1330SOL    HW2 4090   3.680   0.754   0.311
 1331SOL     OW 4091   2.345   1.409   0.186
 1331SOL    HW1 4092   2.258   1.378   0.223
 1331SOL    HW2 4093   2.347   1.392   0.088
 1332SOL     OW 4094   3.530   1.267   0.651
 1332SOL    HW1 4095   3.629   1.268   0.660
 1332SOL    HW2 4096   3.494   1.358   0.671
 1333SOL     OW 4097   3.280   0.600   0.116
 1333SOL    HW1 4098   3.201   0.590   0.177
 1333SOL    HW2 4099   3.321   0.510   0.098
 1334SOL     OW 4100   2.385   0.260   0.320
 1334SOL    HW1 4101   2.423   0.195   0.254
 1334SOL    HW2 4102   2.373   0.349   0.276
 1335SOL     OW 4103   3.618   1.235   1.575
 1335SOL    HW1 4104   3.708   1.193   1.567
 1335SOL    HW2 4105   3.627   1.329   1.608
 1336SOL     OW 4106   2.922   1.352   1.337
 1336SOL    HW1 4107   2.841   1.321   1.388
 1336SOL    HW2 4108   3.004   1.311   1.378
 1337SOL     OW 4109   3.471   1.626   1.651
 1337SOL    HW1 4110   3.462   1.662   1.558
 1337SOL    HW2 4111   3.558   1.577   1.659
 1338SOL     OW 4112   2.989   1.207   1.108
 1338SOL    HW1 4113   2.930   1.243   1.181
 1338SOL    HW2 4114   2.953   1.234   1.019
 1339SOL     OW 4115   3.492   1.100   1.081
 1339SOL    HW1 4116   3.490   1.165   1.157
 1339SOL    HW2 4117   3.412   1.112   1.023
 1340SOL     OW 4118   2.768   0.130   1.388
 1340SOL    HW1 4119   2.789   0.084   1.302
 1340SOL    HW2 4120   2.853   0.146   1.438
 1341SOL     OW 4121   2.836   1.114   1.724
 1341SOL    HW1 4122   2.739   1.126   1.742
 1341SOL    HW2 4123   2.850   1.035   1.664
 1342SOL     OW 4124   2.576   1.057   0.380
 1342SOL    HW1 4125   2.561   1.044   0.478
 1342SOL    HW2 4126   2.656   1.004   0.351
 1343SOL     OW 4127   2.280   0.813   1.253
 1343SOL    HW1 4128   2.354   0.826   1.319
 1343SOL    HW2 4129   2.240   0.722   1.265
 1344SOL     OW 4130   3.130   0.379   1.271
 1344SOL    HW1 4131   3.166   0.458   1.321
 1344SOL    HW2 4132   3.037   0.398   1.241
 1345SOL     OW 4133   1.932   1.573   1.350
 1345SOL    HW1 4134   1.888   1.641   1.292
 1345SOL    HW2 4135   2.031   1.578   1.339
 1346SOL     OW 4136   2.217   1.110   0.490
 1346SOL    HW1 4137   2.216   1.190   0.430
 1346SOL    HW2 4138   2.222   1.026   0.435
 1347SOL     OW 4139   2.420   0.538   0.860
 1347SOL    HW1 4140   2.435   0.597   0.781
 1347SOL    HW2 4141   2.483   0.563   0.934
 1348SOL     OW 4142   3.115   1.364   0.395
 1348SOL    HW1 4143   3.183   1.432   0.422
 1348SOL    HW2 4144   3.025   1.393   0.428
 1349SOL     OW 4145   3.138   1.457   1.146
 1349SOL    HW1 4146   3.198   1.461   1.227
 1349SOL    HW2 4147   3.083   1.374   1.150
 1350SOL     OW 4148   3.446   0.628   0.478
 1350SOL    HW1 4149   3.396   0.678   0.549
 1350SOL    HW2 4150   3.484   0.694   0.412
 1351SOL     OW 4151   2.214   1.524   1.317
 1351SOL    HW1 4152   2.193   1.482   1.229
 1351SOL    HW2 4153   2.313   1.539   1.324
 1352SOL     OW 4154   2.275   0.743   1.601
 1352SOL    HW1 4155   2.336   0.794   1.540
 1352SOL    HW2 4156   2.317   0.655   1.622
 1353SOL     OW 4157   3.461   0.781   1.679
 1353SOL    HW1 4158   3.369   0.820   1.675
 1353SOL    HW2 4159   3.518   0.823   1.607
 1354SOL     OW 4160   2.866   0.088   1.725
 1354SOL    HW1 4161   2.891   0.178   1.690
 1354SOL    HW2 4162   2.894   0.018   1.659
 1355SOL     OW 4163   2.361   0.052   1.755
 1355SOL    HW1 4164   2.352   4.496   1.673
 1355SOL    HW2 4165   2.288   0.120   1.757
 1356SOL     OW 4166   2.444   0.871   1.033
 1356SOL    HW1 4167   2.477   0.964   1.024
 1356SOL    HW2 4168   2.383   0.864   1.112
 1357SOL     OW 4169   3.224   0.858   1.034
 1357SOL    HW1 4170   3.138   0.858   0.982
 1357SOL    HW2 4171   3.264   0.766   1.031
 1358SOL     OW 4172   3.056   0.558   0.280
 1358SOL    HW1 4173   3.073   0.470   0.325
 1358SOL    HW2 4174   3.008   0.619   0.342
 1359SOL     OW 4175   2.155   0.234   1.239
 1359SOL    HW1 4176   2.113   0.255   1.327
 1359SOL    HW2 4177   2.185   0.138   1.239
 1360SOL     OW 4178   1.913   1.311   1.278
 1360SOL    HW1 4179   1.945   1.251   1.352
 1360SOL    HW2 4180   1.917   1.406   1.309
 1361SOL     OW 4181   2.588   0.633   1.060
 1361SOL    HW1 4182   2.662   0.608   0.997
 1361SOL    HW2 4183   2.555   0.724   1.037
 1362SOL     OW 4184   3.593   0.959   1.849
 1362SOL    HW1 4185   3.546   0.900   1.783
 1362SOL    HW2 4186   3.534   0.973   1.929
 1363SOL     OW 4187   2.158   0.064   0.653
 1363SOL    HW1 4188   2.148   0.163   0.661
 1363SOL    HW2 4189   2.174   0.025   0.744
 1364SOL     OW 4190   3.473   0.381   0.370
 1364SOL    HW1 4191   3.506   0.312   0.435
 1364SOL    HW2 4192   3.448   0.464   0.420
 1365SOL     OW 4193   2.886   0.759   0.963
 1365SOL    HW1 4194   2.889   0.780   1.061
 1365SOL    HW2 4195   2.856   0.664   0.950
 1366SOL     OW 4196   2.864   1.576   1.683
 1366SOL    HW1 4197   2.835   1.612   1.595
 1366SOL    HW2 4198   2.894   1.481   1.672
 1367SOL     OW 4199   3.720   1.510   1.606
 1367SOL    HW1 4200   3.733   1.535   1.510
 1367SOL    HW2 4201   3.804   1.528   1.657
 1368SOL     OW 4202   2.213   0.915   1.803
 1368SOL    HW1 4203   2.294   0.938   1.858
 1368SOL    HW2 4204   2.239   0.850   1.732
 1369SOL     OW 4205   3.444   0.223   0.150
 1369SOL    HW1 4206   3.349   0.201   0.127
 1369SOL    HW2 4207   3.445   0.293   0.221
 1370SOL     OW 4208   3.161   0.833   0.031
 1370SOL    HW1 4209   3.207   0.747   0.051
 1370SOL    HW2 4210   3.203   0.876   4.451
 1371SOL     OW 4211   2.927   1.335   0.851
 1371SOL    HW1 4212   2.929   1.256   0.790
 1371SOL    HW2 4213   2.992   1.404   0.819
 1372SOL     OW 4214   2.174   0.809   0.946
 1372SOL    HW1 4215   2.270   0.836   0.940
 1372SOL    HW2 4216   2.168   0.716   0.983
 1373SOL     OW 4217   2.199   0.527   1.012
 1373SOL    HW1 4218   2.153   0.439   0.995
 1373SOL    HW2 4219   2.279   0.534   0.952
 1374SOL     OW 4220   2.997   0.376   1.694
 1374SOL    HW1 4221   2.945   0.442   1.748
 1374SOL    HW2 4222   3.089   0.412   1.677
 1375SOL     OW 4223   3.023   0.214   1.475
 1375SOL    HW1 4224   3.012   0.278   1.551
 1375SOL    HW2 4225   3.057   0.263   1.395
 1376SOL     OW 4226   1.867   1.329   0.197
 1376SOL    HW1 4227   1.775   1.348   0.162
 1376SOL    HW2 4228   1.871   1.235   0.230
 1377SOL     OW 4229   1.955   1.790   0.937
 1377SOL    HW1 4230   1.917   1.707   0.896
 1377SOL    HW2 4231   2.049   1.803   0.905
 1378SOL     OW 4232   2.362   1.573   0.907
 1378SOL    HW1 4233   2.431   1.641   0.932
 1378SOL    HW2 4234   2.402   1.504   0.847
 1379SOL     OW 4235   2.850   0.798   1.231
 1379SOL    HW1 4236   2.904   0.769   1.310
 1379SOL    HW2 4237   2.759   0.756   1.236
 1380SOL     OW 4238   1.897   0.544   1.118
 1380SOL    HW1 4239   1.977   0.521   1.064
 1380SOL    HW2 4240   1.922   0.552   1.214
 1381SOL     OW 4241   2.048   0.519   1.721
 1381SOL    HW1 4242   2.121   0.488   1.661
 1381SOL    HW2 4243   2.001   0.597   1.680
 1382SOL     OW 4244   3.237   0.942   1.658
 1382SOL    HW1 4245   3.260   1.039   1.662
 1382SOL    HW2 4246   3.236   0.912   1.563
 1383SOL     OW 4247   2.675   0.573   0.352
 1383SOL    HW1 4248   2.681   0.490   0.296
 1383SOL    HW2 4249   2.598   0.629   0.321
 1384SOL     OW 4250   3.506   0.603   1.190
 1384SOL    HW1 4251   3.488   0.541   1.266
 1384SOL    HW2 4252   3.596   0.583   1.151
 1385SOL     OW 4253   2.554   0.461   1.264
 1385SOL    HW1 4254   2.508   0.378   1.234
 1385SOL    HW2 4255   2.560   0.526   1.188
 1386SOL     OW 4256   2.783   1.683   1.453
 1386SOL    HW1 4257   2.761   1.650   1.361
 1386SOL    HW2 4258   2.789   1.783   1.451
 1387SOL     OW 4259   2.340   0.491   0.186
 1387SOL    HW1 4260   2.395   0.572   0.203
 1387SOL    HW2 4261   2.243   0.512   0.201
 1388SOL     OW 4262   2.012   1.136   1.472
 1388SOL    HW1 4263   2.015   1.084   1.558
 1388SOL    HW2 4264   2.030   1.075   1.395
 1389SOL     OW 4265   3.187   1.048   1.224
 1389SOL    HW1 4266   3.217   0.981   1.156
 1389SOL    HW2 4267   3.112   1.103   1.186
 1390SOL     OW 4268   3.170   0.856   0.306
 1390SOL    HW1 4269   3.089   0.837   0.363
 1390SOL    HW2 4270   3.147   0.843   0.210
 1391SOL     OW 4271   3.632   1.742   1.150
 1391SOL    HW1 4272   3.693   1.776   1.078
 1391SOL    HW2 4273   3.605   1.648   1.128
 1392SOL     OW 4274   3.105   1.733   1.116
 1392SOL    HW1 4275   3.189   1.756   1.067
 1392SOL    HW2 4276   3.105   1.635   1.136
 1393SOL     OW 4277   1.944   1.266   1.014
 1393SOL    HW1 4278   1.932   1.277   1.112
 1393SOL    HW2 4279   1.870   1.210   0.977
 1394SOL     OW 4280   2.533   1.660   1.657
 1394SOL    HW1 4281   2.508   1.746   1.702
 1394SOL    HW2 4282   2.619   1.672   1.608
 1395SOL     OW 4283   2.741   0.060   0.141
 1395SOL    HW1 4284   2.816   0.094   0.083
 1395SOL    HW2 4285   2.779   0.024   0.226
 1396SOL     OW 4286   3.583   0.136   0.501
 1396SOL    HW1 4287   3.648   0.122   0.427
 1396SOL    HW2 4288   3.584   0.057   0.562
 1397SOL     OW 4289   3.260   1.576   0.486
 1397SOL    HW1 4290   3.324   1.605   0.415
 1397SOL    HW2 4291   3.207   1.655   0.517
 1398SOL     OW 4292   3.143   0.926   0.669
 1398SOL    HW1 4293   3.217   0.859   0.678
 1398SOL    HW2 4294   3.175   1.004   0.616
 1399SOL     OW 4295   2.680   1.274   1.432
 1399SOL    HW1 4296   2.651   1.313   1.519
 1399SOL    HW2 4297   2.609   1.291   1.363
 1400SOL     OW 4298   2.551   1.574   0.169
 1400SOL    HW1 4299   2.538   1.607   0.076
 1400SOL    HW2 4300   2.487   1.500   0.189
 1401SOL     OW 4301   3.492   1.729   1.390
 1401SOL    HW1 4302   3.543   1.732   1.304
 1401SOL    HW2 4303   3.477   1.821   1.424
 1402SOL     OW 4304   3.701   0.158   0.965
 1402SOL    HW1 4305   3.738   0.077   0.921
 1402SOL    HW2 4306   3.610   0.177   0.928
 1403SOL     OW 4307   2.126   0.326   0.719
 1403SOL    HW1 4308   2.038   0.361   0.688
 1403SOL    HW2 4309   2.124   0.312   0.818
 1404SOL     OW 4310   3.075   1.606   0.046
 1404SOL    HW1 4311   3.072   1.507   0.063
 1404SOL    HW2 4312   3.041   1.624   4.453
 1405SOL     OW 4313   2.686   1.009   1.374
 1405SOL    HW1 4314   2.732   0.995   1.287
 1405SOL    HW2 4315   2.688   1.106   1.398
 1406SOL     OW 4316   2.770   0.898   0.283
 1406SOL    HW1 4317   2.834   0.946   0.222
 1406SOL    HW2 4318   2.821   0.835   0.342
 1407SOL     OW 4319   3.354   1.627   0.046
 1407SOL    HW1 4320   3.255   1.618   0.042
 1407SOL    HW2 4321   3.388   1.658   4.457
 1408SOL     OW 4322   2.227   1.305   1.488
 1408SOL    HW1 4323   2.218   1.381   1.423
 1408SOL    HW2 4324   2.151   1.242   1.475
 1409SOL     OW 4325   3.476   1.282   1.284
 1409SOL    HW1 4326   3.541   1.273   1.359
 1409SOL    HW2 4327   3.412   1.356   1.304
 1410SOL     OW 4328   2.911   1.106   0.708
 1410SOL    HW1 4329   2.836   1.054   0.750
 1410SOL    HW2 4330   2.974   1.042   0.663
 1411SOL     OW 4331   2.873   0.240   0.990
 1411SOL    HW1 4332   2.880   0.209   0.895
 1411SOL    HW2 4333   2.865   0.160   1.051
 1412SOL     OW 4334   2.462   1.489   0.483
 1412SOL    HW1 4335   2.504   1.430   0.413
 1412SOL    HW2 4336   2.400   1.554   0.439
 1413SOL     OW 4337   3.585   0.394   1.378
 1413SOL    HW1 4338   3.657   0.463   1.377
 1413SOL    HW2 4339   3.612   0.317   1.319
 1414SOL     OW 4340   2.117   1.331   0.298
 1414SOL    HW1 4341   2.028   1.341   0.253
 1414SOL    HW2 4342   2.115   1.378   0.386
 1415SOL     OW 4343   1.967   1.009   1.716
 1415SOL    HW1 4344   1.888   0.987   1.773
 1415SOL    HW2 4345   2.051   0.980   1.763
 1416SOL     OW 4346   2.525   0.204   1.496
 1416SOL    HW1 4347   2.608   0.178   1.446
 1416SOL    HW2 4348   2.548   0.223   1.591
 1417SOL     OW 4349   1.925   0.332   4.471
 1417SOL    HW1 4350   1.827   0.329   4.490
 1417SOL    HW2 4351   1.954   0.427   4.462
 1418SOL     OW 4352   3.292   0.858   1.400
 1418SOL    HW1 4353   3.238   0.920   1.343
 1418SOL    HW2 4354   3.387   0.859   1.369
 1419SOL     OW 4355   3.046   1.344   0.118
 1419SOL    HW1 4356   2.946   1.347   0.109
 1419SOL    HW2 4357   3.070   1.346   0.215
 1420SOL     OW 4358   2.482   0.832   1.431
 1420SOL    HW1 4359   2.538   0.913   1.416
 1420SOL    HW2 4360   2.541   0.752   1.441
 1421SOL     OW 4361   3.348   1.778   0.978
 1421SOL    HW1 4362   3.373   1.832   0.898
 1421SOL    HW2 4363   3.431   1.754   1.029
 1422SOL     OW 4364   2.581   0.563   1.707
 1422SOL    HW1 4365   2.615   0.633   1.770
 1422SOL    HW2 4366   2.616   0.473   1.734
 1423SOL     OW 4367   3.330   1.204   1.636
 1423SOL    HW1 4368   3.317   1.216   1.735
 1423SOL    HW2 4369   3.427   1.215   1.614
 1424SOL     OW 4370   2.242   1.734   1.562
 1424SOL    HW1 4371   2.147   1.766   1.558
 1424SOL    HW2 4372   2.243   1.635   1.577
 1425SOL     OW 4373   3.535   0.880   1.256
 1425SOL    HW1 4374   3.525   0.790   1.215
 1425SOL    HW2 4375   3.524   0.950   1.185
 1426SOL     OW 4376   3.087   0.328   0.445
 1426SOL    HW1 4377   3.149   0.249   0.443
 1426SOL    HW2 4378   3.103   0.381   0.529
 1427SOL     OW 4379   2.449   0.741   0.665
 1427SOL    HW1 4380   2.495   0.828   0.653
 1427SOL    HW2 4381   2.375   0.732   0.598
 1428SOL     OW 4382   3.624   0.363   1.643
 1428SOL    HW1 4383   3.610   0.376   1.544
 1428SOL    HW2 4384   3.545   0.316   1.682
 1429SOL     OW 4385   3.608   0.933   1.511
 1429SOL    HW1 4386   3.608   1.031   1.532
 1429SOL    HW2 4387   3.591   0.919   1.413
 1430SOL     OW 4388   2.777   1.380   0.067
 1430SOL    HW1 4389   2.702   1.359   0.129
 1430SOL    HW2 4390   2.743   1.437   4.492
 1431SOL     OW 4391   2.522   1.794   0.949
 1431SOL    HW1 4392   2.496   1.887   0.923
 1431SOL    HW2 4393   2.621   1.783   0.937
 1432SOL     OW 4394   2.728   0.966   0.858
 1432SOL    HW1 4395   2.781   0.890   0.896
 1432SOL    HW2 4396   2.692   1.022   0.932
 1433SOL     OW 4397   2.937   0.984   0.074
 1433SOL    HW1 4398   2.930   1.048   4.496
 1433SOL    HW2 4399   3.017   0.926   0.062
 1434SOL     OW 4400   3.715   1.560   0.849
 1434SOL    HW1 4401   3.642   1.547   0.782
 1434SOL    HW2 4402   3.714   1.485   0.916
 1435SOL     OW 4403   2.084   1.232   1.839
 1435SOL    HW1 4404   2.002   1.179   1.818
 1435SOL    HW2 4405   2.072   1.276   1.928
 1436SOL     OW 4406   1.944   1.236   0.663
 1436SOL    HW1 4407   1.944   1.184   0.748
 1436SOL    HW2 4408   2.014   1.199   0.602
 1437SOL     OW 4409   2.550   1.392   1.637
 1437SOL    HW1 4410   2.464   1.348   1.665
 1437SOL    HW2 4411   2.541   1.491   1.648
 1438SOL     OW 4412   3.668   0.183   1.237
 1438SOL    HW1 4413   3.673   0.087   1.267
 1438SOL    HW2 4414   3.686   0.188   1.139
 1439SOL     OW 4415   2.297   0.431   0.525
 1439SOL    HW1 4416   2.328   0.359   0.463
 1439SOL    HW2 4417   2.242   0.389   0.598
 1440SOL     OW 4418   3.559   1.490   1.102
 1440SOL    HW1 4419   3.477   1.465   1.051
 1440SOL    HW2 4420   3.579   1.419   1.170
 1441SOL     OW 4421   2.190   0.553   1.289
 1441SOL    HW1 4422   2.248   0.498   1.349
 1441SOL    HW2 4423   2.209   0.529   1.194
 1442SOL     OW 4424   2.686   1.579   0.680
 1442SOL    HW1 4425   2.689   1.622   0.590
 1442SOL    HW2 4426   2.605   1.521   0.687
 1443SOL     OW 4427   3.294   0.217   1.118
 1443SOL    HW1 4428   3.335   0.141   1.168
 1443SOL    HW2 4429   3.240   0.273   1.181
 1444SOL     OW 4430   2.858   0.015   1.147
 1444SOL    HW1 4431   2.804   4.432   1.135
 1444SOL    HW2 4432   2.954   4.491   1.163
 1445SOL     OW 4433   2.630   1.318   0.317
 1445SOL    HW1 4434   2.595   1.225   0.330
 1445SOL    HW2 4435   2.721   1.326   0.359
 1446SOL     OW 4436   2.485   1.559   1.287
 1446SOL    HW1 4437   2.482   1.649   1.332
 1446SOL    HW2 4438   2.574   1.546   1.245
 1447SOL     OW 4439   3.203   0.046   0.186
 1447SOL    HW1 4440   3.254   4.478   0.135
 1447SOL    HW2 4441   3.109   0.014   0.200
 1448SOL     OW 4442   3.176   0.464   0.683
 1448SOL    HW1 4443   3.112   0.541   0.680
 1448SOL    HW2 4444   3.165   0.416   0.770
 1449SOL     OW 4445   3.448   0.205   0.868
 1449SOL    HW1 4446   3.385   0.214   0.945
 1449SOL    HW2 4447   3.453   0.292   0.818
 1450SOL     OW 4448   1.906   1.075   0.323
 1450SOL    HW1 4449   2.003   1.081   0.301
 1450SOL    HW2 4450   1.884   0.981   0.348
 1451SOL     OW 4451   2.737   1.644   0.361
 1451SOL    HW1 4452   2.668   1.612   0.296
 1451SOL    HW2 4453   2.704   1.726   0.408
 1452SOL     OW 4454   2.091   0.624   1.982
 1452SOL    HW1 4455   2.000   0.623   2.024
 1452SOL    HW2 4456   2.084   0.594   1.887
 1453SOL     OW 4457   2.071   0.295   2.853
 1453SOL    HW1 4458   2.106   0.269   2.943
 1453SOL    HW2 4459   1.984   0.249   2.836
 1454SOL     OW 4460   1.870   0.384   2.499
 1454SOL    HW1 4461   1.782   0.408   2.538
 1454SOL    HW2 4462   1.859   0.304   2.439
 1455SOL     OW 4463   2.429   1.284   3.034
 1455SOL    HW1 4464   2.335   1.275   2.999
 1455SOL    HW2 4465   2.442   1.376   3.070
 1456SOL     OW 4466   3.416   1.511   2.568
 1456SOL    HW1 4467   3.373   1.491   2.656
 1456SOL    HW2 4468   3.346   1.518   2.497
 1457SOL     OW 4469   2.994   0.703   2.562
 1457SOL    HW1 4470   3.046   0.787   2.547
 1457SOL    HW2 4471   2.942   0.710   2.647
 1458SOL     OW 4472   3.623   0.608   2.090
 1458SOL    HW1 4473   3.606   0.598   1.992
 1458SOL    HW2 4474   3.593   0.526   2.138
 1459SOL     OW 4475   2.617   1.140   2.900
 1459SOL    HW1 4476   2.543   1.172   2.959
 1459SOL    HW2 4477   2.664   1.219   2.861
 1460SOL     OW 4478   2.724   0.781   3.681
 1460SOL    HW1 4479   2.712   0.851   3.751
 1460SOL    HW2 4480   2.749   0.824   3.594
 1461SOL     OW 4481   2.549   1.009   2.514
 1461SOL    HW1 4482   2.616   0.991   2.586
 1461SOL    HW2 4483   2.473   1.062   2.551
 1462SOL     OW 4484   2.569   1.155   3.672
 1462SOL    HW1 4485   2.621   1.236   3.698
 1462SOL    HW2 4486   2.480   1.183   3.636
 1463SOL     OW 4487   2.176   1.426   2.943
 1463SOL    HW1 4488   2.112   1.382   2.879
 1463SOL    HW2 4489   2.244   1.478   2.892
 1464SOL     OW 4490   3.323   1.498   3.210
 1464SOL    HW1 4491   3.369   1.586   3.220
 1464SOL    HW2 4492   3.267   1.480   3.291
 1465SOL     OW 4493   2.303   0.396   3.355
 1465SOL    HW1 4494   2.389   0.344   3.354
 1465SOL    HW2 4495   2.226   0.332   3.363
 1466SOL     OW 4496   3.476   0.449   2.601
 1466SOL    HW1 4497   3.392   0.471   2.552
 1466SOL    HW2 4498   3.502   0.525   2.659
 1467SOL     OW 4499   2.089   1.745   2.257
 1467SOL    HW1 4500   2.089   1.768   2.354
 1467SOL    HW2 4501   2.180   1.710   2.231
 1468SOL     OW 4502   2.998   1.340   3.556
 1468SOL    HW1 4503   3.042   1.341   3.646
 1468SOL    HW2 4504   2.942   1.257   3.548
 1469SOL     OW 4505   2.121   1.090   2.759
 1469SOL    HW1 4506   2.116   0.996   2.793
 1469SOL    HW2 4507   2.056   1.147   2.809
 1470SOL     OW 4508   2.474   1.794   3.293
 1470SOL    HW1 4509   2.388   1.771   3.339
 1470SOL    HW2 4510   2.502   1.887   3.320
 1471SOL     OW 4511   2.454   0.979   1.994
 1471SOL    HW1 4512   2.495   1.036   1.923
 1471SOL    HW2 4513   2.492   1.005   2.083
 1472SOL     OW 4514   3.450   0.115   3.339
 1472SOL    HW1 4515   3.458   0.180   3.263
 1472SOL    HW2 4516   3.438   0.165   3.424
 1473SOL     OW 4517   1.978   0.652   2.425
 1473SOL    HW1 4518   1.947   0.558   2.442
 1473SOL    HW2 4519   1.969   0.706   2.509
 1474SOL     OW 4520   3.704   1.762   2.199
 1474SOL    HW1 4521   3.764   1.728   2.272
 1474SOL    HW2 4522   3.729   1.856   2.177
 1475SOL     OW 4523   3.555   0.923   2.502
 1475SOL    HW1 4524   3.641   0.875   2.487
 1475SOL    HW2 4525   3.531   0.974   2.419
 1476SOL     OW 4526   3.508   1.109   2.293
 1476SOL    HW1 4527   3.596   1.113   2.244
 1476SOL    HW2 4528   3.511   1.172   2.371
 1477SOL     OW 4529   1.982   0.743   3.449
 1477SOL    HW1 4530   2.079   0.761   3.462
 1477SOL    HW2 4531   1.931   0.829   3.451
 1478SOL     OW 4532   3.155   1.239   3.285
 1478SOL    HW1 4533   3.184   1.169   3.221
 1478SOL    HW2 4534   3.209   1.232   3.369
 1479SOL     OW 4535   2.674   0.014   2.405
 1479SOL    HW1 4536   2.717   0.101   2.382
 1479SOL    HW2 4537   2.575   0.023   2.400
 1480SOL     OW 4538   2.055   0.968   3.132
 1480SOL    HW1 4539   2.142   0.922   3.115
 1480SOL    HW2 4540   1.981   0.917   3.087
 1481SOL     OW 4541   3.395   0.993   2.060
 1481SOL    HW1 4542   3.321   0.931   2.086
 1481SOL    HW2 4543   3.437   1.031   2.143
 1482SOL     OW 4544   3.045   1.803   3.480
 1482SOL    HW1 4545   3.062   1.868   3.406
 1482SOL    HW2 4546   3.062   1.710   3.447
 1483SOL     OW 4547   2.177   0.255   3.646
 1483SOL    HW1 4548   2.248   0.321   3.674
 1483SOL    HW2 4549   2.097   0.265   3.706
 1484SOL     OW 4550   3.328   1.419   2.818
 1484SOL    HW1 4551   3.258   1.437   2.886
 1484SOL    HW2 4552   3.319   1.325   2.785
 1485SOL     OW 4553   3.520   1.732   2.439
 1485SOL    HW1 4554   3.498   1.708   2.345
 1485SOL    HW2 4555   3.493   1.657   2.500
 1486SOL     OW 4556   2.456   0.726   2.129
 1486SOL    HW1 4557   2.465   0.806   2.070
 1486SOL    HW2 4558   2.386   0.741   2.198
 1487SOL     OW 4559   3.153   0.357   2.796
 1487SOL    HW1 4560   3.060   0.327   2.775
 1487SOL    HW2 4561   3.195   0.295   2.862
 1488SOL     OW 4562   3.446   1.668   2.169
 1488SOL    HW1 4563   3.539   1.704   2.168
 1488SOL    HW2 4564   3.416   1.650   2.076
 1489SOL     OW 4565   2.658   0.614   3.318
 1489SOL    HW1 4566   2.629   0.594   3.411
 1489SOL    HW2 4567   2.613   0.551   3.254
 1490SOL     OW 4568   3.251   0.476   3.538
 1490SOL    HW1 4569   3.249   0.523   3.626
 1490SOL    HW2 4570   3.319   0.403   3.541
 1491SOL     OW 4571   2.821   0.888   3.441
 1491SOL    HW1 4572   2.877   0.813   3.408
 1491SOL    HW2 4573   2.769   0.927   3.365
 1492SOL     OW 4574   2.858   0.414   3.096
 1492SOL    HW1 4575   2.772   0.432   3.145
 1492SOL    HW2 4576   2.839   0.359   3.015
 1493SOL     OW 4577   2.909   0.698   2.290
 1493SOL    HW1 4578   2.928   0.692   2.388
 1493SOL    HW2 4579   2.825   0.649   2.269
 1494SOL     OW 4580   1.951   0.821   2.640
 1494SOL    HW1 4581   2.038   0.810   2.688
 1494SOL    HW2 4582   1.904   0.903   2.673
 1495SOL     OW 4583   1.992   1.845   3.441
 1495SOL    HW1 4584   1.991   1.821   3.538
 1495SOL    HW2 4585   1.899   1.843   3.405
 1496SOL     OW 4586   2.717   0.368   2.045
 1496SOL    HW1 4587   2.790   0.410   1.991
 1496SOL    HW2 4588   2.732   0.269   2.050
 1497SOL     OW 4589   3.569   0.578   3.689
 1497SOL    HW1 4590   3.532   0.659   3.643
 1497SOL    HW2 4591   3.602   0.513   3.620
 1498SOL     OW 4592   3.237   1.143   2.400
 1498SOL    HW1 4593   3.322   1.122   2.351
 1498SOL    HW2 4594   3.185   1.210   2.347
 1499SOL     OW 4595   2.399   0.201   2.767
 1499SOL    HW1 4596   2.419   0.219   2.863
 1499SOL    HW2 4597   2.394   0.287   2.717
 1500SOL     OW 4598   3.658   1.064   2.730
 1500SOL    HW1 4599   3.604   1.042   2.649
 1500SOL    HW2 4600   3.598   1.067   2.810
 1501SOL     OW 4601   3.088   1.539   3.376
 1501SOL    HW1 4602   3.076   1.464   3.441
 1501SOL    HW2 4603   3.028   1.525   3.297
 1502SOL     OW 4604   2.185   0.949   2.112
 1502SOL    HW1 4605   2.270   0.979   2.068
 1502SOL    HW2 4606   2.151   0.866   2.067
 1503SOL     OW 4607   3.338   0.742   2.587
 1503SOL    HW1 4608   3.323   0.689   2.671
 1503SOL    HW2 4609   3.418   0.800   2.599
 1504SOL     OW 4610   2.325   1.261   3.595
 1504SOL    HW1 4611   2.297   1.268   3.499
 1504SOL    HW2 4612   2.244   1.260   3.654
 1505SOL     OW 4613   3.017   1.768   2.119
 1505SOL    HW1 4614   2.937   1.737   2.170
 1505SOL    HW2 4615   3.025   1.717   2.034
 1506SOL     OW 4616   2.054   0.272   3.370
 1506SOL    HW1 4617   1.983   0.340   3.349
 1506SOL    HW2 4618   2.064   0.263   3.469
 1507SOL     OW 4619   3.490   1.380   1.949
 1507SOL    HW1 4620   3.451   1.470   1.933
 1507SOL    HW2 4621   3.420   1.310   1.930
 1508SOL     OW 4622   2.363   1.735   2.239
 1508SOL    HW1 4623   2.387   1.817   2.290
 1508SOL    HW2 4624   2.396   1.743   2.145
 1509SOL     OW 4625   3.279   0.132   2.277
 1509SOL    HW1 4626   3.259   0.083   2.192
 1509SOL    HW2 4627   3.378   0.130   2.294
 1510SOL     OW 4628   2.121   1.793   3.095
 1510SOL    HW1 4629   2.173   1.726   3.147
 1510SOL    HW2 4630   2.090   1.753   3.009
 1511SOL     OW 4631   2.253   0.690   2.341
 1511SOL    HW1 4632   2.280   0.594   2.351
 1511SOL    HW2 4633   2.155   0.699   2.360
 1512SOL     OW 4634   3.387   0.232   3.585
 1512SOL    HW1 4635   3.388   0.257   3.682
 1512SOL    HW2 4636   3.309   0.172   3.566
 1513SOL     OW 4637   2.486   0.119   1.983
 1513SOL    HW1 4638   2.581   0.089   1.994
 1513SOL    HW2 4639   2.451   0.087   1.895
 1514SOL     OW 4640   2.633   0.271   3.616
 1514SOL    HW1 4641   2.700   0.197   3.627
 1514SOL    HW2 4642   2.579   0.279   3.700
 1515SOL     OW 4643   2.744   1.524   3.057
 1515SOL    HW1 4644   2.721   1.483   2.969
 1515SOL    HW2 4645   2.813   1.468   3.103
 1516SOL     OW 4646   3.206   0.589   3.293
 1516SOL    HW1 4647   3.232   0.555   3.383
 1516SOL    HW2 4648   3.239   0.683   3.282
 1517SOL     OW 4649   2.689   1.395   2.824
 1517SOL    HW1 4650   2.776   1.383   2.777
 1517SOL    HW2 4651   2.615   1.396   2.758
 1518SOL     OW 4652   2.783   0.515   2.762
 1518SOL    HW1 4653   2.764   0.514   2.664
 1518SOL    HW2 4654   2.825   0.428   2.789
 1519SOL     OW 4655   2.413   0.074   2.381
 1519SOL    HW1 4656   2.320   0.048   2.408
 1519SOL    HW2 4657   2.407   0.146   2.311
 1520SOL     OW 4658   3.291   1.196   1.905
 1520SOL    HW1 4659   3.325   1.118   1.956
 1520SOL    HW2 4660   3.201   1.223   1.940
 1521SOL     OW 4661   2.157   0.069   2.057
 1521SOL    HW1 4662   2.233   0.129   2.031
 1521SOL    HW2 4663   2.191   4.494   2.113
 1522SOL     OW 4664   2.811   0.241   2.335
 1522SOL    HW1 4665   2.753   0.288   2.268
 1522SOL    HW2 4666   2.905   0.274   2.326
 1523SOL     OW 4667   2.942   0.678   3.324
 1523SOL    HW1 4668   2.862   0.618   3.324
 1523SOL    HW2 4669   3.025   0.624   3.311
 1524SOL     OW 4670   3.100   1.559   2.651
 1524SOL    HW1 4671   3.113   1.633   2.585
 1524SOL    HW2 4672   3.158   1.574   2.731
 1525SOL     OW 4673   2.329   1.144   2.600
 1525SOL    HW1 4674   2.255   1.127   2.665
 1525SOL    HW2 4675   2.294   1.136   2.506
 1526SOL     OW 4676   3.139   1.793   2.462
 1526SOL    HW1 4677   3.184   1.853   2.396
 1526SOL    HW2 4678   3.077   1.847   2.519
 1527SOL     OW 4679   2.891   0.548   1.879
 1527SOL    HW1 4680   2.841   0.632   1.858
 1527SOL    HW2 4681   2.954   0.564   1.955
 1528SOL     OW 4682   1.943   0.554   3.255
 1528SOL    HW1 4683   2.037   0.553   3.219
 1528SOL    HW2 4684   1.934   0.628   3.322
 1529SOL     OW 4685   2.427   0.240   3.029
 1529SOL    HW1 4686   2.461   0.153   3.064
 1529SOL    HW2 4687   2.331   0.251   3.055
 1530SOL     OW 4688   2.730   0.500   2.488
 1530SOL    HW1 4689   2.675   0.552   2.423
 1530SOL    HW2 4690   2.716   0.402   2.472
 1531SOL     OW 4691   2.835   0.028   2.631
 1531SOL    HW1 4692   2.779   0.025   2.548
 1531SOL    HW2 4693   2.842   4.436   2.670
 1532SOL     OW 4694   3.301   1.164   2.720
 1532SOL    HW1 4695   3.230   1.094   2.724
 1532SOL    HW2 4696   3.326   1.180   2.625
 1533SOL     OW 4697   3.330   0.601   2.843
 1533SOL    HW1 4698   3.274   0.518   2.842
 1533SOL    HW2 4699   3.393   0.597   2.921
 1534SOL     OW 4700   3.709   0.817   2.242
 1534SOL    HW1 4701   3.766   0.766   2.306
 1534SOL    HW2 4702   3.676   0.756   2.170
 1535SOL     OW 4703   3.530   1.267   2.510
 1535SOL    HW1 4704   3.630   1.268   2.521
 1535SOL    HW2 4705   3.494   1.358   2.532
 1536SOL     OW 4706   3.253   0.571   1.932
 1536SOL    HW1 4707   3.191   0.554   2.009
 1536SOL    HW2 4708   3.347   0.549   1.960
 1537SOL     OW 4709   2.389   0.267   2.184
 1537SOL    HW1 4710   2.430   0.207   2.116
 1537SOL    HW2 4711   2.371   0.357   2.143
 1538SOL     OW 4712   3.617   1.234   3.436
 1538SOL    HW1 4713   3.708   1.193   3.429
 1538SOL    HW2 4714   3.626   1.328   3.470
 1539SOL     OW 4715   2.922   1.353   3.200
 1539SOL    HW1 4716   2.841   1.321   3.250
 1539SOL    HW2 4717   3.004   1.312   3.240
 1540SOL     OW 4718   3.470   1.627   3.512
 1540SOL    HW1 4719   3.463   1.662   3.419
 1540SOL    HW2 4720   3.556   1.577   3.523
 1541SOL     OW 4721   2.989   1.206   2.972
 1541SOL    HW1 4722   2.930   1.243   3.043
 1541SOL    HW2 4723   2.957   1.235   2.882
 1542SOL     OW 4724   3.493   1.100   2.943
 1542SOL    HW1 4725   3.490   1.165   3.019
 1542SOL    HW2 4726   3.412   1.112   2.886
 1543SOL     OW 4727   2.768   0.130   3.250
 1543SOL    HW1 4728   2.789   0.084   3.163
 1543SOL    HW2 4729   2.854   0.146   3.300
 1544SOL     OW 4730   2.843   1.113   3.583
 1544SOL    HW1 4731   2.747   1.132   3.606
 1544SOL    HW2 4732   2.848   1.032   3.525
 1545SOL     OW 4733   2.570   1.052   2.234
 1545SOL    HW1 4734   2.551   1.042   2.332
 1545SOL    HW2 4735   2.651   0.998   2.210
 1546SOL     OW 4736   2.280   0.813   3.114
 1546SOL    HW1 4737   2.354   0.826   3.180
 1546SOL    HW2 4738   2.240   0.722   3.127
 1547SOL     OW 4739   3.130   0.379   3.133
 1547SOL    HW1 4740   3.166   0.458   3.182
 1547SOL    HW2 4741   3.037   0.398   3.103
 1548SOL     OW 4742   1.931   1.571   3.211
 1548SOL    HW1 4743   1.892   1.645   3.157
 1548SOL    HW2 4744   2.030   1.576   3.208
 1549SOL     OW 4745   2.222   1.112   2.351
 1549SOL    HW1 4746   2.211   1.190   2.288
 1549SOL    HW2 4747   2.217   1.027   2.299
 1550SOL     OW 4748   2.420   0.538   2.723
 1550SOL    HW1 4749   2.435   0.597   2.643
 1550SOL    HW2 4750   2.483   0.564   2.796
 1551SOL     OW 4751   3.106   1.353   2.253
 1551SOL    HW1 4752   3.165   1.428   2.282
 1551SOL    HW2 4753   3.020   1.357   2.302
 1552SOL     OW 4754   3.139   1.457   3.008
 1552SOL    HW1 4755   3.198   1.461   3.089
 1552SOL    HW2 4756   3.082   1.375   3.012
 1553SOL     OW 4757   3.444   0.626   2.337
 1553SOL    HW1 4758   3.397   0.679   2.407
 1553SOL    HW2 4759   3.493   0.687   2.275
 1554SOL     OW 4760   2.212   1.526   3.184
 1554SOL    HW1 4761   2.190   1.480   3.098
 1554SOL    HW2 4762   2.311   1.540   3.189
 1555SOL     OW 4763   2.274   0.744   3.463
 1555SOL    HW1 4764   2.335   0.795   3.402
 1555SOL    HW2 4765   2.316   0.655   3.484
 1556SOL     OW 4766   3.461   0.781   3.540
 1556SOL    HW1 4767   3.370   0.820   3.537
 1556SOL    HW2 4768   3.518   0.822   3.469
 1557SOL     OW 4769   2.867   0.088   3.588
 1557SOL    HW1 4770   2.891   0.178   3.552
 1557SOL    HW2 4771   2.894   0.018   3.522
 1558SOL     OW 4772   2.361   0.051   3.617
 1558SOL    HW1 4773   2.352   4.496   3.534
 1558SOL    HW2 4774   2.288   0.120   3.619
 1559SOL     OW 4775   2.446   0.870   2.895
 1559SOL    HW1 4776   2.476   0.965   2.884
 1559SOL    HW2 4777   2.383   0.864   2.973
 1560SOL     OW 4778   3.224   0.858   2.895
 1560SOL    HW1 4779   3.137   0.857   2.845
 1560SOL    HW2 4780   3.264   0.767   2.893
 1561SOL     OW 4781   3.067   0.534   2.130
 1561SOL    HW1 4782   3.076   0.448   2.180
 1561SOL    HW2 4783   3.022   0.602   2.187
 1562SOL     OW 4784   2.155   0.234   3.102
 1562SOL    HW1 4785   2.112   0.255   3.190
 1562SOL    HW2 4786   2.185   0.138   3.101
 1563SOL     OW 4787   1.909   1.310   3.141
 1563SOL    HW1 4788   1.944   1.251   3.214
 1563SOL    HW2 4789   1.916   1.405   3.169
 1564SOL     OW 4790   2.589   0.633   2.923
 1564SOL    HW1 4791   2.662   0.608   2.859
 1564SOL    HW2 4792   2.555   0.724   2.900
 1565SOL     OW 4793   3.594   0.958   3.712
 1565SOL    HW1 4794   3.546   0.901   3.646
 1565SOL    HW2 4795   3.535   0.973   3.792
 1566SOL     OW 4796   2.159   0.061   2.517
 1566SOL    HW1 4797   2.150   0.161   2.520
 1566SOL    HW2 4798   2.173   0.027   2.610
 1567SOL     OW 4799   3.476   0.376   2.229
 1567SOL    HW1 4800   3.509   0.307   2.292
 1567SOL    HW2 4801   3.451   0.459   2.279
 1568SOL     OW 4802   2.887   0.759   2.825
 1568SOL    HW1 4803   2.889   0.780   2.923
 1568SOL    HW2 4804   2.856   0.664   2.812
 1569SOL     OW 4805   2.844   1.563   3.574
 1569SOL    HW1 4806   2.828   1.612   3.488
 1569SOL    HW2 4807   2.892   1.477   3.555
 1570SOL     OW 4808   3.720   1.511   3.468
 1570SOL    HW1 4809   3.733   1.535   3.372
 1570SOL    HW2 4810   3.804   1.529   3.519
 1571SOL     OW 4811   2.216   0.916   3.667
 1571SOL    HW1 4812   2.298   0.937   3.720
 1571SOL    HW2 4813   2.239   0.851   3.594
 1572SOL     OW 4814   3.394   0.266   1.992
 1572SOL    HW1 4815   3.318   0.205   2.015
 1572SOL    HW2 4816   3.424   0.314   2.074
 1573SOL     OW 4817   3.158   0.828   1.895
 1573SOL    HW1 4818   3.197   0.736   1.901
 1573SOL    HW2 4819   3.186   0.870   1.809
 1574SOL     OW 4820   2.933   1.327   2.722
 1574SOL    HW1 4821   2.931   1.251   2.656
 1574SOL    HW2 4822   2.992   1.399   2.687
 1575SOL     OW 4823   2.174   0.809   2.808
 1575SOL    HW1 4824   2.270   0.836   2.801
 1575SOL    HW2 4825   2.169   0.716   2.845
 1576SOL     OW 4826   2.200   0.526   2.874
 1576SOL    HW1 4827   2.153   0.440   2.857
 1576SOL    HW2 4828   2.279   0.534   2.814
 1577SOL     OW 4829   2.997   0.376   3.556
 1577SOL    HW1 4830   2.944   0.442   3.610
 1577SOL    HW2 4831   3.089   0.412   3.539
 1578SOL     OW 4832   3.024   0.214   3.337
 1578SOL    HW1 4833   3.012   0.278   3.413
 1578SOL    HW2 4834   3.057   0.263   3.257
 1579SOL     OW 4835   1.852   1.304   2.115
 1579SOL    HW1 4836   1.770   1.320   2.061
 1579SOL    HW2 4837   1.867   1.205   2.124
 1580SOL     OW 4838   1.958   1.779   2.833
 1580SOL    HW1 4839   1.920   1.702   2.781
 1580SOL    HW2 4840   2.043   1.809   2.790
 1581SOL     OW 4841   2.377   1.570   2.841
 1581SOL    HW1 4842   2.431   1.654   2.848
 1581SOL    HW2 4843   2.404   1.521   2.758
 1582SOL     OW 4844   2.850   0.798   3.092
 1582SOL    HW1 4845   2.904   0.769   3.172
 1582SOL    HW2 4846   2.759   0.757   3.097
 1583SOL     OW 4847   1.896   0.543   2.980
 1583SOL    HW1 4848   1.976   0.521   2.925
 1583SOL    HW2 4849   1.923   0.552   3.076
 1584SOL     OW 4850   2.048   0.519   3.584
 1584SOL    HW1 4851   2.121   0.488   3.523
 1584SOL    HW2 4852   2.001   0.597   3.542
 1585SOL     OW 4853   3.238   0.941   3.520
 1585SOL    HW1 4854   3.259   1.039   3.525
 1585SOL    HW2 4855   3.236   0.912   3.424
 1586SOL     OW 4856   2.675   0.577   2.212
 1586SOL    HW1 4857   2.680   0.498   2.151
 1586SOL    HW2 4858   2.596   0.633   2.186
 1587SOL     OW 4859   3.506   0.603   3.052
 1587SOL    HW1 4860   3.487   0.541   3.128
 1587SOL    HW2 4861   3.596   0.583   3.013
 1588SOL     OW 4862   2.110   1.552   3.594
 1588SOL    HW1 4863   2.083   1.623   3.660
 1588SOL    HW2 4864   2.107   1.462   3.640
 1589SOL     OW 4865   2.554   0.461   3.126
 1589SOL    HW1 4866   2.508   0.378   3.096
 1589SOL    HW2 4867   2.560   0.526   3.050
 1590SOL     OW 4868   2.790   1.680   3.329
 1590SOL    HW1 4869   2.761   1.642   3.241
 1590SOL    HW2 4870   2.793   1.780   3.323
 1591SOL     OW 4871   2.329   0.496   2.050
 1591SOL    HW1 4872   2.392   0.571   2.071
 1591SOL    HW2 4873   2.236   0.532   2.038
 1592SOL     OW 4874   2.011   1.136   3.335
 1592SOL    HW1 4875   2.014   1.085   3.420
 1592SOL    HW2 4876   2.029   1.075   3.258
 1593SOL     OW 4877   3.187   1.048   3.086
 1593SOL    HW1 4878   3.217   0.981   3.018
 1593SOL    HW2 4879   3.112   1.103   3.049
 1594SOL     OW 4880   3.169   0.857   2.167
 1594SOL    HW1 4881   3.091   0.826   2.222
 1594SOL    HW2 4882   3.148   0.843   2.070
 1595SOL     OW 4883   3.632   1.742   3.012
 1595SOL    HW1 4884   3.693   1.776   2.940
 1595SOL    HW2 4885   3.605   1.648   2.991
 1596SOL     OW 4886   3.106   1.735   2.979
 1596SOL    HW1 4887   3.191   1.756   2.930
 1596SOL    HW2 4888   3.102   1.636   2.997
 1597SOL     OW 4889   1.948   1.262   2.877
 1597SOL    HW1 4890   1.933   1.276   2.975
 1597SOL    HW2 4891   1.869   1.215   2.837
 1598SOL     OW 4892   2.541   1.666   3.585
 1598SOL    HW1 4893   2.485   1.748   3.588
 1598SOL    HW2 4894   2.607   1.673   3.511
 1599SOL     OW 4895   3.579   0.132   2.357
 1599SOL    HW1 4896   3.657   0.136   2.295
 1599SOL    HW2 4897   3.591   0.055   2.420
 1600SOL     OW 4898   3.253   1.568   2.342
 1600SOL    HW1 4899   3.319   1.597   2.272
 1600SOL    HW2 4900   3.202   1.648   2.374
 1601SOL     OW 4901   2.000   1.792   3.707
 1601SOL    HW1 4902   1.944   1.725   3.755
 1601SOL    HW2 4903   2.052   1.845   3.774
 1602SOL     OW 4904   3.142   0.926   2.531
 1602SOL    HW1 4905   3.215   0.859   2.541
 1602SOL    HW2 4906   3.176   1.004   2.477
 1603SOL     OW 4907   2.679   1.275   3.293
 1603SOL    HW1 4908   2.653   1.314   3.381
 1603SOL    HW2 4909   2.607   1.291   3.226
 1604SOL     OW 4910   3.492   1.729   3.252
 1604SOL    HW1 4911   3.543   1.732   3.166
 1604SOL    HW2 4912   3.477   1.822   3.286
 1605SOL     OW 4913   3.701   0.158   2.827
 1605SOL    HW1 4914   3.739   0.078   2.781
 1605SOL    HW2 4915   3.610   0.177   2.790
 1606SOL     OW 4916   2.127   0.326   2.582
 1606SOL    HW1 4917   2.039   0.360   2.549
 1606SOL    HW2 4918   2.122   0.313   2.681
 1607SOL     OW 4919   3.085   1.609   1.888
 1607SOL    HW1 4920   3.072   1.515   1.921
 1607SOL    HW2 4921   3.021   1.626   1.813
 1608SOL     OW 4922   2.686   1.009   3.236
 1608SOL    HW1 4923   2.731   0.996   3.148
 1608SOL    HW2 4924   2.688   1.105   3.261
 1609SOL     OW 4925   2.782   0.911   2.150
 1609SOL    HW1 4926   2.846   0.944   2.080
 1609SOL    HW2 4927   2.824   0.835   2.200
 1610SOL     OW 4928   3.359   1.625   1.902
 1610SOL    HW1 4929   3.260   1.621   1.896
 1610SOL    HW2 4930   3.398   1.632   1.811
 1611SOL     OW 4931   2.230   1.300   3.351
 1611SOL    HW1 4932   2.220   1.383   3.297
 1611SOL    HW2 4933   2.151   1.241   3.337
 1612SOL     OW 4934   3.477   1.283   3.146
 1612SOL    HW1 4935   3.540   1.272   3.223
 1612SOL    HW2 4936   3.412   1.356   3.166
 1613SOL     OW 4937   2.910   1.104   2.565
 1613SOL    HW1 4938   2.836   1.054   2.610
 1613SOL    HW2 4939   2.977   1.039   2.531
 1614SOL     OW 4940   2.868   0.241   2.859
 1614SOL    HW1 4941   2.879   0.218   2.763
 1614SOL    HW2 4942   2.862   0.158   2.914
 1615SOL     OW 4943   2.403   1.463   2.264
 1615SOL    HW1 4944   2.490   1.421   2.237
 1615SOL    HW2 4945   2.410   1.562   2.257
 1616SOL     OW 4946   3.585   0.393   3.240
 1616SOL    HW1 4947   3.657   0.463   3.239
 1616SOL    HW2 4948   3.612   0.317   3.181
 1617SOL     OW 4949   2.114   1.321   2.184
 1617SOL    HW1 4950   2.016   1.327   2.165
 1617SOL    HW2 4951   2.143   1.401   2.236
 1618SOL     OW 4952   1.974   1.021   3.584
 1618SOL    HW1 4953   1.893   0.997   3.637
 1618SOL    HW2 4954   2.055   0.982   3.628
 1619SOL     OW 4955   2.525   0.204   3.358
 1619SOL    HW1 4956   2.607   0.178   3.308
 1619SOL    HW2 4957   2.548   0.224   3.454
 1620SOL     OW 4958   1.944   0.341   1.906
 1620SOL    HW1 4959   1.868   0.285   1.873
 1620SOL    HW2 4960   1.961   0.415   1.841
 1621SOL     OW 4961   3.292   0.858   3.261
 1621SOL    HW1 4962   3.238   0.920   3.205
 1621SOL    HW2 4963   3.387   0.859   3.231
 1622SOL     OW 4964   1.929   0.179   2.185
 1622SOL    HW1 4965   1.919   0.252   2.117
 1622SOL    HW2 4966   2.007   0.122   2.162
 1623SOL     OW 4967   3.050   1.341   1.981
 1623SOL    HW1 4968   2.957   1.306   1.980
 1623SOL    HW2 4969   3.083   1.345   2.075
 1624SOL     OW 4970   2.482   0.832   3.294
 1624SOL    HW1 4971   2.538   0.913   3.279
 1624SOL    HW2 4972   2.541   0.752   3.303
 1625SOL     OW 4973   3.348   1.779   2.840
 1625SOL    HW1 4974   3.375   1.833   2.760
 1625SOL    HW2 4975   3.429   1.753   2.892
 1626SOL     OW 4976   2.580   0.563   3.569
 1626SOL    HW1 4977   2.615   0.634   3.631
 1626SOL    HW2 4978   2.617   0.474   3.597
 1627SOL     OW 4979   3.329   1.205   3.499
 1627SOL    HW1 4980   3.315   1.216   3.597
 1627SOL    HW2 4981   3.426   1.215   3.477
 1628SOL     OW 4982   2.244   1.739   3.426
 1628SOL    HW1 4983   2.156   1.784   3.414
 1628SOL    HW2 4984   2.230   1.649   3.468
 1629SOL     OW 4985   3.535   0.880   3.118
 1629SOL    HW1 4986   3.525   0.790   3.077
 1629SOL    HW2 4987   3.524   0.950   3.047
 1630SOL     OW 4988   3.082   0.325   2.311
 1630SOL    HW1 4989   3.150   0.253   2.298
 1630SOL    HW2 4990   3.107   0.379   2.392
 1631SOL     OW 4991   2.452   0.742   2.527
 1631SOL    HW1 4992   2.494   0.831   2.515
 1631SOL    HW2 4993   2.377   0.731   2.461
 1632SOL     OW 4994   3.624   0.362   3.505
 1632SOL    HW1 4995   3.611   0.376   3.407
 1632SOL    HW2 4996   3.544   0.316   3.544
 1633SOL     OW 4997   3.609   0.933   3.373
 1633SOL    HW1 4998   3.607   1.030   3.394
 1633SOL    HW2 4999   3.591   0.919   3.275
 1634SOL     OW 5000   2.524   1.800   2.840
 1634SOL    HW1 5001   2.480   1.888   2.823
 1634SOL    HW2 5002   2.619   1.804   2.810
 1635SOL     OW 5003   2.730   0.967   2.720
 1635SOL    HW1 5004   2.781   0.890   2.757
 1635SOL    HW2 5005   2.690   1.020   2.794
 1636SOL     OW 5006   2.945   0.992   1.949
 1636SOL    HW1 5007   2.914   1.039   1.866
 1636SOL    HW2 5008   3.022   0.933   1.926
 1637SOL     OW 5009   3.716   1.560   2.711
 1637SOL    HW1 5010   3.642   1.547   2.645
 1637SOL    HW2 5011   3.713   1.486   2.778
 1638SOL     OW 5012   2.088   1.304   3.718
 1638SOL    HW1 5013   2.018   1.241   3.684
 1638SOL    HW2 5014   2.073   1.321   3.816
 1639SOL     OW 5015   1.933   1.183   2.497
 1639SOL    HW1 5016   1.939   1.164   2.595
 1639SOL    HW2 5017   2.025   1.178   2.457
 1640SOL     OW 5018   2.541   1.402   3.490
 1640SOL    HW1 5019   2.460   1.351   3.519
 1640SOL    HW2 5020   2.537   1.495   3.527
 1641SOL     OW 5021   3.669   0.183   3.099
 1641SOL    HW1 5022   3.672   0.087   3.129
 1641SOL    HW2 5023   3.686   0.188   3.001
 1642SOL     OW 5024   2.300   0.429   2.392
 1642SOL    HW1 5025   2.324   0.359   2.324
 1642SOL    HW2 5026   2.239   0.389   2.461
 1643SOL     OW 5027   3.559   1.490   2.964
 1643SOL    HW1 5028   3.477   1.465   2.913
 1643SOL    HW2 5029   3.579   1.420   3.032
 1644SOL     OW 5030   2.190   0.552   3.151
 1644SOL    HW1 5031   2.248   0.498   3.211
 1644SOL    HW2 5032   2.209   0.529   3.056
 1645SOL     OW 5033   3.293   0.217   2.980
 1645SOL    HW1 5034   3.335   0.141   3.030
 1645SOL    HW2 5035   3.240   0.273   3.043
 1646SOL     OW 5036   2.858   0.014   3.010
 1646SOL    HW1 5037   2.804   4.431   2.997
 1646SOL    HW2 5038   2.954   4.489   3.024
 1647SOL     OW 5039   2.627   1.319   2.195
 1647SOL    HW1 5040   2.588   1.227   2.199
 1647SOL    HW2 5041   2.721   1.318   2.227
 1648SOL     OW 5042   2.486   1.560   3.153
 1648SOL    HW1 5043   2.485   1.646   3.204
 1648SOL    HW2 5044   2.574   1.549   3.107
 1649SOL     OW 5045   3.203   0.054   2.014
 1649SOL    HW1 5046   3.246   4.477   1.967
 1649SOL    HW2 5047   3.122   0.021   2.064
 1650SOL     OW 5048   3.175   0.464   2.544
 1650SOL    HW1 5049   3.111   0.541   2.541
 1650SOL    HW2 5050   3.166   0.416   2.631
 1651SOL     OW 5051   3.448   0.205   2.730
 1651SOL    HW1 5052   3.384   0.215   2.807
 1651SOL    HW2 5053   3.453   0.292   2.680
 1652SOL     OW 5054   1.909   1.050   2.158
 1652SOL    HW1 5055   2.008   1.050   2.147
 1652SOL    HW2 5056   1.879   0.960   2.190
 1653SOL     OW 5057   2.742   1.634   2.245
 1653SOL    HW1 5058   2.691   1.584   2.175
 1653SOL    HW2 5059   2.703   1.725   2.256
 1654SOL     OW 5060   2.091   0.624   3.844
 1654SOL    HW1 5061   1.999   0.622   3.884
 1654SOL    HW2 5062   2.086   0.594   3.749
 1655SOL     OW 5063   2.086   0.307   0.242
 1655SOL    HW1 5064   2.124   0.263   0.323
 1655SOL    HW2 5065   1.998   0.264   0.219
 1656SOL     OW 5066   3.621   0.605   3.955
 1656SOL    HW1 5067   3.606   0.600   3.856
 1656SOL    HW2 5068   3.591   0.520   3.998
 1657SOL     OW 5069   2.555   1.015   4.366
 1657SOL    HW1 5070   2.614   0.992   4.443
 1657SOL    HW2 5071   2.473   1.062   4.399
 1658SOL     OW 5072   3.482   0.467   4.445
 1658SOL    HW1 5073   3.401   0.472   4.386
 1658SOL    HW2 5074   3.491   0.552   4.497
 1659SOL     OW 5075   2.082   1.713   4.198
 1659SOL    HW1 5076   2.104   1.792   4.256
 1659SOL    HW2 5077   2.153   1.703   4.128
 1660SOL     OW 5078   2.095   1.441   4.261
 1660SOL    HW1 5079   2.078   1.539   4.264
 1660SOL    HW2 5080   2.030   1.393   4.320
 1661SOL     OW 5081   2.452   0.981   3.856
 1661SOL    HW1 5082   2.494   1.035   3.782
 1661SOL    HW2 5083   2.493   1.007   3.943
 1662SOL     OW 5084   1.984   0.654   4.285
 1662SOL    HW1 5085   1.921   0.576   4.285
 1662SOL    HW2 5086   1.961   0.715   4.362
 1663SOL     OW 5087   3.704   1.761   4.065
 1663SOL    HW1 5088   3.770   1.727   4.132
 1663SOL    HW2 5089   3.725   1.857   4.044
 1664SOL     OW 5090   1.888   1.597   3.851
 1664SOL    HW1 5091   1.873   1.500   3.867
 1664SOL    HW2 5092   1.865   1.648   3.934
 1665SOL     OW 5093   3.542   0.907   4.342
 1665SOL    HW1 5094   3.640   0.886   4.348
 1665SOL    HW2 5095   3.527   0.972   4.268
 1666SOL     OW 5096   3.512   1.106   4.149
 1666SOL    HW1 5097   3.599   1.110   4.100
 1666SOL    HW2 5098   3.509   1.179   4.218
 1667SOL     OW 5099   2.465   1.377   4.432
 1667SOL    HW1 5100   2.427   1.285   4.443
 1667SOL    HW2 5101   2.446   1.410   4.340
 1668SOL     OW 5102   2.669   0.009   4.252
 1668SOL    HW1 5103   2.715   0.098   4.252
 1668SOL    HW2 5104   2.570   0.022   4.253
 1669SOL     OW 5105   3.395   0.991   3.923
 1669SOL    HW1 5106   3.321   0.929   3.949
 1669SOL    HW2 5107   3.435   1.033   4.005
 1670SOL     OW 5108   3.503   1.714   4.312
 1670SOL    HW1 5109   3.481   1.692   4.217
 1670SOL    HW2 5110   3.562   1.643   4.350
 1671SOL     OW 5111   2.457   0.726   3.990
 1671SOL    HW1 5112   2.466   0.806   3.931
 1671SOL    HW2 5113   2.387   0.743   4.059
 1672SOL     OW 5114   3.175   0.331   0.151
 1672SOL    HW1 5115   3.080   0.304   0.137
 1672SOL    HW2 5116   3.205   0.301   0.241
 1673SOL     OW 5117   3.446   1.668   4.034
 1673SOL    HW1 5118   3.539   1.706   4.033
 1673SOL    HW2 5119   3.417   1.649   3.940
 1674SOL     OW 5120   2.906   0.696   4.147
 1674SOL    HW1 5121   2.919   0.695   4.247
 1674SOL    HW2 5122   2.822   0.648   4.124
 1675SOL     OW 5123   1.936   0.833   4.480
 1675SOL    HW1 5124   2.007   0.794   0.039
 1675SOL    HW2 5125   1.896   0.913   0.025
 1676SOL     OW 5126   2.716   0.371   3.905
 1676SOL    HW1 5127   2.790   0.411   3.851
 1676SOL    HW2 5128   2.731   0.272   3.913
 1677SOL     OW 5129   3.211   1.127   4.251
 1677SOL    HW1 5130   3.307   1.116   4.227
 1677SOL    HW2 5131   3.174   1.207   4.203
 1678SOL     OW 5132   2.865   1.441   4.190
 1678SOL    HW1 5133   2.826   1.518   4.140
 1678SOL    HW2 5134   2.854   1.455   4.288
 1679SOL     OW 5135   2.234   1.795   0.060
 1679SOL    HW1 5136   2.235   1.706   0.107
 1679SOL    HW2 5137   2.266   1.866   0.122
 1680SOL     OW 5138   3.657   1.058   0.055
 1680SOL    HW1 5139   3.581   1.032   4.494
 1680SOL    HW2 5140   3.624   1.061   0.149
 1681SOL     OW 5141   2.187   0.954   3.973
 1681SOL    HW1 5142   2.273   0.977   3.928
 1681SOL    HW2 5143   2.150   0.871   3.932
 1682SOL     OW 5144   2.981   1.777   3.953
 1682SOL    HW1 5145   2.908   1.735   4.006
 1682SOL    HW2 5146   3.008   1.716   3.878
 1683SOL     OW 5147   3.491   1.379   3.807
 1683SOL    HW1 5148   3.451   1.470   3.796
 1683SOL    HW2 5149   3.420   1.310   3.793
 1684SOL     OW 5150   2.331   1.737   4.045
 1684SOL    HW1 5151   2.368   1.798   4.115
 1684SOL    HW2 5152   2.405   1.709   3.984
 1685SOL     OW 5153   3.283   0.117   4.146
 1685SOL    HW1 5154   3.261   0.081   4.055
 1685SOL    HW2 5155   3.381   0.135   4.152
 1686SOL     OW 5156   2.797   1.700   0.072
 1686SOL    HW1 5157   2.837   1.633   0.134
 1686SOL    HW2 5158   2.741   1.653   0.003
 1687SOL     OW 5159   2.252   0.692   4.202
 1687SOL    HW1 5160   2.280   0.597   4.208
 1687SOL    HW2 5161   2.155   0.700   4.223
 1688SOL     OW 5162   2.485   0.122   3.844
 1688SOL    HW1 5163   2.578   0.088   3.859
 1688SOL    HW2 5164   2.451   0.087   3.757
 1689SOL     OW 5165   2.409   0.063   4.229
 1689SOL    HW1 5166   2.317   0.045   4.263
 1689SOL    HW2 5167   2.408   0.147   4.175
 1690SOL     OW 5168   3.290   1.196   3.768
 1690SOL    HW1 5169   3.324   1.118   3.820
 1690SOL    HW2 5170   3.201   1.224   3.804
 1691SOL     OW 5171   2.157   0.071   3.920
 1691SOL    HW1 5172   2.234   0.127   3.891
 1691SOL    HW2 5173   2.191   4.494   3.975
 1692SOL     OW 5174   2.811   0.251   4.215
 1692SOL    HW1 5175   2.756   0.268   4.133
 1692SOL    HW2 5176   2.908   0.265   4.194
 1693SOL     OW 5177   2.327   1.140   4.461
 1693SOL    HW1 5178   2.257   1.132   0.032
 1693SOL    HW2 5179   2.286   1.126   4.372
 1694SOL     OW 5180   3.139   1.799   4.317
 1694SOL    HW1 5181   3.184   1.862   4.254
 1694SOL    HW2 5182   3.076   1.851   4.375
 1695SOL     OW 5183   2.891   0.548   3.741
 1695SOL    HW1 5184   2.841   0.632   3.720
 1695SOL    HW2 5185   2.955   0.565   3.816
 1696SOL     OW 5186   2.727   0.472   4.357
 1696SOL    HW1 5187   2.671   0.528   4.296
 1696SOL    HW2 5188   2.747   0.385   4.312
 1697SOL     OW 5189   3.717   0.818   4.097
 1697SOL    HW1 5190   3.774   0.768   4.162
 1697SOL    HW2 5191   3.679   0.754   4.030
 1698SOL     OW 5192   2.352   1.413   3.887
 1698SOL    HW1 5193   2.273   1.384   3.941
 1698SOL    HW2 5194   2.337   1.390   3.791
 1699SOL     OW 5195   3.542   1.290   4.339
 1699SOL    HW1 5196   3.638   1.283   4.363
 1699SOL    HW2 5197   3.490   1.324   4.417
 1700SOL     OW 5198   3.254   0.571   3.793
 1700SOL    HW1 5199   3.191   0.554   3.870
 1700SOL    HW2 5200   3.347   0.551   3.822
 1701SOL     OW 5201   2.391   0.271   4.047
 1701SOL    HW1 5202   2.431   0.208   3.981
 1701SOL    HW2 5203   2.371   0.359   4.002
 1702SOL     OW 5204   2.901   1.163   0.338
 1702SOL    HW1 5205   2.930   1.227   0.410
 1702SOL    HW2 5206   2.937   1.194   0.250
 1703SOL     OW 5207   2.573   1.058   4.092
 1703SOL    HW1 5208   2.558   1.047   4.191
 1703SOL    HW2 5209   2.652   1.004   4.065
 1704SOL     OW 5210   2.218   1.106   4.217
 1704SOL    HW1 5211   2.216   1.188   4.160
 1704SOL    HW2 5212   2.215   1.025   4.158
 1705SOL     OW 5213   3.109   1.351   4.110
 1705SOL    HW1 5214   3.170   1.424   4.141
 1705SOL    HW2 5215   3.016   1.369   4.143
 1706SOL     OW 5216   3.446   0.637   4.197
 1706SOL    HW1 5217   3.419   0.708   4.262
 1706SOL    HW2 5218   3.492   0.680   4.119
 1707SOL     OW 5219   3.069   0.531   3.990
 1707SOL    HW1 5220   3.074   0.445   4.041
 1707SOL    HW2 5221   3.025   0.601   4.046
 1708SOL     OW 5222   2.159   0.078   4.379
 1708SOL    HW1 5223   2.124   0.170   4.391
 1708SOL    HW2 5224   2.179   0.038   4.469
 1709SOL     OW 5225   3.475   0.378   4.093
 1709SOL    HW1 5226   3.511   0.309   4.156
 1709SOL    HW2 5227   3.449   0.459   4.145
 1710SOL     OW 5228   3.395   0.266   3.855
 1710SOL    HW1 5229   3.318   0.205   3.877
 1710SOL    HW2 5230   3.424   0.314   3.937
 1711SOL     OW 5231   3.157   0.828   3.755
 1711SOL    HW1 5232   3.198   0.737   3.762
 1711SOL    HW2 5233   3.186   0.871   3.670
 1712SOL     OW 5234   1.865   1.321   3.917
 1712SOL    HW1 5235   1.775   1.339   3.878
 1712SOL    HW2 5236   1.868   1.228   3.954
 1713SOL     OW 5237   2.675   0.575   4.075
 1713SOL    HW1 5238   2.681   0.497   4.013
 1713SOL    HW2 5239   2.597   0.632   4.050
 1714SOL     OW 5240   2.328   0.497   3.912
 1714SOL    HW1 5241   2.392   0.571   3.932
 1714SOL    HW2 5242   2.236   0.533   3.900
 1715SOL     OW 5243   3.173   0.844   4.026
 1715SOL    HW1 5244   3.090   0.836   4.081
 1715SOL    HW2 5245   3.149   0.840   3.929
 1716SOL     OW 5246   3.567   0.129   4.208
 1716SOL    HW1 5247   3.653   0.142   4.158
 1716SOL    HW2 5248   3.583   0.068   4.286
 1717SOL     OW 5249   3.242   1.571   4.192
 1717SOL    HW1 5250   3.316   1.600   4.132
 1717SOL    HW2 5251   3.203   1.652   4.238
 1718SOL     OW 5252   2.533   1.614   3.878
 1718SOL    HW1 5253   2.547   1.629   3.780
 1718SOL    HW2 5254   2.477   1.533   3.892
 1719SOL     OW 5255   3.698   0.160   0.218
 1719SOL    HW1 5256   3.735   0.087   0.161
 1719SOL    HW2 5257   3.604   0.181   0.189
 1720SOL     OW 5258   3.068   1.607   3.755
 1720SOL    HW1 5259   3.061   1.513   3.790
 1720SOL    HW2 5260   3.001   1.620   3.682
 1721SOL     OW 5261   2.780   0.911   4.011
 1721SOL    HW1 5262   2.843   0.946   3.941
 1721SOL    HW2 5263   2.823   0.835   4.059
 1722SOL     OW 5264   3.357   1.625   3.765
 1722SOL    HW1 5265   3.257   1.620   3.760
 1722SOL    HW2 5266   3.395   1.631   3.673
 1723SOL     OW 5267   2.456   1.490   4.192
 1723SOL    HW1 5268   2.503   1.437   4.121
 1723SOL    HW2 5269   2.391   1.552   4.148
 1724SOL     OW 5270   2.116   1.349   4.013
 1724SOL    HW1 5271   2.020   1.344   3.985
 1724SOL    HW2 5272   2.123   1.387   4.105
 1725SOL     OW 5273   1.943   0.342   3.768
 1725SOL    HW1 5274   1.868   0.285   3.735
 1725SOL    HW2 5275   1.962   0.415   3.702
 1726SOL     OW 5276   1.929   0.174   4.046
 1726SOL    HW1 5277   1.916   0.249   3.981
 1726SOL    HW2 5278   2.011   0.123   4.021
 1727SOL     OW 5279   3.044   1.343   3.841
 1727SOL    HW1 5280   2.949   1.313   3.838
 1727SOL    HW2 5281   3.076   1.343   3.936
 1728SOL     OW 5282   3.083   0.316   4.167
 1728SOL    HW1 5283   3.150   0.243   4.156
 1728SOL    HW2 5284   3.107   0.372   4.247
 1729SOL     OW 5285   2.462   0.748   4.373
 1729SOL    HW1 5286   2.497   0.841   4.360
 1729SOL    HW2 5287   2.381   0.735   4.317
 1730SOL     OW 5288   2.726   1.368   3.755
 1730SOL    HW1 5289   2.682   1.391   3.842
 1730SOL    HW2 5290   2.746   1.452   3.705
 1731SOL     OW 5291   2.516   1.864   0.176
 1731SOL    HW1 5292   2.522   1.940   0.111
 1731SOL    HW2 5293   2.602   1.812   0.175
 1732SOL     OW 5294   2.942   0.988   3.810
 1732SOL    HW1 5295   2.914   1.042   3.730
 1732SOL    HW2 5296   3.021   0.932   3.786
 1733SOL     OW 5297   1.951   1.239   4.388
 1733SOL    HW1 5298   1.918   1.184   4.465
 1733SOL    HW2 5299   2.014   1.184   4.333
 1734SOL     OW 5300   2.285   0.426   4.248
 1734SOL    HW1 5301   2.323   0.364   4.180
 1734SOL    HW2 5302   2.266   0.376   4.332
 1735SOL     OW 5303   2.672   1.562   4.383
 1735SOL    HW1 5304   2.670   1.614   4.297
 1735SOL    HW2 5305   2.591   1.504   4.388
 1736SOL     OW 5306   2.633   1.331   4.034
 1736SOL    HW1 5307   2.598   1.238   4.040
 1736SOL    HW2 5308   2.720   1.338   4.082
 1737SOL     OW 5309   3.205   0.054   3.880
 1737SOL    HW1 5310   3.247   4.477   3.831
 1737SOL    HW2 5311   3.122   0.022   3.927
 1738SOL     OW 5312   3.154   0.435   4.399
 1738SOL    HW1 5313   3.087   0.508   4.415
 1738SOL    HW2 5314   3.179   0.394   4.486
 1739SOL     OW 5315   1.908   1.072   4.027
 1739SOL    HW1 5316   2.006   1.068   4.007
 1739SOL    HW2 5317   1.875   0.981   4.052
 1740SOL     OW 5318   2.740   1.649   4.070
 1740SOL    HW1 5319   2.669   1.628   4.002
 1740SOL    HW2 5320   2.714   1.731   4.120
 1741SOL     OW 5321   2.091   2.504   0.122
 1741SOL    HW1 5322   2.009   2.468   0.167
 1741SOL    HW2 5323   2.112   2.448   0.042
 1742SOL     OW 5324   2.085   2.141   0.992
 1742SOL    HW1 5325   2.118   2.110   1.081
 1742SOL    HW2 5326   1.991   2.109   0.978
 1743SOL     OW 5327   1.867   2.242   0.634
 1743SOL    HW1 5328   1.784   2.276   0.680
 1743SOL    HW2 5329   1.846   2.155   0.589
 1744SOL     OW 5330   2.428   3.144   1.175
 1744SOL    HW1 5331   2.338   3.141   1.132
 1744SOL    HW2 5332   2.445   3.237   1.209
 1745SOL     OW 5333   3.419   3.372   0.707
 1745SOL    HW1 5334   3.375   3.353   0.795
 1745SOL    HW2 5335   3.350   3.383   0.636
 1746SOL     OW 5336   2.993   2.563   0.705
 1746SOL    HW1 5337   3.046   2.646   0.685
 1746SOL    HW2 5338   2.943   2.576   0.791
 1747SOL     OW 5339   3.636   2.463   0.232
 1747SOL    HW1 5340   3.609   2.459   0.136
 1747SOL    HW2 5341   3.590   2.390   0.282
 1748SOL     OW 5342   2.619   3.008   1.034
 1748SOL    HW1 5343   2.547   3.038   1.097
 1748SOL    HW2 5344   2.657   3.087   0.987
 1749SOL     OW 5345   2.547   2.867   0.654
 1749SOL    HW1 5346   2.616   2.852   0.724
 1749SOL    HW2 5347   2.471   2.920   0.692
 1750SOL     OW 5348   2.189   3.293   1.067
 1750SOL    HW1 5349   2.115   3.251   1.016
 1750SOL    HW2 5350   2.247   3.345   1.004
 1751SOL     OW 5351   3.323   3.360   1.347
 1751SOL    HW1 5352   3.369   3.448   1.358
 1751SOL    HW2 5353   3.267   3.341   1.428
 1752SOL     OW 5354   2.303   2.259   1.496
 1752SOL    HW1 5355   2.387   2.206   1.489
 1752SOL    HW2 5356   2.224   2.196   1.499
 1753SOL     OW 5357   3.477   2.313   0.740
 1753SOL    HW1 5358   3.397   2.337   0.685
 1753SOL    HW2 5359   3.499   2.389   0.801
 1754SOL     OW 5360   2.081   3.578   0.475
 1754SOL    HW1 5361   2.104   3.657   0.531
 1754SOL    HW2 5362   2.154   3.561   0.409
 1755SOL     OW 5363   3.002   3.210   1.693
 1755SOL    HW1 5364   3.042   3.202   1.785
 1755SOL    HW2 5365   2.947   3.128   1.674
 1756SOL     OW 5366   2.089   3.304   0.537
 1756SOL    HW1 5367   2.074   3.403   0.538
 1756SOL    HW2 5368   2.025   3.260   0.599
 1757SOL     OW 5369   2.119   2.952   0.897
 1757SOL    HW1 5370   2.116   2.859   0.933
 1757SOL    HW2 5371   2.057   3.011   0.949
 1758SOL     OW 5372   2.474   3.655   1.432
 1758SOL    HW1 5373   2.388   3.634   1.478
 1758SOL    HW2 5374   2.503   3.748   1.456
 1759SOL     OW 5375   2.451   2.835   0.157
 1759SOL    HW1 5376   2.444   2.910   0.091
 1759SOL    HW2 5377   2.505   2.866   0.235
 1760SOL     OW 5378   3.458   1.982   1.472
 1760SOL    HW1 5379   3.455   2.061   1.410
 1760SOL    HW2 5380   3.450   2.015   1.567
 1761SOL     OW 5381   1.976   2.515   0.562
 1761SOL    HW1 5382   1.944   2.422   0.577
 1761SOL    HW2 5383   1.968   2.568   0.646
 1762SOL     OW 5384   3.704   3.617   0.341
 1762SOL    HW1 5385   3.779   3.598   0.405
 1762SOL    HW2 5386   3.717   3.708   0.301
 1763SOL     OW 5387   1.876   3.462   0.114
 1763SOL    HW1 5388   1.879   3.365   0.137
 1763SOL    HW2 5389   1.866   3.515   0.198
 1764SOL     OW 5390   3.552   2.782   0.639
 1764SOL    HW1 5391   3.641   2.739   0.627
 1764SOL    HW2 5392   3.530   2.837   0.558
 1765SOL     OW 5393   3.510   2.972   0.435
 1765SOL    HW1 5394   3.600   2.975   0.392
 1765SOL    HW2 5395   3.508   3.035   0.512
 1766SOL     OW 5396   1.987   2.598   1.584
 1766SOL    HW1 5397   2.084   2.612   1.599
 1766SOL    HW2 5398   1.940   2.687   1.582
 1767SOL     OW 5399   2.471   3.246   0.734
 1767SOL    HW1 5400   2.425   3.158   0.746
 1767SOL    HW2 5401   2.457   3.278   0.640
 1768SOL     OW 5402   3.156   3.102   1.422
 1768SOL    HW1 5403   3.185   3.031   1.359
 1768SOL    HW2 5404   3.209   3.094   1.507
 1769SOL     OW 5405   2.674   1.866   0.507
 1769SOL    HW1 5406   2.717   1.954   0.489
 1769SOL    HW2 5407   2.575   1.879   0.517
 1770SOL     OW 5408   2.056   2.831   1.260
 1770SOL    HW1 5409   2.142   2.783   1.250
 1770SOL    HW2 5410   1.981   2.773   1.228
 1771SOL     OW 5411   3.395   2.850   0.209
 1771SOL    HW1 5412   3.320   2.789   0.232
 1771SOL    HW2 5413   3.430   2.892   0.293
 1772SOL     OW 5414   3.047   3.666   1.618
 1772SOL    HW1 5415   3.062   3.731   1.544
 1772SOL    HW2 5416   3.063   3.573   1.585
 1773SOL     OW 5417   3.325   3.282   0.953
 1773SOL    HW1 5418   3.256   3.299   1.024
 1773SOL    HW2 5419   3.318   3.187   0.923
 1774SOL     OW 5420   3.516   3.598   0.581
 1774SOL    HW1 5421   3.502   3.572   0.485
 1774SOL    HW2 5422   3.493   3.520   0.639
 1775SOL     OW 5423   2.459   2.582   0.269
 1775SOL    HW1 5424   2.472   2.661   0.210
 1775SOL    HW2 5425   2.391   2.602   0.340
 1776SOL     OW 5426   3.142   2.207   0.932
 1776SOL    HW1 5427   3.047   2.175   0.937
 1776SOL    HW2 5428   3.198   2.157   0.997
 1777SOL     OW 5429   3.446   3.532   0.308
 1777SOL    HW1 5430   3.542   3.562   0.308
 1777SOL    HW2 5431   3.416   3.514   0.215
 1778SOL     OW 5432   2.667   2.478   1.428
 1778SOL    HW1 5433   2.640   2.464   1.523
 1778SOL    HW2 5434   2.617   2.414   1.369
 1779SOL     OW 5435   3.256   2.332   1.677
 1779SOL    HW1 5436   3.253   2.381   1.765
 1779SOL    HW2 5437   3.323   2.258   1.683
 1780SOL     OW 5438   2.822   2.749   1.579
 1780SOL    HW1 5439   2.879   2.672   1.547
 1780SOL    HW2 5440   2.770   2.786   1.502
 1781SOL     OW 5441   2.856   2.273   1.236
 1781SOL    HW1 5442   2.774   2.302   1.285
 1781SOL    HW2 5443   2.830   2.220   1.155
 1782SOL     OW 5444   2.903   2.566   0.436
 1782SOL    HW1 5445   2.922   2.559   0.534
 1782SOL    HW2 5446   2.819   2.517   0.414
 1783SOL     OW 5447   1.952   2.685   0.775
 1783SOL    HW1 5448   2.038   2.673   0.826
 1783SOL    HW2 5449   1.903   2.764   0.812
 1784SOL     OW 5450   1.992   3.706   1.580
 1784SOL    HW1 5451   1.989   3.682   1.677
 1784SOL    HW2 5452   1.900   3.705   1.542
 1785SOL     OW 5453   2.747   2.223   0.200
 1785SOL    HW1 5454   2.765   2.277   0.118
 1785SOL    HW2 5455   2.752   2.126   0.178
 1786SOL     OW 5456   3.573   2.440   1.826
 1786SOL    HW1 5457   3.534   2.520   1.780
 1786SOL    HW2 5458   3.598   2.372   1.758
 1787SOL     OW 5459   3.236   3.006   0.539
 1787SOL    HW1 5460   3.319   2.984   0.488
 1787SOL    HW2 5461   3.182   3.074   0.488
 1788SOL     OW 5462   2.409   2.045   0.894
 1788SOL    HW1 5463   2.412   2.069   0.991
 1788SOL    HW2 5464   2.414   2.128   0.839
 1789SOL     OW 5465   2.873   3.303   0.475
 1789SOL    HW1 5466   2.824   3.375   0.426
 1789SOL    HW2 5467   2.861   3.315   0.574
 1790SOL     OW 5468   2.217   3.668   0.858
 1790SOL    HW1 5469   2.261   3.579   0.868
 1790SOL    HW2 5470   2.285   3.740   0.874
 1791SOL     OW 5471   3.658   2.924   0.869
 1791SOL    HW1 5472   3.602   2.907   0.787
 1791SOL    HW2 5473   3.598   2.928   0.949
 1792SOL     OW 5474   3.089   3.402   1.513
 1792SOL    HW1 5475   3.075   3.328   1.579
 1792SOL    HW2 5476   3.028   3.387   1.434
 1793SOL     OW 5477   2.186   2.814   0.225
 1793SOL    HW1 5478   2.283   2.823   0.201
 1793SOL    HW2 5479   2.159   2.718   0.220
 1794SOL     OW 5480   3.338   2.601   0.727
 1794SOL    HW1 5481   3.325   2.552   0.813
 1794SOL    HW2 5482   3.417   2.662   0.734
 1795SOL     OW 5483   2.312   3.177   1.731
 1795SOL    HW1 5484   2.284   3.172   1.635
 1795SOL    HW2 5485   2.277   3.097   1.781
 1796SOL     OW 5486   3.003   3.642   0.253
 1796SOL    HW1 5487   2.935   3.600   0.314
 1796SOL    HW2 5488   3.020   3.580   0.176
 1797SOL     OW 5489   2.056   2.136   1.488
 1797SOL    HW1 5490   1.988   2.208   1.480
 1797SOL    HW2 5491   2.042   2.086   1.574
 1798SOL     OW 5492   3.486   3.250   0.099
 1798SOL    HW1 5493   3.445   3.340   0.088
 1798SOL    HW2 5494   3.415   3.180   0.094
 1799SOL     OW 5495   2.336   3.582   0.346
 1799SOL    HW1 5496   2.355   3.651   0.416
 1799SOL    HW2 5497   2.402   3.591   0.271
 1800SOL     OW 5498   3.265   1.971   0.427
 1800SOL    HW1 5499   3.255   1.938   0.334
 1800SOL    HW2 5500   3.362   1.978   0.450
 1801SOL     OW 5501   2.118   3.655   1.231
 1801SOL    HW1 5502   2.172   3.589   1.284
 1801SOL    HW2 5503   2.100   3.619   1.140
 1802SOL     OW 5504   2.798   3.561   0.899
 1802SOL    HW1 5505   2.880   3.510   0.926
 1802SOL    HW2 5506   2.751   3.512   0.826
 1803SOL     OW 5507   2.248   2.556   0.477
 1803SOL    HW1 5508   2.278   2.461   0.484
 1803SOL    HW2 5509   2.152   2.563   0.501
 1804SOL     OW 5510   3.400   2.086   1.728
 1804SOL    HW1 5511   3.407   2.110   1.825
 1804SOL    HW2 5512   3.329   2.017   1.716
 1805SOL     OW 5513   2.739   3.379   1.193
 1805SOL    HW1 5514   2.721   3.345   1.100
 1805SOL    HW2 5515   2.810   3.324   1.235
 1806SOL     OW 5516   3.207   2.450   1.433
 1806SOL    HW1 5517   3.236   2.415   1.522
 1806SOL    HW2 5518   3.239   2.544   1.421
 1807SOL     OW 5519   2.676   3.259   0.933
 1807SOL    HW1 5520   2.765   3.249   0.890
 1807SOL    HW2 5521   2.604   3.257   0.863
 1808SOL     OW 5522   2.788   2.370   0.902
 1808SOL    HW1 5523   2.763   2.363   0.805
 1808SOL    HW2 5524   2.824   2.282   0.933
 1809SOL     OW 5525   2.406   1.926   0.512
 1809SOL    HW1 5526   2.321   1.927   0.564
 1809SOL    HW2 5527   2.411   2.007   0.453
 1810SOL     OW 5528   3.302   3.067   0.065
 1810SOL    HW1 5529   3.322   2.977   0.102
 1810SOL    HW2 5530   3.203   3.079   0.058
 1811SOL     OW 5531   2.801   2.107   0.463
 1811SOL    HW1 5532   2.764   2.151   0.382
 1811SOL    HW2 5533   2.900   2.120   0.466
 1812SOL     OW 5534   2.945   2.539   1.462
 1812SOL    HW1 5535   2.865   2.480   1.453
 1812SOL    HW2 5536   3.028   2.485   1.450
 1813SOL     OW 5537   3.086   3.430   0.794
 1813SOL    HW1 5538   3.104   3.500   0.725
 1813SOL    HW2 5539   3.156   3.435   0.865
 1814SOL     OW 5540   2.328   3.009   0.737
 1814SOL    HW1 5541   2.256   2.991   0.804
 1814SOL    HW2 5542   2.291   2.995   0.645
 1815SOL     OW 5543   3.131   3.659   0.603
 1815SOL    HW1 5544   3.179   3.721   0.542
 1815SOL    HW2 5545   3.063   3.709   0.656
 1816SOL     OW 5546   2.944   2.444   0.016
 1816SOL    HW1 5547   2.847   2.468   0.005
 1816SOL    HW2 5548   2.967   2.444   0.113
 1817SOL     OW 5549   1.940   2.419   1.385
 1817SOL    HW1 5550   2.035   2.416   1.354
 1817SOL    HW2 5551   1.931   2.487   1.458
 1818SOL     OW 5552   2.423   2.085   1.164
 1818SOL    HW1 5553   2.469   2.004   1.201
 1818SOL    HW2 5554   2.328   2.086   1.195
 1819SOL     OW 5555   2.730   2.321   0.638
 1819SOL    HW1 5556   2.683   2.383   0.575
 1819SOL    HW2 5557   2.752   2.236   0.591
 1820SOL     OW 5558   2.876   1.912   0.751
 1820SOL    HW1 5559   2.814   1.910   0.672
 1820SOL    HW2 5560   2.856   1.835   0.811
 1821SOL     OW 5561   3.300   3.026   0.858
 1821SOL    HW1 5562   3.229   2.956   0.861
 1821SOL    HW2 5563   3.326   3.043   0.763
 1822SOL     OW 5564   3.330   2.463   0.982
 1822SOL    HW1 5565   3.277   2.378   0.983
 1822SOL    HW2 5566   3.395   2.462   1.059
 1823SOL     OW 5567   3.716   2.679   0.379
 1823SOL    HW1 5568   3.768   2.627   0.447
 1823SOL    HW2 5569   3.679   2.616   0.310
 1824SOL     OW 5570   2.345   3.271   0.186
 1824SOL    HW1 5571   2.258   3.239   0.223
 1824SOL    HW2 5572   2.347   3.254   0.088
 1825SOL     OW 5573   3.530   3.128   0.652
 1825SOL    HW1 5574   3.629   3.129   0.659
 1825SOL    HW2 5575   3.494   3.220   0.671
 1826SOL     OW 5576   3.282   2.459   0.120
 1826SOL    HW1 5577   3.203   2.448   0.180
 1826SOL    HW2 5578   3.315   2.369   0.090
 1827SOL     OW 5579   2.399   2.129   0.331
 1827SOL    HW1 5580   2.416   2.056   0.265
 1827SOL    HW2 5581   2.379   2.214   0.283
 1828SOL     OW 5582   3.618   3.097   1.575
 1828SOL    HW1 5583   3.708   3.055   1.567
 1828SOL    HW2 5584   3.627   3.191   1.608
 1829SOL     OW 5585   2.922   3.213   1.337
 1829SOL    HW1 5586   2.842   3.182   1.387
 1829SOL    HW2 5587   3.004   3.174   1.378
 1830SOL     OW 5588   3.471   3.489   1.651
 1830SOL    HW1 5589   3.462   3.524   1.558
 1830SOL    HW2 5590   3.557   3.440   1.660
 1831SOL     OW 5591   2.988   3.068   1.108
 1831SOL    HW1 5592   2.931   3.105   1.182
 1831SOL    HW2 5593   2.952   3.097   1.020
 1832SOL     OW 5594   3.493   2.962   1.081
 1832SOL    HW1 5595   3.490   3.027   1.157
 1832SOL    HW2 5596   3.412   2.974   1.024
 1833SOL     OW 5597   2.778   1.962   1.395
 1833SOL    HW1 5598   2.804   1.941   1.301
 1833SOL    HW2 5599   2.857   2.000   1.444
 1834SOL     OW 5600   2.843   2.996   1.678
 1834SOL    HW1 5601   2.757   3.007   1.729
 1834SOL    HW2 5602   2.852   2.901   1.648
 1835SOL     OW 5603   2.576   2.919   0.380
 1835SOL    HW1 5604   2.561   2.906   0.478
 1835SOL    HW2 5605   2.656   2.866   0.351
 1836SOL     OW 5606   2.280   2.675   1.253
 1836SOL    HW1 5607   2.353   2.688   1.321
 1836SOL    HW2 5608   2.240   2.584   1.265
 1837SOL     OW 5609   3.129   2.242   1.271
 1837SOL    HW1 5610   3.166   2.320   1.322
 1837SOL    HW2 5611   3.035   2.262   1.244
 1838SOL     OW 5612   1.930   3.435   1.348
 1838SOL    HW1 5613   1.892   3.507   1.291
 1838SOL    HW2 5614   2.030   3.439   1.345
 1839SOL     OW 5615   2.217   2.972   0.490
 1839SOL    HW1 5616   2.216   3.052   0.430
 1839SOL    HW2 5617   2.222   2.888   0.435
 1840SOL     OW 5618   2.418   2.405   0.861
 1840SOL    HW1 5619   2.433   2.464   0.782
 1840SOL    HW2 5620   2.481   2.429   0.934
 1841SOL     OW 5621   3.115   3.226   0.395
 1841SOL    HW1 5622   3.183   3.294   0.422
 1841SOL    HW2 5623   3.025   3.255   0.428
 1842SOL     OW 5624   3.138   3.319   1.146
 1842SOL    HW1 5625   3.198   3.323   1.226
 1842SOL    HW2 5626   3.082   3.236   1.151
 1843SOL     OW 5627   3.446   2.490   0.479
 1843SOL    HW1 5628   3.397   2.542   0.549
 1843SOL    HW2 5629   3.484   2.554   0.411
 1844SOL     OW 5630   2.213   3.384   1.317
 1844SOL    HW1 5631   2.193   3.343   1.228
 1844SOL    HW2 5632   2.311   3.401   1.325
 1845SOL     OW 5633   2.267   2.613   1.607
 1845SOL    HW1 5634   2.330   2.664   1.550
 1845SOL    HW2 5635   2.302   2.520   1.622
 1846SOL     OW 5636   3.461   2.643   1.679
 1846SOL    HW1 5637   3.370   2.683   1.677
 1846SOL    HW2 5638   3.517   2.684   1.607
 1847SOL     OW 5639   2.861   1.970   1.688
 1847SOL    HW1 5640   2.912   2.055   1.694
 1847SOL    HW2 5641   2.925   1.893   1.678
 1848SOL     OW 5642   2.379   1.936   1.670
 1848SOL    HW1 5643   2.327   1.861   1.628
 1848SOL    HW2 5644   2.321   1.981   1.738
 1849SOL     OW 5645   2.445   2.732   1.033
 1849SOL    HW1 5646   2.478   2.826   1.024
 1849SOL    HW2 5647   2.383   2.726   1.112
 1850SOL     OW 5648   3.224   2.720   1.033
 1850SOL    HW1 5649   3.138   2.720   0.982
 1850SOL    HW2 5650   3.264   2.629   1.032
 1851SOL     OW 5651   3.060   2.411   0.281
 1851SOL    HW1 5652   3.075   2.326   0.333
 1851SOL    HW2 5653   3.012   2.477   0.339
 1852SOL     OW 5654   2.163   2.061   1.244
 1852SOL    HW1 5655   2.123   2.099   1.327
 1852SOL    HW2 5656   2.145   1.963   1.240
 1853SOL     OW 5657   1.908   3.175   1.276
 1853SOL    HW1 5658   1.945   3.115   1.347
 1853SOL    HW2 5659   1.916   3.270   1.306
 1854SOL     OW 5660   2.588   2.494   1.059
 1854SOL    HW1 5661   2.664   2.472   0.997
 1854SOL    HW2 5662   2.555   2.586   1.039
 1855SOL     OW 5663   3.593   2.821   1.849
 1855SOL    HW1 5664   3.547   2.762   1.783
 1855SOL    HW2 5665   3.534   2.835   1.928
 1856SOL     OW 5666   2.161   1.929   0.626
 1856SOL    HW1 5667   2.144   2.024   0.651
 1856SOL    HW2 5668   2.170   1.874   0.709
 1857SOL     OW 5669   3.471   2.240   0.376
 1857SOL    HW1 5670   3.503   2.172   0.442
 1857SOL    HW2 5671   3.449   2.325   0.424
 1858SOL     OW 5672   2.885   2.619   0.963
 1858SOL    HW1 5673   2.888   2.641   1.060
 1858SOL    HW2 5674   2.858   2.524   0.951
 1859SOL     OW 5675   2.846   3.434   1.705
 1859SOL    HW1 5676   2.831   3.479   1.617
 1859SOL    HW2 5677   2.894   3.347   1.691
 1860SOL     OW 5678   3.720   3.373   1.606
 1860SOL    HW1 5679   3.733   3.397   1.510
 1860SOL    HW2 5680   3.804   3.390   1.657
 1861SOL     OW 5681   3.446   2.095   0.150
 1861SOL    HW1 5682   3.355   2.056   0.135
 1861SOL    HW2 5683   3.442   2.158   0.228
 1862SOL     OW 5684   3.162   2.694   0.032
 1862SOL    HW1 5685   3.208   2.607   0.051
 1862SOL    HW2 5686   3.203   2.737   4.451
 1863SOL     OW 5687   2.927   3.197   0.851
 1863SOL    HW1 5688   2.929   3.118   0.790
 1863SOL    HW2 5689   2.992   3.266   0.819
 1864SOL     OW 5690   2.174   2.671   0.946
 1864SOL    HW1 5691   2.270   2.697   0.940
 1864SOL    HW2 5692   2.167   2.578   0.983
 1865SOL     OW 5693   2.196   2.383   1.012
 1865SOL    HW1 5694   2.156   2.292   0.997
 1865SOL    HW2 5695   2.275   2.393   0.952
 1866SOL     OW 5696   3.000   2.240   1.678
 1866SOL    HW1 5697   2.951   2.299   1.742
 1866SOL    HW2 5698   3.095   2.271   1.670
 1867SOL     OW 5699   3.028   2.069   1.465
 1867SOL    HW1 5700   3.015   2.131   1.543
 1867SOL    HW2 5701   3.063   2.120   1.387
 1868SOL     OW 5702   1.867   3.191   0.197
 1868SOL    HW1 5703   1.775   3.210   0.162
 1868SOL    HW2 5704   1.871   3.097   0.230
 1869SOL     OW 5705   1.954   3.652   0.937
 1869SOL    HW1 5706   1.917   3.569   0.896
 1869SOL    HW2 5707   2.048   3.665   0.905
 1870SOL     OW 5708   2.362   3.436   0.907
 1870SOL    HW1 5709   2.431   3.503   0.932
 1870SOL    HW2 5710   2.402   3.366   0.847
 1871SOL     OW 5711   2.850   2.658   1.230
 1871SOL    HW1 5712   2.907   2.633   1.309
 1871SOL    HW2 5713   2.759   2.619   1.241
 1872SOL     OW 5714   1.898   2.409   1.115
 1872SOL    HW1 5715   1.982   2.386   1.065
 1872SOL    HW2 5716   1.918   2.413   1.213
 1873SOL     OW 5717   2.064   2.354   1.672
 1873SOL    HW1 5718   2.134   2.348   1.601
 1873SOL    HW2 5719   2.007   2.435   1.655
 1874SOL     OW 5720   3.238   2.802   1.658
 1874SOL    HW1 5721   3.257   2.900   1.663
 1874SOL    HW2 5722   3.236   2.774   1.562
 1875SOL     OW 5723   2.676   2.435   0.359
 1875SOL    HW1 5724   2.689   2.356   0.299
 1875SOL    HW2 5725   2.600   2.490   0.326
 1876SOL     OW 5726   3.507   2.465   1.189
 1876SOL    HW1 5727   3.488   2.403   1.266
 1876SOL    HW2 5728   3.597   2.444   1.151
 1877SOL     OW 5729   2.101   3.414   1.731
 1877SOL    HW1 5730   2.082   3.488   1.796
 1877SOL    HW2 5731   2.125   3.332   1.782
 1878SOL     OW 5732   2.549   2.317   1.257
 1878SOL    HW1 5733   2.503   2.233   1.228
 1878SOL    HW2 5734   2.553   2.381   1.180
 1879SOL     OW 5735   2.789   3.543   1.463
 1879SOL    HW1 5736   2.763   3.505   1.374
 1879SOL    HW2 5737   2.792   3.643   1.458
 1880SOL     OW 5738   2.334   2.354   0.195
 1880SOL    HW1 5739   2.397   2.430   0.207
 1880SOL    HW2 5740   2.240   2.388   0.191
 1881SOL     OW 5741   2.010   3.002   1.457
 1881SOL    HW1 5742   2.008   2.946   1.540
 1881SOL    HW2 5743   2.028   2.943   1.378
 1882SOL     OW 5744   3.187   2.910   1.224
 1882SOL    HW1 5745   3.217   2.844   1.156
 1882SOL    HW2 5746   3.112   2.965   1.187
 1883SOL     OW 5747   3.170   2.717   0.307
 1883SOL    HW1 5748   3.088   2.699   0.361
 1883SOL    HW2 5749   3.148   2.704   0.210
 1884SOL     OW 5750   3.632   3.604   1.150
 1884SOL    HW1 5751   3.693   3.638   1.078
 1884SOL    HW2 5752   3.605   3.510   1.129
 1885SOL     OW 5753   3.105   3.595   1.116
 1885SOL    HW1 5754   3.190   3.618   1.067
 1885SOL    HW2 5755   3.104   3.498   1.137
 1886SOL     OW 5756   1.944   3.128   1.013
 1886SOL    HW1 5757   1.931   3.140   1.111
 1886SOL    HW2 5758   1.870   3.072   0.976
 1887SOL     OW 5759   2.542   3.527   1.723
 1887SOL    HW1 5760   2.486   3.610   1.726
 1887SOL    HW2 5761   2.609   3.535   1.649
 1888SOL     OW 5762   2.792   1.972   0.132
 1888SOL    HW1 5763   2.795   1.938   0.038
 1888SOL    HW2 5764   2.829   1.903   0.194
 1889SOL     OW 5765   3.581   2.002   0.513
 1889SOL    HW1 5766   3.641   1.983   0.435
 1889SOL    HW2 5767   3.560   1.917   0.561
 1890SOL     OW 5768   3.260   3.438   0.486
 1890SOL    HW1 5769   3.324   3.467   0.415
 1890SOL    HW2 5770   3.207   3.517   0.517
 1891SOL     OW 5771   1.999   3.651   1.848
 1891SOL    HW1 5772   1.945   3.583   1.898
 1891SOL    HW2 5773   2.050   3.707   1.913
 1892SOL     OW 5774   3.142   2.786   0.668
 1892SOL    HW1 5775   3.217   2.720   0.678
 1892SOL    HW2 5776   3.174   2.865   0.615
 1893SOL     OW 5777   2.679   3.136   1.429
 1893SOL    HW1 5778   2.656   3.174   1.518
 1893SOL    HW2 5779   2.605   3.155   1.365
 1894SOL     OW 5780   2.552   3.436   0.169
 1894SOL    HW1 5781   2.537   3.470   0.076
 1894SOL    HW2 5782   2.488   3.362   0.188
 1895SOL     OW 5783   3.492   3.590   1.390
 1895SOL    HW1 5784   3.543   3.594   1.304
 1895SOL    HW2 5785   3.478   3.683   1.424
 1896SOL     OW 5786   3.702   2.034   0.966
 1896SOL    HW1 5787   3.737   1.944   0.938
 1896SOL    HW2 5788   3.611   2.048   0.926
 1897SOL     OW 5789   2.125   2.180   0.719
 1897SOL    HW1 5790   2.037   2.217   0.690
 1897SOL    HW2 5791   2.124   2.167   0.818
 1898SOL     OW 5792   3.075   3.468   0.046
 1898SOL    HW1 5793   3.072   3.369   0.063
 1898SOL    HW2 5794   3.041   3.486   4.453
 1899SOL     OW 5795   2.685   2.870   1.373
 1899SOL    HW1 5796   2.733   2.857   1.286
 1899SOL    HW2 5797   2.689   2.966   1.400
 1900SOL     OW 5798   2.771   2.760   0.283
 1900SOL    HW1 5799   2.833   2.808   0.222
 1900SOL    HW2 5800   2.822   2.696   0.340
 1901SOL     OW 5801   3.354   3.489   0.046
 1901SOL    HW1 5802   3.255   3.480   0.041
 1901SOL    HW2 5803   3.390   3.520   4.458
 1902SOL     OW 5804   2.226   3.161   1.486
 1902SOL    HW1 5805   2.220   3.242   1.427
 1902SOL    HW2 5806   2.149   3.100   1.466
 1903SOL     OW 5807   3.477   3.145   1.284
 1903SOL    HW1 5808   3.540   3.134   1.360
 1903SOL    HW2 5809   3.412   3.218   1.304
 1904SOL     OW 5810   2.911   2.967   0.708
 1904SOL    HW1 5811   2.836   2.916   0.750
 1904SOL    HW2 5812   2.974   2.904   0.662
 1905SOL     OW 5813   2.882   2.100   0.966
 1905SOL    HW1 5814   2.875   2.055   0.877
 1905SOL    HW2 5815   2.878   2.032   1.039
 1906SOL     OW 5816   2.462   3.351   0.483
 1906SOL    HW1 5817   2.504   3.292   0.413
 1906SOL    HW2 5818   2.401   3.416   0.439
 1907SOL     OW 5819   3.585   2.254   1.380
 1907SOL    HW1 5820   3.656   2.325   1.379
 1907SOL    HW2 5821   3.612   2.178   1.321
 1908SOL     OW 5822   2.117   3.193   0.298
 1908SOL    HW1 5823   2.028   3.203   0.253
 1908SOL    HW2 5824   2.115   3.240   0.386
 1909SOL     OW 5825   1.985   2.856   1.672
 1909SOL    HW1 5826   1.895   2.846   1.714
 1909SOL    HW2 5827   2.056   2.832   1.738
 1910SOL     OW 5828   2.543   2.078   1.490
 1910SOL    HW1 5829   2.632   2.047   1.457
 1910SOL    HW2 5830   2.525   2.039   1.580
 1911SOL     OW 5831   1.919   2.215   0.008
 1911SOL    HW1 5832   1.822   2.195   4.490
 1911SOL    HW2 5833   1.952   2.282   4.441
 1912SOL     OW 5834   3.292   2.719   1.399
 1912SOL    HW1 5835   3.238   2.782   1.343
 1912SOL    HW2 5836   3.387   2.721   1.369
 1913SOL     OW 5837   3.046   3.206   0.119
 1913SOL    HW1 5838   2.946   3.209   0.109
 1913SOL    HW2 5839   3.070   3.208   0.216
 1914SOL     OW 5840   2.481   2.695   1.434
 1914SOL    HW1 5841   2.537   2.776   1.417
 1914SOL    HW2 5842   2.539   2.614   1.436
 1915SOL     OW 5843   3.348   3.640   0.978
 1915SOL    HW1 5844   3.373   3.694   0.898
 1915SOL    HW2 5845   3.430   3.615   1.029
 1916SOL     OW 5846   2.587   2.429   1.669
 1916SOL    HW1 5847   2.588   2.493   1.746
 1916SOL    HW2 5848   2.620   2.339   1.701
 1917SOL     OW 5849   3.329   3.067   1.636
 1917SOL    HW1 5850   3.316   3.078   1.734
 1917SOL    HW2 5851   3.427   3.076   1.615
 1918SOL     OW 5852   2.244   3.601   1.563
 1918SOL    HW1 5853   2.155   3.646   1.552
 1918SOL    HW2 5854   2.231   3.510   1.603
 1919SOL     OW 5855   3.535   2.743   1.256
 1919SOL    HW1 5856   3.525   2.652   1.215
 1919SOL    HW2 5857   3.524   2.812   1.185
 1920SOL     OW 5858   3.089   2.183   0.454
 1920SOL    HW1 5859   3.150   2.104   0.450
 1920SOL    HW2 5860   3.109   2.237   0.535
 1921SOL     OW 5861   2.451   2.602   0.664
 1921SOL    HW1 5862   2.496   2.691   0.652
 1921SOL    HW2 5863   2.377   2.593   0.598
 1922SOL     OW 5864   3.623   2.223   1.649
 1922SOL    HW1 5865   3.609   2.237   1.551
 1922SOL    HW2 5866   3.550   2.163   1.684
 1923SOL     OW 5867   3.609   2.795   1.511
 1923SOL    HW1 5868   3.607   2.893   1.532
 1923SOL    HW2 5869   3.591   2.781   1.413
 1924SOL     OW 5870   2.777   3.242   0.067
 1924SOL    HW1 5871   2.702   3.221   0.129
 1924SOL    HW2 5872   2.743   3.299   4.492
 1925SOL     OW 5873   2.523   3.657   0.950
 1925SOL    HW1 5874   2.497   3.749   0.922
 1925SOL    HW2 5875   2.621   3.644   0.937
 1926SOL     OW 5876   2.728   2.828   0.858
 1926SOL    HW1 5877   2.781   2.752   0.897
 1926SOL    HW2 5878   2.692   2.884   0.931
 1927SOL     OW 5879   2.937   2.846   0.074
 1927SOL    HW1 5880   2.931   2.910   4.497
 1927SOL    HW2 5881   3.017   2.787   0.062
 1928SOL     OW 5882   3.715   3.422   0.849
 1928SOL    HW1 5883   3.642   3.409   0.782
 1928SOL    HW2 5884   3.714   3.347   0.916
 1929SOL     OW 5885   1.944   3.098   0.663
 1929SOL    HW1 5886   1.944   3.046   0.749
 1929SOL    HW2 5887   2.014   3.061   0.602
 1930SOL     OW 5888   2.549   3.259   1.635
 1930SOL    HW1 5889   2.465   3.214   1.665
 1930SOL    HW2 5890   2.548   3.355   1.663
 1931SOL     OW 5891   3.671   2.047   1.236
 1931SOL    HW1 5892   3.686   1.952   1.261
 1931SOL    HW2 5893   3.683   2.057   1.137
 1932SOL     OW 5894   2.286   2.294   0.522
 1932SOL    HW1 5895   2.332   2.225   0.466
 1932SOL    HW2 5896   2.243   2.250   0.601
 1933SOL     OW 5897   3.559   3.352   1.102
 1933SOL    HW1 5898   3.477   3.327   1.051
 1933SOL    HW2 5899   3.579   3.281   1.170
 1934SOL     OW 5900   2.191   2.413   1.289
 1934SOL    HW1 5901   2.249   2.357   1.349
 1934SOL    HW2 5902   2.209   2.389   1.194
 1935SOL     OW 5903   2.686   3.441   0.680
 1935SOL    HW1 5904   2.688   3.484   0.590
 1935SOL    HW2 5905   2.605   3.383   0.687
 1936SOL     OW 5906   3.295   2.087   1.118
 1936SOL    HW1 5907   3.326   2.003   1.162
 1936SOL    HW2 5908   3.239   2.139   1.183
 1937SOL     OW 5909   2.871   1.882   1.146
 1937SOL    HW1 5910   2.808   1.816   1.105
 1937SOL    HW2 5911   2.963   1.844   1.148
 1938SOL     OW 5912   2.630   3.180   0.317
 1938SOL    HW1 5913   2.595   3.087   0.330
 1938SOL    HW2 5914   2.721   3.187   0.358
 1939SOL     OW 5915   2.485   3.423   1.287
 1939SOL    HW1 5916   2.485   3.509   1.339
 1939SOL    HW2 5917   2.574   3.410   1.244
 1940SOL     OW 5918   3.227   1.902   0.169
 1940SOL    HW1 5919   3.256   1.855   0.085
 1940SOL    HW2 5920   3.139   1.864   0.199
 1941SOL     OW 5921   3.155   2.322   0.684
 1941SOL    HW1 5922   3.102   2.407   0.689
 1941SOL    HW2 5923   3.156   2.277   0.773
 1942SOL     OW 5924   3.450   2.071   0.878
 1942SOL    HW1 5925   3.384   2.084   0.952
 1942SOL    HW2 5926   3.451   2.153   0.820
 1943SOL     OW 5927   1.906   2.937   0.324
 1943SOL    HW1 5928   2.003   2.944   0.301
 1943SOL    HW2 5929   1.884   2.842   0.348
 1944SOL     OW 5930   2.737   3.506   0.361
 1944SOL    HW1 5931   2.668   3.474   0.296
 1944SOL    HW2 5932   2.704   3.588   0.407
 1945SOL     OW 5933   2.089   2.131   2.857
 1945SOL    HW1 5934   2.117   2.104   2.950
 1945SOL    HW2 5935   1.993   2.106   2.843
 1946SOL     OW 5936   2.427   3.146   3.033
 1946SOL    HW1 5937   2.334   3.129   3.000
 1946SOL    HW2 5938   2.432   3.238   3.072
 1947SOL     OW 5939   3.418   3.373   2.567
 1947SOL    HW1 5940   3.374   3.354   2.656
 1947SOL    HW2 5941   3.347   3.381   2.497
 1948SOL     OW 5942   3.059   2.562   2.611
 1948SOL    HW1 5943   3.091   2.648   2.572
 1948SOL    HW2 5944   2.996   2.581   2.686
 1949SOL     OW 5945   3.624   2.469   2.091
 1949SOL    HW1 5946   3.606   2.461   1.992
 1949SOL    HW2 5947   3.590   2.387   2.137
 1950SOL     OW 5948   2.636   3.027   2.911
 1950SOL    HW1 5949   2.554   3.047   2.965
 1950SOL    HW2 5950   2.663   3.109   2.861
 1951SOL     OW 5951   2.723   2.643   3.681
 1951SOL    HW1 5952   2.712   2.714   3.751
 1951SOL    HW2 5953   2.749   2.686   3.594
 1952SOL     OW 5954   2.569   3.017   3.671
 1952SOL    HW1 5955   2.621   3.098   3.699
 1952SOL    HW2 5956   2.480   3.045   3.636
 1953SOL     OW 5957   2.184   3.299   2.930
 1953SOL    HW1 5958   2.116   3.247   2.879
 1953SOL    HW2 5959   2.241   3.351   2.866
 1954SOL     OW 5960   3.322   3.360   3.209
 1954SOL    HW1 5961   3.370   3.448   3.220
 1954SOL    HW2 5962   3.268   3.342   3.291
 1955SOL     OW 5963   2.309   2.258   3.351
 1955SOL    HW1 5964   2.389   2.199   3.355
 1955SOL    HW2 5965   2.226   2.204   3.363
 1956SOL     OW 5966   3.476   2.312   2.603
 1956SOL    HW1 5967   3.401   2.339   2.544
 1956SOL    HW2 5968   3.502   2.390   2.661
 1957SOL     OW 5969   2.085   3.573   2.340
 1957SOL    HW1 5970   2.105   3.655   2.394
 1957SOL    HW2 5971   2.152   3.565   2.266
 1958SOL     OW 5972   2.998   3.202   3.556
 1958SOL    HW1 5973   3.042   3.203   3.645
 1958SOL    HW2 5974   2.941   3.119   3.548
 1959SOL     OW 5975   2.084   3.302   2.399
 1959SOL    HW1 5976   2.077   3.402   2.399
 1959SOL    HW2 5977   2.025   3.264   2.470
 1960SOL     OW 5978   2.138   2.945   2.883
 1960SOL    HW1 5979   2.122   2.853   2.846
 1960SOL    HW2 5980   2.059   3.003   2.862
 1961SOL     OW 5981   2.474   3.655   3.293
 1961SOL    HW1 5982   2.388   3.633   3.340
 1961SOL    HW2 5983   2.502   3.747   3.318
 1962SOL     OW 5984   3.458   1.983   3.334
 1962SOL    HW1 5985   3.455   2.061   3.273
 1962SOL    HW2 5986   3.450   2.014   3.429
 1963SOL     OW 5987   3.704   3.624   2.199
 1963SOL    HW1 5988   3.764   3.590   2.272
 1963SOL    HW2 5989   3.729   3.718   2.177
 1964SOL     OW 5990   1.890   3.445   1.992
 1964SOL    HW1 5991   1.821   3.374   1.984
 1964SOL    HW2 5992   1.869   3.504   2.070
 1965SOL     OW 5993   3.555   2.786   2.502
 1965SOL    HW1 5994   3.641   2.738   2.488
 1965SOL    HW2 5995   3.531   2.837   2.420
 1966SOL     OW 5996   3.508   2.971   2.295
 1966SOL    HW1 5997   3.594   2.975   2.244
 1966SOL    HW2 5998   3.511   3.034   2.372
 1967SOL     OW 5999   1.981   2.603   3.451
 1967SOL    HW1 6000   2.079   2.621   3.462
 1967SOL    HW2 6001   1.932   2.690   3.449
 1968SOL     OW 6002   3.156   3.101   3.285
 1968SOL    HW1 6003   3.185   3.030   3.221
 1968SOL    HW2 6004   3.209   3.094   3.370
 1969SOL     OW 6005   2.631   1.880   2.269
 1969SOL    HW1 6006   2.706   1.946   2.268
 1969SOL    HW2 6007   2.589   1.879   2.360
 1970SOL     OW 6008   2.049   2.820   3.144
 1970SOL    HW1 6009   2.140   2.790   3.114
 1970SOL    HW2 6010   1.979   2.778   3.086
 1971SOL     OW 6011   3.398   2.855   2.058
 1971SOL    HW1 6012   3.322   2.793   2.077
 1971SOL    HW2 6013   3.434   2.890   2.144
 1972SOL     OW 6014   3.046   3.665   3.480
 1972SOL    HW1 6015   3.061   3.731   3.407
 1972SOL    HW2 6016   3.063   3.572   3.446
 1973SOL     OW 6017   2.192   2.113   3.673
 1973SOL    HW1 6018   2.246   2.197   3.683
 1973SOL    HW2 6019   2.099   2.129   3.704
 1974SOL     OW 6020   3.324   3.282   2.815
 1974SOL    HW1 6021   3.257   3.299   2.887
 1974SOL    HW2 6022   3.317   3.187   2.784
 1975SOL     OW 6023   3.521   3.594   2.439
 1975SOL    HW1 6024   3.498   3.570   2.345
 1975SOL    HW2 6025   3.494   3.518   2.500
 1976SOL     OW 6026   3.141   2.205   2.795
 1976SOL    HW1 6027   3.046   2.180   2.813
 1976SOL    HW2 6028   3.201   2.157   2.859
 1977SOL     OW 6029   3.446   3.529   2.169
 1977SOL    HW1 6030   3.539   3.566   2.168
 1977SOL    HW2 6031   3.416   3.511   2.076
 1978SOL     OW 6032   2.657   2.478   3.319
 1978SOL    HW1 6033   2.629   2.457   3.413
 1978SOL    HW2 6034   2.615   2.412   3.256
 1979SOL     OW 6035   3.256   2.333   3.540
 1979SOL    HW1 6036   3.252   2.382   3.627
 1979SOL    HW2 6037   3.322   2.258   3.546
 1980SOL     OW 6038   2.821   2.750   3.441
 1980SOL    HW1 6039   2.878   2.675   3.407
 1980SOL    HW2 6040   2.769   2.789   3.365
 1981SOL     OW 6041   2.857   2.277   3.094
 1981SOL    HW1 6042   2.771   2.298   3.142
 1981SOL    HW2 6043   2.838   2.218   3.016
 1982SOL     OW 6044   2.924   2.560   2.272
 1982SOL    HW1 6045   2.948   2.566   2.369
 1982SOL    HW2 6046   2.833   2.520   2.262
 1983SOL     OW 6047   1.992   3.708   3.441
 1983SOL    HW1 6048   1.991   3.683   3.538
 1983SOL    HW2 6049   1.899   3.704   3.405
 1984SOL     OW 6050   3.574   2.441   3.689
 1984SOL    HW1 6051   3.534   2.521   3.643
 1984SOL    HW2 6052   3.598   2.372   3.621
 1985SOL     OW 6053   3.236   3.011   2.398
 1985SOL    HW1 6054   3.320   2.988   2.349
 1985SOL    HW2 6055   3.183   3.077   2.344
 1986SOL     OW 6056   2.429   2.050   2.809
 1986SOL    HW1 6057   2.422   2.077   2.905
 1986SOL    HW2 6058   2.401   2.127   2.750
 1987SOL     OW 6059   2.866   3.306   2.335
 1987SOL    HW1 6060   2.826   3.379   2.281
 1987SOL    HW2 6061   2.858   3.328   2.433
 1988SOL     OW 6062   2.216   3.670   2.720
 1988SOL    HW1 6063   2.260   3.581   2.730
 1988SOL    HW2 6064   2.283   3.743   2.736
 1989SOL     OW 6065   3.658   2.926   2.730
 1989SOL    HW1 6066   3.605   2.905   2.649
 1989SOL    HW2 6067   3.598   2.929   2.810
 1990SOL     OW 6068   3.089   3.401   3.376
 1990SOL    HW1 6069   3.076   3.326   3.441
 1990SOL    HW2 6070   3.026   3.388   3.298
 1991SOL     OW 6071   3.350   2.600   2.584
 1991SOL    HW1 6072   3.326   2.556   2.670
 1991SOL    HW2 6073   3.427   2.663   2.599
 1992SOL     OW 6074   2.325   3.123   3.595
 1992SOL    HW1 6075   2.297   3.130   3.499
 1992SOL    HW2 6076   2.244   3.122   3.654
 1993SOL     OW 6077   2.982   3.637   2.093
 1993SOL    HW1 6078   2.905   3.595   2.143
 1993SOL    HW2 6079   3.007   3.578   2.017
 1994SOL     OW 6080   2.062   2.148   3.363
 1994SOL    HW1 6081   1.978   2.200   3.350
 1994SOL    HW2 6082   2.047   2.077   3.432
 1995SOL     OW 6083   3.490   3.242   1.949
 1995SOL    HW1 6084   3.451   3.333   1.933
 1995SOL    HW2 6085   3.421   3.172   1.931
 1996SOL     OW 6086   2.329   3.602   2.181
 1996SOL    HW1 6087   2.366   3.661   2.253
 1996SOL    HW2 6088   2.403   3.569   2.123
 1997SOL     OW 6089   3.263   1.970   2.289
 1997SOL    HW1 6090   3.250   1.944   2.194
 1997SOL    HW2 6091   3.361   1.980   2.308
 1998SOL     OW 6092   2.119   3.656   3.093
 1998SOL    HW1 6093   2.170   3.589   3.147
 1998SOL    HW2 6094   2.098   3.617   3.003
 1999SOL     OW 6095   2.797   3.560   2.759
 1999SOL    HW1 6096   2.880   3.511   2.785
 1999SOL    HW2 6097   2.748   3.507   2.690
 2000SOL     OW 6098   2.218   2.524   2.252
 2000SOL    HW1 6099   2.292   2.477   2.301
 2000SOL    HW2 6100   2.162   2.575   2.317
 2001SOL     OW 6101   3.400   2.087   3.591
 2001SOL    HW1 6102   3.408   2.110   3.688
 2001SOL    HW2 6103   3.329   2.018   3.579
 2002SOL     OW 6104   2.631   2.137   3.616
 2002SOL    HW1 6105   2.707   2.073   3.620
 2002SOL    HW2 6106   2.574   2.127   3.697
 2003SOL     OW 6107   2.740   3.380   3.055
 2003SOL    HW1 6108   2.722   3.346   2.963
 2003SOL    HW2 6109   2.810   3.324   3.099
 2004SOL     OW 6110   3.206   2.450   3.295
 2004SOL    HW1 6111   3.234   2.414   3.384
 2004SOL    HW2 6112   3.239   2.543   3.284
 2005SOL     OW 6113   2.682   3.265   2.792
 2005SOL    HW1 6114   2.774   3.253   2.755
 2005SOL    HW2 6115   2.617   3.274   2.717
 2006SOL     OW 6116   3.292   3.060   1.905
 2006SOL    HW1 6117   3.324   2.980   1.955
 2006SOL    HW2 6118   3.200   3.085   1.937
 2007SOL     OW 6119   2.817   2.081   2.274
 2007SOL    HW1 6120   2.766   2.163   2.251
 2007SOL    HW2 6121   2.912   2.106   2.294
 2008SOL     OW 6122   2.942   2.541   3.321
 2008SOL    HW1 6123   2.864   2.480   3.328
 2008SOL    HW2 6124   3.026   2.487   3.315
 2009SOL     OW 6125   3.085   3.431   2.658
 2009SOL    HW1 6126   3.102   3.500   2.587
 2009SOL    HW2 6127   3.156   3.436   2.728
 2010SOL     OW 6128   3.131   3.656   2.466
 2010SOL    HW1 6129   3.180   3.717   2.404
 2010SOL    HW2 6130   3.064   3.709   2.518
 2011SOL     OW 6131   1.940   2.420   3.252
 2011SOL    HW1 6132   2.035   2.415   3.220
 2011SOL    HW2 6133   1.932   2.492   3.321
 2012SOL     OW 6134   2.422   2.094   3.065
 2012SOL    HW1 6135   2.465   2.006   3.088
 2012SOL    HW2 6136   2.325   2.090   3.085
 2013SOL     OW 6137   3.297   3.027   2.718
 2013SOL    HW1 6138   3.235   2.948   2.718
 2013SOL    HW2 6139   3.329   3.044   2.625
 2014SOL     OW 6140   3.330   2.464   2.846
 2014SOL    HW1 6141   3.278   2.378   2.845
 2014SOL    HW2 6142   3.396   2.462   2.922
 2015SOL     OW 6143   3.709   2.679   2.242
 2015SOL    HW1 6144   3.766   2.628   2.306
 2015SOL    HW2 6145   3.676   2.618   2.170
 2016SOL     OW 6146   2.344   3.294   2.027
 2016SOL    HW1 6147   2.267   3.258   2.079
 2016SOL    HW2 6148   2.339   3.261   1.932
 2017SOL     OW 6149   3.530   3.128   2.513
 2017SOL    HW1 6150   3.630   3.129   2.522
 2017SOL    HW2 6151   3.494   3.220   2.532
 2018SOL     OW 6152   3.252   2.432   1.931
 2018SOL    HW1 6153   3.189   2.413   2.006
 2018SOL    HW2 6154   3.344   2.403   1.957
 2019SOL     OW 6155   2.402   2.114   2.240
 2019SOL    HW1 6156   2.428   2.053   2.165
 2019SOL    HW2 6157   2.371   2.202   2.202
 2020SOL     OW 6158   3.617   3.097   3.436
 2020SOL    HW1 6159   3.708   3.055   3.430
 2020SOL    HW2 6160   3.626   3.190   3.470
 2021SOL     OW 6161   2.922   3.211   3.197
 2021SOL    HW1 6162   2.841   3.183   3.249
 2021SOL    HW2 6163   3.004   3.173   3.240
 2022SOL     OW 6164   3.470   3.489   3.512
 2022SOL    HW1 6165   3.463   3.524   3.419
 2022SOL    HW2 6166   3.556   3.439   3.523
 2023SOL     OW 6167   2.986   3.067   2.970
 2023SOL    HW1 6168   2.932   3.102   3.047
 2023SOL    HW2 6169   2.947   3.100   2.884
 2024SOL     OW 6170   3.492   2.962   2.943
 2024SOL    HW1 6171   3.491   3.027   3.019
 2024SOL    HW2 6172   3.410   2.974   2.887
 2025SOL     OW 6173   2.782   1.961   3.259
 2025SOL    HW1 6174   2.804   1.939   3.164
 2025SOL    HW2 6175   2.862   2.003   3.303
 2026SOL     OW 6176   2.843   2.976   3.582
 2026SOL    HW1 6177   2.747   2.994   3.606
 2026SOL    HW2 6178   2.848   2.894   3.525
 2027SOL     OW 6179   2.582   2.932   2.240
 2027SOL    HW1 6180   2.533   2.916   2.325
 2027SOL    HW2 6181   2.649   2.859   2.225
 2028SOL     OW 6182   2.283   2.673   3.117
 2028SOL    HW1 6183   2.355   2.687   3.186
 2028SOL    HW2 6184   2.238   2.586   3.133
 2029SOL     OW 6185   3.128   2.242   3.134
 2029SOL    HW1 6186   3.165   2.320   3.185
 2029SOL    HW2 6187   3.034   2.262   3.107
 2030SOL     OW 6188   1.930   3.435   3.211
 2030SOL    HW1 6189   1.893   3.508   3.154
 2030SOL    HW2 6190   2.030   3.438   3.208
 2031SOL     OW 6191   2.233   2.954   2.269
 2031SOL    HW1 6192   2.214   3.045   2.232
 2031SOL    HW2 6193   2.241   2.889   2.193
 2032SOL     OW 6194   2.422   2.398   2.807
 2032SOL    HW1 6195   2.425   2.442   2.718
 2032SOL    HW2 6196   2.486   2.443   2.869
 2033SOL     OW 6197   3.107   3.213   2.254
 2033SOL    HW1 6198   3.170   3.286   2.281
 2033SOL    HW2 6199   3.014   3.236   2.284
 2034SOL     OW 6200   3.139   3.318   3.009
 2034SOL    HW1 6201   3.199   3.325   3.088
 2034SOL    HW2 6202   3.082   3.236   3.016
 2035SOL     OW 6203   3.443   2.487   2.338
 2035SOL    HW1 6204   3.401   2.542   2.410
 2035SOL    HW2 6205   3.492   2.546   2.274
 2036SOL     OW 6206   2.211   3.386   3.180
 2036SOL    HW1 6207   2.192   3.344   3.092
 2036SOL    HW2 6208   2.310   3.402   3.188
 2037SOL     OW 6209   2.274   2.607   3.464
 2037SOL    HW1 6210   2.336   2.657   3.403
 2037SOL    HW2 6211   2.312   2.516   3.483
 2038SOL     OW 6212   3.461   2.643   3.541
 2038SOL    HW1 6213   3.370   2.682   3.538
 2038SOL    HW2 6214   3.518   2.684   3.470
 2039SOL     OW 6215   2.859   1.980   3.616
 2039SOL    HW1 6216   2.910   2.062   3.589
 2039SOL    HW2 6217   2.910   1.899   3.590
 2040SOL     OW 6218   2.358   1.906   3.607
 2040SOL    HW1 6219   2.318   1.846   3.538
 2040SOL    HW2 6220   2.295   1.982   3.625
 2041SOL     OW 6221   2.425   2.720   2.890
 2041SOL    HW1 6222   2.483   2.801   2.877
 2041SOL    HW2 6223   2.376   2.728   2.976
 2042SOL     OW 6224   3.223   2.720   2.894
 2042SOL    HW1 6225   3.138   2.717   2.842
 2042SOL    HW2 6226   3.266   2.630   2.895
 2043SOL     OW 6227   3.081   2.382   2.136
 2043SOL    HW1 6228   3.085   2.303   2.197
 2043SOL    HW2 6229   3.033   2.457   2.181
 2044SOL     OW 6230   2.160   2.062   3.111
 2044SOL    HW1 6231   2.122   2.099   3.196
 2044SOL    HW2 6232   2.143   1.963   3.108
 2045SOL     OW 6233   1.914   3.173   3.141
 2045SOL    HW1 6234   1.947   3.113   3.214
 2045SOL    HW2 6235   1.918   3.268   3.172
 2046SOL     OW 6236   2.614   2.520   2.936
 2046SOL    HW1 6237   2.679   2.508   2.861
 2046SOL    HW2 6238   2.567   2.608   2.926
 2047SOL     OW 6239   3.593   2.820   3.712
 2047SOL    HW1 6240   3.546   2.762   3.646
 2047SOL    HW2 6241   3.535   2.835   3.791
 2048SOL     OW 6242   3.479   2.236   2.232
 2048SOL    HW1 6243   3.507   2.166   2.298
 2048SOL    HW2 6244   3.452   2.319   2.281
 2049SOL     OW 6245   2.912   2.611   2.836
 2049SOL    HW1 6246   2.904   2.645   2.930
 2049SOL    HW2 6247   2.891   2.513   2.834
 2050SOL     OW 6248   2.844   3.426   3.574
 2050SOL    HW1 6249   2.828   3.474   3.488
 2050SOL    HW2 6250   2.891   3.339   3.555
 2051SOL     OW 6251   3.720   3.373   3.468
 2051SOL    HW1 6252   3.734   3.397   3.372
 2051SOL    HW2 6253   3.804   3.391   3.520
 2052SOL     OW 6254   2.215   2.778   3.668
 2052SOL    HW1 6255   2.298   2.799   3.720
 2052SOL    HW2 6256   2.238   2.713   3.595
 2053SOL     OW 6257   3.395   2.134   1.991
 2053SOL    HW1 6258   3.326   2.065   2.012
 2053SOL    HW2 6259   3.428   2.176   2.076
 2054SOL     OW 6260   3.166   2.692   1.903
 2054SOL    HW1 6261   3.201   2.598   1.901
 2054SOL    HW2 6262   3.180   2.735   1.814
 2055SOL     OW 6263   2.932   3.203   2.710
 2055SOL    HW1 6264   2.953   3.125   2.650
 2055SOL    HW2 6265   2.993   3.279   2.688
 2056SOL     OW 6266   2.164   2.668   2.830
 2056SOL    HW1 6267   2.259   2.696   2.836
 2056SOL    HW2 6268   2.155   2.573   2.858
 2057SOL     OW 6269   2.170   2.381   2.876
 2057SOL    HW1 6270   2.137   2.288   2.856
 2057SOL    HW2 6271   2.265   2.389   2.848
 2058SOL     OW 6272   2.997   2.240   3.545
 2058SOL    HW1 6273   2.946   2.296   3.609
 2058SOL    HW2 6274   3.091   2.274   3.537
 2059SOL     OW 6275   3.023   2.069   3.333
 2059SOL    HW1 6276   3.011   2.131   3.411
 2059SOL    HW2 6277   3.062   2.120   3.256
 2060SOL     OW 6278   1.952   3.650   2.798
 2060SOL    HW1 6279   1.916   3.567   2.755
 2060SOL    HW2 6280   2.047   3.665   2.767
 2061SOL     OW 6281   2.360   3.439   2.770
 2061SOL    HW1 6282   2.427   3.509   2.794
 2061SOL    HW2 6283   2.406   3.362   2.726
 2062SOL     OW 6284   2.852   2.661   3.092
 2062SOL    HW1 6285   2.903   2.631   3.173
 2062SOL    HW2 6286   2.759   2.624   3.096
 2063SOL     OW 6287   1.899   2.404   2.978
 2063SOL    HW1 6288   1.984   2.394   2.927
 2063SOL    HW2 6289   1.920   2.414   3.076
 2064SOL     OW 6290   2.055   2.381   3.588
 2064SOL    HW1 6291   2.110   2.336   3.519
 2064SOL    HW2 6292   2.003   2.456   3.546
 2065SOL     OW 6293   3.238   2.803   3.520
 2065SOL    HW1 6294   3.259   2.901   3.525
 2065SOL    HW2 6295   3.237   2.775   3.424
 2066SOL     OW 6296   2.675   2.433   2.234
 2066SOL    HW1 6297   2.702   2.369   2.162
 2066SOL    HW2 6298   2.593   2.483   2.206
 2067SOL     OW 6299   3.507   2.465   3.052
 2067SOL    HW1 6300   3.489   2.403   3.128
 2067SOL    HW2 6301   3.597   2.444   3.013
 2068SOL     OW 6302   2.110   3.414   3.594
 2068SOL    HW1 6303   2.084   3.485   3.659
 2068SOL    HW2 6304   2.107   3.324   3.640
 2069SOL     OW 6305   2.564   2.319   3.128
 2069SOL    HW1 6306   2.506   2.241   3.105
 2069SOL    HW2 6307   2.562   2.385   3.053
 2070SOL     OW 6308   2.791   3.542   3.328
 2070SOL    HW1 6309   2.762   3.506   3.239
 2070SOL    HW2 6310   2.794   3.641   3.324
 2071SOL     OW 6311   2.011   2.999   3.336
 2071SOL    HW1 6312   2.014   2.949   3.423
 2071SOL    HW2 6313   2.027   2.935   3.261
 2072SOL     OW 6314   3.187   2.910   3.086
 2072SOL    HW1 6315   3.217   2.843   3.017
 2072SOL    HW2 6316   3.112   2.964   3.048
 2073SOL     OW 6317   3.159   2.722   2.169
 2073SOL    HW1 6318   3.080   2.682   2.214
 2073SOL    HW2 6319   3.150   2.711   2.070
 2074SOL     OW 6320   3.632   3.604   3.012
 2074SOL    HW1 6321   3.693   3.638   2.940
 2074SOL    HW2 6322   3.605   3.510   2.990
 2075SOL     OW 6323   3.105   3.594   2.976
 2075SOL    HW1 6324   3.189   3.618   2.928
 2075SOL    HW2 6325   3.105   3.497   2.999
 2076SOL     OW 6326   1.923   3.128   2.878
 2076SOL    HW1 6327   1.929   3.143   2.977
 2076SOL    HW2 6328   1.840   3.077   2.857
 2077SOL     OW 6329   2.541   3.527   3.585
 2077SOL    HW1 6330   2.485   3.610   3.588
 2077SOL    HW2 6331   2.607   3.535   3.511
 2078SOL     OW 6332   3.580   2.003   2.371
 2078SOL    HW1 6333   3.658   1.994   2.309
 2078SOL    HW2 6334   3.563   1.914   2.415
 2079SOL     OW 6335   3.254   3.432   2.344
 2079SOL    HW1 6336   3.319   3.459   2.273
 2079SOL    HW2 6337   3.202   3.511   2.375
 2080SOL     OW 6338   2.000   3.653   3.707
 2080SOL    HW1 6339   1.943   3.586   3.755
 2080SOL    HW2 6340   2.052   3.707   3.774
 2081SOL     OW 6341   3.158   2.796   2.538
 2081SOL    HW1 6342   3.234   2.732   2.534
 2081SOL    HW2 6343   3.177   2.873   2.478
 2082SOL     OW 6344   2.680   3.137   3.294
 2082SOL    HW1 6345   2.653   3.176   3.381
 2082SOL    HW2 6346   2.607   3.152   3.226
 2083SOL     OW 6347   2.537   3.480   2.016
 2083SOL    HW1 6348   2.548   3.494   1.917
 2083SOL    HW2 6349   2.476   3.403   2.032
 2084SOL     OW 6350   3.492   3.590   3.252
 2084SOL    HW1 6351   3.543   3.594   3.166
 2084SOL    HW2 6352   3.477   3.683   3.286
 2085SOL     OW 6353   3.701   2.034   2.828
 2085SOL    HW1 6354   3.737   1.944   2.800
 2085SOL    HW2 6355   3.611   2.047   2.788
 2086SOL     OW 6356   3.067   3.469   1.893
 2086SOL    HW1 6357   3.061   3.375   1.925
 2086SOL    HW2 6358   3.002   3.484   1.819
 2087SOL     OW 6359   2.686   2.871   3.236
 2087SOL    HW1 6360   2.730   2.860   3.147
 2087SOL    HW2 6361   2.687   2.967   3.262
 2088SOL     OW 6362   3.356   3.488   1.903
 2088SOL    HW1 6363   3.256   3.482   1.896
 2088SOL    HW2 6364   3.395   3.493   1.811
 2089SOL     OW 6365   2.231   3.162   3.351
 2089SOL    HW1 6366   2.219   3.245   3.296
 2089SOL    HW2 6367   2.152   3.102   3.337
 2090SOL     OW 6368   3.476   3.145   3.146
 2090SOL    HW1 6369   3.540   3.134   3.222
 2090SOL    HW2 6370   3.412   3.219   3.167
 2091SOL     OW 6371   2.889   2.103   2.856
 2091SOL    HW1 6372   2.860   2.077   2.764
 2091SOL    HW2 6373   2.884   2.023   2.916
 2092SOL     OW 6374   2.469   3.361   2.357
 2092SOL    HW1 6375   2.513   3.299   2.292
 2092SOL    HW2 6376   2.394   3.410   2.313
 2093SOL     OW 6377   3.585   2.254   3.242
 2093SOL    HW1 6378   3.656   2.324   3.241
 2093SOL    HW2 6379   3.612   2.178   3.183
 2094SOL     OW 6380   2.119   3.200   2.157
 2094SOL    HW1 6381   2.027   3.209   2.118
 2094SOL    HW2 6382   2.120   3.239   2.249
 2095SOL     OW 6383   1.974   2.885   3.585
 2095SOL    HW1 6384   1.892   2.859   3.637
 2095SOL    HW2 6385   2.055   2.844   3.628
 2096SOL     OW 6386   2.539   2.057   3.363
 2096SOL    HW1 6387   2.625   2.039   3.315
 2096SOL    HW2 6388   2.558   2.087   3.456
 2097SOL     OW 6389   3.292   2.720   3.261
 2097SOL    HW1 6390   3.238   2.783   3.205
 2097SOL    HW2 6391   3.387   2.721   3.232
 2098SOL     OW 6392   1.940   2.030   2.229
 2098SOL    HW1 6393   1.905   2.102   2.169
 2098SOL    HW2 6394   2.021   1.988   2.188
 2099SOL     OW 6395   3.046   3.203   1.979
 2099SOL    HW1 6396   2.946   3.196   1.971
 2099SOL    HW2 6397   3.072   3.202   2.075
 2100SOL     OW 6398   2.483   2.694   3.295
 2100SOL    HW1 6399   2.539   2.776   3.280
 2100SOL    HW2 6400   2.543   2.615   3.306
 2101SOL     OW 6401   3.348   3.638   2.839
 2101SOL    HW1 6402   3.372   3.695   2.761
 2101SOL    HW2 6403   3.431   3.617   2.891
 2102SOL     OW 6404   2.581   2.425   3.569
 2102SOL    HW1 6405   2.617   2.496   3.631
 2102SOL    HW2 6406   2.617   2.336   3.597
 2103SOL     OW 6407   3.329   3.067   3.499
 2103SOL    HW1 6408   3.315   3.078   3.597
 2103SOL    HW2 6409   3.427   3.077   3.478
 2104SOL     OW 6410   2.243   3.600   3.425
 2104SOL    HW1 6411   2.155   3.646   3.414
 2104SOL    HW2 6412   2.229   3.511   3.469
 2105SOL     OW 6413   3.535   2.743   3.118
 2105SOL    HW1 6414   3.526   2.652   3.078
 2105SOL    HW2 6415   3.524   2.812   3.047
 2106SOL     OW 6416   3.079   2.178   2.324
 2106SOL    HW1 6417   3.146   2.105   2.306
 2106SOL    HW2 6418   3.108   2.231   2.403
 2107SOL     OW 6419   3.622   2.223   3.511
 2107SOL    HW1 6420   3.609   2.237   3.413
 2107SOL    HW2 6421   3.550   2.163   3.546
 2108SOL     OW 6422   3.608   2.795   3.373
 2108SOL    HW1 6423   3.608   2.893   3.394
 2108SOL    HW2 6424   3.591   2.782   3.275
 2109SOL     OW 6425   2.765   3.276   1.913
 2109SOL    HW1 6426   2.677   3.279   1.961
 2109SOL    HW2 6427   2.764   3.341   1.837
 2110SOL     OW 6428   2.523   3.655   2.809
 2110SOL    HW1 6429   2.495   3.749   2.785
 2110SOL    HW2 6430   2.622   3.647   2.800
 2111SOL     OW 6431   2.693   2.781   2.817
 2111SOL    HW1 6432   2.789   2.753   2.811
 2111SOL    HW2 6433   2.688   2.877   2.845
 2112SOL     OW 6434   3.716   3.421   2.711
 2112SOL    HW1 6435   3.642   3.409   2.645
 2112SOL    HW2 6436   3.714   3.347   2.778
 2113SOL     OW 6437   2.088   3.166   3.718
 2113SOL    HW1 6438   2.019   3.102   3.684
 2113SOL    HW2 6439   2.073   3.183   3.816
 2114SOL     OW 6440   2.540   3.264   3.489
 2114SOL    HW1 6441   2.460   3.213   3.519
 2114SOL    HW2 6442   2.537   3.357   3.527
 2115SOL     OW 6443   3.671   2.047   3.098
 2115SOL    HW1 6444   3.686   1.952   3.124
 2115SOL    HW2 6445   3.683   2.057   2.999
 2116SOL     OW 6446   3.559   3.352   2.964
 2116SOL    HW1 6447   3.477   3.327   2.913
 2116SOL    HW2 6448   3.580   3.282   3.032
 2117SOL     OW 6449   2.190   2.414   3.154
 2117SOL    HW1 6450   2.247   2.357   3.214
 2117SOL    HW2 6451   2.201   2.384   3.060
 2118SOL     OW 6452   2.672   3.435   2.538
 2118SOL    HW1 6453   2.708   3.495   2.466
 2118SOL    HW2 6454   2.585   3.396   2.508
 2119SOL     OW 6455   3.295   2.088   2.981
 2119SOL    HW1 6456   3.327   2.004   3.024
 2119SOL    HW2 6457   3.239   2.139   3.045
 2120SOL     OW 6458   2.869   1.876   3.007
 2120SOL    HW1 6459   2.804   1.800   2.998
 2120SOL    HW2 6460   2.962   1.839   3.007
 2121SOL     OW 6461   2.621   3.201   2.191
 2121SOL    HW1 6462   2.593   3.105   2.188
 2121SOL    HW2 6463   2.717   3.208   2.218
 2122SOL     OW 6464   2.484   3.424   3.147
 2122SOL    HW1 6465   2.484   3.508   3.200
 2122SOL    HW2 6466   2.575   3.410   3.107
 2123SOL     OW 6467   3.218   1.919   2.023
 2123SOL    HW1 6468   3.252   1.860   1.949
 2123SOL    HW2 6469   3.134   1.880   2.061
 2124SOL     OW 6470   3.155   2.316   2.547
 2124SOL    HW1 6471   3.124   2.410   2.560
 2124SOL    HW2 6472   3.159   2.269   2.635
 2125SOL     OW 6473   3.449   2.070   2.740
 2125SOL    HW1 6474   3.385   2.084   2.815
 2125SOL    HW2 6475   3.452   2.152   2.683
 2126SOL     OW 6476   1.900   2.943   2.230
 2126SOL    HW1 6477   1.993   2.955   2.195
 2126SOL    HW2 6478   1.879   2.846   2.240
 2127SOL     OW 6479   2.743   3.514   2.209
 2127SOL    HW1 6480   2.674   3.489   2.142
 2127SOL    HW2 6481   2.712   3.593   2.262
 2128SOL     OW 6482   2.091   2.482   3.846
 2128SOL    HW1 6483   1.998   2.486   3.882
 2128SOL    HW2 6484   2.087   2.457   3.749
 2129SOL     OW 6485   2.108   2.097   0.224
 2129SOL    HW1 6486   2.123   2.127   0.318
 2129SOL    HW2 6487   2.013   2.114   0.199
 2130SOL     OW 6488   3.624   2.465   3.955
 2130SOL    HW1 6489   3.607   2.461   3.857
 2130SOL    HW2 6490   3.587   2.383   3.999
 2131SOL     OW 6491   2.555   2.877   4.366
 2131SOL    HW1 6492   2.614   2.855   4.443
 2131SOL    HW2 6493   2.473   2.925   4.399
 2132SOL     OW 6494   3.488   2.335   4.442
 2132SOL    HW1 6495   3.406   2.330   4.386
 2132SOL    HW2 6496   3.484   2.415   0.001
 2133SOL     OW 6497   2.083   3.575   4.199
 2133SOL    HW1 6498   2.104   3.654   4.257
 2133SOL    HW2 6499   2.153   3.566   4.128
 2134SOL     OW 6500   2.095   3.303   4.260
 2134SOL    HW1 6501   2.078   3.401   4.264
 2134SOL    HW2 6502   2.030   3.255   4.320
 2135SOL     OW 6503   2.453   2.843   3.856
 2135SOL    HW1 6504   2.495   2.897   3.782
 2135SOL    HW2 6505   2.493   2.869   3.943
 2136SOL     OW 6506   1.984   2.512   4.290
 2136SOL    HW1 6507   1.912   2.443   4.283
 2136SOL    HW2 6508   1.961   2.576   4.364
 2137SOL     OW 6509   3.704   3.623   4.065
 2137SOL    HW1 6510   3.770   3.589   4.132
 2137SOL    HW2 6511   3.723   3.718   4.044
 2138SOL     OW 6512   1.887   3.459   3.851
 2138SOL    HW1 6513   1.873   3.361   3.867
 2138SOL    HW2 6514   1.865   3.511   3.933
 2139SOL     OW 6515   3.543   2.770   4.342
 2139SOL    HW1 6516   3.640   2.748   4.346
 2139SOL    HW2 6517   3.526   2.835   4.268
 2140SOL     OW 6518   3.512   2.968   4.149
 2140SOL    HW1 6519   3.599   2.972   4.100
 2140SOL    HW2 6520   3.509   3.041   4.218
 2141SOL     OW 6521   2.465   3.239   4.432
 2141SOL    HW1 6522   2.427   3.148   4.443
 2141SOL    HW2 6523   2.446   3.272   4.340
 2142SOL     OW 6524   2.668   1.860   4.218
 2142SOL    HW1 6525   2.721   1.945   4.216
 2142SOL    HW2 6526   2.572   1.881   4.235
 2143SOL     OW 6527   3.395   2.854   3.923
 2143SOL    HW1 6528   3.322   2.791   3.949
 2143SOL    HW2 6529   3.435   2.895   4.005
 2144SOL     OW 6530   3.501   3.574   4.313
 2144SOL    HW1 6531   3.482   3.554   4.217
 2144SOL    HW2 6532   3.563   3.505   4.350
 2145SOL     OW 6533   2.459   2.586   3.989
 2145SOL    HW1 6534   2.468   2.667   3.931
 2145SOL    HW2 6535   2.389   2.604   4.059
 2146SOL     OW 6536   3.147   2.176   0.136
 2146SOL    HW1 6537   3.048   2.170   0.145
 2146SOL    HW2 6538   3.190   2.152   0.224
 2147SOL     OW 6539   3.447   3.530   4.034
 2147SOL    HW1 6540   3.539   3.568   4.033
 2147SOL    HW2 6541   3.418   3.511   3.940
 2148SOL     OW 6542   2.906   2.560   4.147
 2148SOL    HW1 6543   2.921   2.557   4.246
 2148SOL    HW2 6544   2.823   2.510   4.124
 2149SOL     OW 6545   1.938   2.693   4.483
 2149SOL    HW1 6546   2.013   2.661   0.041
 2149SOL    HW2 6547   1.895   2.773   0.025
 2150SOL     OW 6548   2.748   2.211   3.918
 2150SOL    HW1 6549   2.793   2.275   3.857
 2150SOL    HW2 6550   2.763   2.117   3.886
 2151SOL     OW 6551   3.211   2.989   4.252
 2151SOL    HW1 6552   3.307   2.978   4.228
 2151SOL    HW2 6553   3.174   3.069   4.203
 2152SOL     OW 6554   2.865   3.303   4.190
 2152SOL    HW1 6555   2.826   3.380   4.140
 2152SOL    HW2 6556   2.855   3.317   4.288
 2153SOL     OW 6557   2.236   3.656   0.059
 2153SOL    HW1 6558   2.236   3.569   0.108
 2153SOL    HW2 6559   2.258   3.730   0.123
 2154SOL     OW 6560   3.657   2.919   0.054
 2154SOL    HW1 6561   3.582   2.894   4.494
 2154SOL    HW2 6562   3.624   2.923   0.149
 2155SOL     OW 6563   2.188   2.816   3.974
 2155SOL    HW1 6564   2.273   2.840   3.928
 2155SOL    HW2 6565   2.149   2.733   3.931
 2156SOL     OW 6566   2.981   3.640   3.952
 2156SOL    HW1 6567   2.909   3.597   4.007
 2156SOL    HW2 6568   3.008   3.578   3.878
 2157SOL     OW 6569   3.491   3.241   3.807
 2157SOL    HW1 6570   3.451   3.332   3.796
 2157SOL    HW2 6571   3.420   3.172   3.793
 2158SOL     OW 6572   2.331   3.599   4.045
 2158SOL    HW1 6573   2.367   3.660   4.115
 2158SOL    HW2 6574   2.405   3.571   3.984
 2159SOL     OW 6575   3.267   1.973   4.149
 2159SOL    HW1 6576   3.254   1.943   4.055
 2159SOL    HW2 6577   3.365   1.978   4.169
 2160SOL     OW 6578   2.796   3.562   0.073
 2160SOL    HW1 6579   2.837   3.494   0.134
 2160SOL    HW2 6580   2.741   3.515   0.004
 2161SOL     OW 6581   2.252   2.554   4.202
 2161SOL    HW1 6582   2.278   2.458   4.206
 2161SOL    HW2 6583   2.155   2.563   4.224
 2162SOL     OW 6584   2.489   1.985   3.832
 2162SOL    HW1 6585   2.571   1.930   3.847
 2162SOL    HW2 6586   2.442   1.951   3.750
 2163SOL     OW 6587   2.405   1.927   4.229
 2163SOL    HW1 6588   2.320   1.924   4.282
 2163SOL    HW2 6589   2.405   2.007   4.170
 2164SOL     OW 6590   3.290   3.058   3.767
 2164SOL    HW1 6591   3.324   2.980   3.820
 2164SOL    HW2 6592   3.201   3.086   3.804
 2165SOL     OW 6593   2.156   1.909   3.908
 2165SOL    HW1 6594   2.211   1.981   3.865
 2165SOL    HW2 6595   2.217   1.842   3.950
 2166SOL     OW 6596   2.803   2.105   4.188
 2166SOL    HW1 6597   2.764   2.148   4.107
 2166SOL    HW2 6598   2.902   2.118   4.188
 2167SOL     OW 6599   2.327   3.002   4.461
 2167SOL    HW1 6600   2.257   2.995   0.032
 2167SOL    HW2 6601   2.286   2.988   4.372
 2168SOL     OW 6602   3.138   3.661   4.317
 2168SOL    HW1 6603   3.185   3.723   4.254
 2168SOL    HW2 6604   3.076   3.713   4.375
 2169SOL     OW 6605   2.886   2.407   3.745
 2169SOL    HW1 6606   2.842   2.493   3.720
 2169SOL    HW2 6607   2.955   2.424   3.815
 2170SOL     OW 6608   2.715   2.313   4.359
 2170SOL    HW1 6609   2.670   2.375   4.295
 2170SOL    HW2 6610   2.746   2.231   4.310
 2171SOL     OW 6611   3.717   2.679   4.097
 2171SOL    HW1 6612   3.775   2.629   4.162
 2171SOL    HW2 6613   3.679   2.616   4.031
 2172SOL     OW 6614   2.352   3.275   3.887
 2172SOL    HW1 6615   2.274   3.246   3.941
 2172SOL    HW2 6616   2.337   3.253   3.791
 2173SOL     OW 6617   3.541   3.152   4.339
 2173SOL    HW1 6618   3.638   3.145   4.362
 2173SOL    HW2 6619   3.490   3.187   4.417
 2174SOL     OW 6620   3.253   2.435   3.795
 2174SOL    HW1 6621   3.191   2.415   3.871
 2174SOL    HW2 6622   3.345   2.403   3.818
 2175SOL     OW 6623   2.393   2.128   4.044
 2175SOL    HW1 6624   2.430   2.069   3.973
 2175SOL    HW2 6625   2.370   2.217   4.005
 2176SOL     OW 6626   2.900   3.026   0.338
 2176SOL    HW1 6627   2.930   3.089   0.410
 2176SOL    HW2 6628   2.938   3.056   0.250
 2177SOL     OW 6629   2.573   2.920   4.092
 2177SOL    HW1 6630   2.558   2.909   4.191
 2177SOL    HW2 6631   2.652   2.866   4.065
 2178SOL     OW 6632   2.218   2.967   4.217
 2178SOL    HW1 6633   2.215   3.050   4.160
 2178SOL    HW2 6634   2.215   2.887   4.158
 2179SOL     OW 6635   3.109   3.213   4.110
 2179SOL    HW1 6636   3.170   3.286   4.141
 2179SOL    HW2 6637   3.016   3.230   4.143
 2180SOL     OW 6638   3.446   2.501   4.196
 2180SOL    HW1 6639   3.418   2.570   4.262
 2180SOL    HW2 6640   3.491   2.545   4.118
 2181SOL     OW 6641   3.068   2.389   3.992
 2181SOL    HW1 6642   3.077   2.306   4.047
 2181SOL    HW2 6643   3.026   2.461   4.047
 2182SOL     OW 6644   2.160   1.933   4.347
 2182SOL    HW1 6645   2.117   2.019   4.377
 2182SOL    HW2 6646   2.177   1.875   4.427
 2183SOL     OW 6647   3.484   2.240   4.094
 2183SOL    HW1 6648   3.505   2.165   4.157
 2183SOL    HW2 6649   3.451   2.319   4.146
 2184SOL     OW 6650   3.394   2.135   3.855
 2184SOL    HW1 6651   3.325   2.066   3.877
 2184SOL    HW2 6652   3.429   2.175   3.939
 2185SOL     OW 6653   3.157   2.690   3.755
 2185SOL    HW1 6654   3.198   2.599   3.763
 2185SOL    HW2 6655   3.186   2.733   3.670
 2186SOL     OW 6656   1.866   3.183   3.917
 2186SOL    HW1 6657   1.775   3.201   3.878
 2186SOL    HW2 6658   1.868   3.090   3.954
 2187SOL     OW 6659   2.677   2.432   4.075
 2187SOL    HW1 6660   2.684   2.351   4.016
 2187SOL    HW2 6661   2.599   2.488   4.047
 2188SOL     OW 6662   2.328   2.358   3.917
 2188SOL    HW1 6663   2.391   2.434   3.934
 2188SOL    HW2 6664   2.236   2.393   3.901
 2189SOL     OW 6665   3.173   2.708   4.026
 2189SOL    HW1 6666   3.090   2.697   4.081
 2189SOL    HW2 6667   3.149   2.702   3.929
 2190SOL     OW 6668   3.562   1.995   4.224
 2190SOL    HW1 6669   3.652   1.998   4.181
 2190SOL    HW2 6670   3.552   1.909   4.276
 2191SOL     OW 6671   3.241   3.434   4.192
 2191SOL    HW1 6672   3.317   3.462   4.133
 2191SOL    HW2 6673   3.204   3.514   4.238
 2192SOL     OW 6674   2.534   3.476   3.878
 2192SOL    HW1 6675   2.546   3.491   3.780
 2192SOL    HW2 6676   2.477   3.395   3.892
 2193SOL     OW 6677   3.693   1.998   0.213
 2193SOL    HW1 6678   3.737   1.961   0.132
 2193SOL    HW2 6679   3.605   2.038   0.188
 2194SOL     OW 6680   3.068   3.469   3.755
 2194SOL    HW1 6681   3.061   3.375   3.790
 2194SOL    HW2 6682   3.001   3.482   3.682
 2195SOL     OW 6683   2.780   2.773   4.010
 2195SOL    HW1 6684   2.843   2.808   3.941
 2195SOL    HW2 6685   2.824   2.698   4.060
 2196SOL     OW 6686   3.356   3.488   3.765
 2196SOL    HW1 6687   3.257   3.482   3.760
 2196SOL    HW2 6688   3.395   3.493   3.673
 2197SOL     OW 6689   2.456   3.352   4.192
 2197SOL    HW1 6690   2.503   3.299   4.121
 2197SOL    HW2 6691   2.391   3.415   4.149
 2198SOL     OW 6692   2.116   3.211   4.013
 2198SOL    HW1 6693   2.020   3.206   3.985
 2198SOL    HW2 6694   2.123   3.249   4.105
 2199SOL     OW 6695   1.941   2.198   3.758
 2199SOL    HW1 6696   1.849   2.173   3.728
 2199SOL    HW2 6697   1.972   2.277   3.704
 2200SOL     OW 6698   1.933   2.019   4.037
 2200SOL    HW1 6699   1.913   2.103   3.985
 2200SOL    HW2 6700   2.021   1.982   4.006
 2201SOL     OW 6701   3.044   3.205   3.841
 2201SOL    HW1 6702   2.949   3.175   3.838
 2201SOL    HW2 6703   3.076   3.205   3.936
 2202SOL     OW 6704   3.081   2.176   4.176
 2202SOL    HW1 6705   3.147   2.103   4.161
 2202SOL    HW2 6706   3.107   2.229   4.256
 2203SOL     OW 6707   2.462   2.611   4.373
 2203SOL    HW1 6708   2.497   2.704   4.360
 2203SOL    HW2 6709   2.380   2.598   4.316
 2204SOL     OW 6710   2.725   3.230   3.755
 2204SOL    HW1 6711   2.683   3.252   3.842
 2204SOL    HW2 6712   2.746   3.315   3.705
 2205SOL     OW 6713   2.518   3.726   0.179
 2205SOL    HW1 6714   2.519   3.799   0.111
 2205SOL    HW2 6715   2.604   3.675   0.174
 2206SOL     OW 6716   2.941   2.850   3.809
 2206SOL    HW1 6717   2.915   2.904   3.729
 2206SOL    HW2 6718   3.021   2.794   3.787
 2207SOL     OW 6719   1.951   3.101   4.388
 2207SOL    HW1 6720   1.918   3.046   4.465
 2207SOL    HW2 6721   2.014   3.046   4.333
 2208SOL     OW 6722   2.275   2.285   4.245
 2208SOL    HW1 6723   2.318   2.222   4.181
 2208SOL    HW2 6724   2.284   2.249   4.338
 2209SOL     OW 6725   2.672   3.424   4.382
 2209SOL    HW1 6726   2.670   3.476   4.297
 2209SOL    HW2 6727   2.591   3.366   4.388
 2210SOL     OW 6728   2.633   3.193   4.033
 2210SOL    HW1 6729   2.598   3.100   4.040
 2210SOL    HW2 6730   2.720   3.200   4.083
 2211SOL     OW 6731   3.212   1.915   3.887
 2211SOL    HW1 6732   3.248   1.855   3.815
 2211SOL    HW2 6733   3.122   1.882   3.916
 2212SOL     OW 6734   3.155   2.307   4.399
 2212SOL    HW1 6735   3.085   2.376   4.419
 2212SOL    HW2 6736   3.168   2.249   4.479
 2213SOL     OW 6737   1.908   2.934   4.027
 2213SOL    HW1 6738   2.006   2.930   4.007
 2213SOL    HW2 6739   1.875   2.843   4.051
 2214SOL     OW 6740   2.740   3.511   4.069
 2214SOL    HW1 6741   2.669   3.490   4.002
 2214SOL    HW2 6742   2.714   3.593   4.120
 2215SOL     OW 6743   2.059   4.276   0.099
 2215SOL    HW1 6744   2.043   4.352   0.162
 2215SOL    HW2 6745   2.084   4.311   0.009
 2216SOL     OW 6746   2.084   4.001   0.992
 2216SOL    HW1 6747   2.117   3.969   1.081
 2216SOL    HW2 6748   1.990   3.969   0.978
 2217SOL     OW 6749   1.867   4.102   0.639
 2217SOL    HW1 6750   1.783   4.136   0.681
 2217SOL    HW2 6751   1.847   4.017   0.590
 2218SOL     OW 6752   3.603   4.331   0.223
 2218SOL    HW1 6753   3.644   4.296   0.139
 2218SOL    HW2 6754   3.589   4.255   0.287
 2219SOL     OW 6755   2.590   0.269   0.685
 2219SOL    HW1 6756   2.591   0.199   0.757
 2219SOL    HW2 6757   2.495   0.290   0.660
 2220SOL     OW 6758   2.308   4.118   1.488
 2220SOL    HW1 6759   2.390   4.061   1.493
 2220SOL    HW2 6760   2.227   4.061   1.502
 2221SOL     OW 6761   3.479   4.174   0.741
 2221SOL    HW1 6762   3.402   4.197   0.681
 2221SOL    HW2 6763   3.490   4.245   0.810
 2222SOL     OW 6764   3.458   3.844   1.473
 2222SOL    HW1 6765   3.454   3.922   1.410
 2222SOL    HW2 6766   3.450   3.877   1.567
 2223SOL     OW 6767   1.949   4.369   0.562
 2223SOL    HW1 6768   1.930   4.274   0.586
 2223SOL    HW2 6769   1.999   4.414   0.637
 2224SOL     OW 6770   1.977   4.473   1.585
 2224SOL    HW1 6771   2.056   4.478   1.646
 2224SOL    HW2 6772   1.944   0.065   1.565
 2225SOL     OW 6773   2.674   3.728   0.507
 2225SOL    HW1 6774   2.717   3.817   0.489
 2225SOL    HW2 6775   2.575   3.741   0.516
 2226SOL     OW 6776   2.193   3.975   1.809
 2226SOL    HW1 6777   2.244   4.060   1.821
 2226SOL    HW2 6778   2.098   3.989   1.840
 2227SOL     OW 6779   3.140   4.068   0.932
 2227SOL    HW1 6780   3.046   4.035   0.939
 2227SOL    HW2 6781   3.197   4.018   0.997
 2228SOL     OW 6782   2.683   4.308   1.451
 2228SOL    HW1 6783   2.643   4.314   1.542
 2228SOL    HW2 6784   2.618   4.265   1.389
 2229SOL     OW 6785   3.257   4.196   1.677
 2229SOL    HW1 6786   3.253   4.243   1.765
 2229SOL    HW2 6787   3.320   4.119   1.683
 2230SOL     OW 6788   2.858   4.144   1.232
 2230SOL    HW1 6789   2.785   4.169   1.295
 2230SOL    HW2 6790   2.822   4.083   1.162
 2231SOL     OW 6791   2.913   4.414   0.431
 2231SOL    HW1 6792   2.918   4.457   0.521
 2231SOL    HW2 6793   2.820   4.384   0.413
 2232SOL     OW 6794   2.745   4.082   0.196
 2232SOL    HW1 6795   2.762   4.134   0.112
 2232SOL    HW2 6796   2.753   3.984   0.176
 2233SOL     OW 6797   3.568   4.298   1.828
 2233SOL    HW1 6798   3.577   4.393   1.795
 2233SOL    HW2 6799   3.590   4.235   1.753
 2234SOL     OW 6800   2.408   3.907   0.894
 2234SOL    HW1 6801   2.412   3.931   0.991
 2234SOL    HW2 6802   2.412   3.990   0.839
 2235SOL     OW 6803   3.347   4.463   0.736
 2235SOL    HW1 6804   3.327   4.403   0.814
 2235SOL    HW2 6805   3.391   0.046   0.770
 2236SOL     OW 6806   2.061   4.008   1.502
 2236SOL    HW1 6807   1.975   4.057   1.487
 2236SOL    HW2 6808   2.048   3.939   1.573
 2237SOL     OW 6809   3.265   3.832   0.427
 2237SOL    HW1 6810   3.256   3.799   0.334
 2237SOL    HW2 6811   3.362   3.841   0.450
 2238SOL     OW 6812   2.210   4.387   0.411
 2238SOL    HW1 6813   2.259   4.310   0.451
 2238SOL    HW2 6814   2.137   4.416   0.473
 2239SOL     OW 6815   3.399   3.949   1.728
 2239SOL    HW1 6816   3.407   3.972   1.825
 2239SOL    HW2 6817   3.329   3.879   1.716
 2240SOL     OW 6818   2.630   4.000   1.754
 2240SOL    HW1 6819   2.707   3.936   1.757
 2240SOL    HW2 6820   2.573   3.987   1.835
 2241SOL     OW 6821   3.208   4.310   1.431
 2241SOL    HW1 6822   3.231   4.270   1.519
 2241SOL    HW2 6823   3.244   4.403   1.426
 2242SOL     OW 6824   2.782   4.235   0.896
 2242SOL    HW1 6825   2.759   4.220   0.800
 2242SOL    HW2 6826   2.825   4.152   0.933
 2243SOL     OW 6827   2.407   3.788   0.512
 2243SOL    HW1 6828   2.321   3.789   0.563
 2243SOL    HW2 6829   2.411   3.869   0.453
 2244SOL     OW 6830   2.801   3.971   0.464
 2244SOL    HW1 6831   2.764   4.012   0.381
 2244SOL    HW2 6832   2.900   3.982   0.466
 2245SOL     OW 6833   2.939   4.394   1.512
 2245SOL    HW1 6834   2.850   4.364   1.478
 2245SOL    HW2 6835   3.011   4.351   1.458
 2246SOL     OW 6836   2.944   4.316   0.015
 2246SOL    HW1 6837   2.846   4.324   4.499
 2246SOL    HW2 6838   2.961   4.301   0.112
 2247SOL     OW 6839   1.938   4.282   1.390
 2247SOL    HW1 6840   2.032   4.271   1.358
 2247SOL    HW2 6841   1.935   4.356   1.457
 2248SOL     OW 6842   2.423   3.948   1.164
 2248SOL    HW1 6843   2.469   3.866   1.199
 2248SOL    HW2 6844   2.328   3.949   1.195
 2249SOL     OW 6845   2.730   4.189   0.636
 2249SOL    HW1 6846   2.695   4.255   0.570
 2249SOL    HW2 6847   2.751   4.103   0.589
 2250SOL     OW 6848   2.875   3.775   0.751
 2250SOL    HW1 6849   2.814   3.771   0.672
 2250SOL    HW2 6850   2.856   3.698   0.811
 2251SOL     OW 6851   3.339   4.311   0.971
 2251SOL    HW1 6852   3.279   4.233   0.985
 2251SOL    HW2 6853   3.395   4.326   1.052
 2252SOL     OW 6854   3.293   4.304   0.113
 2252SOL    HW1 6855   3.209   4.296   0.167
 2252SOL    HW2 6856   3.329   4.212   0.094
 2253SOL     OW 6857   2.397   3.993   0.332
 2253SOL    HW1 6858   2.410   3.919   0.265
 2253SOL    HW2 6859   2.382   4.079   0.284
 2254SOL     OW 6860   2.782   3.824   1.397
 2254SOL    HW1 6861   2.804   3.799   1.302
 2254SOL    HW2 6862   2.862   3.866   1.440
 2255SOL     OW 6863   2.292   0.005   1.266
 2255SOL    HW1 6864   2.361   0.016   1.338
 2255SOL    HW2 6865   2.249   4.415   1.273
 2256SOL     OW 6866   3.128   4.102   1.272
 2256SOL    HW1 6867   3.166   4.180   1.322
 2256SOL    HW2 6868   3.034   4.123   1.244
 2257SOL     OW 6869   2.416   4.262   0.867
 2257SOL    HW1 6870   2.438   4.305   0.779
 2257SOL    HW2 6871   2.484   4.290   0.935
 2258SOL     OW 6872   3.446   4.346   0.480
 2258SOL    HW1 6873   3.393   4.406   0.541
 2258SOL    HW2 6874   3.483   4.400   0.404
 2259SOL     OW 6875   2.859   3.843   1.755
 2259SOL    HW1 6876   2.911   3.924   1.727
 2259SOL    HW2 6877   2.909   3.760   1.728
 2260SOL     OW 6878   2.357   3.768   1.746
 2260SOL    HW1 6879   2.319   3.709   1.675
 2260SOL    HW2 6880   2.295   3.845   1.762
 2261SOL     OW 6881   3.070   4.277   0.276
 2261SOL    HW1 6882   3.086   4.189   0.321
 2261SOL    HW2 6883   3.016   4.336   0.337
 2262SOL     OW 6884   2.163   3.924   1.244
 2262SOL    HW1 6885   2.127   3.963   1.329
 2262SOL    HW2 6886   2.145   3.826   1.241
 2263SOL     OW 6887   2.597   4.358   1.050
 2263SOL    HW1 6888   2.670   4.320   0.994
 2263SOL    HW2 6889   2.589   4.456   1.033
 2264SOL     OW 6890   3.612   0.141   1.859
 2264SOL    HW1 6891   3.554   0.144   1.778
 2264SOL    HW2 6892   3.560   0.172   1.939
 2265SOL     OW 6893   2.161   3.791   0.626
 2265SOL    HW1 6894   2.144   3.886   0.651
 2265SOL    HW2 6895   2.170   3.736   0.709
 2266SOL     OW 6896   3.467   4.095   0.379
 2266SOL    HW1 6897   3.504   4.030   0.445
 2266SOL    HW2 6898   3.449   4.182   0.425
 2267SOL     OW 6899   3.442   3.964   0.146
 2267SOL    HW1 6900   3.354   3.917   0.136
 2267SOL    HW2 6901   3.440   4.020   0.229
 2268SOL     OW 6902   2.181   0.010   0.920
 2268SOL    HW1 6903   2.258   0.073   0.930
 2268SOL    HW2 6904   2.191   4.435   0.985
 2269SOL     OW 6905   2.199   4.238   1.019
 2269SOL    HW1 6906   2.155   4.149   1.001
 2269SOL    HW2 6907   2.276   4.250   0.957
 2270SOL     OW 6908   3.000   4.096   1.687
 2270SOL    HW1 6909   2.945   4.156   1.744
 2270SOL    HW2 6910   3.091   4.136   1.674
 2271SOL     OW 6911   3.023   3.930   1.471
 2271SOL    HW1 6912   3.012   3.992   1.549
 2271SOL    HW2 6913   3.061   3.981   1.394
 2272SOL     OW 6914   1.899   4.273   1.115
 2272SOL    HW1 6915   1.982   4.249   1.065
 2272SOL    HW2 6916   1.920   4.277   1.213
 2273SOL     OW 6917   2.057   4.246   1.718
 2273SOL    HW1 6918   2.114   4.195   1.653
 2273SOL    HW2 6919   1.993   4.304   1.667
 2274SOL     OW 6920   2.679   4.297   0.343
 2274SOL    HW1 6921   2.691   4.214   0.288
 2274SOL    HW2 6922   2.586   4.332   0.331
 2275SOL     OW 6923   3.502   4.320   1.189
 2275SOL    HW1 6924   3.489   4.259   1.267
 2275SOL    HW2 6925   3.593   4.306   1.150
 2276SOL     OW 6926   2.544   4.183   1.258
 2276SOL    HW1 6927   2.500   4.099   1.227
 2276SOL    HW2 6928   2.553   4.246   1.181
 2277SOL     OW 6929   2.342   4.222   0.198
 2277SOL    HW1 6930   2.385   4.311   0.183
 2277SOL    HW2 6931   2.243   4.229   0.185
 2278SOL     OW 6932   2.795   3.832   0.131
 2278SOL    HW1 6933   2.795   3.798   0.037
 2278SOL    HW2 6934   2.831   3.762   0.192
 2279SOL     OW 6935   3.582   3.864   0.513
 2279SOL    HW1 6936   3.640   3.846   0.434
 2279SOL    HW2 6937   3.561   3.779   0.560
 2280SOL     OW 6938   3.140   0.138   0.679
 2280SOL    HW1 6939   3.202   0.060   0.687
 2280SOL    HW2 6940   3.188   0.213   0.633
 2281SOL     OW 6941   3.701   3.896   0.966
 2281SOL    HW1 6942   3.736   3.806   0.938
 2281SOL    HW2 6943   3.610   3.909   0.926
 2282SOL     OW 6944   2.124   4.043   0.719
 2282SOL    HW1 6945   2.034   4.077   0.690
 2282SOL    HW2 6946   2.123   4.028   0.818
 2283SOL     OW 6947   2.926   0.303   0.725
 2283SOL    HW1 6948   2.833   0.278   0.701
 2283SOL    HW2 6949   2.989   0.231   0.696
 2284SOL     OW 6950   2.881   3.962   0.965
 2284SOL    HW1 6951   2.875   3.915   0.877
 2284SOL    HW2 6952   2.878   3.894   1.039
 2285SOL     OW 6953   3.585   4.115   1.380
 2285SOL    HW1 6954   3.656   4.186   1.378
 2285SOL    HW2 6955   3.612   4.039   1.321
 2286SOL     OW 6956   2.539   3.919   1.499
 2286SOL    HW1 6957   2.625   3.901   1.451
 2286SOL    HW2 6958   2.558   3.950   1.592
 2287SOL     OW 6959   1.922   4.045   4.490
 2287SOL    HW1 6960   1.824   4.060   4.474
 2287SOL    HW2 6961   1.968   4.132   0.005
 2288SOL     OW 6962   2.589   4.288   1.705
 2288SOL    HW1 6963   2.592   4.342   1.789
 2288SOL    HW2 6964   2.618   4.194   1.724
 2289SOL     OW 6965   3.089   4.043   0.452
 2289SOL    HW1 6966   3.150   3.964   0.447
 2289SOL    HW2 6967   3.111   4.097   0.534
 2290SOL     OW 6968   3.620   4.091   1.648
 2290SOL    HW1 6969   3.607   4.100   1.549
 2290SOL    HW2 6970   3.551   4.028   1.684
 2291SOL     OW 6971   2.944   0.215   0.050
 2291SOL    HW1 6972   2.919   0.287   4.486
 2291SOL    HW2 6973   3.023   0.165   0.015
 2292SOL     OW 6974   3.672   3.909   1.236
 2292SOL    HW1 6975   3.686   3.813   1.261
 2292SOL    HW2 6976   3.683   3.919   1.137
 2293SOL     OW 6977   2.301   4.155   0.536
 2293SOL    HW1 6978   2.337   4.086   0.472
 2293SOL    HW2 6979   2.246   4.110   0.606
 2294SOL     OW 6980   2.185   4.261   1.292
 2294SOL    HW1 6981   2.244   4.208   1.352
 2294SOL    HW2 6982   2.205   4.239   1.197
 2295SOL     OW 6983   3.294   3.949   1.118
 2295SOL    HW1 6984   3.326   3.865   1.161
 2295SOL    HW2 6985   3.239   4.001   1.183
 2296SOL     OW 6986   2.870   3.745   1.146
 2296SOL    HW1 6987   2.808   3.678   1.107
 2296SOL    HW2 6988   2.963   3.707   1.148
 2297SOL     OW 6989   3.226   3.766   0.168
 2297SOL    HW1 6990   3.258   3.718   0.086
 2297SOL    HW2 6991   3.140   3.727   0.198
 2298SOL     OW 6992   3.160   4.177   0.683
 2298SOL    HW1 6993   3.114   4.265   0.691
 2298SOL    HW2 6994   3.161   4.132   0.773
 2299SOL     OW 6995   3.450   3.933   0.878
 2299SOL    HW1 6996   3.384   3.946   0.952
 2299SOL    HW2 6997   3.452   4.015   0.820
 2300SOL     OW 6998   2.086   4.290   1.985
 2300SOL    HW1 6999   2.024   4.357   2.026
 2300SOL    HW2 7000   2.081   4.297   1.886
 2301SOL     OW 7001   2.084   4.000   2.854
 2301SOL    HW1 7002   2.117   3.970   2.943
 2301SOL    HW2 7003   1.991   3.969   2.839
 2302SOL     OW 7004   1.868   4.103   2.503
 2302SOL    HW1 7005   1.782   4.134   2.544
 2302SOL    HW2 7006   1.851   4.021   2.448
 2303SOL     OW 7007   3.597   4.333   2.097
 2303SOL    HW1 7008   3.596   4.320   1.998
 2303SOL    HW2 7009   3.593   4.243   2.143
 2304SOL     OW 7010   2.586   0.267   2.545
 2304SOL    HW1 7011   2.587   0.205   2.623
 2304SOL    HW2 7012   2.492   0.289   2.521
 2305SOL     OW 7013   2.308   4.118   3.349
 2305SOL    HW1 7014   2.390   4.061   3.355
 2305SOL    HW2 7015   2.227   4.061   3.364
 2306SOL     OW 7016   3.478   4.174   2.602
 2306SOL    HW1 7017   3.402   4.198   2.542
 2306SOL    HW2 7018   3.491   4.246   2.670
 2307SOL     OW 7019   3.458   3.844   3.335
 2307SOL    HW1 7020   3.454   3.922   3.272
 2307SOL    HW2 7021   3.450   3.877   3.429
 2308SOL     OW 7022   1.950   4.367   2.425
 2308SOL    HW1 7023   1.933   4.272   2.452
 2308SOL    HW2 7024   2.001   4.413   2.497
 2309SOL     OW 7025   1.977   4.473   3.447
 2309SOL    HW1 7026   2.056   4.478   3.508
 2309SOL    HW2 7027   1.945   0.065   3.426
 2310SOL     OW 7028   2.675   3.725   2.370
 2310SOL    HW1 7029   2.720   3.812   2.351
 2310SOL    HW2 7030   2.576   3.740   2.380
 2311SOL     OW 7031   2.193   3.976   3.670
 2311SOL    HW1 7032   2.245   4.060   3.685
 2311SOL    HW2 7033   2.099   3.988   3.702
 2312SOL     OW 7034   3.140   4.068   2.794
 2312SOL    HW1 7035   3.046   4.035   2.801
 2312SOL    HW2 7036   3.197   4.018   2.859
 2313SOL     OW 7037   2.684   4.308   3.313
 2313SOL    HW1 7038   2.644   4.314   3.404
 2313SOL    HW2 7039   2.618   4.265   3.251
 2314SOL     OW 7040   3.258   4.197   3.539
 2314SOL    HW1 7041   3.253   4.243   3.628
 2314SOL    HW2 7042   3.320   4.119   3.546
 2315SOL     OW 7043   2.858   4.143   3.095
 2315SOL    HW1 7044   2.785   4.169   3.158
 2315SOL    HW2 7045   2.821   4.084   3.024
 2316SOL     OW 7046   2.918   4.410   2.282
 2316SOL    HW1 7047   2.924   4.446   2.375
 2316SOL    HW2 7048   2.827   4.371   2.267
 2317SOL     OW 7049   2.747   4.066   2.053
 2317SOL    HW1 7050   2.793   4.132   1.994
 2317SOL    HW2 7051   2.763   3.974   2.018
 2318SOL     OW 7052   3.570   4.300   3.691
 2318SOL    HW1 7053   3.575   4.393   3.657
 2318SOL    HW2 7054   3.590   4.235   3.617
 2319SOL     OW 7055   2.409   3.905   2.756
 2319SOL    HW1 7056   2.412   3.931   2.853
 2319SOL    HW2 7057   2.411   3.988   2.700
 2320SOL     OW 7058   3.349   4.462   2.598
 2320SOL    HW1 7059   3.328   4.403   2.675
 2320SOL    HW2 7060   3.392   0.046   2.632
 2321SOL     OW 7061   2.061   4.008   3.365
 2321SOL    HW1 7062   1.975   4.057   3.350
 2321SOL    HW2 7063   2.048   3.938   3.434
 2322SOL     OW 7064   3.263   3.829   2.290
 2322SOL    HW1 7065   3.249   3.803   2.194
 2322SOL    HW2 7066   3.361   3.842   2.307
 2323SOL     OW 7067   2.218   4.381   2.277
 2323SOL    HW1 7068   2.261   4.303   2.322
 2323SOL    HW2 7069   2.140   4.412   2.332
 2324SOL     OW 7070   3.399   3.949   3.591
 2324SOL    HW1 7071   3.407   3.972   3.688
 2324SOL    HW2 7072   3.329   3.879   3.578
 2325SOL     OW 7073   2.490   3.847   1.968
 2325SOL    HW1 7074   2.571   3.791   1.984
 2325SOL    HW2 7075   2.441   3.814   1.888
 2326SOL     OW 7076   2.630   3.999   3.616
 2326SOL    HW1 7077   2.707   3.935   3.619
 2326SOL    HW2 7078   2.573   3.988   3.697
 2327SOL     OW 7079   3.209   4.310   3.292
 2327SOL    HW1 7080   3.231   4.270   3.381
 2327SOL    HW2 7081   3.243   4.403   3.288
 2328SOL     OW 7082   2.783   4.235   2.759
 2328SOL    HW1 7083   2.759   4.220   2.663
 2328SOL    HW2 7084   2.825   4.152   2.796
 2329SOL     OW 7085   2.408   3.787   2.366
 2329SOL    HW1 7086   2.325   3.785   2.421
 2329SOL    HW2 7087   2.407   3.868   2.307
 2330SOL     OW 7088   2.155   3.771   2.046
 2330SOL    HW1 7089   2.209   3.844   2.004
 2330SOL    HW2 7090   2.217   3.704   2.088
 2331SOL     OW 7091   2.801   3.968   2.327
 2331SOL    HW1 7092   2.764   4.011   2.244
 2331SOL    HW2 7093   2.900   3.980   2.329
 2332SOL     OW 7094   2.939   4.394   3.374
 2332SOL    HW1 7095   2.850   4.364   3.340
 2332SOL    HW2 7096   3.011   4.351   3.320
 2333SOL     OW 7097   2.887   4.268   1.888
 2333SOL    HW1 7098   2.863   4.357   1.849
 2333SOL    HW2 7099   2.954   4.280   1.960
 2334SOL     OW 7100   1.938   4.282   3.252
 2334SOL    HW1 7101   2.032   4.271   3.220
 2334SOL    HW2 7102   1.934   4.356   3.319
 2335SOL     OW 7103   2.423   3.947   3.026
 2335SOL    HW1 7104   2.468   3.867   3.064
 2335SOL    HW2 7105   2.328   3.949   3.057
 2336SOL     OW 7106   2.732   4.188   2.499
 2336SOL    HW1 7107   2.693   4.254   2.433
 2336SOL    HW2 7108   2.752   4.102   2.452
 2337SOL     OW 7109   2.877   3.775   2.614
 2337SOL    HW1 7110   2.815   3.774   2.535
 2337SOL    HW2 7111   2.854   3.699   2.674
 2338SOL     OW 7112   3.339   4.311   2.833
 2338SOL    HW1 7113   3.279   4.233   2.847
 2338SOL    HW2 7114   3.395   4.326   2.915
 2339SOL     OW 7115   3.261   4.296   1.934
 2339SOL    HW1 7116   3.197   4.271   2.006
 2339SOL    HW2 7117   3.351   4.256   1.954
 2340SOL     OW 7118   2.389   3.988   2.181
 2340SOL    HW1 7119   2.428   3.930   2.109
 2340SOL    HW2 7120   2.371   4.079   2.144
 2341SOL     OW 7121   2.782   3.823   3.259
 2341SOL    HW1 7122   2.804   3.799   3.165
 2341SOL    HW2 7123   2.862   3.865   3.302
 2342SOL     OW 7124   2.293   0.005   3.128
 2342SOL    HW1 7125   2.361   0.016   3.200
 2342SOL    HW2 7126   2.250   4.415   3.136
 2343SOL     OW 7127   3.128   4.102   3.134
 2343SOL    HW1 7128   3.166   4.180   3.184
 2343SOL    HW2 7129   3.034   4.123   3.106
 2344SOL     OW 7130   2.417   4.261   2.729
 2344SOL    HW1 7131   2.435   4.306   2.642
 2344SOL    HW2 7132   2.484   4.291   2.797
 2345SOL     OW 7133   3.435   4.343   2.337
 2345SOL    HW1 7134   3.398   4.407   2.403
 2345SOL    HW2 7135   3.495   4.391   2.273
 2346SOL     OW 7136   2.859   3.843   3.616
 2346SOL    HW1 7137   2.911   3.924   3.589
 2346SOL    HW2 7138   2.910   3.761   3.590
 2347SOL     OW 7139   2.357   3.768   3.607
 2347SOL    HW1 7140   2.318   3.708   3.537
 2347SOL    HW2 7141   2.296   3.844   3.624
 2348SOL     OW 7142   3.073   4.255   2.130
 2348SOL    HW1 7143   3.086   4.170   2.181
 2348SOL    HW2 7144   3.021   4.319   2.186
 2349SOL     OW 7145   2.163   3.925   3.106
 2349SOL    HW1 7146   2.127   3.963   3.191
 2349SOL    HW2 7147   2.145   3.826   3.104
 2350SOL     OW 7148   2.596   4.358   2.912
 2350SOL    HW1 7149   2.670   4.320   2.856
 2350SOL    HW2 7150   2.589   4.457   2.896
 2351SOL     OW 7151   3.612   0.141   3.722
 2351SOL    HW1 7152   3.556   0.144   3.640
 2351SOL    HW2 7153   3.558   0.174   3.800
 2352SOL     OW 7154   2.163   3.790   2.487
 2352SOL    HW1 7155   2.144   3.886   2.509
 2352SOL    HW2 7156   2.170   3.737   2.571
 2353SOL     OW 7157   3.477   4.093   2.233
 2353SOL    HW1 7158   3.506   4.025   2.300
 2353SOL    HW2 7159   3.452   4.178   2.280
 2354SOL     OW 7160   3.392   3.997   1.991
 2354SOL    HW1 7161   3.324   3.927   2.014
 2354SOL    HW2 7162   3.428   4.037   2.076
 2355SOL     OW 7163   2.181   0.011   2.783
 2355SOL    HW1 7164   2.258   0.073   2.792
 2355SOL    HW2 7165   2.191   4.435   2.848
 2356SOL     OW 7166   2.199   4.237   2.881
 2356SOL    HW1 7167   2.155   4.149   2.863
 2356SOL    HW2 7168   2.276   4.250   2.819
 2357SOL     OW 7169   3.000   4.096   3.548
 2357SOL    HW1 7170   2.945   4.155   3.606
 2357SOL    HW2 7171   3.091   4.136   3.535
 2358SOL     OW 7172   3.023   3.930   3.333
 2358SOL    HW1 7173   3.011   3.992   3.411
 2358SOL    HW2 7174   3.061   3.981   3.256
 2359SOL     OW 7175   1.899   4.272   2.977
 2359SOL    HW1 7176   1.982   4.249   2.926
 2359SOL    HW2 7177   1.920   4.277   3.075
 2360SOL     OW 7178   2.057   4.246   3.580
 2360SOL    HW1 7179   2.113   4.194   3.516
 2360SOL    HW2 7180   1.993   4.304   3.529
 2361SOL     OW 7181   2.682   4.287   2.204
 2361SOL    HW1 7182   2.683   4.206   2.146
 2361SOL    HW2 7183   2.592   4.329   2.201
 2362SOL     OW 7184   3.502   4.320   3.051
 2362SOL    HW1 7185   3.489   4.259   3.129
 2362SOL    HW2 7186   3.593   4.305   3.012
 2363SOL     OW 7187   2.545   4.182   3.119
 2363SOL    HW1 7188   2.499   4.099   3.089
 2363SOL    HW2 7189   2.553   4.246   3.043
 2364SOL     OW 7190   2.341   4.222   2.053
 2364SOL    HW1 7191   2.387   4.310   2.065
 2364SOL    HW2 7192   2.242   4.237   2.045
 2365SOL     OW 7193   3.580   3.864   2.371
 2365SOL    HW1 7194   3.658   3.856   2.309
 2365SOL    HW2 7195   3.563   3.776   2.415
 2366SOL     OW 7196   3.142   0.137   2.540
 2366SOL    HW1 7197   3.204   0.059   2.550
 2366SOL    HW2 7198   3.188   0.210   2.489
 2367SOL     OW 7199   3.701   3.895   2.829
 2367SOL    HW1 7200   3.736   3.806   2.800
 2367SOL    HW2 7201   3.611   3.910   2.788
 2368SOL     OW 7202   2.124   4.043   2.581
 2368SOL    HW1 7203   2.035   4.077   2.551
 2368SOL    HW2 7204   2.123   4.029   2.680
 2369SOL     OW 7205   2.774   0.095   2.087
 2369SOL    HW1 7206   2.857   0.140   2.053
 2369SOL    HW2 7207   2.794   0.048   2.173
 2370SOL     OW 7208   2.930   0.303   2.602
 2370SOL    HW1 7209   2.839   0.293   2.561
 2370SOL    HW2 7210   2.992   0.234   2.563
 2371SOL     OW 7211   2.881   3.962   2.827
 2371SOL    HW1 7212   2.876   3.916   2.739
 2371SOL    HW2 7213   2.878   3.895   2.901
 2372SOL     OW 7214   3.585   4.115   3.243
 2372SOL    HW1 7215   3.656   4.186   3.240
 2372SOL    HW2 7216   3.612   4.039   3.183
 2373SOL     OW 7217   2.539   3.919   3.361
 2373SOL    HW1 7218   2.625   3.900   3.314
 2373SOL    HW2 7219   2.557   3.949   3.454
 2374SOL     OW 7220   1.938   4.047   1.889
 2374SOL    HW1 7221   1.844   4.035   1.858
 2374SOL    HW2 7222   1.972   4.136   1.860
 2375SOL     OW 7223   1.932   3.882   2.175
 2375SOL    HW1 7224   1.913   3.966   2.125
 2375SOL    HW2 7225   2.020   3.845   2.146
 2376SOL     OW 7226   2.591   4.289   3.567
 2376SOL    HW1 7227   2.590   4.341   3.652
 2376SOL    HW2 7228   2.618   4.194   3.587
 2377SOL     OW 7229   3.084   4.041   2.318
 2377SOL    HW1 7230   3.148   3.965   2.305
 2377SOL    HW2 7231   3.111   4.093   2.399
 2378SOL     OW 7232   3.619   4.091   3.510
 2378SOL    HW1 7233   3.607   4.100   3.411
 2378SOL    HW2 7234   3.551   4.028   3.547
 2379SOL     OW 7235   2.973   0.228   1.967
 2379SOL    HW1 7236   2.948   0.275   1.882
 2379SOL    HW2 7237   3.056   0.174   1.951
 2380SOL     OW 7238   3.672   3.909   3.098
 2380SOL    HW1 7239   3.686   3.813   3.123
 2380SOL    HW2 7240   3.683   3.919   2.999
 2381SOL     OW 7241   2.308   4.149   2.401
 2381SOL    HW1 7242   2.328   4.081   2.331
 2381SOL    HW2 7243   2.246   4.111   2.469
 2382SOL     OW 7244   2.185   4.261   3.154
 2382SOL    HW1 7245   2.244   4.208   3.214
 2382SOL    HW2 7246   2.205   4.239   3.059
 2383SOL     OW 7247   3.294   3.949   2.980
 2383SOL    HW1 7248   3.327   3.866   3.024
 2383SOL    HW2 7249   3.238   4.001   3.045
 2384SOL     OW 7250   2.871   3.745   3.008
 2384SOL    HW1 7251   2.807   3.677   2.971
 2384SOL    HW2 7252   2.963   3.707   3.009
 2385SOL     OW 7253   3.212   3.777   2.025
 2385SOL    HW1 7254   3.248   3.719   1.952
 2385SOL    HW2 7255   3.122   3.743   2.054
 2386SOL     OW 7256   3.160   4.177   2.546
 2386SOL    HW1 7257   3.115   4.266   2.554
 2386SOL    HW2 7258   3.161   4.132   2.635
 2387SOL     OW 7259   3.449   3.933   2.740
 2387SOL    HW1 7260   3.384   3.947   2.814
 2387SOL    HW2 7261   3.452   4.014   2.682
 2388SOL     OW 7262   2.087   4.292   3.847
 2388SOL    HW1 7263   2.022   4.358   3.886
 2388SOL    HW2 7264   2.082   4.296   3.747
 2389SOL     OW 7265   2.108   3.946   0.228
 2389SOL    HW1 7266   2.124   3.994   0.315
 2389SOL    HW2 7267   2.022   3.977   0.189
 2390SOL     OW 7268   3.604   4.326   3.963
 2390SOL    HW1 7269   3.599   4.320   3.863
 2390SOL    HW2 7270   3.585   4.237   4.003
 2391SOL     OW 7271   2.536   0.253   4.414
 2391SOL    HW1 7272   2.625   0.249   4.460
 2391SOL    HW2 7273   2.496   0.344   4.428
 2392SOL     OW 7274   3.499   4.200   4.444
 2392SOL    HW1 7275   3.416   4.195   4.389
 2392SOL    HW2 7276   3.485   4.263   0.021
 2393SOL     OW 7277   1.988   4.337   4.334
 2393SOL    HW1 7278   1.912   4.292   4.288
 2393SOL    HW2 7279   1.972   4.436   4.338
 2394SOL     OW 7280   2.669   3.723   4.218
 2394SOL    HW1 7281   2.721   3.808   4.217
 2394SOL    HW2 7282   2.572   3.743   4.235
 2395SOL     OW 7283   3.143   4.039   0.137
 2395SOL    HW1 7284   3.045   4.023   0.146
 2395SOL    HW2 7285   3.189   4.010   0.220
 2396SOL     OW 7286   2.918   4.412   4.143
 2396SOL    HW1 7287   2.924   4.435   4.240
 2396SOL    HW2 7288   2.828   4.374   4.123
 2397SOL     OW 7289   2.745   4.062   3.915
 2397SOL    HW1 7290   2.791   4.130   3.857
 2397SOL    HW2 7291   2.767   3.970   3.881
 2398SOL     OW 7292   3.268   3.835   4.149
 2398SOL    HW1 7293   3.255   3.805   4.055
 2398SOL    HW2 7294   3.366   3.840   4.169
 2399SOL     OW 7295   2.210   4.379   4.137
 2399SOL    HW1 7296   2.261   4.302   4.175
 2399SOL    HW2 7297   2.141   4.409   4.203
 2400SOL     OW 7298   2.489   3.847   3.831
 2400SOL    HW1 7299   2.571   3.793   3.847
 2400SOL    HW2 7300   2.441   3.813   3.750
 2401SOL     OW 7301   2.405   3.788   4.229
 2401SOL    HW1 7302   2.321   3.786   4.283
 2401SOL    HW2 7303   2.406   3.869   4.170
 2402SOL     OW 7304   2.156   3.770   3.907
 2402SOL    HW1 7305   2.211   3.844   3.867
 2402SOL    HW2 7306   2.217   3.703   3.950
 2403SOL     OW 7307   2.803   3.969   4.190
 2403SOL    HW1 7308   2.764   4.007   4.106
 2403SOL    HW2 7309   2.902   3.981   4.188
 2404SOL     OW 7310   2.889   4.267   3.747
 2404SOL    HW1 7311   2.862   4.356   3.711
 2404SOL    HW2 7312   2.953   4.280   3.823
 2405SOL     OW 7313   2.716   4.177   4.365
 2405SOL    HW1 7314   2.683   4.249   4.304
 2405SOL    HW2 7315   2.743   4.098   4.311
 2406SOL     OW 7316   3.262   4.297   3.797
 2406SOL    HW1 7317   3.196   4.272   3.868
 2406SOL    HW2 7318   3.350   4.252   3.816
 2407SOL     OW 7319   2.390   3.988   4.043
 2407SOL    HW1 7320   2.428   3.930   3.971
 2407SOL    HW2 7321   2.371   4.079   4.007
 2408SOL     OW 7322   3.443   4.355   4.194
 2408SOL    HW1 7323   3.390   4.430   4.232
 2408SOL    HW2 7324   3.500   4.390   4.119
 2409SOL     OW 7325   3.073   4.256   3.992
 2409SOL    HW1 7326   3.085   4.169   4.041
 2409SOL    HW2 7327   3.020   4.319   4.049
 2410SOL     OW 7328   2.160   3.798   4.348
 2410SOL    HW1 7329   2.108   3.878   4.377
 2410SOL    HW2 7330   2.177   3.739   4.427
 2411SOL     OW 7331   3.483   4.098   4.094
 2411SOL    HW1 7332   3.506   4.023   4.156
 2411SOL    HW2 7333   3.453   4.177   4.148
 2412SOL     OW 7334   3.391   3.999   3.854
 2412SOL    HW1 7335   3.325   3.928   3.876
 2412SOL    HW2 7336   3.429   4.036   3.939
 2413SOL     OW 7337   2.687   4.294   4.048
 2413SOL    HW1 7338   2.679   4.205   4.003
 2413SOL    HW2 7339   2.596   4.329   4.071
 2414SOL     OW 7340   2.341   4.222   3.915
 2414SOL    HW1 7341   2.388   4.309   3.929
 2414SOL    HW2 7342   2.243   4.238   3.907
 2415SOL     OW 7343   3.559   3.855   4.221
 2415SOL    HW1 7344   3.651   3.862   4.184
 2415SOL    HW2 7345   3.552   3.772   4.277
 2416SOL     OW 7346   3.148   0.130   4.403
 2416SOL    HW1 7347   3.204   0.056   4.368
 2416SOL    HW2 7348   3.174   0.216   4.360
 2417SOL     OW 7349   3.686   3.858   0.214
 2417SOL    HW1 7350   3.741   3.834   0.134
 2417SOL    HW2 7351   3.601   3.901   0.184
 2418SOL     OW 7352   2.773   0.106   3.959
 2418SOL    HW1 7353   2.859   0.142   3.923
 2418SOL    HW2 7354   2.792   0.046   4.037
 2419SOL     OW 7355   1.939   4.048   3.751
 2419SOL    HW1 7356   1.845   4.033   3.722
 2419SOL    HW2 7357   1.972   4.136   3.718
 2420SOL     OW 7358   1.933   3.881   4.036
 2420SOL    HW1 7359   1.914   3.966   3.986
 2420SOL    HW2 7360   2.020   3.843   4.006
 2421SOL     OW 7361   3.082   4.037   4.171
 2421SOL    HW1 7362   3.148   3.963   4.160
 2421SOL    HW2 7363   3.105   4.091   4.252
 2422SOL     OW 7364   2.975   0.227   3.830
 2422SOL    HW1 7365   2.946   0.274   3.746
 2422SOL    HW2 7366   3.056   0.171   3.810
 2423SOL     OW 7367   2.301   4.148   4.255
 2423SOL    HW1 7368   2.326   4.077   4.189
 2423SOL    HW2 7369   2.260   4.105   4.335
 2424SOL     OW 7370   3.212   3.777   3.886
 2424SOL    HW1 7371   3.248   3.716   3.815
 2424SOL    HW2 7372   3.123   3.745   3.916
 2425SOL     OW 7373   3.149   4.167   4.395
 2425SOL    HW1 7374   3.081   4.238   4.417
 2425SOL    HW2 7375   3.166   4.112   4.477
 2426SOL     OW 7376   3.948   0.648   0.117
 2426SOL    HW1 7377   3.881   0.602   0.175
 2426SOL    HW2 7378   3.984   0.583   0.050
 2427SOL     OW 7379   3.932   0.299   0.990
 2427SOL    HW1 7380   3.969   0.270   1.078
 2427SOL    HW2 7381   3.846   0.250   0.973
 2428SOL     OW 7382   3.730   0.383   0.636
 2428SOL    HW1 7383   3.644   0.413   0.678
 2428SOL    HW2 7384   3.713   0.300   0.583
 2429SOL     OW 7385   4.268   1.252   1.151
 2429SOL    HW1 7386   4.188   1.304   1.122
 2429SOL    HW2 7387   4.334   1.314   1.194
 2430SOL     OW 7388   0.023   0.785   1.856
 2430SOL    HW1 7389   0.071   0.838   1.926
 2430SOL    HW2 7390   0.066   0.800   1.767
 2431SOL     OW 7391   4.396   0.990   0.648
 2431SOL    HW1 7392   4.483   0.999   0.695
 2431SOL    HW2 7393   4.329   1.054   0.688
 2432SOL     OW 7394   4.413   1.158   1.814
 2432SOL    HW1 7395   4.468   1.241   1.799
 2432SOL    HW2 7396   4.320   1.174   1.781
 2433SOL     OW 7397   4.057   1.434   1.068
 2433SOL    HW1 7398   3.981   1.389   1.021
 2433SOL    HW2 7399   4.112   1.485   1.002
 2434SOL     OW 7400   4.163   0.396   1.490
 2434SOL    HW1 7401   4.247   0.340   1.489
 2434SOL    HW2 7402   4.084   0.336   1.500
 2435SOL     OW 7403   3.942   1.717   0.474
 2435SOL    HW1 7404   3.965   1.795   0.532
 2435SOL    HW2 7405   4.017   1.699   0.410
 2436SOL     OW 7406   3.949   1.442   0.535
 2436SOL    HW1 7407   3.936   1.541   0.538
 2436SOL    HW2 7408   3.887   1.398   0.600
 2437SOL     OW 7409   3.975   1.089   0.891
 2437SOL    HW1 7410   3.980   0.998   0.933
 2437SOL    HW2 7411   3.919   1.148   0.949
 2438SOL     OW 7412   4.357   1.801   1.448
 2438SOL    HW1 7413   4.270   1.762   1.477
 2438SOL    HW2 7414   4.352   1.901   1.451
 2439SOL     OW 7415   4.318   0.974   0.156
 2439SOL    HW1 7416   4.293   1.037   0.082
 2439SOL    HW2 7417   4.396   1.011   0.207
 2440SOL     OW 7418   3.839   0.654   0.562
 2440SOL    HW1 7419   3.807   0.560   0.578
 2440SOL    HW2 7420   3.831   0.707   0.646
 2441SOL     OW 7421   3.736   1.601   0.114
 2441SOL    HW1 7422   3.741   1.503   0.135
 2441SOL    HW2 7423   3.728   1.653   0.199
 2442SOL     OW 7424   3.843   0.743   1.587
 2442SOL    HW1 7425   3.941   0.760   1.601
 2442SOL    HW2 7426   3.793   0.829   1.589
 2443SOL     OW 7427   4.311   1.385   0.735
 2443SOL    HW1 7428   4.274   1.293   0.742
 2443SOL    HW2 7429   4.309   1.415   0.640
 2444SOL     OW 7430   0.016   0.022   0.518
 2444SOL    HW1 7431   0.054   0.086   0.452
 2444SOL    HW2 7432   4.420   0.043   0.534
 2445SOL     OW 7433   3.915   0.968   1.269
 2445SOL    HW1 7434   4.003   0.925   1.251
 2445SOL    HW2 7435   3.843   0.914   1.226
 2446SOL     OW 7436   4.039   0.255   1.786
 2446SOL    HW1 7437   4.108   0.321   1.813
 2446SOL    HW2 7438   3.958   0.265   1.845
 2447SOL     OW 7439   4.314   0.727   0.272
 2447SOL    HW1 7440   4.317   0.809   0.215
 2447SOL    HW2 7441   4.246   0.739   0.345
 2448SOL     OW 7442   3.814   0.823   0.776
 2448SOL    HW1 7443   3.900   0.811   0.825
 2448SOL    HW2 7444   3.766   0.903   0.811
 2449SOL     OW 7445   3.855   1.844   1.579
 2449SOL    HW1 7446   3.853   1.821   1.676
 2449SOL    HW2 7447   3.763   1.843   1.542
 2450SOL     OW 7448   4.248   0.203   0.896
 2450SOL    HW1 7449   4.283   0.218   0.989
 2450SOL    HW2 7450   4.265   0.284   0.840
 2451SOL     OW 7451   4.083   1.809   0.859
 2451SOL    HW1 7452   4.129   1.721   0.866
 2451SOL    HW2 7453   4.149   1.883   0.871
 2452SOL     OW 7454   4.047   0.953   0.228
 2452SOL    HW1 7455   4.144   0.963   0.203
 2452SOL    HW2 7456   4.020   0.857   0.219
 2453SOL     OW 7457   4.177   1.254   1.731
 2453SOL    HW1 7458   4.151   1.266   1.635
 2453SOL    HW2 7459   4.097   1.263   1.790
 2454SOL     OW 7460   3.916   0.273   1.508
 2454SOL    HW1 7461   3.844   0.340   1.487
 2454SOL    HW2 7462   3.924   0.263   1.607
 2455SOL     OW 7463   4.196   1.718   0.344
 2455SOL    HW1 7464   4.216   1.787   0.414
 2455SOL    HW2 7465   4.264   1.724   0.271
 2456SOL     OW 7466   3.980   1.794   1.231
 2456SOL    HW1 7467   4.029   1.725   1.285
 2456SOL    HW2 7468   3.960   1.758   1.140
 2457SOL     OW 7469   4.108   0.691   0.471
 2457SOL    HW1 7470   4.140   0.597   0.485
 2457SOL    HW2 7471   4.012   0.698   0.499
 2458SOL     OW 7472   4.325   0.112   0.108
 2458SOL    HW1 7473   4.417   0.076   0.119
 2458SOL    HW2 7474   4.296   0.102   0.013
 2459SOL     OW 7475   0.017   1.420   0.911
 2459SOL    HW1 7476   0.094   1.460   0.860
 2459SOL    HW2 7477   4.440   1.406   0.849
 2460SOL     OW 7478   4.267   0.107   0.537
 2460SOL    HW1 7479   4.179   0.066   0.560
 2460SOL    HW2 7480   4.258   0.159   0.452
 2461SOL     OW 7481   4.041   0.034   0.161
 2461SOL    HW1 7482   4.071   0.129   0.167
 2461SOL    HW2 7483   4.069   4.485   0.244
 2462SOL     OW 7484   0.317   0.682   1.454
 2462SOL    HW1 7485   0.239   0.619   1.445
 2462SOL    HW2 7486   0.402   0.633   1.437
 2463SOL     OW 7487   4.187   1.145   0.736
 2463SOL    HW1 7488   4.116   1.127   0.804
 2463SOL    HW2 7489   4.151   1.130   0.644
 2464SOL     OW 7490   3.805   0.554   1.392
 2464SOL    HW1 7491   3.899   0.553   1.357
 2464SOL    HW2 7492   3.797   0.627   1.460
 2465SOL     OW 7493   4.295   0.234   1.159
 2465SOL    HW1 7494   4.315   0.137   1.174
 2465SOL    HW2 7495   4.201   0.253   1.189
 2466SOL     OW 7496   4.232   1.385   0.203
 2466SOL    HW1 7497   4.137   1.373   0.230
 2466SOL    HW2 7498   4.237   1.404   0.105
 2467SOL     OW 7499   4.245   0.263   0.318
 2467SOL    HW1 7500   4.283   0.200   0.250
 2467SOL    HW2 7501   4.229   0.352   0.275
 2468SOL     OW 7502   4.139   0.812   1.251
 2468SOL    HW1 7503   4.210   0.828   1.319
 2468SOL    HW2 7504   4.101   0.720   1.264
 2469SOL     OW 7505   3.792   1.572   1.348
 2469SOL    HW1 7506   3.754   1.645   1.291
 2469SOL    HW2 7507   3.892   1.576   1.345
 2470SOL     OW 7508   4.076   1.110   0.490
 2470SOL    HW1 7509   4.078   1.190   0.430
 2470SOL    HW2 7510   4.081   1.027   0.434
 2471SOL     OW 7511   4.299   0.542   0.862
 2471SOL    HW1 7512   4.301   0.610   0.789
 2471SOL    HW2 7513   4.363   0.568   0.934
 2472SOL     OW 7514   4.073   1.528   1.318
 2472SOL    HW1 7515   4.064   1.485   1.229
 2472SOL    HW2 7516   4.170   1.537   1.341
 2473SOL     OW 7517   4.135   0.742   1.603
 2473SOL    HW1 7518   4.193   0.794   1.541
 2473SOL    HW2 7519   4.180   0.656   1.626
 2474SOL     OW 7520   4.234   0.070   1.730
 2474SOL    HW1 7521   4.206   4.483   1.689
 2474SOL    HW2 7522   4.152   0.125   1.749
 2475SOL     OW 7523   4.290   0.885   1.027
 2475SOL    HW1 7524   4.328   0.977   1.036
 2475SOL    HW2 7525   4.238   0.863   1.110
 2476SOL     OW 7526   4.015   0.236   1.240
 2476SOL    HW1 7527   3.974   0.254   1.329
 2476SOL    HW2 7528   4.049   0.142   1.237
 2477SOL     OW 7529   3.772   1.310   1.279
 2477SOL    HW1 7530   3.806   1.251   1.352
 2477SOL    HW2 7531   3.778   1.406   1.308
 2478SOL     OW 7532   4.012   0.063   0.656
 2478SOL    HW1 7533   4.008   0.162   0.662
 2478SOL    HW2 7534   4.033   0.025   0.746
 2479SOL     OW 7535   4.077   0.917   1.803
 2479SOL    HW1 7536   4.157   0.936   1.859
 2479SOL    HW2 7537   4.100   0.850   1.733
 2480SOL     OW 7538   4.034   0.808   0.944
 2480SOL    HW1 7539   4.129   0.840   0.945
 2480SOL    HW2 7540   4.031   0.714   0.980
 2481SOL     OW 7541   4.066   0.528   1.010
 2481SOL    HW1 7542   4.019   0.441   0.993
 2481SOL    HW2 7543   4.148   0.533   0.952
 2482SOL     OW 7544   3.729   1.329   0.197
 2482SOL    HW1 7545   3.637   1.348   0.162
 2482SOL    HW2 7546   3.734   1.235   0.231
 2483SOL     OW 7547   3.817   1.791   0.937
 2483SOL    HW1 7548   3.780   1.707   0.896
 2483SOL    HW2 7549   3.911   1.804   0.905
 2484SOL     OW 7550   4.230   1.579   0.905
 2484SOL    HW1 7551   4.314   1.626   0.932
 2484SOL    HW2 7552   4.252   1.503   0.843
 2485SOL     OW 7553   3.758   0.545   1.118
 2485SOL    HW1 7554   3.837   0.518   1.063
 2485SOL    HW2 7555   3.785   0.552   1.214
 2486SOL     OW 7556   3.910   0.519   1.722
 2486SOL    HW1 7557   3.983   0.488   1.661
 2486SOL    HW2 7558   3.863   0.597   1.680
 2487SOL     OW 7559   0.037   0.556   0.266
 2487SOL    HW1 7560   0.019   0.470   0.313
 2487SOL    HW2 7561   4.467   0.623   0.291
 2488SOL     OW 7562   3.972   1.552   1.732
 2488SOL    HW1 7563   3.944   1.623   1.797
 2488SOL    HW2 7564   3.968   1.463   1.777
 2489SOL     OW 7565   4.202   0.494   0.188
 2489SOL    HW1 7566   4.256   0.576   0.205
 2489SOL    HW2 7567   4.105   0.515   0.201
 2490SOL     OW 7568   3.872   1.136   1.472
 2490SOL    HW1 7569   3.876   1.085   1.558
 2490SOL    HW2 7570   3.890   1.074   1.395
 2491SOL     OW 7571   3.806   1.268   1.014
 2491SOL    HW1 7572   3.793   1.277   1.113
 2491SOL    HW2 7573   3.734   1.210   0.977
 2492SOL     OW 7574   4.391   1.653   1.701
 2492SOL    HW1 7575   4.355   1.744   1.726
 2492SOL    HW2 7576   4.451   1.662   1.622
 2493SOL     OW 7577   3.862   1.792   1.846
 2493SOL    HW1 7578   3.806   1.725   1.893
 2493SOL    HW2 7579   3.913   1.846   1.913
 2494SOL     OW 7580   3.988   0.328   0.718
 2494SOL    HW1 7581   3.899   0.362   0.690
 2494SOL    HW2 7582   3.989   0.313   0.817
 2495SOL     OW 7583   4.087   1.303   1.489
 2495SOL    HW1 7584   4.075   1.384   1.432
 2495SOL    HW2 7585   4.011   1.240   1.474
 2496SOL     OW 7586   4.318   1.489   0.485
 2496SOL    HW1 7587   4.353   1.431   0.410
 2496SOL    HW2 7588   4.262   1.562   0.447
 2497SOL     OW 7589   3.982   1.338   0.293
 2497SOL    HW1 7590   3.892   1.344   0.250
 2497SOL    HW2 7591   3.978   1.381   0.383
 2498SOL     OW 7592   3.836   1.022   1.722
 2498SOL    HW1 7593   3.754   0.997   1.775
 2498SOL    HW2 7594   3.917   0.982   1.766
 2499SOL     OW 7595   4.375   0.207   1.491
 2499SOL    HW1 7596   4.466   0.218   1.451
 2499SOL    HW2 7597   4.384   0.182   1.587
 2500SOL     OW 7598   3.788   0.333   4.470
 2500SOL    HW1 7599   3.691   0.327   4.491
 2500SOL    HW2 7600   3.815   0.429   4.463
 2501SOL     OW 7601   4.335   0.844   1.434
 2501SOL    HW1 7602   4.382   0.931   1.418
 2501SOL    HW2 7603   4.403   0.771   1.443
 2502SOL     OW 7604   4.403   0.560   1.731
 2502SOL    HW1 7605   4.427   0.639   1.787
 2502SOL    HW2 7606   4.485   0.507   1.710
 2503SOL     OW 7607   4.108   1.738   1.560
 2503SOL    HW1 7608   4.020   1.783   1.549
 2503SOL    HW2 7609   4.096   1.651   1.607
 2504SOL     OW 7610   4.308   0.732   0.662
 2504SOL    HW1 7611   4.354   0.820   0.658
 2504SOL    HW2 7612   4.232   0.730   0.597
 2505SOL     OW 7613   3.946   1.306   1.856
 2505SOL    HW1 7614   3.878   1.240   1.824
 2505SOL    HW2 7615   3.936   1.320   1.954
 2506SOL     OW 7616   3.806   1.235   0.663
 2506SOL    HW1 7617   3.809   1.184   0.749
 2506SOL    HW2 7618   3.877   1.200   0.602
 2507SOL     OW 7619   4.408   1.390   1.650
 2507SOL    HW1 7620   4.319   1.347   1.657
 2507SOL    HW2 7621   4.400   1.488   1.669
 2508SOL     OW 7622   4.160   0.432   0.526
 2508SOL    HW1 7623   4.191   0.359   0.465
 2508SOL    HW2 7624   4.108   0.392   0.601
 2509SOL     OW 7625   4.052   0.552   1.288
 2509SOL    HW1 7626   4.107   0.495   1.348
 2509SOL    HW2 7627   4.071   0.529   1.192
 2510SOL     OW 7628   0.032   1.599   0.688
 2510SOL    HW1 7629   0.067   1.649   0.609
 2510SOL    HW2 7630   4.460   1.537   0.658
 2511SOL     OW 7631   3.767   1.075   0.323
 2511SOL    HW1 7632   3.865   1.082   0.301
 2511SOL    HW2 7633   3.745   0.981   0.348
 2512SOL     OW 7634   3.953   0.625   1.981
 2512SOL    HW1 7635   3.863   0.622   2.024
 2512SOL    HW2 7636   3.947   0.594   1.887
 2513SOL     OW 7637   3.931   0.300   2.853
 2513SOL    HW1 7638   3.969   0.270   2.941
 2513SOL    HW2 7639   3.846   0.250   2.835
 2514SOL     OW 7640   3.732   0.385   2.498
 2514SOL    HW1 7641   3.643   0.408   2.538
 2514SOL    HW2 7642   3.723   0.304   2.440
 2515SOL     OW 7643   4.270   1.252   3.010
 2515SOL    HW1 7644   4.188   1.303   2.984
 2515SOL    HW2 7645   4.334   1.314   3.057
 2516SOL     OW 7646   0.027   0.781   3.721
 2516SOL    HW1 7647   0.068   0.843   3.787
 2516SOL    HW2 7648   0.066   0.798   3.630
 2517SOL     OW 7649   4.398   0.995   2.507
 2517SOL    HW1 7650   4.481   0.991   2.562
 2517SOL    HW2 7651   4.331   1.054   2.551
 2518SOL     OW 7652   4.413   1.158   3.676
 2518SOL    HW1 7653   4.467   1.241   3.663
 2518SOL    HW2 7654   4.320   1.173   3.642
 2519SOL     OW 7655   4.056   1.434   2.930
 2519SOL    HW1 7656   3.980   1.389   2.884
 2519SOL    HW2 7657   4.111   1.485   2.864
 2520SOL     OW 7658   4.164   0.396   3.354
 2520SOL    HW1 7659   4.247   0.340   3.351
 2520SOL    HW2 7660   4.084   0.337   3.362
 2521SOL     OW 7661   3.945   1.712   2.339
 2521SOL    HW1 7662   3.965   1.793   2.395
 2521SOL    HW2 7663   4.015   1.702   2.269
 2522SOL     OW 7664   3.953   1.440   2.397
 2522SOL    HW1 7665   3.939   1.539   2.400
 2522SOL    HW2 7666   3.890   1.395   2.460
 2523SOL     OW 7667   3.976   1.089   2.754
 2523SOL    HW1 7668   3.980   0.997   2.794
 2523SOL    HW2 7669   3.919   1.148   2.811
 2524SOL     OW 7670   4.357   1.801   3.310
 2524SOL    HW1 7671   4.270   1.762   3.339
 2524SOL    HW2 7672   4.351   1.901   3.313
 2525SOL     OW 7673   4.310   0.985   1.998
 2525SOL    HW1 7674   4.338   1.041   1.920
 2525SOL    HW2 7675   4.378   0.994   2.071
 2526SOL     OW 7676   3.837   0.654   2.423
 2526SOL    HW1 7677   3.809   0.560   2.440
 2526SOL    HW2 7678   3.830   0.706   2.508
 2527SOL     OW 7679   3.750   1.596   1.988
 2527SOL    HW1 7680   3.736   1.499   2.005
 2527SOL    HW2 7681   3.728   1.649   2.070
 2528SOL     OW 7682   3.843   0.743   3.449
 2528SOL    HW1 7683   3.940   0.761   3.463
 2528SOL    HW2 7684   3.792   0.829   3.451
 2529SOL     OW 7685   4.313   1.384   2.597
 2529SOL    HW1 7686   4.274   1.293   2.605
 2529SOL    HW2 7687   4.311   1.414   2.502
 2530SOL     OW 7688   0.018   0.023   2.378
 2530SOL    HW1 7689   0.053   0.084   2.307
 2530SOL    HW2 7690   4.421   0.044   2.394
 2531SOL     OW 7691   3.915   0.968   3.131
 2531SOL    HW1 7692   4.003   0.925   3.113
 2531SOL    HW2 7693   3.842   0.914   3.088
 2532SOL     OW 7694   4.039   0.254   3.650
 2532SOL    HW1 7695   4.107   0.322   3.674
 2532SOL    HW2 7696   3.958   0.265   3.707
 2533SOL     OW 7697   4.313   0.730   2.133
 2533SOL    HW1 7698   4.315   0.805   2.066
 2533SOL    HW2 7699   4.239   0.746   2.199
 2534SOL     OW 7700   3.813   0.823   2.639
 2534SOL    HW1 7701   3.900   0.810   2.687
 2534SOL    HW2 7702   3.766   0.904   2.674
 2535SOL     OW 7703   3.855   1.845   3.441
 2535SOL    HW1 7704   3.853   1.821   3.538
 2535SOL    HW2 7705   3.763   1.843   3.404
 2536SOL     OW 7706   4.249   0.202   2.760
 2536SOL    HW1 7707   4.285   0.220   2.851
 2536SOL    HW2 7708   4.263   0.282   2.702
 2537SOL     OW 7709   4.082   1.809   2.722
 2537SOL    HW1 7710   4.129   1.721   2.729
 2537SOL    HW2 7711   4.149   1.883   2.733
 2538SOL     OW 7712   4.047   0.955   2.110
 2538SOL    HW1 7713   4.134   0.977   2.066
 2538SOL    HW2 7714   4.011   0.870   2.071
 2539SOL     OW 7715   4.177   1.253   3.593
 2539SOL    HW1 7716   4.151   1.265   3.497
 2539SOL    HW2 7717   4.097   1.263   3.652
 2540SOL     OW 7718   3.916   0.274   3.370
 2540SOL    HW1 7719   3.844   0.340   3.348
 2540SOL    HW2 7720   3.922   0.264   3.469
 2541SOL     OW 7721   4.191   1.735   2.186
 2541SOL    HW1 7722   4.222   1.798   2.257
 2541SOL    HW2 7723   4.262   1.729   2.115
 2542SOL     OW 7724   3.981   1.794   3.093
 2542SOL    HW1 7725   4.028   1.725   3.146
 2542SOL    HW2 7726   3.960   1.759   3.002
 2543SOL     OW 7727   4.110   0.691   2.338
 2543SOL    HW1 7728   4.140   0.596   2.349
 2543SOL    HW2 7729   4.012   0.697   2.360
 2544SOL     OW 7730   4.328   0.123   1.979
 2544SOL    HW1 7731   4.418   0.084   1.998
 2544SOL    HW2 7732   4.300   0.098   1.886
 2545SOL     OW 7733   0.016   1.423   2.774
 2545SOL    HW1 7734   0.095   1.458   2.723
 2545SOL    HW2 7735   4.440   1.407   2.712
 2546SOL     OW 7736   4.267   0.107   2.398
 2546SOL    HW1 7737   4.180   0.064   2.420
 2546SOL    HW2 7738   4.258   0.162   2.316
 2547SOL     OW 7739   4.021   0.072   2.057
 2547SOL    HW1 7740   4.099   0.129   2.031
 2547SOL    HW2 7741   4.055   4.494   2.111
 2548SOL     OW 7742   0.316   0.682   3.317
 2548SOL    HW1 7743   0.240   0.617   3.306
 2548SOL    HW2 7744   0.402   0.635   3.300
 2549SOL     OW 7745   4.188   1.145   2.598
 2549SOL    HW1 7746   4.116   1.127   2.666
 2549SOL    HW2 7747   4.151   1.127   2.507
 2550SOL     OW 7748   3.806   0.554   3.254
 2550SOL    HW1 7749   3.899   0.553   3.219
 2550SOL    HW2 7750   3.797   0.627   3.321
 2551SOL     OW 7751   4.295   0.234   3.023
 2551SOL    HW1 7752   4.314   0.137   3.034
 2551SOL    HW2 7753   4.201   0.254   3.051
 2552SOL     OW 7754   4.228   1.387   2.033
 2552SOL    HW1 7755   4.141   1.372   2.079
 2552SOL    HW2 7756   4.211   1.407   1.936
 2553SOL     OW 7757   4.250   0.272   2.184
 2553SOL    HW1 7758   4.286   0.209   2.116
 2553SOL    HW2 7759   4.228   0.359   2.140
 2554SOL     OW 7760   4.140   0.812   3.112
 2554SOL    HW1 7761   4.210   0.828   3.181
 2554SOL    HW2 7762   4.101   0.721   3.125
 2555SOL     OW 7763   3.792   1.572   3.210
 2555SOL    HW1 7764   3.754   1.645   3.153
 2555SOL    HW2 7765   3.892   1.576   3.207
 2556SOL     OW 7766   4.078   1.107   2.352
 2556SOL    HW1 7767   4.079   1.188   2.292
 2556SOL    HW2 7768   4.076   1.024   2.297
 2557SOL     OW 7769   4.299   0.543   2.725
 2557SOL    HW1 7770   4.300   0.610   2.651
 2557SOL    HW2 7771   4.363   0.570   2.796
 2558SOL     OW 7772   4.073   1.529   3.180
 2558SOL    HW1 7773   4.063   1.485   3.091
 2558SOL    HW2 7774   4.170   1.537   3.203
 2559SOL     OW 7775   4.135   0.743   3.465
 2559SOL    HW1 7776   4.193   0.795   3.403
 2559SOL    HW2 7777   4.178   0.655   3.486
 2560SOL     OW 7778   4.233   0.069   3.594
 2560SOL    HW1 7779   4.206   4.484   3.549
 2560SOL    HW2 7780   4.152   0.125   3.611
 2561SOL     OW 7781   4.292   0.886   2.890
 2561SOL    HW1 7782   4.328   0.978   2.899
 2561SOL    HW2 7783   4.238   0.863   2.971
 2562SOL     OW 7784   4.016   0.236   3.102
 2562SOL    HW1 7785   3.973   0.254   3.190
 2562SOL    HW2 7786   4.049   0.142   3.099
 2563SOL     OW 7787   3.773   1.310   3.141
 2563SOL    HW1 7788   3.806   1.251   3.214
 2563SOL    HW2 7789   3.778   1.406   3.170
 2564SOL     OW 7790   4.011   0.061   2.520
 2564SOL    HW1 7791   4.008   0.160   2.521
 2564SOL    HW2 7792   4.032   0.027   2.612
 2565SOL     OW 7793   4.076   0.916   3.667
 2565SOL    HW1 7794   4.158   0.936   3.721
 2565SOL    HW2 7795   4.099   0.850   3.596
 2566SOL     OW 7796   4.034   0.808   2.807
 2566SOL    HW1 7797   4.129   0.840   2.807
 2566SOL    HW2 7798   4.030   0.714   2.842
 2567SOL     OW 7799   4.066   0.528   2.872
 2567SOL    HW1 7800   4.019   0.441   2.855
 2567SOL    HW2 7801   4.148   0.533   2.814
 2568SOL     OW 7802   3.727   1.321   2.057
 2568SOL    HW1 7803   3.637   1.338   2.017
 2568SOL    HW2 7804   3.730   1.227   2.092
 2569SOL     OW 7805   3.817   1.790   2.799
 2569SOL    HW1 7806   3.780   1.707   2.758
 2569SOL    HW2 7807   3.911   1.805   2.768
 2570SOL     OW 7808   4.230   1.579   2.767
 2570SOL    HW1 7809   4.314   1.625   2.795
 2570SOL    HW2 7810   4.252   1.503   2.706
 2571SOL     OW 7811   3.758   0.545   2.980
 2571SOL    HW1 7812   3.836   0.517   2.924
 2571SOL    HW2 7813   3.786   0.552   3.076
 2572SOL     OW 7814   3.911   0.519   3.584
 2572SOL    HW1 7815   3.983   0.487   3.522
 2572SOL    HW2 7816   3.863   0.596   3.542
 2573SOL     OW 7817   0.031   0.558   2.129
 2573SOL    HW1 7818   0.024   0.477   2.187
 2573SOL    HW2 7819   4.460   0.623   2.155
 2574SOL     OW 7820   3.972   1.552   3.594
 2574SOL    HW1 7821   3.944   1.623   3.659
 2574SOL    HW2 7822   3.968   1.463   3.639
 2575SOL     OW 7823   4.192   0.497   2.050
 2575SOL    HW1 7824   4.254   0.573   2.071
 2575SOL    HW2 7825   4.099   0.532   2.038
 2576SOL     OW 7826   3.872   1.136   3.334
 2576SOL    HW1 7827   3.876   1.084   3.420
 2576SOL    HW2 7828   3.890   1.074   3.258
 2577SOL     OW 7829   3.806   1.268   2.876
 2577SOL    HW1 7830   3.794   1.277   2.975
 2577SOL    HW2 7831   3.734   1.210   2.839
 2578SOL     OW 7832   4.391   1.653   3.563
 2578SOL    HW1 7833   4.355   1.743   3.588
 2578SOL    HW2 7834   4.451   1.663   3.483
 2579SOL     OW 7835   3.862   1.792   3.708
 2579SOL    HW1 7836   3.805   1.725   3.755
 2579SOL    HW2 7837   3.913   1.846   3.774
 2580SOL     OW 7838   3.989   0.329   2.581
 2580SOL    HW1 7839   3.900   0.361   2.551
 2580SOL    HW2 7840   3.987   0.313   2.680
 2581SOL     OW 7841   4.087   1.303   3.350
 2581SOL    HW1 7842   4.074   1.385   3.294
 2581SOL    HW2 7843   4.011   1.240   3.336
 2582SOL     OW 7844   4.322   1.488   2.346
 2582SOL    HW1 7845   4.350   1.427   2.272
 2582SOL    HW2 7846   4.259   1.557   2.309
 2583SOL     OW 7847   3.979   1.352   2.147
 2583SOL    HW1 7848   3.883   1.346   2.121
 2583SOL    HW2 7849   3.986   1.388   2.240
 2584SOL     OW 7850   3.836   1.021   3.584
 2584SOL    HW1 7851   3.754   0.997   3.637
 2584SOL    HW2 7852   3.916   0.982   3.628
 2585SOL     OW 7853   4.375   0.207   3.353
 2585SOL    HW1 7854   4.465   0.218   3.312
 2585SOL    HW2 7855   4.385   0.182   3.449
 2586SOL     OW 7856   3.805   0.342   1.907
 2586SOL    HW1 7857   3.730   0.285   1.874
 2586SOL    HW2 7858   3.823   0.415   1.840
 2587SOL     OW 7859   3.790   0.179   2.185
 2587SOL    HW1 7860   3.781   0.251   2.116
 2587SOL    HW2 7861   3.869   0.122   2.162
 2588SOL     OW 7862   4.335   0.844   3.296
 2588SOL    HW1 7863   4.382   0.931   3.280
 2588SOL    HW2 7864   4.403   0.771   3.302
 2589SOL     OW 7865   4.403   0.557   3.597
 2589SOL    HW1 7866   4.429   0.639   3.649
 2589SOL    HW2 7867   4.486   0.509   3.569
 2590SOL     OW 7868   4.108   1.738   3.423
 2590SOL    HW1 7869   4.020   1.783   3.412
 2590SOL    HW2 7870   4.095   1.651   3.470
 2591SOL     OW 7871   4.308   0.734   2.526
 2591SOL    HW1 7872   4.354   0.822   2.517
 2591SOL    HW2 7873   4.234   0.728   2.460
 2592SOL     OW 7874   3.947   1.306   3.718
 2592SOL    HW1 7875   3.877   1.241   3.686
 2592SOL    HW2 7876   3.935   1.322   3.816
 2593SOL     OW 7877   3.807   1.235   2.525
 2593SOL    HW1 7878   3.806   1.185   2.612
 2593SOL    HW2 7879   3.878   1.197   2.466
 2594SOL     OW 7880   4.408   1.390   3.512
 2594SOL    HW1 7881   4.318   1.347   3.519
 2594SOL    HW2 7882   4.400   1.488   3.532
 2595SOL     OW 7883   4.163   0.431   2.392
 2595SOL    HW1 7884   4.186   0.361   2.326
 2595SOL    HW2 7885   4.106   0.392   2.464
 2596SOL     OW 7886   4.053   0.553   3.149
 2596SOL    HW1 7887   4.108   0.494   3.209
 2596SOL    HW2 7888   4.070   0.529   3.054
 2597SOL     OW 7889   0.036   1.598   2.549
 2597SOL    HW1 7890   0.062   1.654   2.470
 2597SOL    HW2 7891   4.462   1.536   2.523
 2598SOL     OW 7892   3.768   1.071   2.167
 2598SOL    HW1 7893   3.866   1.068   2.147
 2598SOL    HW2 7894   3.736   0.980   2.192
 2599SOL     OW 7895   3.954   0.622   3.844
 2599SOL    HW1 7896   3.862   0.623   3.884
 2599SOL    HW2 7897   3.948   0.593   3.748
 2600SOL     OW 7898   3.948   0.306   0.241
 2600SOL    HW1 7899   3.984   0.265   0.325
 2600SOL    HW2 7900   3.860   0.264   0.218
 2601SOL     OW 7901   4.404   0.997   4.349
 2601SOL    HW1 7902   4.483   0.992   4.411
 2601SOL    HW2 7903   4.338   1.064   4.384
 2602SOL     OW 7904   3.944   1.714   4.199
 2602SOL    HW1 7905   3.966   1.792   4.257
 2602SOL    HW2 7906   4.016   1.702   4.131
 2603SOL     OW 7907   3.954   1.440   4.258
 2603SOL    HW1 7908   3.939   1.539   4.266
 2603SOL    HW2 7909   3.891   1.392   4.320
 2604SOL     OW 7910   4.312   0.984   3.859
 2604SOL    HW1 7911   4.338   1.041   3.781
 2604SOL    HW2 7912   4.379   0.995   3.933
 2605SOL     OW 7913   3.845   0.653   4.286
 2605SOL    HW1 7914   3.782   0.576   4.285
 2605SOL    HW2 7915   3.823   0.714   4.362
 2606SOL     OW 7916   3.750   1.597   3.851
 2606SOL    HW1 7917   3.735   1.499   3.867
 2606SOL    HW2 7918   3.727   1.648   3.933
 2607SOL     OW 7919   4.300   1.388   4.443
 2607SOL    HW1 7920   4.278   1.290   4.444
 2607SOL    HW2 7921   4.305   1.420   4.349
 2608SOL     OW 7922   0.016   0.021   4.234
 2608SOL    HW1 7923   0.051   0.087   4.168
 2608SOL    HW2 7924   4.423   0.046   4.260
 2609SOL     OW 7925   4.314   0.728   3.992
 2609SOL    HW1 7926   4.317   0.804   3.927
 2609SOL    HW2 7927   4.243   0.745   4.060
 2610SOL     OW 7928   3.798   0.833   4.480
 2610SOL    HW1 7929   3.869   0.794   0.039
 2610SOL    HW2 7930   3.758   0.913   0.025
 2611SOL     OW 7931   4.089   1.795   0.058
 2611SOL    HW1 7932   4.103   1.704   0.098
 2611SOL    HW2 7933   4.126   1.865   0.120
 2612SOL     OW 7934   4.049   0.954   3.974
 2612SOL    HW1 7935   4.135   0.978   3.928
 2612SOL    HW2 7936   4.011   0.871   3.933
 2613SOL     OW 7937   4.192   1.736   4.048
 2613SOL    HW1 7938   4.223   1.796   4.121
 2613SOL    HW2 7939   4.263   1.729   3.977
 2614SOL     OW 7940   4.112   0.692   4.200
 2614SOL    HW1 7941   4.140   0.596   4.207
 2614SOL    HW2 7942   4.015   0.700   4.222
 2615SOL     OW 7943   4.326   0.121   3.842
 2615SOL    HW1 7944   4.418   0.086   3.860
 2615SOL    HW2 7945   4.299   0.097   3.749
 2616SOL     OW 7946   4.265   0.112   4.272
 2616SOL    HW1 7947   4.182   0.056   4.274
 2616SOL    HW2 7948   4.267   0.165   4.188
 2617SOL     OW 7949   4.021   0.074   3.922
 2617SOL    HW1 7950   4.098   0.129   3.889
 2617SOL    HW2 7951   4.056   4.493   3.969
 2618SOL     OW 7952   4.189   1.134   4.464
 2618SOL    HW1 7953   4.117   1.142   0.032
 2618SOL    HW2 7954   4.148   1.121   4.374
 2619SOL     OW 7955   4.228   1.386   3.894
 2619SOL    HW1 7956   4.141   1.372   3.942
 2619SOL    HW2 7957   4.210   1.408   3.798
 2620SOL     OW 7958   4.253   0.273   4.048
 2620SOL    HW1 7959   4.287   0.207   3.981
 2620SOL    HW2 7960   4.228   0.358   4.002
 2621SOL     OW 7961   4.078   1.106   4.218
 2621SOL    HW1 7962   4.076   1.189   4.162
 2621SOL    HW2 7963   4.075   1.026   4.158
 2622SOL     OW 7964   4.003   0.074   4.385
 2622SOL    HW1 7965   3.981   0.171   4.392
 2622SOL    HW2 7966   4.031   0.039   4.474
 2623SOL     OW 7967   3.728   1.321   3.917
 2623SOL    HW1 7968   3.637   1.339   3.878
 2623SOL    HW2 7969   3.730   1.228   3.954
 2624SOL     OW 7970   0.038   0.571   4.022
 2624SOL    HW1 7971   0.014   0.475   4.029
 2624SOL    HW2 7972   4.454   0.626   4.023
 2625SOL     OW 7973   4.192   0.497   3.913
 2625SOL    HW1 7974   4.252   0.575   3.933
 2625SOL    HW2 7975   4.099   0.529   3.899
 2626SOL     OW 7976   0.233   1.063   4.440
 2626SOL    HW1 7977   0.191   0.981   4.480
 2626SOL    HW2 7978   0.292   1.036   4.364
 2627SOL     OW 7979   4.318   1.488   4.194
 2627SOL    HW1 7980   4.348   1.429   4.119
 2627SOL    HW2 7981   4.255   1.558   4.159
 2628SOL     OW 7982   3.979   1.352   4.010
 2628SOL    HW1 7983   3.883   1.345   3.983
 2628SOL    HW2 7984   3.986   1.389   4.102
 2629SOL     OW 7985   3.805   0.342   3.768
 2629SOL    HW1 7986   3.730   0.285   3.736
 2629SOL    HW2 7987   3.823   0.415   3.702
 2630SOL     OW 7988   3.792   0.174   4.046
 2630SOL    HW1 7989   3.777   0.249   3.982
 2630SOL    HW2 7990   3.874   0.124   4.020
 2631SOL     OW 7991   4.326   0.740   4.368
 2631SOL    HW1 7992   4.356   0.835   4.363
 2631SOL    HW2 7993   4.241   0.729   4.316
 2632SOL     OW 7994   4.391   1.809   0.170
 2632SOL    HW1 7995   4.371   1.904   0.146
 2632SOL    HW2 7996   4.488   1.790   0.154
 2633SOL     OW 7997   3.812   1.238   4.388
 2633SOL    HW1 7998   3.780   1.184   4.466
 2633SOL    HW2 7999   3.878   1.185   4.335
 2634SOL     OW 8000   4.148   0.428   4.248
 2634SOL    HW1 8001   4.183   0.363   4.181
 2634SOL    HW2 8002   4.132   0.381   4.335
 2635SOL     OW 8003   0.032   1.584   4.400
 2635SOL    HW1 8004   0.046   1.626   4.311
 2635SOL    HW2 8005   4.458   1.517   4.394
 2636SOL     OW 8006   3.770   1.072   4.027
 2636SOL    HW1 8007   3.868   1.068   4.008
 2636SOL    HW2 8008   3.737   0.981   4.051
 2637SOL     OW 8009   3.953   2.504   0.122
 2637SOL    HW1 8010   3.872   2.469   0.168
 2637SOL    HW2 8011   3.973   2.447   0.042
 2638SOL     OW 8012   3.946   2.144   0.992
 2638SOL    HW1 8013   3.982   2.111   1.079
 2638SOL    HW2 8014   3.853   2.109   0.979
 2639SOL     OW 8015   3.728   2.243   0.634
 2639SOL    HW1 8016   3.646   2.276   0.680
 2639SOL    HW2 8017   3.709   2.155   0.590
 2640SOL     OW 8018   4.268   3.114   1.151
 2640SOL    HW1 8019   4.188   3.165   1.122
 2640SOL    HW2 8020   4.334   3.176   1.194
 2641SOL     OW 8021   0.022   2.649   1.855
 2641SOL    HW1 8022   0.072   2.699   1.926
 2641SOL    HW2 8023   0.066   2.661   1.767
 2642SOL     OW 8024   4.396   2.853   0.648
 2642SOL    HW1 8025   4.483   2.861   0.695
 2642SOL    HW2 8026   4.329   2.916   0.688
 2643SOL     OW 8027   4.413   3.021   1.814
 2643SOL    HW1 8028   4.467   3.103   1.799
 2643SOL    HW2 8029   4.320   3.036   1.781
 2644SOL     OW 8030   4.057   3.296   1.068
 2644SOL    HW1 8031   3.981   3.251   1.021
 2644SOL    HW2 8032   4.112   3.347   1.002
 2645SOL     OW 8033   4.170   2.260   1.489
 2645SOL    HW1 8034   4.249   2.199   1.489
 2645SOL    HW2 8035   4.086   2.206   1.500
 2646SOL     OW 8036   3.942   3.578   0.475
 2646SOL    HW1 8037   3.965   3.657   0.532
 2646SOL    HW2 8038   4.017   3.561   0.410
 2647SOL     OW 8039   3.949   3.304   0.535
 2647SOL    HW1 8040   3.936   3.403   0.538
 2647SOL    HW2 8041   3.886   3.260   0.600
 2648SOL     OW 8042   3.975   2.951   0.891
 2648SOL    HW1 8043   3.980   2.860   0.932
 2648SOL    HW2 8044   3.919   3.010   0.949
 2649SOL     OW 8045   4.357   3.663   1.447
 2649SOL    HW1 8046   4.270   3.624   1.477
 2649SOL    HW2 8047   4.352   3.763   1.452
 2650SOL     OW 8048   4.318   2.836   0.157
 2650SOL    HW1 8049   4.294   2.899   0.082
 2650SOL    HW2 8050   4.396   2.873   0.207
 2651SOL     OW 8051   3.838   2.515   0.562
 2651SOL    HW1 8052   3.806   2.422   0.578
 2651SOL    HW2 8053   3.830   2.568   0.646
 2652SOL     OW 8054   3.734   3.462   0.114
 2652SOL    HW1 8055   3.741   3.365   0.136
 2652SOL    HW2 8056   3.728   3.516   0.198
 2653SOL     OW 8057   3.843   2.603   1.588
 2653SOL    HW1 8058   3.941   2.621   1.601
 2653SOL    HW2 8059   3.793   2.690   1.589
 2654SOL     OW 8060   4.311   3.247   0.735
 2654SOL    HW1 8061   4.274   3.155   0.742
 2654SOL    HW2 8062   4.309   3.277   0.640
 2655SOL     OW 8063   0.021   1.889   0.537
 2655SOL    HW1 8064   0.054   1.943   0.459
 2655SOL    HW2 8065   4.422   1.882   0.532
 2656SOL     OW 8066   3.915   2.830   1.268
 2656SOL    HW1 8067   4.004   2.787   1.251
 2656SOL    HW2 8068   3.842   2.775   1.227
 2657SOL     OW 8069   4.055   2.113   1.811
 2657SOL    HW1 8070   4.108   2.197   1.821
 2657SOL    HW2 8071   3.961   2.129   1.842
 2658SOL     OW 8072   4.312   2.588   0.272
 2658SOL    HW1 8073   4.316   2.670   0.215
 2658SOL    HW2 8074   4.245   2.602   0.345
 2659SOL     OW 8075   3.813   2.685   0.775
 2659SOL    HW1 8076   3.900   2.673   0.825
 2659SOL    HW2 8077   3.766   2.766   0.811
 2660SOL     OW 8078   3.855   3.708   1.579
 2660SOL    HW1 8079   3.853   3.683   1.676
 2660SOL    HW2 8080   3.763   3.703   1.542
 2661SOL     OW 8081   4.250   2.056   0.883
 2661SOL    HW1 8082   4.271   2.059   0.981
 2661SOL    HW2 8083   4.266   2.146   0.843
 2662SOL     OW 8084   4.083   3.671   0.859
 2662SOL    HW1 8085   4.129   3.583   0.866
 2662SOL    HW2 8086   4.149   3.745   0.871
 2663SOL     OW 8087   4.047   2.815   0.227
 2663SOL    HW1 8088   4.143   2.825   0.203
 2663SOL    HW2 8089   4.022   2.718   0.222
 2664SOL     OW 8090   4.177   3.116   1.731
 2664SOL    HW1 8091   4.151   3.128   1.635
 2664SOL    HW2 8092   4.097   3.125   1.790
 2665SOL     OW 8093   3.924   2.148   1.501
 2665SOL    HW1 8094   3.841   2.201   1.487
 2665SOL    HW2 8095   3.908   2.077   1.571
 2666SOL     OW 8096   4.197   3.580   0.344
 2666SOL    HW1 8097   4.215   3.649   0.414
 2666SOL    HW2 8098   4.265   3.587   0.271
 2667SOL     OW 8099   3.980   3.656   1.231
 2667SOL    HW1 8100   4.029   3.587   1.285
 2667SOL    HW2 8101   3.960   3.620   1.140
 2668SOL     OW 8102   4.107   2.555   0.472
 2668SOL    HW1 8103   4.139   2.461   0.485
 2668SOL    HW2 8104   4.011   2.562   0.499
 2669SOL     OW 8105   0.017   3.283   0.911
 2669SOL    HW1 8106   0.094   3.322   0.860
 2669SOL    HW2 8107   4.440   3.268   0.849
 2670SOL     OW 8108   4.256   1.926   0.504
 2670SOL    HW1 8109   4.175   1.929   0.562
 2670SOL    HW2 8110   4.263   2.011   0.452
 2671SOL     OW 8111   0.317   2.541   1.446
 2671SOL    HW1 8112   0.240   2.477   1.446
 2671SOL    HW2 8113   0.403   2.489   1.440
 2672SOL     OW 8114   4.187   3.007   0.736
 2672SOL    HW1 8115   4.116   2.989   0.804
 2672SOL    HW2 8116   4.151   2.992   0.644
 2673SOL     OW 8117   3.803   2.419   1.390
 2673SOL    HW1 8118   3.897   2.414   1.357
 2673SOL    HW2 8119   3.796   2.491   1.460
 2674SOL     OW 8120   4.284   2.073   1.150
 2674SOL    HW1 8121   4.332   1.999   1.197
 2674SOL    HW2 8122   4.193   2.085   1.190
 2675SOL     OW 8123   4.232   3.246   0.203
 2675SOL    HW1 8124   4.137   3.235   0.230
 2675SOL    HW2 8125   4.237   3.266   0.105
 2676SOL     OW 8126   4.257   2.135   0.332
 2676SOL    HW1 8127   4.282   2.064   0.266
 2676SOL    HW2 8128   4.235   2.219   0.282
 2677SOL     OW 8129   4.139   2.673   1.250
 2677SOL    HW1 8130   4.210   2.690   1.319
 2677SOL    HW2 8131   4.101   2.581   1.264
 2678SOL     OW 8132   3.792   3.434   1.348
 2678SOL    HW1 8133   3.754   3.507   1.291
 2678SOL    HW2 8134   3.892   3.437   1.345
 2679SOL     OW 8135   4.076   2.972   0.490
 2679SOL    HW1 8136   4.078   3.053   0.430
 2679SOL    HW2 8137   4.081   2.889   0.434
 2680SOL     OW 8138   4.297   2.403   0.863
 2680SOL    HW1 8139   4.300   2.472   0.790
 2680SOL    HW2 8140   4.362   2.428   0.935
 2681SOL     OW 8141   4.073   3.390   1.318
 2681SOL    HW1 8142   4.063   3.347   1.229
 2681SOL    HW2 8143   4.170   3.399   1.341
 2682SOL     OW 8144   4.135   2.605   1.603
 2682SOL    HW1 8145   4.194   2.656   1.541
 2682SOL    HW2 8146   4.176   2.517   1.624
 2683SOL     OW 8147   4.227   1.914   1.736
 2683SOL    HW1 8148   4.186   1.849   1.672
 2683SOL    HW2 8149   4.160   1.984   1.759
 2684SOL     OW 8150   4.290   2.748   1.027
 2684SOL    HW1 8151   4.328   2.839   1.036
 2684SOL    HW2 8152   4.238   2.725   1.110
 2685SOL     OW 8153   4.025   2.063   1.246
 2685SOL    HW1 8154   3.987   2.101   1.331
 2685SOL    HW2 8155   4.007   1.965   1.242
 2686SOL     OW 8156   3.773   3.172   1.279
 2686SOL    HW1 8157   3.807   3.113   1.352
 2686SOL    HW2 8158   3.778   3.268   1.308
 2687SOL     OW 8159   4.018   1.930   0.628
 2687SOL    HW1 8160   4.005   2.026   0.654
 2687SOL    HW2 8161   4.032   1.875   0.711
 2688SOL     OW 8162   4.076   2.778   1.805
 2688SOL    HW1 8163   4.158   2.798   1.859
 2688SOL    HW2 8164   4.099   2.712   1.733
 2689SOL     OW 8165   4.034   2.669   0.944
 2689SOL    HW1 8166   4.129   2.702   0.945
 2689SOL    HW2 8167   4.030   2.576   0.980
 2690SOL     OW 8168   4.062   2.384   1.008
 2690SOL    HW1 8169   4.022   2.294   0.995
 2690SOL    HW2 8170   4.144   2.393   0.952
 2691SOL     OW 8171   3.729   3.191   0.196
 2691SOL    HW1 8172   3.637   3.210   0.162
 2691SOL    HW2 8173   3.733   3.097   0.231
 2692SOL     OW 8174   3.818   3.653   0.937
 2692SOL    HW1 8175   3.780   3.570   0.896
 2692SOL    HW2 8176   3.911   3.666   0.906
 2693SOL     OW 8177   4.230   3.441   0.905
 2693SOL    HW1 8178   4.314   3.488   0.932
 2693SOL    HW2 8179   4.251   3.365   0.843
 2694SOL     OW 8180   3.760   2.407   1.117
 2694SOL    HW1 8181   3.842   2.385   1.064
 2694SOL    HW2 8182   3.784   2.414   1.214
 2695SOL     OW 8183   3.916   2.381   1.726
 2695SOL    HW1 8184   3.974   2.337   1.658
 2695SOL    HW2 8185   3.865   2.456   1.684
 2696SOL     OW 8186   0.038   2.425   0.266
 2696SOL    HW1 8187   0.028   2.335   0.309
 2696SOL    HW2 8188   4.464   2.485   0.296
 2697SOL     OW 8189   3.972   3.414   1.732
 2697SOL    HW1 8190   3.944   3.485   1.797
 2697SOL    HW2 8191   3.968   3.325   1.777
 2698SOL     OW 8192   4.199   2.355   0.191
 2698SOL    HW1 8193   4.259   2.434   0.206
 2698SOL    HW2 8194   4.104   2.385   0.189
 2699SOL     OW 8195   3.872   2.998   1.472
 2699SOL    HW1 8196   3.876   2.946   1.558
 2699SOL    HW2 8197   3.890   2.936   1.395
 2700SOL     OW 8198   3.806   3.130   1.014
 2700SOL    HW1 8199   3.794   3.139   1.113
 2700SOL    HW2 8200   3.734   3.072   0.977
 2701SOL     OW 8201   4.391   3.516   1.701
 2701SOL    HW1 8202   4.355   3.606   1.727
 2701SOL    HW2 8203   4.451   3.525   1.622
 2702SOL     OW 8204   3.862   3.654   1.845
 2702SOL    HW1 8205   3.806   3.587   1.893
 2702SOL    HW2 8206   3.913   3.708   1.912
 2703SOL     OW 8207   3.986   2.182   0.717
 2703SOL    HW1 8208   3.897   2.219   0.691
 2703SOL    HW2 8209   3.989   2.168   0.816
 2704SOL     OW 8210   4.087   3.165   1.489
 2704SOL    HW1 8211   4.074   3.246   1.431
 2704SOL    HW2 8212   4.011   3.102   1.474
 2705SOL     OW 8213   4.318   3.351   0.485
 2705SOL    HW1 8214   4.353   3.294   0.410
 2705SOL    HW2 8215   4.263   3.425   0.447
 2706SOL     OW 8216   3.982   3.200   0.293
 2706SOL    HW1 8217   3.892   3.206   0.250
 2706SOL    HW2 8218   3.978   3.243   0.383
 2707SOL     OW 8219   3.836   2.884   1.723
 2707SOL    HW1 8220   3.754   2.859   1.775
 2707SOL    HW2 8221   3.917   2.844   1.766
 2708SOL     OW 8222   4.394   2.068   1.494
 2708SOL    HW1 8223   4.484   2.061   1.451
 2708SOL    HW2 8224   4.403   2.055   1.593
 2709SOL     OW 8225   3.783   2.212   0.002
 2709SOL    HW1 8226   3.685   2.193   4.490
 2709SOL    HW2 8227   3.810   2.288   4.443
 2710SOL     OW 8228   4.335   2.705   1.433
 2710SOL    HW1 8229   4.384   2.792   1.418
 2710SOL    HW2 8230   4.402   2.631   1.441
 2711SOL     OW 8231   4.403   2.420   1.734
 2711SOL    HW1 8232   4.428   2.501   1.787
 2711SOL    HW2 8233   4.486   2.370   1.710
 2712SOL     OW 8234   4.108   3.600   1.560
 2712SOL    HW1 8235   4.020   3.645   1.550
 2712SOL    HW2 8236   4.095   3.513   1.607
 2713SOL     OW 8237   4.307   2.594   0.663
 2713SOL    HW1 8238   4.354   2.682   0.658
 2713SOL    HW2 8239   4.232   2.593   0.597
 2714SOL     OW 8240   3.946   3.168   1.856
 2714SOL    HW1 8241   3.879   3.102   1.824
 2714SOL    HW2 8242   3.935   3.182   1.954
 2715SOL     OW 8243   3.805   3.096   0.663
 2715SOL    HW1 8244   3.809   3.046   0.750
 2715SOL    HW2 8245   3.877   3.063   0.602
 2716SOL     OW 8246   4.409   3.252   1.650
 2716SOL    HW1 8247   4.319   3.209   1.657
 2716SOL    HW2 8248   4.400   3.350   1.669
 2717SOL     OW 8249   4.154   2.296   0.527
 2717SOL    HW1 8250   4.192   2.226   0.466
 2717SOL    HW2 8251   4.104   2.252   0.601
 2718SOL     OW 8252   4.052   2.412   1.287
 2718SOL    HW1 8253   4.108   2.356   1.349
 2718SOL    HW2 8254   4.072   2.388   1.192
 2719SOL     OW 8255   0.032   3.461   0.687
 2719SOL    HW1 8256   0.067   3.512   0.609
 2719SOL    HW2 8257   4.459   3.399   0.658
 2720SOL     OW 8258   3.767   2.937   0.323
 2720SOL    HW1 8259   3.864   2.944   0.302
 2720SOL    HW2 8260   3.745   2.842   0.348
 2721SOL     OW 8261   3.954   2.482   1.984
 2721SOL    HW1 8262   3.861   2.486   2.021
 2721SOL    HW2 8263   3.949   2.457   1.887
 2722SOL     OW 8264   3.945   2.144   2.854
 2722SOL    HW1 8265   3.981   2.111   2.941
 2722SOL    HW2 8266   3.853   2.109   2.841
 2723SOL     OW 8267   3.730   2.245   2.498
 2723SOL    HW1 8268   3.645   2.272   2.542
 2723SOL    HW2 8269   3.715   2.160   2.447
 2724SOL     OW 8270   4.270   3.114   3.009
 2724SOL    HW1 8271   4.188   3.165   2.984
 2724SOL    HW2 8272   4.334   3.175   3.057
 2725SOL     OW 8273   0.027   2.644   3.720
 2725SOL    HW1 8274   0.069   2.706   3.786
 2725SOL    HW2 8275   0.066   2.659   3.630
 2726SOL     OW 8276   4.398   2.857   2.506
 2726SOL    HW1 8277   4.481   2.852   2.563
 2726SOL    HW2 8278   4.331   2.916   2.551
 2727SOL     OW 8279   4.413   3.020   3.675
 2727SOL    HW1 8280   4.467   3.103   3.663
 2727SOL    HW2 8281   4.320   3.035   3.642
 2728SOL     OW 8282   4.057   3.296   2.930
 2728SOL    HW1 8283   3.980   3.251   2.883
 2728SOL    HW2 8284   4.111   3.347   2.864
 2729SOL     OW 8285   4.170   2.260   3.351
 2729SOL    HW1 8286   4.249   2.199   3.351
 2729SOL    HW2 8287   4.086   2.206   3.363
 2730SOL     OW 8288   3.945   3.574   2.339
 2730SOL    HW1 8289   3.965   3.655   2.395
 2730SOL    HW2 8290   4.014   3.564   2.269
 2731SOL     OW 8291   3.953   3.302   2.397
 2731SOL    HW1 8292   3.939   3.401   2.400
 2731SOL    HW2 8293   3.890   3.257   2.460
 2732SOL     OW 8294   3.975   2.951   2.754
 2732SOL    HW1 8295   3.980   2.860   2.794
 2732SOL    HW2 8296   3.919   3.010   2.811
 2733SOL     OW 8297   4.357   3.663   3.309
 2733SOL    HW1 8298   4.270   3.624   3.339
 2733SOL    HW2 8299   4.352   3.763   3.314
 2734SOL     OW 8300   4.310   2.848   1.999
 2734SOL    HW1 8301   4.338   2.903   1.920
 2734SOL    HW2 8302   4.378   2.856   2.071
 2735SOL     OW 8303   3.837   2.515   2.423
 2735SOL    HW1 8304   3.807   2.421   2.440
 2735SOL    HW2 8305   3.830   2.568   2.508
 2736SOL     OW 8306   3.750   3.458   1.988
 2736SOL    HW1 8307   3.735   3.361   2.005
 2736SOL    HW2 8308   3.728   3.511   2.070
 2737SOL     OW 8309   3.843   2.603   3.450
 2737SOL    HW1 8310   3.941   2.620   3.464
 2737SOL    HW2 8311   3.794   2.690   3.452
 2738SOL     OW 8312   4.313   3.246   2.597
 2738SOL    HW1 8313   4.274   3.155   2.605
 2738SOL    HW2 8314   4.311   3.276   2.502
 2739SOL     OW 8315   0.020   1.872   2.388
 2739SOL    HW1 8316   0.059   1.936   2.322
 2739SOL    HW2 8317   4.420   1.883   2.391
 2740SOL     OW 8318   3.915   2.830   3.130
 2740SOL    HW1 8319   4.004   2.787   3.113
 2740SOL    HW2 8320   3.843   2.775   3.089
 2741SOL     OW 8321   4.055   2.113   3.673
 2741SOL    HW1 8322   4.107   2.197   3.682
 2741SOL    HW2 8323   3.961   2.128   3.704
 2742SOL     OW 8324   4.312   2.592   2.132
 2742SOL    HW1 8325   4.316   2.666   2.065
 2742SOL    HW2 8326   4.239   2.609   2.198
 2743SOL     OW 8327   3.813   2.684   2.639
 2743SOL    HW1 8328   3.900   2.672   2.687
 2743SOL    HW2 8329   3.767   2.766   2.673
 2744SOL     OW 8330   3.855   3.707   3.441
 2744SOL    HW1 8331   3.854   3.683   3.538
 2744SOL    HW2 8332   3.762   3.704   3.404
 2745SOL     OW 8333   4.251   2.054   2.746
 2745SOL    HW1 8334   4.271   2.060   2.843
 2745SOL    HW2 8335   4.265   2.144   2.704
 2746SOL     OW 8336   4.082   3.671   2.722
 2746SOL    HW1 8337   4.129   3.583   2.729
 2746SOL    HW2 8338   4.149   3.746   2.733
 2747SOL     OW 8339   4.048   2.817   2.110
 2747SOL    HW1 8340   4.135   2.840   2.066
 2747SOL    HW2 8341   4.011   2.733   2.071
 2748SOL     OW 8342   4.178   3.115   3.593
 2748SOL    HW1 8343   4.151   3.127   3.497
 2748SOL    HW2 8344   4.097   3.125   3.652
 2749SOL     OW 8345   3.924   2.148   3.364
 2749SOL    HW1 8346   3.840   2.200   3.349
 2749SOL    HW2 8347   3.908   2.077   3.432
 2750SOL     OW 8348   4.192   3.597   2.186
 2750SOL    HW1 8349   4.222   3.660   2.258
 2750SOL    HW2 8350   4.261   3.592   2.115
 2751SOL     OW 8351   3.980   3.656   3.093
 2751SOL    HW1 8352   4.029   3.587   3.147
 2751SOL    HW2 8353   3.960   3.621   3.002
 2752SOL     OW 8354   4.110   2.553   2.338
 2752SOL    HW1 8355   4.141   2.459   2.349
 2752SOL    HW2 8356   4.012   2.559   2.360
 2753SOL     OW 8357   4.342   1.976   1.977
 2753SOL    HW1 8358   4.440   1.956   1.984
 2753SOL    HW2 8359   4.309   1.949   1.887
 2754SOL     OW 8360   0.016   3.285   2.774
 2754SOL    HW1 8361   0.095   3.320   2.723
 2754SOL    HW2 8362   4.440   3.269   2.712
 2755SOL     OW 8363   4.258   1.926   2.363
 2755SOL    HW1 8364   4.177   1.929   2.421
 2755SOL    HW2 8365   4.260   2.008   2.305
 2756SOL     OW 8366   4.018   1.909   2.047
 2756SOL    HW1 8367   4.074   1.981   2.005
 2756SOL    HW2 8368   4.077   1.842   2.090
 2757SOL     OW 8369   0.316   2.540   3.309
 2757SOL    HW1 8370   0.240   2.475   3.307
 2757SOL    HW2 8371   0.403   2.491   3.302
 2758SOL     OW 8372   4.187   3.007   2.598
 2758SOL    HW1 8373   4.116   2.989   2.666
 2758SOL    HW2 8374   4.152   2.989   2.507
 2759SOL     OW 8375   3.803   2.419   3.252
 2759SOL    HW1 8376   3.897   2.414   3.219
 2759SOL    HW2 8377   3.796   2.491   3.321
 2760SOL     OW 8378   4.284   2.073   3.013
 2760SOL    HW1 8379   4.331   1.998   3.059
 2760SOL    HW2 8380   4.193   2.085   3.052
 2761SOL     OW 8381   4.228   3.249   2.033
 2761SOL    HW1 8382   4.141   3.234   2.079
 2761SOL    HW2 8383   4.211   3.269   1.936
 2762SOL     OW 8384   4.250   2.129   2.183
 2762SOL    HW1 8385   4.289   2.068   2.113
 2762SOL    HW2 8386   4.228   2.217   2.141
 2763SOL     OW 8387   4.139   2.673   3.113
 2763SOL    HW1 8388   4.210   2.690   3.181
 2763SOL    HW2 8389   4.101   2.582   3.126
 2764SOL     OW 8390   3.792   3.434   3.210
 2764SOL    HW1 8391   3.754   3.507   3.153
 2764SOL    HW2 8392   3.892   3.438   3.207
 2765SOL     OW 8393   4.078   2.969   2.352
 2765SOL    HW1 8394   4.079   3.050   2.292
 2765SOL    HW2 8395   4.076   2.886   2.297
 2766SOL     OW 8396   4.297   2.404   2.725
 2766SOL    HW1 8397   4.299   2.472   2.652
 2766SOL    HW2 8398   4.363   2.429   2.796
 2767SOL     OW 8399   4.073   3.390   3.180
 2767SOL    HW1 8400   4.064   3.347   3.091
 2767SOL    HW2 8401   4.170   3.399   3.203
 2768SOL     OW 8402   4.135   2.606   3.465
 2768SOL    HW1 8403   4.195   2.656   3.403
 2768SOL    HW2 8404   4.175   2.516   3.485
 2769SOL     OW 8405   4.227   1.914   3.598
 2769SOL    HW1 8406   4.186   1.849   3.534
 2769SOL    HW2 8407   4.160   1.984   3.621
 2770SOL     OW 8408   4.291   2.748   2.890
 2770SOL    HW1 8409   4.328   2.840   2.899
 2770SOL    HW2 8410   4.238   2.725   2.971
 2771SOL     OW 8411   4.025   2.063   3.108
 2771SOL    HW1 8412   3.987   2.101   3.193
 2771SOL    HW2 8413   4.007   1.965   3.104
 2772SOL     OW 8414   3.772   3.172   3.141
 2772SOL    HW1 8415   3.806   3.113   3.214
 2772SOL    HW2 8416   3.778   3.268   3.170
 2773SOL     OW 8417   4.020   1.928   2.490
 2773SOL    HW1 8418   4.005   2.025   2.512
 2773SOL    HW2 8419   4.033   1.876   2.574
 2774SOL     OW 8420   4.076   2.777   3.668
 2774SOL    HW1 8421   4.158   2.798   3.721
 2774SOL    HW2 8422   4.098   2.712   3.596
 2775SOL     OW 8423   4.034   2.670   2.807
 2775SOL    HW1 8424   4.129   2.701   2.807
 2775SOL    HW2 8425   4.030   2.576   2.842
 2776SOL     OW 8426   4.062   2.384   2.870
 2776SOL    HW1 8427   4.022   2.294   2.857
 2776SOL    HW2 8428   4.144   2.393   2.814
 2777SOL     OW 8429   3.727   3.183   2.058
 2777SOL    HW1 8430   3.637   3.200   2.017
 2777SOL    HW2 8431   3.730   3.089   2.092
 2778SOL     OW 8432   3.818   3.652   2.799
 2778SOL    HW1 8433   3.781   3.569   2.758
 2778SOL    HW2 8434   3.911   3.667   2.768
 2779SOL     OW 8435   4.229   3.441   2.767
 2779SOL    HW1 8436   4.313   3.487   2.795
 2779SOL    HW2 8437   4.252   3.365   2.706
 2780SOL     OW 8438   3.760   2.407   2.979
 2780SOL    HW1 8439   3.841   2.385   2.925
 2780SOL    HW2 8440   3.784   2.414   3.076
 2781SOL     OW 8441   3.916   2.381   3.588
 2781SOL    HW1 8442   3.973   2.336   3.519
 2781SOL    HW2 8443   3.865   2.456   3.546
 2782SOL     OW 8444   0.034   2.425   2.130
 2782SOL    HW1 8445   0.025   2.338   2.178
 2782SOL    HW2 8446   4.461   2.487   2.157
 2783SOL     OW 8447   3.972   3.414   3.594
 2783SOL    HW1 8448   3.944   3.485   3.659
 2783SOL    HW2 8449   3.968   3.325   3.639
 2784SOL     OW 8450   4.191   2.357   2.054
 2784SOL    HW1 8451   4.254   2.433   2.073
 2784SOL    HW2 8452   4.099   2.393   2.038
 2785SOL     OW 8453   3.872   2.998   3.334
 2785SOL    HW1 8454   3.876   2.946   3.420
 2785SOL    HW2 8455   3.890   2.936   3.257
 2786SOL     OW 8456   3.806   3.130   2.876
 2786SOL    HW1 8457   3.794   3.139   2.975
 2786SOL    HW2 8458   3.735   3.071   2.839
 2787SOL     OW 8459   4.391   3.515   3.563
 2787SOL    HW1 8460   4.355   3.605   3.589
 2787SOL    HW2 8461   4.452   3.525   3.484
 2788SOL     OW 8462   3.862   3.653   3.707
 2788SOL    HW1 8463   3.805   3.587   3.755
 2788SOL    HW2 8464   3.913   3.708   3.774
 2789SOL     OW 8465   3.987   2.182   2.579
 2789SOL    HW1 8466   3.897   2.218   2.552
 2789SOL    HW2 8467   3.989   2.168   2.678
 2790SOL     OW 8468   4.087   3.165   3.350
 2790SOL    HW1 8469   4.074   3.247   3.294
 2790SOL    HW2 8470   4.011   3.102   3.336
 2791SOL     OW 8471   4.322   3.351   2.345
 2791SOL    HW1 8472   4.350   3.289   2.272
 2791SOL    HW2 8473   4.259   3.420   2.309
 2792SOL     OW 8474   3.979   3.214   2.148
 2792SOL    HW1 8475   3.883   3.208   2.121
 2792SOL    HW2 8476   3.986   3.250   2.240
 2793SOL     OW 8477   3.836   2.883   3.584
 2793SOL    HW1 8478   3.754   2.859   3.636
 2793SOL    HW2 8479   3.916   2.844   3.628
 2794SOL     OW 8480   4.394   2.069   3.356
 2794SOL    HW1 8481   4.484   2.060   3.313
 2794SOL    HW2 8482   4.402   2.053   3.454
 2795SOL     OW 8483   3.802   2.198   1.896
 2795SOL    HW1 8484   3.710   2.173   1.866
 2795SOL    HW2 8485   3.835   2.276   1.843
 2796SOL     OW 8486   3.794   2.020   2.175
 2796SOL    HW1 8487   3.774   2.104   2.123
 2796SOL    HW2 8488   3.882   1.983   2.146
 2797SOL     OW 8489   4.335   2.705   3.296
 2797SOL    HW1 8490   4.383   2.792   3.280
 2797SOL    HW2 8491   4.402   2.631   3.301
 2798SOL     OW 8492   4.403   2.418   3.599
 2798SOL    HW1 8493   4.429   2.501   3.649
 2798SOL    HW2 8494   4.486   2.371   3.568
 2799SOL     OW 8495   4.108   3.600   3.422
 2799SOL    HW1 8496   4.020   3.645   3.412
 2799SOL    HW2 8497   4.095   3.513   3.470
 2800SOL     OW 8498   4.308   2.596   2.527
 2800SOL    HW1 8499   4.355   2.684   2.517
 2800SOL    HW2 8500   4.234   2.591   2.460
 2801SOL     OW 8501   3.947   3.168   3.718
 2801SOL    HW1 8502   3.877   3.103   3.686
 2801SOL    HW2 8503   3.935   3.184   3.816
 2802SOL     OW 8504   3.807   3.097   2.525
 2802SOL    HW1 8505   3.807   3.047   2.612
 2802SOL    HW2 8506   3.878   3.059   2.465
 2803SOL     OW 8507   4.408   3.252   3.512
 2803SOL    HW1 8508   4.318   3.209   3.519
 2803SOL    HW2 8509   4.400   3.350   3.531
 2804SOL     OW 8510   4.162   2.292   2.392
 2804SOL    HW1 8511   4.184   2.222   2.324
 2804SOL    HW2 8512   4.104   2.251   2.463
 2805SOL     OW 8513   4.052   2.412   3.149
 2805SOL    HW1 8514   4.108   2.356   3.210
 2805SOL    HW2 8515   4.072   2.388   3.054
 2806SOL     OW 8516   0.036   3.460   2.549
 2806SOL    HW1 8517   0.061   3.517   2.470
 2806SOL    HW2 8518   4.462   3.398   2.523
 2807SOL     OW 8519   3.768   2.933   2.167
 2807SOL    HW1 8520   3.866   2.930   2.147
 2807SOL    HW2 8521   3.736   2.842   2.192
 2808SOL     OW 8522   3.953   2.481   3.846
 2808SOL    HW1 8523   3.861   2.486   3.883
 2808SOL    HW2 8524   3.949   2.457   3.749
 2809SOL     OW 8525   3.971   2.105   0.224
 2809SOL    HW1 8526   3.982   2.122   0.321
 2809SOL    HW2 8527   3.874   2.113   0.199
 2810SOL     OW 8528   4.404   2.859   4.350
 2810SOL    HW1 8529   4.483   2.855   4.411
 2810SOL    HW2 8530   4.338   2.926   4.384
 2811SOL     OW 8531   3.944   3.576   4.199
 2811SOL    HW1 8532   3.965   3.654   4.257
 2811SOL    HW2 8533   4.017   3.565   4.131
 2812SOL     OW 8534   3.954   3.302   4.258
 2812SOL    HW1 8535   3.940   3.401   4.265
 2812SOL    HW2 8536   3.891   3.255   4.320
 2813SOL     OW 8537   4.312   2.846   3.859
 2813SOL    HW1 8538   4.338   2.903   3.781
 2813SOL    HW2 8539   4.379   2.857   3.933
 2814SOL     OW 8540   3.846   2.510   4.292
 2814SOL    HW1 8541   3.772   2.443   4.283
 2814SOL    HW2 8542   3.823   2.575   4.364
 2815SOL     OW 8543   3.749   3.459   3.851
 2815SOL    HW1 8544   3.735   3.362   3.868
 2815SOL    HW2 8545   3.727   3.511   3.933
 2816SOL     OW 8546   4.301   3.250   4.443
 2816SOL    HW1 8547   4.278   3.152   4.444
 2816SOL    HW2 8548   4.305   3.282   4.349
 2817SOL     OW 8549   0.025   1.881   4.248
 2817SOL    HW1 8550   0.055   1.946   4.178
 2817SOL    HW2 8551   4.425   1.884   4.254
 2818SOL     OW 8552   4.315   2.589   3.991
 2818SOL    HW1 8553   4.318   2.665   3.926
 2818SOL    HW2 8554   4.244   2.607   4.059
 2819SOL     OW 8555   3.800   2.693   4.483
 2819SOL    HW1 8556   3.875   2.662   0.041
 2819SOL    HW2 8557   3.757   2.773   0.024
 2820SOL     OW 8558   4.091   3.657   0.057
 2820SOL    HW1 8559   4.106   3.567   0.100
 2820SOL    HW2 8560   4.117   3.729   0.121
 2821SOL     OW 8561   4.049   2.816   3.974
 2821SOL    HW1 8562   4.135   2.840   3.929
 2821SOL    HW2 8563   4.011   2.734   3.932
 2822SOL     OW 8564   4.192   3.597   4.048
 2822SOL    HW1 8565   4.222   3.659   4.121
 2822SOL    HW2 8566   4.263   3.593   3.977
 2823SOL     OW 8567   4.111   2.554   4.200
 2823SOL    HW1 8568   4.140   2.458   4.206
 2823SOL    HW2 8569   4.015   2.561   4.224
 2824SOL     OW 8570   4.343   1.979   3.838
 2824SOL    HW1 8571   4.439   1.954   3.847
 2824SOL    HW2 8572   4.309   1.950   3.749
 2825SOL     OW 8573   4.258   1.926   4.226
 2825SOL    HW1 8574   4.174   1.928   4.280
 2825SOL    HW2 8575   4.263   2.007   4.168
 2826SOL     OW 8576   4.018   1.909   3.908
 2826SOL    HW1 8577   4.075   1.981   3.867
 2826SOL    HW2 8578   4.076   1.842   3.953
 2827SOL     OW 8579   4.189   2.996   4.464
 2827SOL    HW1 8580   4.117   3.005   0.032
 2827SOL    HW2 8581   4.148   2.983   4.374
 2828SOL     OW 8582   4.228   3.247   3.894
 2828SOL    HW1 8583   4.142   3.234   3.942
 2828SOL    HW2 8584   4.210   3.270   3.798
 2829SOL     OW 8585   4.251   2.130   4.045
 2829SOL    HW1 8586   4.289   2.068   3.977
 2829SOL    HW2 8587   4.227   2.217   4.001
 2830SOL     OW 8588   4.078   2.968   4.218
 2830SOL    HW1 8589   4.076   3.051   4.163
 2830SOL    HW2 8590   4.075   2.888   4.158
 2831SOL     OW 8591   4.018   1.936   4.348
 2831SOL    HW1 8592   3.972   2.019   4.380
 2831SOL    HW2 8593   4.036   1.876   4.426
 2832SOL     OW 8594   3.728   3.183   3.917
 2832SOL    HW1 8595   3.637   3.201   3.878
 2832SOL    HW2 8596   3.730   3.090   3.954
 2833SOL     OW 8597   0.039   2.435   4.030
 2833SOL    HW1 8598   0.018   2.338   4.017
 2833SOL    HW2 8599   4.454   2.488   4.026
 2834SOL     OW 8600   4.191   2.358   3.916
 2834SOL    HW1 8601   4.251   2.436   3.934
 2834SOL    HW2 8602   4.098   2.391   3.900
 2835SOL     OW 8603   0.233   2.925   4.440
 2835SOL    HW1 8604   0.192   2.843   4.481
 2835SOL    HW2 8605   0.292   2.898   4.365
 2836SOL     OW 8606   4.317   3.350   4.195
 2836SOL    HW1 8607   4.348   3.291   4.119
 2836SOL    HW2 8608   4.256   3.420   4.159
 2837SOL     OW 8609   3.979   3.214   4.010
 2837SOL    HW1 8610   3.883   3.208   3.983
 2837SOL    HW2 8611   3.986   3.251   4.102
 2838SOL     OW 8612   3.803   2.198   3.758
 2838SOL    HW1 8613   3.711   2.173   3.729
 2838SOL    HW2 8614   3.834   2.276   3.704
 2839SOL     OW 8615   3.795   2.020   4.037
 2839SOL    HW1 8616   3.775   2.103   3.985
 2839SOL    HW2 8617   3.883   1.982   4.006
 2840SOL     OW 8618   4.325   2.602   4.368
 2840SOL    HW1 8619   4.356   2.697   4.364
 2840SOL    HW2 8620   4.240   2.592   4.316
 2841SOL     OW 8621   4.392   3.671   0.171
 2841SOL    HW1 8622   4.368   3.764   0.143
 2841SOL    HW2 8623   4.489   3.655   0.154
 2842SOL     OW 8624   3.812   3.100   4.388
 2842SOL    HW1 8625   3.781   3.046   4.466
 2842SOL    HW2 8626   3.878   3.047   4.335
 2843SOL     OW 8627   4.146   2.289   4.246
 2843SOL    HW1 8628   4.182   2.223   4.180
 2843SOL    HW2 8629   4.132   2.244   4.335
 2844SOL     OW 8630   0.033   3.444   4.400
 2844SOL    HW1 8631   0.045   3.489   4.312
 2844SOL    HW2 8632   4.457   3.379   4.395
 2845SOL     OW 8633   3.770   2.934   4.027
 2845SOL    HW1 8634   3.868   2.931   4.008
 2845SOL    HW2 8635   3.737   2.843   4.051
 2846SOL     OW 8636   3.923   4.275   0.099
 2846SOL    HW1 8637   3.902   4.351   0.161
 2846SOL    HW2 8638   3.944   4.312   0.008
 2847SOL     OW 8639   3.945   4.005   0.992
 2847SOL    HW1 8640   3.981   3.971   1.079
 2847SOL    HW2 8641   3.852   3.970   0.979
 2848SOL     OW 8642   3.728   4.102   0.639
 2848SOL    HW1 8643   3.644   4.136   0.681
 2848SOL    HW2 8644   3.709   4.017   0.591
 2849SOL     OW 8645   0.059   0.016   1.856
 2849SOL    HW1 8646   0.112   0.084   1.905
 2849SOL    HW2 8647   0.076   0.025   1.758
 2850SOL     OW 8648   4.170   4.118   1.485
 2850SOL    HW1 8649   4.251   4.059   1.490
 2850SOL    HW2 8650   4.088   4.064   1.501
 2851SOL     OW 8651   3.811   4.369   0.560
 2851SOL    HW1 8652   3.794   4.274   0.587
 2851SOL    HW2 8653   3.864   4.415   0.631
 2852SOL     OW 8654   3.838   4.473   1.584
 2852SOL    HW1 8655   3.917   4.478   1.645
 2852SOL    HW2 8656   3.806   0.065   1.563
 2853SOL     OW 8657   0.022   3.750   0.536
 2853SOL    HW1 8658   0.055   3.805   0.460
 2853SOL    HW2 8659   4.422   3.743   0.531
 2854SOL     OW 8660   4.055   3.976   1.808
 2854SOL    HW1 8661   4.107   4.059   1.824
 2854SOL    HW2 8662   3.961   3.988   1.840
 2855SOL     OW 8663   4.250   3.916   0.884
 2855SOL    HW1 8664   4.269   3.921   0.982
 2855SOL    HW2 8665   4.267   4.005   0.842
 2856SOL     OW 8666   3.923   4.010   1.504
 2856SOL    HW1 8667   3.837   4.057   1.487
 2856SOL    HW2 8668   3.909   3.938   1.572
 2857SOL     OW 8669   4.084   4.393   0.417
 2857SOL    HW1 8670   4.129   4.313   0.456
 2857SOL    HW2 8671   4.010   4.422   0.476
 2858SOL     OW 8672   4.257   3.788   0.504
 2858SOL    HW1 8673   4.174   3.791   0.561
 2858SOL    HW2 8674   4.262   3.872   0.450
 2859SOL     OW 8675   0.354   4.398   1.519
 2859SOL    HW1 8676   0.274   4.371   1.464
 2859SOL    HW2 8677   0.431   4.338   1.497
 2860SOL     OW 8678   3.800   4.282   1.390
 2860SOL    HW1 8679   3.894   4.271   1.357
 2860SOL    HW2 8680   3.797   4.356   1.457
 2861SOL     OW 8681   4.284   3.935   1.150
 2861SOL    HW1 8682   4.332   3.861   1.198
 2861SOL    HW2 8683   4.193   3.947   1.191
 2862SOL     OW 8684   4.255   3.998   0.332
 2862SOL    HW1 8685   4.279   3.926   0.266
 2862SOL    HW2 8686   4.238   4.083   0.284
 2863SOL     OW 8687   4.149   0.007   1.265
 2863SOL    HW1 8688   4.219   0.018   1.335
 2863SOL    HW2 8689   4.108   4.416   1.273
 2864SOL     OW 8690   4.299   4.266   0.871
 2864SOL    HW1 8691   4.310   4.333   0.797
 2864SOL    HW2 8692   4.368   4.282   0.942
 2865SOL     OW 8693   4.227   3.776   1.736
 2865SOL    HW1 8694   4.186   3.711   1.672
 2865SOL    HW2 8695   4.160   3.847   1.759
 2866SOL     OW 8696   4.025   3.925   1.245
 2866SOL    HW1 8697   3.988   3.962   1.331
 2866SOL    HW2 8698   4.007   3.827   1.241
 2867SOL     OW 8699   4.018   3.792   0.629
 2867SOL    HW1 8700   4.004   3.887   0.654
 2867SOL    HW2 8701   4.032   3.737   0.711
 2868SOL     OW 8702   4.042   0.012   0.922
 2868SOL    HW1 8703   4.121   0.074   0.927
 2868SOL    HW2 8704   4.057   4.435   0.985
 2869SOL     OW 8705   4.066   4.240   1.016
 2869SOL    HW1 8706   4.023   4.152   0.998
 2869SOL    HW2 8707   4.147   4.250   0.957
 2870SOL     OW 8708   3.761   4.272   1.115
 2870SOL    HW1 8709   3.843   4.248   1.063
 2870SOL    HW2 8710   3.783   4.277   1.212
 2871SOL     OW 8711   3.919   4.247   1.719
 2871SOL    HW1 8712   3.974   4.193   1.656
 2871SOL    HW2 8713   3.854   4.303   1.667
 2872SOL     OW 8714   0.017   4.297   0.273
 2872SOL    HW1 8715   0.034   4.201   0.295
 2872SOL    HW2 8716   4.472   4.341   0.350
 2873SOL     OW 8717   4.202   4.219   0.194
 2873SOL    HW1 8718   4.251   4.306   0.194
 2873SOL    HW2 8719   4.105   4.235   0.178
 2874SOL     OW 8720   3.986   4.045   0.718
 2874SOL    HW1 8721   3.895   4.078   0.692
 2874SOL    HW2 8722   3.989   4.029   0.816
 2875SOL     OW 8723   4.394   3.929   1.494
 2875SOL    HW1 8724   4.485   3.926   1.452
 2875SOL    HW2 8725   4.403   3.919   1.593
 2876SOL     OW 8726   3.784   4.045   4.486
 2876SOL    HW1 8727   3.686   4.060   4.473
 2876SOL    HW2 8728   3.830   4.133   0.003
 2877SOL     OW 8729   4.408   4.277   1.738
 2877SOL    HW1 8730   4.431   4.361   1.787
 2877SOL    HW2 8731   4.493   4.228   1.716
 2878SOL     OW 8732   4.167   4.155   0.539
 2878SOL    HW1 8733   4.196   4.088   0.471
 2878SOL    HW2 8734   4.107   4.111   0.606
 2879SOL     OW 8735   4.047   4.260   1.290
 2879SOL    HW1 8736   4.105   4.206   1.350
 2879SOL    HW2 8737   4.068   4.239   1.195
 2880SOL     OW 8738   3.950   4.295   1.986
 2880SOL    HW1 8739   3.883   4.357   2.025
 2880SOL    HW2 8740   3.943   4.296   1.886
 2881SOL     OW 8741   3.945   4.004   2.854
 2881SOL    HW1 8742   3.981   3.971   2.941
 2881SOL    HW2 8743   3.852   3.970   2.841
 2882SOL     OW 8744   3.730   4.103   2.504
 2882SOL    HW1 8745   3.643   4.133   2.544
 2882SOL    HW2 8746   3.714   4.021   2.449
 2883SOL     OW 8747   0.057   0.018   3.718
 2883SOL    HW1 8748   0.114   0.083   3.769
 2883SOL    HW2 8749   0.078   0.025   3.621
 2884SOL     OW 8750   4.170   4.118   3.347
 2884SOL    HW1 8751   4.251   4.058   3.352
 2884SOL    HW2 8752   4.088   4.064   3.363
 2885SOL     OW 8753   3.812   4.366   2.423
 2885SOL    HW1 8754   3.797   4.272   2.453
 2885SOL    HW2 8755   3.866   4.415   2.491
 2886SOL     OW 8756   3.838   4.472   3.447
 2886SOL    HW1 8757   3.917   4.478   3.507
 2886SOL    HW2 8758   3.805   0.064   3.425
 2887SOL     OW 8759   0.020   3.733   2.388
 2887SOL    HW1 8760   0.059   3.798   2.323
 2887SOL    HW2 8761   4.421   3.744   2.390
 2888SOL     OW 8762   4.055   3.976   3.669
 2888SOL    HW1 8763   4.107   4.059   3.685
 2888SOL    HW2 8764   3.961   3.988   3.703
 2889SOL     OW 8765   4.251   3.914   2.746
 2889SOL    HW1 8766   4.271   3.921   2.844
 2889SOL    HW2 8767   4.265   4.004   2.703
 2890SOL     OW 8768   3.924   4.010   3.366
 2890SOL    HW1 8769   3.837   4.057   3.348
 2890SOL    HW2 8770   3.909   3.938   3.434
 2891SOL     OW 8771   4.092   4.389   2.285
 2891SOL    HW1 8772   4.131   4.307   2.327
 2891SOL    HW2 8773   4.012   4.418   2.337
 2892SOL     OW 8774   4.341   3.835   1.979
 2892SOL    HW1 8775   4.440   3.821   1.984
 2892SOL    HW2 8776   4.308   3.811   1.887
 2893SOL     OW 8777   4.259   3.788   2.363
 2893SOL    HW1 8778   4.177   3.791   2.421
 2893SOL    HW2 8779   4.260   3.869   2.304
 2894SOL     OW 8780   4.018   3.771   2.047
 2894SOL    HW1 8781   4.074   3.843   2.007
 2894SOL    HW2 8782   4.077   3.703   2.090
 2895SOL     OW 8783   0.352   4.397   3.380
 2895SOL    HW1 8784   0.274   4.369   3.325
 2895SOL    HW2 8785   0.431   4.339   3.360
 2896SOL     OW 8786   3.800   4.282   3.252
 2896SOL    HW1 8787   3.894   4.271   3.219
 2896SOL    HW2 8788   3.797   4.356   3.319
 2897SOL     OW 8789   4.284   3.935   3.013
 2897SOL    HW1 8790   4.331   3.861   3.060
 2897SOL    HW2 8791   4.193   3.948   3.052
 2898SOL     OW 8792   4.249   3.989   2.183
 2898SOL    HW1 8793   4.287   3.928   2.114
 2898SOL    HW2 8794   4.231   4.079   2.142
 2899SOL     OW 8795   4.149   0.007   3.127
 2899SOL    HW1 8796   4.220   0.018   3.197
 2899SOL    HW2 8797   4.109   4.416   3.135
 2900SOL     OW 8798   4.299   4.266   2.733
 2900SOL    HW1 8799   4.308   4.332   2.659
 2900SOL    HW2 8800   4.368   4.284   2.803
 2901SOL     OW 8801   4.227   3.776   3.597
 2901SOL    HW1 8802   4.186   3.711   3.534
 2901SOL    HW2 8803   4.160   3.847   3.621
 2902SOL     OW 8804   4.025   3.925   3.108
 2902SOL    HW1 8805   3.988   3.962   3.193
 2902SOL    HW2 8806   4.006   3.827   3.104
 2903SOL     OW 8807   4.020   3.790   2.490
 2903SOL    HW1 8808   4.005   3.886   2.512
 2903SOL    HW2 8809   4.033   3.738   2.574
 2904SOL     OW 8810   4.042   0.013   2.787
 2904SOL    HW1 8811   4.122   0.073   2.790
 2904SOL    HW2 8812   4.058   4.434   2.847
 2905SOL     OW 8813   4.066   4.240   2.878
 2905SOL    HW1 8814   4.023   4.152   2.860
 2905SOL    HW2 8815   4.147   4.250   2.819
 2906SOL     OW 8816   3.760   4.271   2.977
 2906SOL    HW1 8817   3.842   4.249   2.925
 2906SOL    HW2 8818   3.783   4.276   3.074
 2907SOL     OW 8819   3.919   4.247   3.582
 2907SOL    HW1 8820   3.974   4.192   3.518
 2907SOL    HW2 8821   3.854   4.303   3.530
 2908SOL     OW 8822   0.002   4.296   2.137
 2908SOL    HW1 8823   0.037   4.207   2.165
 2908SOL    HW2 8824   4.465   4.345   2.216
 2909SOL     OW 8825   4.201   4.217   2.053
 2909SOL    HW1 8826   4.260   4.298   2.062
 2909SOL    HW2 8827   4.106   4.245   2.044
 2910SOL     OW 8828   3.986   4.045   2.579
 2910SOL    HW1 8829   3.896   4.078   2.552
 2910SOL    HW2 8830   3.988   4.029   2.678
 2911SOL     OW 8831   4.394   3.929   3.356
 2911SOL    HW1 8832   4.485   3.926   3.315
 2911SOL    HW2 8833   4.402   3.918   3.455
 2912SOL     OW 8834   3.800   4.048   1.890
 2912SOL    HW1 8835   3.707   4.034   1.858
 2912SOL    HW2 8836   3.834   4.136   1.857
 2913SOL     OW 8837   3.794   3.882   2.175
 2913SOL    HW1 8838   3.775   3.967   2.124
 2913SOL    HW2 8839   3.882   3.845   2.146
 2914SOL     OW 8840   4.408   4.276   3.603
 2914SOL    HW1 8841   4.431   4.363   3.648
 2914SOL    HW2 8842   4.492   4.229   3.577
 2915SOL     OW 8843   4.174   4.148   2.404
 2915SOL    HW1 8844   4.188   4.084   2.329
 2915SOL    HW2 8845   4.107   4.110   2.468
 2916SOL     OW 8846   4.047   4.260   3.152
 2916SOL    HW1 8847   4.105   4.205   3.212
 2916SOL    HW2 8848   4.068   4.239   3.056
 2917SOL     OW 8849   3.953   4.298   3.847
 2917SOL    HW1 8850   3.879   4.355   3.885
 2917SOL    HW2 8851   3.944   4.294   3.748
 2918SOL     OW 8852   3.971   3.948   0.227
 2918SOL    HW1 8853   3.985   3.990   0.316
 2918SOL    HW2 8854   3.882   3.977   0.190
 2919SOL     OW 8855   3.852   4.333   4.332
 2919SOL    HW1 8856   3.773   4.294   4.286
 2919SOL    HW2 8857   3.844   4.433   4.335
 2920SOL     OW 8858   0.025   3.740   4.245
 2920SOL    HW1 8859   0.055   3.808   4.178
 2920SOL    HW2 8860   4.425   3.744   4.254
 2921SOL     OW 8861   4.097   4.394   4.154
 2921SOL    HW1 8862   4.135   4.306   4.186
 2921SOL    HW2 8863   4.017   4.417   4.210
 2922SOL     OW 8864   4.341   3.838   3.839
 2922SOL    HW1 8865   4.439   3.820   3.846
 2922SOL    HW2 8866   4.309   3.811   3.749
 2923SOL     OW 8867   4.258   3.787   4.227
 2923SOL    HW1 8868   4.175   3.790   4.282
 2923SOL    HW2 8869   4.263   3.868   4.169
 2924SOL     OW 8870   4.019   3.770   3.907
 2924SOL    HW1 8871   4.076   3.843   3.869
 2924SOL    HW2 8872   4.076   3.703   3.953
 2925SOL     OW 8873   4.248   3.990   4.045
 2925SOL    HW1 8874   4.287   3.928   3.976
 2925SOL    HW2 8875   4.230   4.079   4.003
 2926SOL     OW 8876   4.018   3.800   4.349
 2926SOL    HW1 8877   3.967   3.880   4.380
 2926SOL    HW2 8878   4.036   3.740   4.426
 2927SOL     OW 8879   0.015   4.297   4.006
 2927SOL    HW1 8880   0.024   4.198   4.018
 2927SOL    HW2 8881   4.456   4.334   4.078
 2928SOL     OW 8882   4.202   4.220   3.918
 2928SOL    HW1 8883   4.257   4.304   3.920
 2928SOL    HW2 8884   4.106   4.244   3.906
 2929SOL     OW 8885   3.801   4.050   3.752
 2929SOL    HW1 8886   3.707   4.033   3.724
 2929SOL    HW2 8887   3.833   4.136   3.714
 2930SOL     OW 8888   3.795   3.881   4.036
 2930SOL    HW1 8889   3.776   3.966   3.986
 2930SOL    HW2 8890   3.883   3.843   4.006
 2931SOL     OW 8891   4.166   4.149   4.257
 2931SOL    HW1 8892   4.188   4.080   4.187
 2931SOL    HW2 8893   4.114   4.106   4.331
   4.50000   4.50000   4.50000
