Dyes system in water
 9619
    1_J0B   CL2    1   0.167   4.675   1.110
    1_J0B    C1    2   0.041   4.786   1.047
    1_J0B    H1    3   4.964   4.726   0.999
    1_J0B    CL    4   4.964   4.877   1.180
    1_J0B   CL1    5   0.107   4.897   0.924
    2_J0B   CL2    6   2.103   4.719   4.824
    2_J0B    C1    7   2.253   4.810   4.790
    2_J0B    H1    8   2.227   4.906   4.744
    2_J0B    CL    9   2.341   4.844   4.942
    2_J0B   CL1   10   2.357   4.721   4.674
    3_J0B   CL2   11   4.860   2.165   4.135
    3_J0B    C1   12   4.831   2.032   4.020
    3_J0B    H1   13   4.723   2.025   4.002
    3_J0B    CL   14   4.907   2.065   3.861
    3_J0B   CL1   15   4.885   1.875   4.087
    4_J0B   CL2   16   0.714   3.490   1.892
    4_J0B    C1   17   0.850   3.539   1.786
    4_J0B    H1   18   0.934   3.569   1.849
    4_J0B    CL   19   0.905   3.404   1.683
    4_J0B   CL1   20   0.804   3.679   1.686
    5_J0B   CL2   21   1.169   2.295   4.468
    5_J0B    C1   22   1.322   2.225   4.529
    5_J0B    H1   23   1.346   2.278   4.621
    5_J0B    CL   24   1.305   2.052   4.568
    5_J0B   CL1   25   1.455   2.251   4.413
    6_J0B   CL2   26   2.297   1.696   0.812
    6_J0B    C1   27   2.266   1.595   0.956
    6_J0B    H1   28   2.206   1.651   1.028
    6_J0B    CL   29   2.174   1.448   0.913
    6_J0B   CL1   30   2.420   1.552   1.035
    7_J0B   CL2   31   4.809   0.473   1.959
    7_J0B    C1   32   4.784   0.612   1.849
    7_J0B    H1   33   4.723   0.686   1.903
    7_J0B    CL   34   4.939   0.690   1.806
    7_J0B   CL1   35   4.693   0.564   1.702
    8_J0B   CL2   36   0.032   2.346   2.116
    8_J0B    C1   37   4.982   2.517   2.125
    8_J0B    H1   38   0.066   2.578   2.089
    8_J0B    CL   39   4.842   2.548   2.017
    8_J0B   CL1   40   4.946   2.565   2.293
    9_J0B   CL2   41   0.813   0.472   1.699
    9_J0B    C1   42   0.652   0.411   1.651
    9_J0B    H1   43   0.612   0.353   1.734
    9_J0B    CL   44   0.540   0.547   1.620
    9_J0B   CL1   45   0.665   0.303   1.509
   10_J0B   CL2   46   0.662   4.968   3.959
   10_J0B    C1   47   0.654   4.965   4.138
   10_J0B    H1   48   0.548   4.964   4.167
   10_J0B    CL   49   0.732   4.818   4.204
   10_J0B   CL1   50   0.727   0.112   4.208
   11_J0B   CL2   51   1.847   0.818   2.956
   11_J0B    C1   52   2.008   0.780   2.886
   11_J0B    H1   53   1.992   0.746   2.783
   11_J0B    CL   54   2.113   0.925   2.881
   11_J0B   CL1   55   2.086   0.648   2.977
   12_J0B   CL2   56   4.091   0.513   1.727
   12_J0B    C1   57   4.205   0.420   1.626
   12_J0B    H1   58   4.169   0.317   1.625
   12_J0B    CL   59   4.206   0.482   1.458
   12_J0B   CL1   60   4.369   0.423   1.698
   13_J0B   CL2   61   2.981   4.021   0.547
   13_J0B    C1   62   3.159   4.035   0.555
   13_J0B    H1   63   3.192   3.978   0.642
   13_J0B    CL   64   3.236   3.965   0.409
   13_J0B   CL1   65   3.212   4.204   0.581
   14_J0B   CL2   66   4.506   0.811   2.733
   14_J0B    C1   67   4.584   0.965   2.684
   14_J0B    H1   68   4.640   1.004   2.770
   14_J0B    CL   69   4.700   0.938   2.551
   14_J0B   CL1   70   4.462   1.087   2.638
   15_J0B   CL2   71   4.768   3.445   0.253
   15_J0B    C1   72   4.944   3.418   0.262
   15_J0B    H1   73   4.993   3.512   0.234
   15_J0B    CL   74   4.995   3.380   0.429
   15_J0B   CL1   75   4.994   3.291   0.147
   16_J0B   CL2   76   3.023   1.673   4.659
   16_J0B    C1   77   2.926   1.762   4.780
   16_J0B    H1   78   2.834   1.796   4.731
   16_J0B    CL   79   2.877   1.655   4.915
   16_J0B   CL1   80   3.013   1.906   4.841
   17_J0B   CL2   81   3.694   3.270   0.155
   17_J0B    C1   82   3.804   3.180   0.265
   17_J0B    H1   83   3.790   3.219   0.366
   17_J0B    CL   84   3.762   3.007   0.268
   17_J0B   CL1   85   3.975   3.204   0.219
   18_J0B   CL2   86   0.017   1.968   1.607
   18_J0B    C1   87   4.993   2.041   1.445
   18_J0B    H1   88   4.946   2.139   1.458
   18_J0B    CL   89   0.149   2.065   1.361
   18_J0B   CL1   90   4.881   1.941   1.346
   19_J0B   CL2   91   4.683   0.543   0.792
   19_J0B    C1   92   4.619   0.639   0.655
   19_J0B    H1   93   4.654   0.742   0.667
   19_J0B    CL   94   4.684   0.577   0.501
   19_J0B   CL1   95   4.440   0.639   0.655
   20_J0B   CL2   96   1.600   1.276   0.723
   20_J0B    C1   97   1.463   1.260   0.837
   20_J0B    H1   98   1.419   1.359   0.850
   20_J0B    CL   99   1.338   1.152   0.768
   20_J0B   CL1  100   1.517   1.203   0.997
   21_J0B   CL2  101   1.411   2.677   2.974
   21_J0B    C1  102   1.257   2.766   2.992
   21_J0B    H1  103   1.183   2.697   3.035
   21_J0B    CL  104   1.278   2.903   3.106
   21_J0B   CL1  105   1.197   2.822   2.834
   22_J0B   CL2  106   4.047   4.334   3.126
   22_J0B    C1  107   4.001   4.252   2.974
   22_J0B    H1  108   3.909   4.297   2.938
   22_J0B    CL  109   4.125   4.272   2.846
   22_J0B   CL1  110   3.970   4.078   3.002
   23_J0B   CL2  111   0.204   0.509   2.155
   23_J0B    C1  112   0.268   0.429   2.009
   23_J0B    H1  113   0.304   0.331   2.039
   23_J0B    CL  114   0.138   0.406   1.888
   23_J0B   CL1  115   0.405   0.520   1.939
   24_J0B   CL2  116   2.956   0.048   3.798
   24_J0B    C1  117   3.075   4.978   3.685
   24_J0B    H1  118   3.021   4.952   3.593
   24_J0B    CL  119   3.202   0.097   3.642
   24_J0B   CL1  120   3.145   4.828   3.753
   25_J0B   CL2  121   3.882   0.559   1.328
   25_J0B    C1  122   3.884   0.658   1.179
   25_J0B    H1  123   3.988   0.665   1.146
   25_J0B    CL  124   3.793   0.580   1.045
   25_J0B   CL1  125   3.826   0.825   1.211
   26_J0B   CL2  126   4.911   0.595   3.502
   26_J0B    C1  127   4.986   0.755   3.527
   26_J0B    H1  128   4.929   0.808   3.605
   26_J0B    CL  129   0.154   0.740   3.584
   26_J0B   CL1  130   4.976   0.855   3.378
   27_J0B   CL2  131   3.600   2.831   3.928
   27_J0B    C1  132   3.655   2.826   3.757
   27_J0B    H1  133   3.589   2.757   3.703
   27_J0B    CL  134   3.641   2.986   3.680
   27_J0B   CL1  135   3.821   2.762   3.747
   28_J0B   CL2  136   2.512   2.203   3.625
   28_J0B    C1  137   2.366   2.193   3.729
   28_J0B    H1  138   2.337   2.294   3.759
   28_J0B    CL  139   2.230   2.121   3.638
   28_J0B   CL1  140   2.400   2.101   3.878
   29_J0B   CL2  141   3.240   4.624   1.631
   29_J0B    C1  142   3.357   4.756   1.602
   29_J0B    H1  143   3.381   4.757   1.495
   29_J0B    CL  144   3.286   4.915   1.646
   29_J0B   CL1  145   3.508   4.728   1.693
   30_J0B   CL2  146   2.540   3.579   2.396
   30_J0B    C1  147   2.485   3.729   2.315
   30_J0B    H1  148   2.387   3.710   2.269
   30_J0B    CL  149   2.463   3.862   2.433
   30_J0B   CL1  150   2.599   3.777   2.187
   31_J0B   CL2  151   4.817   4.002   3.224
   31_J0B    C1  152   4.800   3.833   3.279
   31_J0B    H1  153   4.694   3.805   3.271
   31_J0B    CL  154   4.893   3.722   3.174
   31_J0B   CL1  155   4.849   3.816   3.450
   32_J0B   CL2  156   4.995   1.113   2.559
   32_J0B    C1  157   0.064   1.046   2.408
   32_J0B    H1  158   0.109   1.129   2.352
   32_J0B    CL  159   0.194   0.928   2.443
   32_J0B   CL1  160   4.937   0.972   2.306
   33_J0B   CL2  161   0.160   1.018   4.467
   33_J0B    C1  162   0.080   0.890   4.564
   33_J0B    H1  163   0.151   0.807   4.571
   33_J0B    CL  164   0.043   0.946   4.729
   33_J0B   CL1  165   4.933   0.828   4.483
   34_J0B   CL2  166   2.966   1.977   4.495
   34_J0B    C1  167   2.791   2.003   4.517
   34_J0B    H1  168   2.741   1.906   4.525
   34_J0B    CL  169   2.759   2.092   4.668
   34_J0B   CL1  170   2.720   2.087   4.376
   35_J0B   CL2  171   1.809   4.145   1.268
   35_J0B    C1  172   1.647   4.211   1.303
   35_J0B    H1  173   1.598   4.232   1.207
   35_J0B    CL  174   1.544   4.093   1.390
   35_J0B   CL1  175   1.656   4.365   1.394
   36_J0B   CL2  176   4.620   1.516   0.076
   36_J0B    C1  177   4.487   1.458   0.179
   36_J0B    H1  178   4.442   1.370   0.130
   36_J0B    CL  179   4.547   1.405   0.339
   36_J0B   CL1  180   4.359   1.582   0.195
   37_J0B   CL2  181   0.208   2.076   0.894
   37_J0B    C1  182   0.162   1.944   0.783
   37_J0B    H1  183   0.065   1.906   0.816
   37_J0B    CL  184   0.143   2.004   0.615
   37_J0B   CL1  185   0.279   1.809   0.790
   38_J0B   CL2  186   3.470   3.151   2.028
   38_J0B    C1  187   3.566   3.276   1.942
   38_J0B    H1  188   3.544   3.267   1.835
   38_J0B    CL  189   3.519   3.440   1.995
   38_J0B   CL1  190   3.741   3.246   1.963
   39_J0B   CL2  191   1.453   3.470   3.923
   39_J0B    C1  192   1.361   3.479   3.770
   39_J0B    H1  193   1.292   3.564   3.777
   39_J0B    CL  194   1.470   3.509   3.632
   39_J0B   CL1  195   1.262   3.333   3.744
   40_J0B   CL2  196   2.510   1.313   1.815
   40_J0B    C1  197   2.504   1.429   1.951
   40_J0B    H1  198   2.606   1.461   1.970
   40_J0B    CL  199   2.409   1.575   1.908
   40_J0B   CL1  200   2.443   1.352   2.101
   41_J0B   CL2  201   2.404   1.880   4.325
   41_J0B    C1  202   2.377   2.044   4.257
   41_J0B    H1  203   2.458   2.064   4.186
   41_J0B    CL  204   2.222   2.053   4.169
   41_J0B   CL1  205   2.384   2.168   4.385
   42_J0B   CL2  206   2.735   0.551   4.565
   42_J0B    C1  207   2.792   0.391   4.621
   42_J0B    H1  208   2.707   0.323   4.618
   42_J0B    CL  209   2.917   0.325   4.511
   42_J0B   CL1  210   2.849   0.399   4.790
   43_J0B   CL2  211   0.098   0.731   4.200
   43_J0B    C1  212   4.973   0.760   4.075
   43_J0B    H1  213   4.925   0.664   4.055
   43_J0B    CL  214   4.845   0.871   4.134
   43_J0B   CL1  215   0.046   0.820   3.923
   44_J0B   CL2  216   0.390   1.341   0.392
   44_J0B    C1  217   0.414   1.450   0.532
   44_J0B    H1  218   0.396   1.553   0.497
   44_J0B    CL  219   0.296   1.415   0.662
   44_J0B   CL1  220   0.581   1.441   0.593
   45_J0B   CL2  221   1.107   0.351   2.910
   45_J0B    C1  222   1.041   0.337   3.076
   45_J0B    H1  223   0.932   0.340   3.070
   45_J0B    CL  224   1.085   0.181   3.150
   45_J0B   CL1  225   1.092   0.475   3.178
   46_J0B   CL2  226   4.360   4.955   2.603
   46_J0B    C1  227   4.362   4.880   2.441
   46_J0B    H1  228   4.384   4.958   2.368
   46_J0B    CL  229   4.492   4.757   2.430
   46_J0B   CL1  230   4.203   4.808   2.400
   47_J0B   CL2  231   0.428   4.404   4.244
   47_J0B    C1  232   0.557   4.292   4.189
   47_J0B    H1  233   0.538   4.195   4.236
   47_J0B    CL  234   0.554   4.268   4.012
   47_J0B   CL1  235   0.718   4.349   4.244
   48_J0B   CL2  236   3.412   4.560   4.582
   48_J0B    C1  237   3.547   4.593   4.695
   48_J0B    H1  238   3.640   4.560   4.648
   48_J0B    CL  239   3.564   4.768   4.727
   48_J0B   CL1  240   3.525   4.504   4.848
   49_J0B   CL2  241   2.592   0.465   4.256
   49_J0B    C1  242   2.739   0.518   4.170
   49_J0B    H1  243   2.823   0.512   4.239
   49_J0B    CL  244   2.773   0.413   4.030
   49_J0B   CL1  245   2.719   0.687   4.117
   50_J0B   CL2  246   3.775   2.482   3.381
   50_J0B    C1  247   3.823   2.406   3.536
   50_J0B    H1  248   3.747   2.433   3.610
   50_J0B    CL  249   3.826   2.228   3.523
   50_J0B   CL1  250   3.978   2.471   3.595
   51_J0B   CL2  251   4.009   1.780   0.627
   51_J0B    C1  252   4.187   1.764   0.616
   51_J0B    H1  253   4.213   1.661   0.640
   51_J0B    CL  254   4.243   1.801   0.451
   51_J0B   CL1  255   4.269   1.870   0.735
   52_J0B   CL2  256   4.734   0.677   3.206
   52_J0B    C1  257   4.673   0.748   3.054
   52_J0B    H1  258   4.682   0.673   2.976
   52_J0B    CL  259   4.500   0.792   3.068
   52_J0B   CL1  260   4.771   0.889   3.004
   53_J0B   CL2  261   2.462   4.894   1.682
   53_J0B    C1  262   2.418   4.992   1.538
   53_J0B    H1  263   2.331   0.052   1.565
   53_J0B    CL  264   2.550   0.104   1.494
   53_J0B   CL1  265   2.372   4.888   1.399
   54_J0B   CL2  266   4.574   2.261   2.315
   54_J0B    C1  267   4.711   2.244   2.201
   54_J0B    H1  268   4.763   2.340   2.197
   54_J0B    CL  269   4.828   2.122   2.260
   54_J0B   CL1  270   4.655   2.202   2.036
   55_J0B   CL2  271   1.991   4.453   1.326
   55_J0B    C1  272   1.913   4.537   1.189
   55_J0B    H1  273   1.990   4.595   1.137
   55_J0B    CL  274   1.846   4.420   1.071
   55_J0B   CL1  275   1.786   4.650   1.245
   56_J0B   CL2  276   0.172   2.313   2.901
   56_J0B    C1  277   0.317   2.416   2.889
   56_J0B    H1  278   0.404   2.350   2.897
   56_J0B    CL  279   0.327   2.496   2.729
   56_J0B   CL1  280   0.323   2.534   3.023
   57_J0B   CL2  281   2.457   1.336   0.762
   57_J0B    C1  282   2.613   1.263   0.811
   57_J0B    H1  283   2.590   1.166   0.856
   57_J0B    CL  284   2.718   1.235   0.668
   57_J0B   CL1  285   2.696   1.363   0.933
   58_J0B   CL2  286   4.013   2.092   1.993
   58_J0B    C1  287   3.905   2.006   2.107
   58_J0B    H1  288   3.955   1.914   2.138
   58_J0B    CL  289   3.876   2.105   2.253
   58_J0B   CL1  290   3.750   1.962   2.028
   59_J0B   CL2  291   1.565   1.986   0.155
   59_J0B    C1  292   1.429   2.058   0.064
   59_J0B    H1  293   1.458   2.160   0.037
   59_J0B    CL  294   1.396   1.968   4.913
   59_J0B   CL1  295   1.282   2.064   0.165
   60_J0B   CL2  296   4.414   0.044   1.381
   60_J0B    C1  297   4.444   0.218   1.413
   60_J0B    H1  298   4.364   0.253   1.479
   60_J0B    CL  299   4.599   0.242   1.500
   60_J0B   CL1  300   4.439   0.314   1.263
   61_J0B   CL2  301   0.558   2.498   4.053
   61_J0B    C1  302   0.476   2.653   4.017
   61_J0B    H1  303   0.553   2.726   3.988
   61_J0B    CL  304   0.363   2.636   3.879
   61_J0B   CL1  305   0.393   2.717   4.161
   62_J0B   CL2  306   4.011   1.540   3.529
   62_J0B    C1  307   3.840   1.528   3.477
   62_J0B    H1  308   3.838   1.481   3.378
   62_J0B    CL  309   3.747   1.425   3.590
   62_J0B   CL1  310   3.767   1.690   3.464
   63_J0B   CL2  311   2.030   3.914   0.295
   63_J0B    C1  312   2.060   3.763   0.204
   63_J0B    H1  313   2.162   3.767   0.164
   63_J0B    CL  314   2.049   3.620   0.312
   63_J0B   CL1  315   1.948   3.748   0.066
   64_J0B   CL2  316   2.312   0.178   4.916
   64_J0B    C1  317   2.389   0.339   4.915
   64_J0B    H1  318   2.461   0.342   4.997
   64_J0B    CL  319   2.480   0.368   4.764
   64_J0B   CL1  320   2.270   0.468   4.946
   65_J0B   CL2  321   1.174   3.886   4.691
   65_J0B    C1  322   1.033   3.996   4.693
   65_J0B    H1  323   1.015   4.029   4.590
   65_J0B    CL  324   0.885   3.912   4.748
   65_J0B   CL1  325   1.064   4.140   4.794
   66_J0B   CL2  326   4.418   0.699   4.573
   66_J0B    C1  327   4.407   0.539   4.652
   66_J0B    H1  328   4.314   0.491   4.621
   66_J0B    CL  329   4.544   0.435   4.603
   66_J0B   CL1  330   4.403   0.557   4.831
   67_J0B   CL2  331   3.629   2.690   0.347
   67_J0B    C1  332   3.497   2.744   0.239
   67_J0B    H1  333   3.429   2.660   0.225
   67_J0B    CL  334   3.405   2.879   0.312
   67_J0B   CL1  335   3.560   2.788   0.078
   68_J0B   CL2  336   4.405   4.464   1.114
   68_J0B    C1  337   4.418   4.636   1.068
   68_J0B    H1  338   4.494   4.643   0.990
   68_J0B    CL  339   4.264   4.698   1.001
   68_J0B   CL1  340   4.470   4.737   1.205
   69_J0B   CL2  341   1.752   0.143   3.862
   69_J0B    C1  342   1.706   0.106   3.694
   69_J0B    H1  343   1.655   0.009   3.694
   69_J0B    CL  344   1.590   0.228   3.632
   69_J0B   CL1  345   1.851   0.094   3.590
   70_J0B   CL2  346   1.351   1.981   2.793
   70_J0B    C1  347   1.506   1.936   2.869
   70_J0B    H1  348   1.582   2.006   2.836
   70_J0B    CL  349   1.497   1.946   3.048
   70_J0B   CL1  350   1.556   1.772   2.816
   71_J0B   CL2  351   2.356   0.942   1.189
   71_J0B    C1  352   2.326   1.118   1.206
   71_J0B    H1  353   2.318   1.141   1.313
   71_J0B    CL  354   2.459   1.214   1.138
   71_J0B   CL1  355   2.171   1.162   1.129
   72_J0B   CL2  356   3.620   0.073   4.174
   72_J0B    C1  357   3.745   5.000   4.281
   72_J0B    H1  358   3.825   0.073   4.293
   72_J0B    CL  359   3.678   4.966   4.444
   72_J0B   CL1  360   3.820   4.855   4.209
   73_J0B   CL2  361   0.422   2.077   4.639
   73_J0B    C1  362   0.300   1.979   4.726
   73_J0B    H1  363   0.301   1.878   4.683
   73_J0B    CL  364   0.339   1.962   4.900
   73_J0B   CL1  365   0.135   2.046   4.703
   74_J0B   CL2  366   1.524   4.131   1.712
   74_J0B    C1  367   1.577   3.993   1.813
   74_J0B    H1  368   1.492   3.926   1.826
   74_J0B    CL  369   1.708   3.901   1.734
   74_J0B   CL1  370   1.627   4.050   1.975
   75_J0B   CL2  371   1.313   4.952   1.946
   75_J0B    C1  372   1.387   0.110   1.904
   75_J0B    H1  373   1.393   0.116   1.795
   75_J0B    CL  374   1.287   0.247   1.959
   75_J0B   CL1  375   1.554   0.123   1.967
   76_J0B   CL2  376   2.291   2.343   3.391
   76_J0B    C1  377   2.435   2.349   3.286
   76_J0B    H1  378   2.495   2.259   3.304
   76_J0B    CL  379   2.386   2.348   3.114
   76_J0B   CL1  380   2.535   2.492   3.325
   77_J0B   CL2  381   2.237   1.930   1.054
   77_J0B    C1  382   2.235   1.997   1.220
   77_J0B    H1  383   2.144   2.058   1.229
   77_J0B    CL  384   2.225   1.866   1.342
   77_J0B   CL1  385   2.377   2.101   1.249
   78_J0B   CL2  386   1.345   3.779   2.490
   78_J0B    C1  387   1.378   3.789   2.666
   78_J0B    H1  388   1.357   3.692   2.712
   78_J0B    CL  389   1.550   3.827   2.694
   78_J0B   CL1  390   1.272   3.911   2.743
   79_J0B   CL2  391   2.062   2.288   0.253
   79_J0B    C1  392   1.924   2.370   0.173
   79_J0B    H1  393   1.881   2.440   0.245
   79_J0B    CL  394   1.981   2.467   0.034
   79_J0B   CL1  395   1.795   2.256   0.125
   80_J0B   CL2  396   1.239   4.203   2.924
   80_J0B    C1  397   1.243   4.131   3.087
   80_J0B    H1  398   1.301   4.198   3.152
   80_J0B    CL  399   1.078   4.119   3.156
   80_J0B   CL1  400   1.322   3.971   3.085
   81_J0B   CL2  401   2.961   3.585   3.561
   81_J0B    C1  402   3.079   3.640   3.683
   81_J0B    H1  403   3.155   3.700   3.632
   81_J0B    CL  404   2.999   3.741   3.807
   81_J0B   CL1  405   3.161   3.499   3.757
   82_J0B   CL2  406   0.824   3.688   0.134
   82_J0B    C1  407   0.853   3.863   0.115
   82_J0B    H1  408   0.801   3.896   0.024
   82_J0B    CL  409   0.784   3.954   0.252
   82_J0B   CL1  410   1.027   3.898   0.094
   83_J0B   CL2  411   2.075   0.789   2.081
   83_J0B    C1  412   2.030   0.663   1.963
   83_J0B    H1  413   2.120   0.639   1.906
   83_J0B    CL  414   1.976   0.515   2.046
   83_J0B   CL1  415   1.906   0.725   1.851
   84_J0B   CL2  416   1.341   4.072   0.104
   84_J0B    C1  417   1.411   4.008   4.953
   84_J0B    H1  418   1.350   3.925   4.919
   84_J0B    CL  419   1.409   4.135   4.826
   84_J0B   CL1  420   1.577   3.947   4.980
   85_J0B   CL2  421   2.340   0.694   0.176
   85_J0B    C1  422   2.514   0.690   0.218
   85_J0B    H1  423   2.559   0.780   0.177
   85_J0B    CL  424   2.534   0.692   0.396
   85_J0B   CL1  425   2.596   0.548   0.146
   86_J0B   CL2  426   3.654   3.835   4.619
   86_J0B    C1  427   3.580   3.690   4.694
   86_J0B    H1  428   3.579   3.704   4.803
   86_J0B    CL  429   3.411   3.670   4.638
   86_J0B   CL1  430   3.676   3.543   4.659
   87_J0B   CL2  431   1.165   2.850   4.256
   87_J0B    C1  432   1.227   2.833   4.423
   87_J0B    H1  433   1.190   2.916   4.483
   87_J0B    CL  434   1.168   2.681   4.497
   87_J0B   CL1  435   1.405   2.838   4.426
   88_J0B   CL2  436   3.186   2.061   2.731
   88_J0B    C1  437   3.191   2.146   2.888
   88_J0B    H1  438   3.183   2.070   2.967
   88_J0B    CL  439   3.348   2.230   2.909
   88_J0B   CL1  440   3.054   2.259   2.906
   89_J0B   CL2  441   4.157   0.308   2.012
   89_J0B    C1  442   4.129   0.423   2.146
   89_J0B    H1  443   4.120   0.523   2.103
   89_J0B    CL  444   3.977   0.386   2.232
   89_J0B   CL1  445   4.268   0.425   2.259
   90_J0B   CL2  446   0.739   3.443   0.998
   90_J0B    C1  447   0.709   3.327   0.866
   90_J0B    H1  448   0.612   3.279   0.885
   90_J0B    CL  449   0.699   3.410   0.708
   90_J0B   CL1  450   0.835   3.200   0.864
   91_J0B   CL2  451   3.290   3.854   1.264
   91_J0B    C1  452   3.432   3.962   1.248
   91_J0B    H1  453   3.480   3.968   1.345
   91_J0B    CL  454   3.552   3.895   1.133
   91_J0B   CL1  455   3.383   4.128   1.203
   92_J0B   CL2  456   2.985   0.299   0.675
   92_J0B    C1  457   3.156   0.341   0.708
   92_J0B    H1  458   3.198   0.391   0.620
   92_J0B    CL  459   3.164   0.455   0.845
   92_J0B   CL1  460   3.252   0.194   0.740
   93_J0B   CL2  461   3.303   1.504   0.758
   93_J0B    C1  462   3.332   1.677   0.726
   93_J0B    H1  463   3.342   1.728   0.823
   93_J0B    CL  464   3.484   1.703   0.637
   93_J0B   CL1  465   3.193   1.751   0.640
   94_J0B   CL2  466   4.033   1.716   3.229
   94_J0B    C1  467   4.075   1.871   3.150
   94_J0B    H1  468   4.177   1.863   3.111
   94_J0B    CL  469   3.969   1.902   3.009
   94_J0B   CL1  470   4.070   2.007   3.266
   95_J0B   CL2  471   1.558   3.682   1.967
   95_J0B    C1  472   1.550   3.674   2.146
   95_J0B    H1  473   1.642   3.625   2.179
   95_J0B    CL  474   1.545   3.837   2.219
   95_J0B   CL1  475   1.412   3.575   2.200
   96_J0B   CL2  476   1.678   0.743   2.635
   96_J0B    C1  477   1.584   0.843   2.520
   96_J0B    H1  478   1.655   0.887   2.448
   96_J0B    CL  479   1.465   0.745   2.431
   96_J0B   CL1  480   1.503   0.978   2.604
   97_J0B   CL2  481   1.952   0.851   3.795
   97_J0B    C1  482   1.998   0.815   3.626
   97_J0B    H1  483   1.955   0.718   3.600
   97_J0B    CL  484   1.931   0.937   3.515
   97_J0B   CL1  485   2.176   0.802   3.606
   98_J0B   CL2  486   1.030   3.493   0.806
   98_J0B    C1  487   1.013   3.663   0.754
   98_J0B    H1  488   0.980   3.661   0.649
   98_J0B    CL  489   0.887   3.747   0.848
   98_J0B   CL1  490   1.169   3.749   0.764
   99_J0B   CL2  491   3.783   0.846   2.843
   99_J0B    C1  492   3.795   0.702   2.739
   99_J0B    H1  493   3.856   0.627   2.790
   99_J0B    CL  494   3.635   0.629   2.711
   99_J0B   CL1  495   3.876   0.743   2.584
  100_J0B   CL2  496   1.366   3.374   1.451
  100_J0B    C1  497   1.307   3.206   1.473
  100_J0B    H1  498   1.341   3.146   1.389
  100_J0B    CL  499   1.376   3.136   1.622
  100_J0B   CL1  500   1.129   3.201   1.476
  101_J0B   CL2  501   1.325   3.275   4.826
  101_J0B    C1  502   1.289   3.136   4.718
  101_J0B    H1  503   1.300   3.173   4.615
  101_J0B    CL  504   1.405   3.001   4.741
  101_J0B   CL1  505   1.121   3.080   4.739
  102_J0B   CL2  506   4.868   2.518   4.365
  102_J0B    C1  507   4.940   2.648   4.265
  102_J0B    H1  508   4.960   2.606   4.166
  102_J0B    CL  509   4.825   2.784   4.244
  102_J0B   CL1  510   0.094   2.704   4.336
  103_J0B   CL2  511   0.756   0.224   3.537
  103_J0B    C1  512   0.674   0.228   3.696
  103_J0B    H1  513   0.736   0.172   3.767
  103_J0B    CL  514   0.661   0.395   3.758
  103_J0B   CL1  515   0.513   0.149   3.689
  104_J0B   CL2  516   4.360   3.187   2.591
  104_J0B    C1  517   4.388   3.097   2.743
  104_J0B    H1  518   4.324   3.139   2.821
  104_J0B    CL  519   4.345   2.924   2.723
  104_J0B   CL1  520   4.557   3.115   2.798
  105_J0B   CL2  521   0.734   1.775   2.414
  105_J0B    C1  522   0.606   1.899   2.417
  105_J0B    H1  523   0.580   1.917   2.521
  105_J0B    CL  524   0.663   2.054   2.348
  105_J0B   CL1  525   0.458   1.842   2.333
  106_J0B   CL2  526   1.329   2.745   2.078
  106_J0B    C1  527   1.253   2.888   2.004
  106_J0B    H1  528   1.146   2.884   2.025
  106_J0B    CL  529   1.318   3.039   2.074
  106_J0B   CL1  530   1.274   2.886   1.826
  107_J0B   CL2  531   3.159   3.693   2.596
  107_J0B    C1  532   3.116   3.549   2.499
  107_J0B    H1  533   3.008   3.551   2.483
  107_J0B    CL  534   3.196   3.555   2.339
  107_J0B   CL1  535   3.158   3.398   2.586
  108_J0B   CL2  536   0.371   3.563   2.197
  108_J0B    C1  537   0.195   3.529   2.209
  108_J0B    H1  538   0.173   3.498   2.311
  108_J0B    CL  539   0.100   3.677   2.176
  108_J0B   CL1  540   0.148   3.397   2.099
  109_J0B   CL2  541   4.263   4.998   3.780
  109_J0B    C1  542   4.373   4.863   3.817
  109_J0B    H1  543   4.313   4.783   3.862
  109_J0B    CL  544   4.450   4.799   3.669
  109_J0B   CL1  545   4.496   4.911   3.938
  110_J0B   CL2  546   4.877   0.381   1.336
  110_J0B    C1  547   4.850   0.388   1.159
  110_J0B    H1  548   4.808   0.292   1.128
  110_J0B    CL  549   4.730   0.515   1.120
  110_J0B   CL1  550   0.003   0.414   1.070
  111_J0B   CL2  551   1.803   3.317   4.426
  111_J0B    C1  552   1.644   3.239   4.442
  111_J0B    H1  553   1.574   3.291   4.376
  111_J0B    CL  554   1.650   3.067   4.392
  111_J0B   CL1  555   1.582   3.254   4.609
  112_J0B   CL2  556   4.323   1.398   2.323
  112_J0B    C1  557   4.290   1.403   2.148
  112_J0B    H1  558   4.186   1.372   2.132
  112_J0B    CL  559   4.310   1.569   2.082
  112_J0B   CL1  560   4.393   1.287   2.059
  113_J0B   CL2  561   1.443   4.538   0.780
  113_J0B    C1  562   1.505   4.657   0.899
  113_J0B    H1  563   1.465   4.755   0.871
  113_J0B    CL  564   1.446   4.619   1.064
  113_J0B   CL1  565   1.683   4.666   0.895
  114_J0B   CL2  566   3.317   3.602   3.077
  114_J0B    C1  567   3.376   3.490   2.952
  114_J0B    H1  568   3.295   3.421   2.927
  114_J0B    CL  569   3.421   3.580   2.804
  114_J0B   CL1  570   3.512   3.392   3.014
  115_J0B   CL2  571   0.440   0.505   4.676
  115_J0B    C1  572   0.559   0.437   4.790
  115_J0B    H1  573   0.655   0.432   4.738
  115_J0B    CL  574   0.581   0.543   4.933
  115_J0B   CL1  575   0.514   0.272   4.839
  116_J0B   CL2  576   1.855   3.382   4.764
  116_J0B    C1  577   1.735   3.502   4.820
  116_J0B    H1  578   1.640   3.480   4.771
  116_J0B    CL  579   1.710   3.488   4.997
  116_J0B   CL1  580   1.783   3.668   4.776
  117_J0B   CL2  581   2.147   3.150   1.264
  117_J0B    C1  582   2.099   2.979   1.247
  117_J0B    H1  583   2.019   2.974   1.172
  117_J0B    CL  584   2.238   2.883   1.187
  117_J0B   CL1  585   2.036   2.914   1.400
  118_J0B   CL2  586   4.019   3.833   1.638
  118_J0B    C1  587   3.859   3.766   1.683
  118_J0B    H1  588   3.874   3.697   1.767
  118_J0B    CL  589   3.750   3.895   1.739
  118_J0B   CL1  590   3.786   3.672   1.549
  119_J0B   CL2  591   4.986   2.636   4.967
  119_J0B    C1  592   4.928   2.476   0.024
  119_J0B    H1  593   0.017   2.413   0.037
  119_J0B    CL  594   4.847   2.491   0.183
  119_J0B   CL1  595   4.822   2.400   4.901
  120_J0B   CL2  596   4.206   4.218   1.720
  120_J0B    C1  597   4.278   4.327   1.843
  120_J0B    H1  598   4.207   4.408   1.860
  120_J0B    CL  599   4.300   4.241   1.998
  120_J0B   CL1  600   4.433   4.398   1.787
  121_J0B   CL2  601   4.008   3.042   3.107
  121_J0B    C1  602   3.923   3.044   2.950
  121_J0B    H1  603   3.887   2.943   2.929
  121_J0B    CL  604   3.782   3.153   2.955
  121_J0B   CL1  605   4.035   3.090   2.818
  122_J0B   CL2  606   1.592   0.054   0.139
  122_J0B    C1  607   1.680   0.167   0.031
  122_J0B    H1  608   1.773   0.197   0.081
  122_J0B    CL  609   1.723   0.086   4.877
  122_J0B   CL1  610   1.583   0.314   0.001
  123_J0B   CL2  611   1.384   2.250   2.571
  123_J0B    C1  612   1.242   2.329   2.644
  123_J0B    H1  613   1.276   2.383   2.732
  123_J0B    CL  614   1.170   2.447   2.532
  123_J0B   CL1  615   1.120   2.209   2.695
  124_J0B   CL2  616   0.659   4.779   2.090
  124_J0B    C1  617   0.689   4.621   2.169
  124_J0B    H1  618   0.719   4.551   2.091
  124_J0B    CL  619   0.823   4.634   2.288
  124_J0B   CL1  620   0.540   4.560   2.247
  125_J0B   CL2  621   0.842   1.910   1.690
  125_J0B    C1  622   0.961   1.908   1.823
  125_J0B    H1  623   0.915   1.858   1.909
  125_J0B    CL  624   1.106   1.815   1.777
  125_J0B   CL1  625   1.005   2.074   1.871
  126_J0B   CL2  626   3.501   4.087   2.141
  126_J0B    C1  627   3.469   3.980   2.002
  126_J0B    H1  628   3.364   3.948   2.008
  126_J0B    CL  629   3.493   4.068   1.848
  126_J0B   CL1  630   3.569   3.832   2.007
  127_J0B   CL2  631   0.663   1.354   2.817
  127_J0B    C1  632   0.750   1.510   2.832
  127_J0B    H1  633   0.676   1.588   2.848
  127_J0B    CL  634   0.859   1.508   2.973
  127_J0B   CL1  635   0.840   1.548   2.682
  128_J0B   CL2  636   1.784   3.035   0.242
  128_J0B    C1  637   1.802   3.138   0.097
  128_J0B    H1  638   1.827   3.238   0.132
  128_J0B    CL  639   1.936   3.081   4.994
  128_J0B   CL1  640   1.649   3.149   0.004
  129_J0B   CL2  641   1.177   1.821   2.525
  129_J0B    C1  642   1.312   1.789   2.412
  129_J0B    H1  643   1.277   1.812   2.312
  129_J0B    CL  644   1.451   1.894   2.449
  129_J0B   CL1  645   1.361   1.617   2.417
  130_J0B   CL2  646   2.720   1.292   3.027
  130_J0B    C1  647   2.826   1.161   2.967
  130_J0B    H1  648   2.865   1.191   2.869
  130_J0B    CL  649   2.966   1.134   3.074
  130_J0B   CL1  650   2.734   1.010   2.943
  131_J0B   CL2  651   4.289   4.004   0.592
  131_J0B    C1  652   4.451   3.953   0.536
  131_J0B    H1  653   4.452   3.844   0.529
  131_J0B    CL  654   4.485   4.017   0.372
  131_J0B   CL1  655   4.578   4.003   0.652
  132_J0B   CL2  656   2.405   0.403   3.534
  132_J0B    C1  657   2.479   0.243   3.504
  132_J0B    H1  658   2.447   0.176   3.585
  132_J0B    CL  659   2.421   0.173   3.350
  132_J0B   CL1  660   2.658   0.251   3.504
  133_J0B   CL2  661   2.843   1.343   2.070
  133_J0B    C1  662   2.976   1.311   2.185
  133_J0B    H1  663   3.043   1.397   2.184
  133_J0B    CL  664   2.913   1.294   2.352
  133_J0B   CL1  665   3.067   1.165   2.138
  134_J0B   CL2  666   3.924   0.759   3.389
  134_J0B    C1  667   4.059   0.681   3.478
  134_J0B    H1  668   4.148   0.741   3.459
  134_J0B    CL  669   4.027   0.682   3.653
  134_J0B   CL1  670   4.087   0.515   3.419
  135_J0B   CL2  671   3.065   1.247   2.676
  135_J0B    C1  672   3.006   1.081   2.646
  135_J0B    H1  673   3.052   1.044   2.554
  135_J0B    CL  674   3.056   0.972   2.779
  135_J0B   CL1  675   2.829   1.078   2.621
  136_J0B   CL2  676   4.976   4.612   3.243
  136_J0B    C1  677   4.974   4.726   3.380
  136_J0B    H1  678   4.908   4.808   3.352
  136_J0B    CL  679   4.906   4.650   3.527
  136_J0B   CL1  680   0.135   4.798   3.409
  137_J0B   CL2  681   3.297   3.916   3.290
  137_J0B    C1  682   3.250   4.058   3.193
  137_J0B    H1  683   3.169   4.110   3.244
  137_J0B    CL  684   3.386   4.173   3.178
  137_J0B   CL1  685   3.194   4.009   3.030
  138_J0B   CL2  686   4.846   3.643   4.187
  138_J0B    C1  687   4.817   3.775   4.304
  138_J0B    H1  688   4.731   3.748   4.366
  138_J0B    CL  689   4.959   3.792   4.412
  138_J0B   CL1  690   4.780   3.928   4.220
  139_J0B   CL2  691   3.741   4.897   1.874
  139_J0B    C1  692   3.793   0.020   1.756
  139_J0B    H1  693   3.876   4.978   1.699
  139_J0B    CL  694   3.662   0.058   1.641
  139_J0B   CL1  695   3.853   0.167   1.840
  140_J0B   CL2  696   4.373   0.714   2.433
  140_J0B    C1  697   4.200   0.756   2.457
  140_J0B    H1  698   4.158   0.685   2.529
  140_J0B    CL  699   4.182   0.920   2.526
  140_J0B   CL1  700   4.108   0.740   2.304
  141_J0B   CL2  701   1.555   3.893   4.360
  141_J0B    C1  702   1.502   3.971   4.511
  141_J0B    H1  703   1.394   3.987   4.505
  141_J0B    CL  704   1.533   3.867   4.652
  141_J0B   CL1  705   1.580   4.131   4.532
  142_J0B   CL2  706   3.535   2.498   1.450
  142_J0B    C1  707   3.704   2.530   1.402
  142_J0B    H1  708   3.753   2.436   1.379
  142_J0B    CL  709   3.711   2.633   1.256
  142_J0B   CL1  710   3.793   2.608   1.535
  143_J0B   CL2  711   1.250   4.247   4.526
  143_J0B    C1  712   1.348   4.356   4.423
  143_J0B    H1  713   1.420   4.295   4.367
  143_J0B    CL  714   1.245   4.439   4.303
  143_J0B   CL1  715   1.441   4.471   4.522
  144_J0B   CL2  716   0.424   4.803   2.654
  144_J0B    C1  717   0.406   4.894   2.807
  144_J0B    H1  718   0.317   4.856   2.858
  144_J0B    CL  719   0.548   4.873   2.914
  144_J0B   CL1  720   0.379   0.068   2.775
  145_J0B   CL2  721   1.172   0.937   0.533
  145_J0B    C1  722   1.102   1.083   0.457
  145_J0B    H1  723   1.182   1.134   0.402
  145_J0B    CL  724   0.975   1.040   0.339
  145_J0B   CL1  725   1.041   1.196   0.581
  146_J0B   CL2  726   2.127   4.052   4.321
  146_J0B    C1  727   2.138   3.875   4.305
  146_J0B    H1  728   2.039   3.833   4.322
  146_J0B    CL  729   2.193   3.828   4.142
  146_J0B   CL1  730   2.247   3.809   4.431
  147_J0B   CL2  731   0.596   1.950   3.764
  147_J0B    C1  732   0.564   2.122   3.801
  147_J0B    H1  733   0.459   2.143   3.777
  147_J0B    CL  734   0.588   2.156   3.974
  147_J0B   CL1  735   0.665   2.230   3.700
  148_J0B   CL2  736   0.974   4.093   0.838
  148_J0B    C1  737   1.076   4.046   0.977
  148_J0B    H1  738   1.092   3.938   0.973
  148_J0B    CL  739   1.236   4.125   0.969
  148_J0B   CL1  740   0.994   4.083   1.133
  149_J0B   CL2  741   4.549   1.291   0.850
  149_J0B    C1  742   4.505   1.432   0.949
  149_J0B    H1  743   4.580   1.509   0.932
  149_J0B    CL  744   4.347   1.498   0.900
  149_J0B   CL1  745   4.507   1.394   1.123
  150_J0B   CL2  746   4.006   3.642   2.870
  150_J0B    C1  747   4.012   3.463   2.872
  150_J0B    H1  748   3.924   3.426   2.818
  150_J0B    CL  749   4.157   3.403   2.786
  150_J0B   CL1  750   4.003   3.402   3.040
  151_J0B   CL2  751   0.595   4.730   4.785
  151_J0B    C1  752   0.743   4.721   4.686
  151_J0B    H1  753   0.828   4.730   4.754
  151_J0B    CL  754   0.756   4.564   4.602
  151_J0B   CL1  755   0.750   4.857   4.570
  152_J0B   CL2  756   4.151   1.846   1.406
  152_J0B    C1  757   4.007   1.746   1.432
  152_J0B    H1  758   3.927   1.813   1.464
  152_J0B    CL  759   3.955   1.669   1.280
  152_J0B   CL1  760   4.035   1.624   1.561
  153_J0B   CL2  761   1.626   0.661   1.640
  153_J0B    C1  762   1.596   0.603   1.807
  153_J0B    H1  763   1.619   0.686   1.875
  153_J0B    CL  764   1.424   0.561   1.832
  153_J0B   CL1  765   1.700   0.464   1.849
  154_J0B   CL2  766   1.633   0.825   4.799
  154_J0B    C1  767   1.771   0.931   4.844
  154_J0B    H1  768   1.740   1.034   4.825
  154_J0B    CL  769   1.812   0.916   0.018
  154_J0B   CL1  770   1.914   0.899   4.741
  155_J0B   CL2  771   1.207   0.094   0.497
  155_J0B    C1  772   1.125   0.154   0.644
  155_J0B    H1  773   1.036   0.208   0.611
  155_J0B    CL  774   1.073   0.019   0.749
  155_J0B   CL1  775   1.230   0.269   0.733
  156_J0B   CL2  776   4.755   0.652   3.807
  156_J0B    C1  777   4.625   0.761   3.751
  156_J0B    H1  778   4.533   0.703   3.743
  156_J0B    CL  779   4.596   0.892   3.870
  156_J0B   CL1  780   4.662   0.829   3.590
  157_J0B   CL2  781   0.692   2.168   0.158
  157_J0B    C1  782   0.778   2.120   0.008
  157_J0B    H1  783   0.812   2.211   4.959
  157_J0B    CL  784   0.920   2.018   0.048
  157_J0B   CL1  785   0.669   2.034   4.896
  158_J0B   CL2  786   0.458   1.371   2.003
  158_J0B    C1  787   0.469   1.538   2.068
  158_J0B    H1  788   0.511   1.602   1.990
  158_J0B    CL  789   0.307   1.601   2.111
  158_J0B   CL1  790   0.578   1.543   2.209
  159_J0B   CL2  791   1.684   3.746   0.261
  159_J0B    C1  792   1.716   3.710   0.433
  159_J0B    H1  793   1.800   3.640   0.439
  159_J0B    CL  794   1.761   3.858   0.524
  159_J0B   CL1  795   1.574   3.632   0.508
  160_J0B   CL2  796   3.622   0.358   2.143
  160_J0B    C1  797   3.561   0.318   1.980
  160_J0B    H1  798   3.640   0.344   1.909
  160_J0B    CL  799   3.527   0.143   1.967
  160_J0B   CL1  800   3.415   0.414   1.942
  161_J0B   CL2  801   1.861   1.904   2.731
  161_J0B    C1  802   1.818   2.074   2.701
  161_J0B    H1  803   1.898   2.119   2.643
  161_J0B    CL  804   1.670   2.087   2.602
  161_J0B   CL1  805   1.803   2.165   2.854
  162_J0B   CL2  806   1.623   0.888   3.244
  162_J0B    C1  807   1.484   0.927   3.137
  162_J0B    H1  808   1.481   1.035   3.124
  162_J0B    CL  809   1.506   0.854   2.975
  162_J0B   CL1  810   1.329   0.876   3.211
  163_J0B   CL2  811   3.623   1.883   3.827
  163_J0B    C1  812   3.627   1.726   3.914
  163_J0B    H1  813   3.586   1.650   3.848
  163_J0B    CL  814   3.794   1.676   3.951
  163_J0B   CL1  815   3.527   1.732   4.062
  164_J0B   CL2  816   3.228   1.674   2.372
  164_J0B    C1  817   3.226   1.822   2.470
  164_J0B    H1  818   3.237   1.793   2.575
  164_J0B    CL  819   3.363   1.930   2.430
  164_J0B   CL1  820   3.069   1.908   2.455
  165_J0B   CL2  821   0.604   4.879   0.806
  165_J0B    C1  822   0.450   4.838   0.887
  165_J0B    H1  823   0.376   4.914   0.859
  165_J0B    CL  824   0.385   4.680   0.836
  165_J0B   CL1  825   0.470   4.846   1.065
  166_J0B   CL2  826   3.124   4.221   3.962
  166_J0B    C1  827   3.048   4.315   3.831
  166_J0B    H1  828   2.959   4.365   3.872
  166_J0B    CL  829   3.161   4.440   3.769
  166_J0B   CL1  830   2.993   4.207   3.700
  167_J0B   CL2  831   4.228   3.200   2.255
  167_J0B    C1  832   4.124   3.329   2.322
  167_J0B    H1  833   4.058   3.285   2.398
  167_J0B    CL  834   4.222   3.455   2.403
  167_J0B   CL1  835   4.021   3.399   2.194
  168_J0B   CL2  836   4.967   0.096   3.286
  168_J0B    C1  837   4.808   0.032   3.233
  168_J0B    H1  838   4.755   0.112   3.182
  168_J0B    CL  839   4.828   4.899   3.115
  168_J0B   CL1  840   4.710   4.980   3.374
  169_J0B   CL2  841   1.558   1.795   2.139
  169_J0B    C1  842   1.655   1.677   2.232
  169_J0B    H1  843   1.642   1.699   2.338
  169_J0B    CL  844   1.599   1.509   2.203
  169_J0B   CL1  845   1.829   1.693   2.194
  170_J0B   CL2  846   2.034   2.932   0.891
  170_J0B    C1  847   2.066   2.996   0.727
  170_J0B    H1  848   2.080   3.104   0.736
  170_J0B    CL  849   2.216   2.926   0.660
  170_J0B   CL1  850   1.927   2.968   0.617
  171_J0B   CL2  851   0.410   4.694   3.632
  171_J0B    C1  852   0.301   4.641   3.764
  171_J0B    H1  853   0.350   4.664   3.859
  171_J0B    CL  854   0.145   4.728   3.759
  171_J0B   CL1  855   0.275   4.464   3.758
  172_J0B   CL2  856   0.083   2.860   4.002
  172_J0B    C1  857   0.055   3.035   3.976
  172_J0B    H1  858   0.025   3.079   4.071
  172_J0B    CL  859   0.204   3.119   3.925
  172_J0B   CL1  860   4.921   3.064   3.861
  173_J0B   CL2  861   2.889   0.089   0.927
  173_J0B    C1  862   2.863   4.959   0.806
  173_J0B    H1  863   2.766   4.976   0.759
  173_J0B    CL  864   2.987   4.964   0.678
  173_J0B   CL1  865   2.857   4.799   0.885
  174_J0B   CL2  866   0.212   1.429   4.044
  174_J0B    C1  867   0.185   1.309   3.914
  174_J0B    H1  868   0.099   1.248   3.943
  174_J0B    CL  869   0.147   1.390   3.759
  174_J0B   CL1  870   0.326   1.200   3.897
  175_J0B   CL2  871   4.295   2.564   4.035
  175_J0B    C1  872   4.202   2.548   3.884
  175_J0B    H1  873   4.228   2.634   3.822
  175_J0B    CL  874   4.247   2.399   3.797
  175_J0B   CL1  875   4.026   2.554   3.917
  176_J0B   CL2  876   2.653   3.270   2.548
  176_J0B    C1  877   2.593   3.276   2.716
  176_J0B    H1  878   2.529   3.188   2.732
  176_J0B    CL  879   2.727   3.267   2.834
  176_J0B   CL1  880   2.493   3.421   2.744
  177_J0B   CL2  881   0.206   3.708   2.524
  177_J0B    C1  882   0.339   3.600   2.577
  177_J0B    H1  883   0.411   3.592   2.495
  177_J0B    CL  884   0.428   3.668   2.716
  177_J0B   CL1  885   0.277   3.437   2.616
  178_J0B   CL2  886   2.592   1.018   4.131
  178_J0B    C1  887   2.729   0.999   4.245
  178_J0B    H1  888   2.716   0.904   4.297
  178_J0B    CL  889   2.886   0.996   4.159
  178_J0B   CL1  890   2.728   1.127   4.370
  179_J0B   CL2  891   0.658   1.071   3.947
  179_J0B    C1  892   0.821   1.115   4.005
  179_J0B    H1  893   0.874   1.161   3.921
  179_J0B    CL  894   0.811   1.234   4.138
  179_J0B   CL1  895   0.916   0.972   4.054
  180_J0B   CL2  896   0.455   0.046   1.362
  180_J0B    C1  897   0.296   4.995   1.297
  180_J0B    H1  898   0.305   4.892   1.263
  180_J0B    CL  899   0.173   4.993   1.425
  180_J0B   CL1  900   0.245   0.099   1.161
  181_J0B   CL2  901   1.199   0.635   2.628
  181_J0B    C1  902   1.303   0.683   2.765
  181_J0B    H1  903   1.345   0.781   2.741
  181_J0B    CL  904   1.211   0.696   2.918
  181_J0B   CL1  905   1.439   0.568   2.786
  182_J0B   CL2  906   0.445   0.856   3.467
  182_J0B    C1  907   0.496   0.952   3.609
  182_J0B    H1  908   0.459   1.054   3.597
  182_J0B    CL  909   0.428   0.883   3.760
  182_J0B   CL1  910   0.675   0.961   3.618
  183_J0B   CL2  911   4.056   1.517   0.373
  183_J0B    C1  912   4.053   1.342   0.338
  183_J0B    H1  913   3.987   1.325   0.253
  183_J0B    CL  914   4.215   1.281   0.293
  183_J0B   CL1  915   3.988   1.251   0.478
  184_J0B   CL2  916   3.931   4.431   3.830
  184_J0B    C1  917   3.882   4.483   3.994
  184_J0B    H1  918   3.884   4.395   4.059
  184_J0B    CL  919   3.997   4.601   4.061
  184_J0B   CL1  920   3.715   4.548   3.995
  185_J0B   CL2  921   3.866   4.382   1.042
  185_J0B    C1  922   3.795   4.223   1.082
  185_J0B    H1  923   3.871   4.147   1.064
  185_J0B    CL  924   3.754   4.216   1.255
  185_J0B   CL1  925   3.655   4.185   0.977
  186_J0B   CL2  926   0.175   4.308   4.038
  186_J0B    C1  927   4.999   4.300   4.009
  186_J0B    H1  928   4.950   4.344   4.096
  186_J0B    CL  929   4.952   4.395   3.865
  186_J0B   CL1  930   4.946   4.130   3.995
  187_J0B   CL2  931   0.777   2.779   1.828
  187_J0B    C1  932   0.862   2.622   1.842
  187_J0B    H1  933   0.846   2.568   1.748
  187_J0B    CL  934   1.039   2.642   1.863
  187_J0B   CL1  935   0.791   2.523   1.974
  188_J0B   CL2  936   2.893   2.505   0.615
  188_J0B    C1  937   2.748   2.599   0.569
  188_J0B    H1  938   2.715   2.562   0.472
  188_J0B    CL  939   2.614   2.573   0.685
  188_J0B   CL1  940   2.787   2.773   0.555
  189_J0B   CL2  941   2.782   0.386   0.407
  189_J0B    C1  942   2.680   0.321   0.539
  189_J0B    H1  943   2.716   0.360   0.635
  189_J0B    CL  944   2.510   0.375   0.521
  189_J0B   CL1  945   2.691   0.143   0.544
  190_J0B   CL2  946   2.586   2.304   4.111
  190_J0B    C1  947   2.651   2.466   4.074
  190_J0B    H1  948   2.575   2.520   4.017
  190_J0B    CL  949   2.681   2.558   4.225
  190_J0B   CL1  950   2.799   2.456   3.974
  191_J0B   CL2  951   4.153   2.797   3.617
  191_J0B    C1  952   4.079   2.879   3.476
  191_J0B    H1  953   4.053   2.981   3.505
  191_J0B    CL  954   4.194   2.888   3.340
  191_J0B   CL1  955   3.926   2.800   3.427
  192_J0B   CL2  956   3.655   4.426   1.980
  192_J0B    C1  957   3.487   4.456   1.927
  192_J0B    H1  958   3.475   4.564   1.918
  192_J0B    CL  959   3.456   4.385   1.766
  192_J0B   CL1  960   3.371   4.396   2.049
  193_J0B   CL2  961   2.588   0.485   2.359
  193_J0B    C1  962   2.707   0.360   2.314
  193_J0B    H1  963   2.768   0.400   2.232
  193_J0B    CL  964   2.817   0.322   2.450
  193_J0B   CL1  965   2.625   0.213   2.254
  194_J0B   CL2  966   0.113   1.817   1.114
  194_J0B    C1  967   0.203   1.716   1.231
  194_J0B    H1  968   0.207   1.614   1.192
  194_J0B    CL  969   0.372   1.773   1.247
  194_J0B   CL1  970   0.122   1.711   1.391
  195_J0B   CL2  971   4.042   0.116   2.535
  195_J0B    C1  972   3.985   0.046   2.690
  195_J0B    H1  973   4.038   0.097   2.771
  195_J0B    CL  974   3.810   0.072   2.715
  195_J0B   CL1  975   4.027   4.872   2.700
  196_J0B   CL2  976   0.173   0.616   4.836
  196_J0B    C1  977   0.232   0.503   4.962
  196_J0B    H1  978   0.318   0.449   4.921
  196_J0B    CL  979   0.286   0.591   0.108
  196_J0B   CL1  980   0.107   0.382   0.003
  197_J0B   CL2  981   2.830   4.527   1.754
  197_J0B    C1  982   2.867   4.505   1.928
  197_J0B    H1  983   2.976   4.496   1.940
  197_J0B    CL  984   2.814   4.647   2.024
  197_J0B   CL1  985   2.792   4.356   1.991
  198_J0B   CL2  986   4.319   0.889   3.616
  198_J0B    C1  987   4.366   0.888   3.444
  198_J0B    H1  988   4.455   0.951   3.433
  198_J0B    CL  989   4.410   0.724   3.389
  198_J0B   CL1  990   4.238   0.959   3.342
  199_J0B   CL2  991   3.050   1.443   2.964
  199_J0B    C1  992   2.979   1.545   2.836
  199_J0B    H1  993   2.949   1.638   2.884
  199_J0B    CL  994   3.097   1.583   2.708
  199_J0B   CL1  995   2.832   1.470   2.766
  200_J0B   CL2  996   0.518   4.280   1.902
  200_J0B    C1  997   0.468   4.159   2.024
  200_J0B    H1  998   0.533   4.072   2.013
  200_J0B    CL  999   0.490   4.221   2.191
  200_J0B   CL1 1000   0.299   4.106   1.997
  201_J0B   CL2 1001   0.966   2.296   0.592
  201_J0B    C1 1002   1.090   2.223   0.486
  201_J0B    H1 1003   1.148   2.305   0.443
  201_J0B    CL 1004   1.204   2.117   0.575
  201_J0B   CL1 1005   1.011   2.137   0.350
  202_J0B   CL2 1006   3.158   0.008   3.315
  202_J0B    C1 1007   3.012   4.956   3.227
  202_J0B    H1 1008   3.013   4.846   3.222
  202_J0B    CL 1009   2.863   0.007   3.312
  202_J0B   CL1 1010   3.014   0.017   3.059
  203_J0B   CL2 1011   3.801   3.097   3.977
  203_J0B    C1 1012   3.786   3.274   3.961
  203_J0B    H1 1013   3.886   3.317   3.974
  203_J0B    CL 1014   3.732   3.320   3.797
  203_J0B   CL1 1015   3.682   3.340   4.091
  204_J0B   CL2 1016   1.618   4.102   2.996
  204_J0B    C1 1017   1.648   4.032   3.158
  204_J0B    H1 1018   1.616   3.927   3.155
  204_J0B    CL 1019   1.822   4.034   3.197
  204_J0B   CL1 1020   1.554   4.115   3.286
  205_J0B   CL2 1021   4.837   3.220   2.018
  205_J0B    C1 1022   4.735   3.357   2.071
  205_J0B    H1 1023   4.714   3.419   1.984
  205_J0B    CL 1024   4.579   3.300   2.137
  205_J0B   CL1 1025   4.822   3.461   2.189
  206_J0B   CL2 1026   2.063   1.776   4.324
  206_J0B    C1 1027   2.097   1.600   4.327
  206_J0B    H1 1028   2.010   1.548   4.287
  206_J0B    CL 1029   2.238   1.562   4.225
  206_J0B   CL1 1030   2.125   1.542   4.494
  207_J0B   CL2 1031   4.908   4.121   2.443
  207_J0B    C1 1032   4.932   3.946   2.471
  207_J0B    H1 1033   0.039   3.926   2.459
  207_J0B    CL 1034   4.886   3.900   2.638
  207_J0B   CL1 1035   4.844   3.849   2.350
  208_J0B   CL2 1036   3.324   3.358   4.214
  208_J0B    C1 1037   3.380   3.412   4.376
  208_J0B    H1 1038   3.399   3.519   4.370
  208_J0B    CL 1039   3.253   3.384   4.499
  208_J0B   CL1 1040   3.533   3.331   4.421
  209_J0B   CL2 1041   0.422   3.184   2.081
  209_J0B    C1 1042   0.342   3.145   2.235
  209_J0B    H1 1043   0.234   3.144   2.219
  209_J0B    CL 1044   0.387   2.982   2.294
  209_J0B   CL1 1045   0.380   3.268   2.358
  210_J0B   CL2 1046   4.047   2.206   2.537
  210_J0B    C1 1047   4.049   2.114   2.690
  210_J0B    H1 1048   4.134   2.149   2.749
  210_J0B    CL 1049   3.900   2.145   2.784
  210_J0B   CL1 1050   4.071   1.939   2.659
  211_J0B   CL2 1051   2.615   4.216   0.691
  211_J0B    C1 1052   2.621   4.215   0.870
  211_J0B    H1 1053   2.725   4.232   0.900
  211_J0B    CL 1054   2.524   4.348   0.941
  211_J0B   CL1 1055   2.571   4.056   0.936
  212_J0B   CL2 1056   2.105   4.386   1.660
  212_J0B    C1 1057   2.273   4.443   1.635
  212_J0B    H1 1058   2.321   4.375   1.565
  212_J0B    CL 1059   2.276   4.606   1.563
  212_J0B   CL1 1060   2.366   4.439   1.788
  213_J0B   CL2 1061   2.549   2.021   3.048
  213_J0B    C1 1062   2.654   2.126   2.947
  213_J0B    H1 1063   2.742   2.067   2.917
  213_J0B    CL 1064   2.568   2.176   2.799
  213_J0B   CL1 1065   2.712   2.267   3.041
  214_J0B   CL2 1066   0.862   1.442   2.357
  214_J0B    C1 1067   1.033   1.492   2.372
  214_J0B    H1 1068   1.041   1.552   2.463
  214_J0B    CL 1069   1.139   1.350   2.390
  214_J0B   CL1 1070   1.080   1.593   2.232
  215_J0B   CL2 1071   0.554   1.507   4.841
  215_J0B    C1 1072   0.450   1.462   4.980
  215_J0B    H1 1073   0.351   1.438   4.942
  215_J0B    CL 1074   0.513   1.317   0.064
  215_J0B   CL1 1075   0.433   1.599   0.095
  216_J0B   CL2 1076   3.440   1.193   3.203
  216_J0B    C1 1077   3.412   1.110   3.047
  216_J0B    H1 1078   3.365   1.014   3.068
  216_J0B    CL 1079   3.298   1.202   2.943
  216_J0B   CL1 1080   3.565   1.077   2.961
  217_J0B   CL2 1081   2.644   2.759   3.874
  217_J0B    C1 1082   2.532   2.692   3.752
  217_J0B    H1 1083   2.429   2.716   3.782
  217_J0B    CL 1084   2.559   2.769   3.592
  217_J0B   CL1 1085   2.547   2.515   3.740
  218_J0B   CL2 1086   4.302   3.904   1.992
  218_J0B    C1 1087   4.153   3.876   2.086
  218_J0B    H1 1088   4.136   3.963   2.149
  218_J0B    CL 1089   4.011   3.857   1.979
  218_J0B   CL1 1090   4.171   3.733   2.193
  219_J0B   CL2 1091   1.715   2.713   2.772
  219_J0B    C1 1092   1.632   2.557   2.751
  219_J0B    H1 1093   1.612   2.517   2.851
  219_J0B    CL 1094   1.477   2.577   2.665
  219_J0B   CL1 1095   1.737   2.440   2.665
  220_J0B   CL2 1096   3.445   1.243   0.582
  220_J0B    C1 1097   3.324   1.178   0.467
  220_J0B    H1 1098   3.226   1.221   0.492
  220_J0B    CL 1099   3.361   1.226   0.299
  220_J0B   CL1 1100   3.312   1.000   0.479
  221_J0B   CL2 1101   4.447   1.029   4.202
  221_J0B    C1 1102   4.277   1.050   4.255
  221_J0B    H1 1103   4.278   1.079   4.360
  221_J0B    CL 1104   4.196   1.182   4.165
  221_J0B   CL1 1105   4.186   0.896   4.243
  222_J0B   CL2 1106   1.460   3.634   3.307
  222_J0B    C1 1107   1.637   3.647   3.329
  222_J0B    H1 1108   1.682   3.658   3.230
  222_J0B    CL 1109   1.679   3.792   3.424
  222_J0B   CL1 1110   1.706   3.498   3.401
  223_J0B   CL2 1111   0.486   2.435   1.316
  223_J0B    C1 1112   0.402   2.453   1.160
  223_J0B    H1 1113   0.474   2.438   1.080
  223_J0B    CL 1114   0.273   2.330   1.141
  223_J0B   CL1 1115   0.336   2.619   1.144
  224_J0B   CL2 1116   1.479   1.536   1.572
  224_J0B    C1 1117   1.582   1.505   1.429
  224_J0B    H1 1118   1.674   1.460   1.467
  224_J0B    CL 1119   1.504   1.387   1.319
  224_J0B   CL1 1120   1.621   1.658   1.345
  225_J0B   CL2 1121   1.648   4.634   0.510
  225_J0B    C1 1122   1.777   4.757   0.492
  225_J0B    H1 1123   1.873   4.706   0.489
  225_J0B    CL 1124   1.758   4.844   0.337
  225_J0B   CL1 1125   1.778   4.869   0.631
  226_J0B   CL2 1126   3.883   1.054   1.494
  226_J0B    C1 1127   3.790   1.153   1.612
  226_J0B    H1 1128   3.793   1.102   1.708
  226_J0B    CL 1129   3.865   1.314   1.634
  226_J0B   CL1 1130   3.620   1.169   1.561
  227_J0B   CL2 1131   0.307   3.782   3.891
  227_J0B    C1 1132   0.226   3.909   3.987
  227_J0B    H1 1133   0.171   3.973   3.917
  227_J0B    CL 1134   0.109   3.837   4.101
  227_J0B   CL1 1135   0.343   4.013   4.073
  228_J0B   CL2 1136   2.539   3.975   3.578
  228_J0B    C1 1137   2.491   4.073   3.719
  228_J0B    H1 1138   2.486   4.006   3.806
  228_J0B    CL 1139   2.612   4.201   3.754
  228_J0B   CL1 1140   2.329   4.145   3.695
  229_J0B   CL2 1141   1.987   2.652   2.532
  229_J0B    C1 1142   2.129   2.630   2.639
  229_J0B    H1 1143   2.148   2.523   2.648
  229_J0B    CL 1144   2.275   2.705   2.569
  229_J0B   CL1 1145   2.097   2.693   2.803
  230_J0B   CL2 1146   3.561   3.520   3.327
  230_J0B    C1 1147   3.451   3.542   3.466
  230_J0B    H1 1148   3.483   3.631   3.519
  230_J0B    CL 1149   3.282   3.567   3.412
  230_J0B   CL1 1150   3.462   3.403   3.579
  231_J0B   CL2 1151   0.721   2.261   1.145
  231_J0B    C1 1152   0.805   2.139   1.044
  231_J0B    H1 1153   0.750   2.045   1.052
  231_J0B    CL 1154   0.803   2.188   0.872
  231_J0B   CL1 1155   0.971   2.110   1.103
  232_J0B   CL2 1156   2.451   2.899   0.197
  232_J0B    C1 1157   2.508   2.922   0.365
  232_J0B    H1 1158   2.618   2.924   0.362
  232_J0B    CL 1159   2.451   3.077   0.432
  232_J0B   CL1 1160   2.457   2.787   0.470
  233_J0B   CL2 1161   4.826   3.967   0.243
  233_J0B    C1 1162   4.907   4.090   0.345
  233_J0B    H1 1163   4.969   4.037   0.418
  233_J0B    CL 1164   0.015   4.194   0.248
  233_J0B   CL1 1165   4.788   4.188   0.434
  234_J0B   CL2 1166   0.302   2.571   2.367
  234_J0B    C1 1167   0.473   2.619   2.346
  234_J0B    H1 1168   0.477   2.699   2.271
  234_J0B    CL 1169   0.540   2.685   2.498
  234_J0B   CL1 1170   0.571   2.482   2.286
  235_J0B   CL2 1171   1.601   2.810   0.062
  235_J0B    C1 1172   1.471   2.823   0.184
  235_J0B    H1 1173   1.421   2.919   0.167
  235_J0B    CL 1174   1.347   2.696   0.160
  235_J0B   CL1 1175   1.533   2.823   0.352
  236_J0B   CL2 1176   1.559   1.798   0.442
  236_J0B    C1 1177   1.597   1.904   0.581
  236_J0B    H1 1178   1.530   1.876   0.663
  236_J0B    CL 1179   1.764   1.877   0.637
  236_J0B   CL1 1180   1.568   2.076   0.542
  237_J0B   CL2 1181   4.712   1.393   2.097
  237_J0B    C1 1182   4.712   1.380   2.275
  237_J0B    H1 1183   4.654   1.464   2.315
  237_J0B    CL 1184   4.634   1.227   2.328
  237_J0B   CL1 1185   4.878   1.391   2.339
  238_J0B   CL2 1186   0.139   4.294   1.764
  238_J0B    C1 1187   0.101   4.431   1.873
  238_J0B    H1 1188   0.017   4.400   1.936
  238_J0B    CL 1189   0.239   4.468   1.981
  238_J0B   CL1 1190   0.051   4.575   1.780
  239_J0B   CL2 1191   1.601   3.061   1.859
  239_J0B    C1 1192   1.745   3.134   1.781
  239_J0B    H1 1193   1.816   3.157   1.860
  239_J0B    CL 1194   1.823   3.017   1.670
  239_J0B   CL1 1195   1.704   3.286   1.697
  240_J0B   CL2 1196   3.330   1.910   3.478
  240_J0B    C1 1197   3.238   1.958   3.333
  240_J0B    H1 1198   3.173   2.042   3.358
  240_J0B    CL 1199   3.346   2.007   3.199
  240_J0B   CL1 1200   3.131   1.824   3.281
  241_J0B   CL2 1201   2.485   3.693   0.774
  241_J0B    C1 1202   2.651   3.732   0.829
  241_J0B    H1 1203   2.641   3.788   0.922
  241_J0B    CL 1204   2.744   3.583   0.863
  241_J0B   CL1 1205   2.735   3.834   0.708
  242_J0B   CL2 1206   2.414   0.679   3.065
  242_J0B    C1 1207   2.573   0.617   3.118
  242_J0B    H1 1208   2.622   0.572   3.031
  242_J0B    CL 1209   2.676   0.749   3.178
  242_J0B   CL1 1210   2.555   0.489   3.241
  243_J0B   CL2 1211   0.132   1.398   1.893
  243_J0B    C1 1212   0.111   1.223   1.922
  243_J0B    H1 1213   0.207   1.185   1.959
  243_J0B    CL 1214   4.989   1.194   2.049
  243_J0B   CL1 1215   0.071   1.134   1.771
  244_J0B   CL2 1216   4.786   2.992   1.511
  244_J0B    C1 1217   4.697   2.943   1.658
  244_J0B    H1 1218   4.770   2.910   1.732
  244_J0B    CL 1219   4.608   3.081   1.729
  244_J0B   CL1 1220   4.587   2.806   1.624
  245_J0B   CL2 1221   4.377   2.344   3.198
  245_J0B    C1 1222   4.537   2.400   3.141
  245_J0B    H1 1223   4.570   2.334   3.061
  245_J0B    CL 1224   4.529   2.567   3.077
  245_J0B   CL1 1225   4.658   2.388   3.273
  246_J0B   CL2 1226   3.032   2.057   0.703
  246_J0B    C1 1227   3.172   2.118   0.612
  246_J0B    H1 1228   3.164   2.084   0.509
  246_J0B    CL 1229   3.172   2.297   0.612
  246_J0B   CL1 1230   3.325   2.052   0.678
  247_J0B   CL2 1231   2.070   3.348   2.580
  247_J0B    C1 1232   2.146   3.346   2.418
  247_J0B    H1 1233   2.147   3.448   2.379
  247_J0B    CL 1234   2.316   3.290   2.427
  247_J0B   CL1 1235   2.051   3.246   2.304
  248_J0B   CL2 1236   1.342   1.328   0.039
  248_J0B    C1 1237   1.505   1.304   4.971
  248_J0B    H1 1238   1.571   1.380   0.015
  248_J0B    CL 1239   1.571   1.144   0.016
  248_J0B   CL1 1240   1.507   1.329   4.795
  249_J0B   CL2 1241   0.763   0.846   3.298
  249_J0B    C1 1242   0.908   0.949   3.317
  249_J0B    H1 1243   0.876   1.048   3.353
  249_J0B    CL 1244   1.020   0.880   3.438
  249_J0B   CL1 1245   0.990   0.972   3.160
  250_J0B   CL2 1246   0.201   0.392   4.105
  250_J0B    C1 1247   0.336   0.400   3.988
  250_J0B    H1 1248   0.296   0.377   3.889
  250_J0B    CL 1249   0.405   0.565   3.981
  250_J0B   CL1 1250   0.461   0.278   4.027
  251_J0B   CL2 1251   2.199   1.478   0.561
  251_J0B    C1 1252   2.200   1.631   0.467
  251_J0B    H1 1253   2.163   1.609   0.367
  251_J0B    CL 1254   2.092   1.753   0.542
  251_J0B   CL1 1255   2.366   1.694   0.452
  252_J0B   CL2 1256   2.169   4.776   4.394
  252_J0B    C1 1257   2.148   4.748   4.218
  252_J0B    H1 1258   2.141   4.640   4.201
  252_J0B    CL 1259   1.994   4.820   4.162
  252_J0B   CL1 1260   2.286   4.812   4.125
  253_J0B   CL2 1261   0.882   1.187   2.599
  253_J0B    C1 1262   0.749   1.084   2.539
  253_J0B    H1 1263   0.661   1.102   2.601
  253_J0B    CL 1264   0.707   1.125   2.370
  253_J0B   CL1 1265   0.791   0.910   2.552
  254_J0B   CL2 1266   3.390   4.593   2.812
  254_J0B    C1 1267   3.399   4.450   2.920
  254_J0B    H1 1268   3.478   4.385   2.882
  254_J0B    CL 1269   3.442   4.500   3.086
  254_J0B   CL1 1270   3.245   4.359   2.918
  255_J0B   CL2 1271   2.366   0.052   2.438
  255_J0B    C1 1272   2.411   0.090   2.607
  255_J0B    H1 1273   2.470   0.006   2.644
  255_J0B    CL 1274   2.510   0.240   2.613
  255_J0B   CL1 1275   2.266   0.106   2.710
  256_J0B   CL2 1276   2.242   3.241   3.334
  256_J0B    C1 1277   2.182   3.387   3.420
  256_J0B    H1 1278   2.074   3.377   3.427
  256_J0B    CL 1279   2.247   3.394   3.587
  256_J0B   CL1 1280   2.220   3.537   3.329
  257_J0B   CL2 1281   0.134   0.527   4.494
  257_J0B    C1 1282   4.988   0.425   4.505
  257_J0B    H1 1283   0.004   0.339   4.440
  257_J0B    CL 1284   4.962   0.366   4.672
  257_J0B   CL1 1285   4.844   0.512   4.446
  258_J0B   CL2 1286   4.153   2.883   4.839
  258_J0B    C1 1287   4.013   2.791   4.900
  258_J0B    H1 1288   3.975   2.731   4.817
  258_J0B    CL 1289   4.060   2.680   0.032
  258_J0B   CL1 1290   3.882   2.901   4.953
  259_J0B   CL2 1291   3.322   1.362   2.255
  259_J0B    C1 1292   3.280   1.324   2.424
  259_J0B    H1 1293   3.176   1.355   2.442
  259_J0B    CL 1294   3.292   1.148   2.453
  259_J0B   CL1 1295   3.384   1.414   2.538
  260_J0B   CL2 1296   3.948   4.700   0.872
  260_J0B    C1 1297   4.021   4.752   0.717
  260_J0B    H1 1298   4.067   4.849   0.733
  260_J0B    CL 1299   4.148   4.638   0.664
  260_J0B   CL1 1300   3.896   4.771   0.592
  261_J0B   CL2 1301   0.923   2.944   4.487
  261_J0B    C1 1302   0.861   2.846   4.623
  261_J0B    H1 1303   0.937   2.847   4.702
  261_J0B    CL 1304   0.712   2.919   4.688
  261_J0B   CL1 1305   0.835   2.675   4.574
  262_J0B   CL2 1306   2.545   3.877   4.119
  262_J0B    C1 1307   2.589   3.926   4.285
  262_J0B    H1 1308   2.690   3.968   4.284
  262_J0B    CL 1309   2.478   4.054   4.342
  262_J0B   CL1 1310   2.590   3.785   4.396
  263_J0B   CL2 1311   0.967   1.064   4.388
  263_J0B    C1 1312   0.848   0.931   4.395
  263_J0B    H1 1313   0.782   0.939   4.309
  263_J0B    CL 1314   0.928   0.771   4.387
  263_J0B   CL1 1315   0.748   0.943   4.542
  264_J0B   CL2 1316   1.483   1.951   3.641
  264_J0B    C1 1317   1.383   1.891   3.505
  264_J0B    H1 1318   1.443   1.820   3.447
  264_J0B    CL 1319   1.241   1.803   3.567
  264_J0B   CL1 1320   1.331   2.025   3.398
  265_J0B   CL2 1321   4.829   4.329   3.365
  265_J0B    C1 1322   4.669   4.397   3.408
  265_J0B    H1 1323   4.674   4.425   3.514
  265_J0B    CL 1324   4.631   4.545   3.314
  265_J0B   CL1 1325   4.540   4.273   3.392
  266_J0B   CL2 1326   4.402   3.637   2.810
  266_J0B    C1 1327   4.554   3.730   2.823
  266_J0B    H1 1328   4.635   3.666   2.786
  266_J0B    CL 1329   4.546   3.876   2.720
  266_J0B   CL1 1330   4.590   3.772   2.993
  267_J0B   CL2 1331   3.469   4.201   3.802
  267_J0B    C1 1332   3.645   4.170   3.795
  267_J0B    H1 1333   3.692   4.240   3.724
  267_J0B    CL 1334   3.719   4.195   3.956
  267_J0B   CL1 1335   3.679   4.005   3.734
  268_J0B   CL2 1336   0.836   0.551   0.552
  268_J0B    C1 1337   1.001   0.593   0.497
  268_J0B    H1 1338   1.050   0.650   0.577
  268_J0B    CL 1339   1.098   0.446   0.469
  268_J0B   CL1 1340   0.997   0.695   0.351
  269_J0B   CL2 1341   2.038   2.607   1.180
  269_J0B    C1 1342   2.147   2.582   1.320
  269_J0B    H1 1343   2.155   2.678   1.371
  269_J0B    CL 1344   2.077   2.466   1.436
  269_J0B   CL1 1345   2.311   2.533   1.270
  270_J0B   CL2 1346   3.472   2.518   3.951
  270_J0B    C1 1347   3.501   2.529   4.127
  270_J0B    H1 1348   3.608   2.545   4.144
  270_J0B    CL 1349   3.412   2.666   4.198
  270_J0B   CL1 1350   3.453   2.377   4.209
  271_J0B   CL2 1351   3.835   0.556   4.547
  271_J0B    C1 1352   3.928   0.622   4.410
  271_J0B    H1 1353   3.922   0.551   4.327
  271_J0B    CL 1354   3.857   0.776   4.355
  271_J0B   CL1 1355   4.100   0.643   4.453
  272_J0B   CL2 1356   1.951   0.656   4.081
  272_J0B    C1 1357   2.012   0.532   3.967
  272_J0B    H1 1358   2.047   0.448   4.026
  272_J0B    CL 1359   1.884   0.476   3.855
  272_J0B   CL1 1360   2.152   0.594   3.874
  273_J0B   CL2 1361   2.064   4.037   3.878
  273_J0B    C1 1362   2.132   4.183   3.957
  273_J0B    H1 1363   2.151   4.258   3.880
  273_J0B    CL 1364   2.014   4.253   4.072
  273_J0B   CL1 1365   2.288   4.146   4.037
  274_J0B   CL2 1366   0.180   0.147   4.521
  274_J0B    C1 1367   0.211   0.008   4.412
  274_J0B    H1 1368   0.285   4.943   4.460
  274_J0B    CL 1369   0.062   4.913   4.386
  274_J0B   CL1 1370   0.281   0.066   4.258
  275_J0B   CL2 1371   4.838   4.195   1.314
  275_J0B    C1 1372   4.823   4.197   1.493
  275_J0B    H1 1373   4.720   4.172   1.520
  275_J0B    CL 1374   4.928   4.073   1.566
  275_J0B   CL1 1375   4.859   4.359   1.561
  276_J0B   CL2 1376   2.052   4.988   3.867
  276_J0B    C1 1377   2.127   0.115   3.969
  276_J0B    H1 1378   2.217   0.074   4.013
  276_J0B    CL 1379   2.173   0.257   3.871
  276_J0B   CL1 1380   2.018   0.165   4.102
  277_J0B   CL2 1381   2.810   0.743   2.753
  277_J0B    C1 1382   2.638   0.750   2.705
  277_J0B    H1 1383   2.590   0.833   2.757
  277_J0B    CL 1384   2.622   0.783   2.530
  277_J0B   CL1 1385   2.553   0.599   2.749
  278_J0B   CL2 1386   0.186   1.934   2.123
  278_J0B    C1 1387   0.278   2.054   2.028
  278_J0B    H1 1388   0.363   2.004   1.981
  278_J0B    CL 1389   0.176   2.123   1.897
  278_J0B   CL1 1390   0.343   2.183   2.134
  279_J0B   CL2 1391   2.445   2.507   2.133
  279_J0B    C1 1392   2.382   2.503   2.301
  279_J0B    H1 1393   2.408   2.597   2.347
  279_J0B    CL 1394   2.203   2.488   2.303
  279_J0B   CL1 1395   2.459   2.373   2.397
  280_J0B   CL2 1396   0.182   4.762   4.686
  280_J0B    C1 1397   0.216   4.912   4.777
  280_J0B    H1 1398   0.139   4.984   4.750
  280_J0B    CL 1399   0.206   4.883   4.953
  280_J0B   CL1 1400   0.376   4.979   4.732
  281_J0B   CL2 1401   4.060   0.335   4.996
  281_J0B    C1 1402   4.165   0.311   0.138
  281_J0B    H1 1403   4.143   0.391   0.210
  281_J0B    CL 1404   4.134   0.154   0.217
  281_J0B   CL1 1405   4.337   0.327   0.092
  282_J0B   CL2 1406   3.614   2.064   4.192
  282_J0B    C1 1407   3.763   1.967   4.172
  282_J0B    H1 1408   3.763   1.925   4.071
  282_J0B    CL 1409   3.907   2.072   4.188
  282_J0B   CL1 1410   3.765   1.832   4.290
  283_J0B   CL2 1411   3.672   4.383   3.321
  283_J0B    C1 1412   3.539   4.360   3.438
  283_J0B    H1 1413   3.447   4.395   3.391
  283_J0B    CL 1414   3.520   4.187   3.479
  283_J0B   CL1 1415   3.566   4.459   3.585
  284_J0B   CL2 1416   2.912   1.069   4.892
  284_J0B    C1 1417   3.002   1.153   4.763
  284_J0B    H1 1418   3.108   1.134   4.781
  284_J0B    CL 1419   2.959   1.090   4.602
  284_J0B   CL1 1420   2.976   1.330   4.771
  285_J0B   CL2 1421   0.795   0.202   4.654
  285_J0B    C1 1422   0.916   0.130   4.764
  285_J0B    H1 1423   0.955   0.209   4.828
  285_J0B    CL 1424   0.841   0.007   4.870
  285_J0B   CL1 1425   1.052   0.062   4.671
  286_J0B   CL2 1426   0.640   2.512   2.864
  286_J0B    C1 1427   0.640   2.682   2.921
  286_J0B    H1 1428   0.738   2.725   2.897
  286_J0B    CL 1429   0.518   2.779   2.834
  286_J0B   CL1 1430   0.617   2.693   3.098
  287_J0B   CL2 1431   2.264   3.629   2.586
  287_J0B    C1 1432   2.305   3.753   2.708
  287_J0B    H1 1433   2.409   3.784   2.690
  287_J0B    CL 1434   2.201   3.897   2.691
  287_J0B   CL1 1435   2.299   3.686   2.874
  288_J0B   CL2 1436   1.528   0.327   0.915
  288_J0B    C1 1437   1.602   0.464   1.003
  288_J0B    H1 1438   1.605   0.436   1.109
  288_J0B    CL 1439   1.769   0.495   0.948
  288_J0B   CL1 1440   1.502   0.612   0.988
  289_J0B   CL2 1441   0.985   1.722   3.185
  289_J0B    C1 1442   1.091   1.854   3.238
  289_J0B    H1 1443   1.175   1.810   3.293
  289_J0B    CL 1444   1.158   1.944   3.099
  289_J0B   CL1 1445   1.003   1.965   3.348
  290_J0B   CL2 1446   4.464   4.401   0.018
  290_J0B    C1 1447   4.427   4.308   0.166
  290_J0B    H1 1448   4.466   4.206   0.151
  290_J0B    CL 1449   4.509   4.379   0.308
  290_J0B   CL1 1450   4.250   4.296   0.189
  291_J0B   CL2 1451   3.775   4.557   3.039
  291_J0B    C1 1452   3.844   4.657   2.908
  291_J0B    H1 1453   3.909   4.732   2.954
  291_J0B    CL 1454   3.941   4.556   2.797
  291_J0B   CL1 1455   3.715   4.745   2.820
  292_J0B   CL2 1456   0.794   4.963   1.452
  292_J0B    C1 1457   0.721   4.807   1.407
  292_J0B    H1 1458   0.612   4.817   1.414
  292_J0B    CL 1459   0.761   4.764   1.238
  292_J0B   CL1 1460   0.767   4.676   1.520
  293_J0B   CL2 1461   1.194   4.916   2.933
  293_J0B    C1 1462   1.096   4.827   3.054
  293_J0B    H1 1463   1.141   4.845   3.152
  293_J0B    CL 1464   0.928   4.887   3.057
  293_J0B   CL1 1465   1.102   4.650   3.025
  294_J0B   CL2 1466   2.895   3.430   1.373
  294_J0B    C1 1467   2.935   3.309   1.498
  294_J0B    H1 1468   3.044   3.306   1.508
  294_J0B    CL 1469   2.866   3.355   1.656
  294_J0B   CL1 1470   2.881   3.145   1.449
  295_J0B   CL2 1471   0.452   2.238   3.224
  295_J0B    C1 1472   0.538   2.173   3.367
  295_J0B    H1 1473   0.585   2.257   3.420
  295_J0B    CL 1474   0.427   2.089   3.479
  295_J0B   CL1 1475   0.670   2.063   3.316
  296_J0B   CL2 1476   3.074   3.689   0.538
  296_J0B    C1 1477   3.042   3.672   0.363
  296_J0B    H1 1478   3.119   3.724   0.307
  296_J0B    CL 1479   3.044   3.501   0.312
  296_J0B   CL1 1480   2.885   3.748   0.321
  297_J0B   CL2 1481   4.957   3.481   3.439
  297_J0B    C1 1482   0.099   3.559   3.514
  297_J0B    H1 1483   0.173   3.481   3.536
  297_J0B    CL 1484   0.176   3.676   3.402
  297_J0B   CL1 1485   0.056   3.638   3.669
  298_J0B   CL2 1486   1.577   0.667   4.462
  298_J0B    C1 1487   1.413   0.651   4.533
  298_J0B    H1 1488   1.378   0.751   4.560
  298_J0B    CL 1489   1.299   0.583   4.413
  298_J0B   CL1 1490   1.417   0.552   4.682
  299_J0B   CL2 1491   1.479   3.169   0.306
  299_J0B    C1 1492   1.518   3.341   0.335
  299_J0B    H1 1493   1.474   3.370   0.430
  299_J0B    CL 1494   1.695   3.366   0.343
  299_J0B   CL1 1495   1.445   3.442   0.207
  300_J0B   CL2 1496   1.110   3.675   1.102
  300_J0B    C1 1497   1.228   3.542   1.082
  300_J0B    H1 1498   1.259   3.541   0.977
  300_J0B    CL 1499   1.374   3.571   1.181
  300_J0B   CL1 1500   1.156   3.382   1.119
  301_J0B   CL2 1501   1.270   4.338   1.586
  301_J0B    C1 1502   1.159   4.296   1.451
  301_J0B    H1 1503   1.092   4.381   1.436
  301_J0B    CL 1504   1.251   4.270   1.299
  301_J0B   CL1 1505   1.058   4.154   1.492
  302_J0B   CL2 1506   1.056   2.604   3.541
  302_J0B    C1 1507   0.967   2.759   3.545
  302_J0B    H1 1508   0.978   2.801   3.646
  302_J0B    CL 1509   1.038   2.876   3.429
  302_J0B   CL1 1510   0.793   2.735   3.513
  303_J0B   CL2 1511   4.929   4.629   4.919
  303_J0B    C1 1512   4.776   4.555   4.974
  303_J0B    H1 1513   4.730   4.506   4.888
  303_J0B    CL 1514   4.807   4.431   0.100
  303_J0B   CL1 1515   4.661   4.679   0.034
  304_J0B   CL2 1516   1.814   2.670   1.517
  304_J0B    C1 1517   1.870   2.655   1.686
  304_J0B    H1 1518   1.807   2.718   1.749
  304_J0B    CL 1519   1.853   2.487   1.745
  304_J0B   CL1 1520   2.039   2.712   1.702
  305_J0B   CL2 1521   4.297   3.103   0.440
  305_J0B    C1 1522   4.301   3.049   0.610
  305_J0B    H1 1523   4.242   2.958   0.616
  305_J0B    CL 1524   4.468   3.012   0.664
  305_J0B   CL1 1525   4.226   3.171   0.718
  306_J0B   CL2 1526   2.107   2.137   4.594
  306_J0B    C1 1527   2.062   2.255   4.721
  306_J0B    H1 1528   2.006   2.336   4.672
  306_J0B    CL 1529   1.954   2.179   4.842
  306_J0B   CL1 1530   2.207   2.327   4.796
  307_J0B   CL2 1531   2.919   3.985   3.222
  307_J0B    C1 1532   2.929   3.862   3.351
  307_J0B    H1 1533   2.987   3.777   3.314
  307_J0B    CL 1534   3.014   3.926   3.495
  307_J0B   CL1 1535   2.766   3.802   3.393
  308_J0B   CL2 1536   2.269   2.657   0.010
  308_J0B    C1 1537   2.322   2.765   4.879
  308_J0B    H1 1538   2.431   2.771   4.881
  308_J0B    CL 1539   2.272   2.700   4.720
  308_J0B   CL1 1540   2.258   2.931   4.903
  309_J0B   CL2 1541   4.982   3.974   1.891
  309_J0B    C1 1542   4.920   3.806   1.884
  309_J0B    H1 1543   0.004   3.739   1.904
  309_J0B    CL 1544   4.797   3.778   2.011
  309_J0B   CL1 1545   4.858   3.766   1.721
  310_J0B   CL2 1546   1.268   1.210   4.309
  310_J0B    C1 1547   1.265   1.340   4.433
  310_J0B    H1 1548   1.220   1.429   4.387
  310_J0B    CL 1549   1.164   1.297   4.574
  310_J0B   CL1 1550   1.431   1.385   4.482
  311_J0B   CL2 1551   3.986   2.730   0.877
  311_J0B    C1 1552   4.084   2.880   0.878
  311_J0B    H1 1553   4.052   2.940   0.793
  311_J0B    CL 1554   4.056   2.975   1.027
  311_J0B   CL1 1555   4.258   2.842   0.858
  312_J0B   CL2 1556   4.975   4.343   0.976
  312_J0B    C1 1557   4.834   4.291   0.879
  312_J0B    H1 1558   4.814   4.367   0.804
  312_J0B    CL 1559   4.869   4.139   0.790
  312_J0B   CL1 1560   4.688   4.272   0.981
  313_J0B   CL2 1561   4.147   4.995   3.389
  313_J0B    C1 1562   4.089   0.163   3.405
  313_J0B    H1 1563   4.157   0.228   3.348
  313_J0B    CL 1564   3.925   0.181   3.336
  313_J0B   CL1 1565   4.093   0.216   3.576
  314_J0B   CL2 1566   2.078   1.143   4.956
  314_J0B    C1 1567   2.222   1.243   4.921
  314_J0B    H1 1568   2.270   1.268   0.016
  314_J0B    CL 1569   2.341   1.154   4.822
  314_J0B   CL1 1570   2.177   1.398   4.843
  315_J0B   CL2 1571   0.428   2.554   3.360
  315_J0B    C1 1572   0.304   2.467   3.454
  315_J0B    H1 1573   0.269   2.383   3.394
  315_J0B    CL 1574   0.375   2.402   3.605
  315_J0B   CL1 1575   0.164   2.573   3.488
  316_J0B   CL2 1576   2.769   0.980   2.279
  316_J0B    C1 1577   2.615   1.037   2.207
  316_J0B    H1 1578   2.588   1.131   2.256
  316_J0B    CL 1579   2.635   1.068   2.032
  316_J0B   CL1 1580   2.483   0.919   2.235
  317_J0B   CL2 1581   3.342   4.882   4.485
  317_J0B    C1 1582   3.270   0.045   4.502
  317_J0B    H1 1583   3.228   0.052   4.603
  317_J0B    CL 1584   3.396   0.172   4.487
  317_J0B   CL1 1585   3.138   0.071   4.384
  318_J0B   CL2 1586   4.833   2.405   2.969
  318_J0B    C1 1587   4.953   2.496   3.066
  318_J0B    H1 1588   0.036   2.519   3.000
  318_J0B    CL 1589   4.884   2.650   3.125
  318_J0B   CL1 1590   0.016   2.397   3.201
  319_J0B   CL2 1591   1.937   2.892   1.971
  319_J0B    C1 1592   2.043   2.933   2.110
  319_J0B    H1 1593   2.056   3.041   2.110
  319_J0B    CL 1594   1.968   2.886   2.266
  319_J0B   CL1 1595   2.203   2.856   2.092
  320_J0B   CL2 1596   1.218   0.110   3.667
  320_J0B    C1 1597   1.177   0.117   3.493
  320_J0B    H1 1598   1.099   0.194   3.480
  320_J0B    CL 1599   1.319   0.168   3.398
  320_J0B   CL1 1600   1.111   4.961   3.435
  321_J0B   CL2 1601   4.533   2.438   0.693
  321_J0B    C1 1602   4.575   2.265   0.687
  321_J0B    H1 1603   4.555   2.228   0.586
  321_J0B    CL 1604   4.749   2.241   0.722
  321_J0B   CL1 1605   4.472   2.170   0.800
  322_J0B   CL2 1606   4.247   4.852   0.418
  322_J0B    C1 1607   4.348   4.714   0.366
  322_J0B    H1 1608   4.321   4.628   0.427
  322_J0B    CL 1609   4.315   4.673   0.195
  322_J0B   CL1 1610   4.522   4.747   0.392
  323_J0B   CL2 1611   0.806   0.017   2.296
  323_J0B    C1 1612   0.955   4.965   2.211
  323_J0B    H1 1613   0.934   4.871   2.159
  323_J0B    CL 1614   1.004   0.086   2.089
  323_J0B   CL1 1615   1.087   4.934   2.328
  324_J0B   CL2 1616   2.581   1.672   3.159
  324_J0B    C1 1617   2.513   1.671   3.325
  324_J0B    H1 1618   2.593   1.696   3.395
  324_J0B    CL 1619   2.385   1.795   3.343
  324_J0B   CL1 1620   2.452   1.508   3.370
  325_J0B   CL2 1621   1.681   3.032   2.391
  325_J0B    C1 1622   1.609   2.883   2.325
  325_J0B    H1 1623   1.501   2.889   2.337
  325_J0B    CL 1624   1.643   2.866   2.150
  325_J0B   CL1 1625   1.666   2.740   2.416
  326_J0B   CL2 1626   2.933   2.070   1.022
  326_J0B    C1 1627   3.090   2.156   1.036
  326_J0B    H1 1628   3.166   2.096   0.984
  326_J0B    CL 1629   3.084   2.316   0.956
  326_J0B   CL1 1630   3.140   2.172   1.207
  327_J0B   CL2 1631   2.674   0.381   1.649
  327_J0B    C1 1632   2.547   0.458   1.550
  327_J0B    H1 1633   2.552   0.566   1.567
  327_J0B    CL 1634   2.574   0.427   1.376
  327_J0B   CL1 1635   2.385   0.401   1.601
  328_J0B   CL2 1636   4.223   3.836   1.111
  328_J0B    C1 1637   4.231   3.760   0.949
  328_J0B    H1 1638   4.146   3.797   0.891
  328_J0B    CL 1639   4.381   3.805   0.864
  328_J0B   CL1 1640   4.216   3.582   0.961
  329_J0B   CL2 1641   1.396   2.720   4.014
  329_J0B    C1 1642   1.522   2.827   4.084
  329_J0B    H1 1643   1.558   2.776   4.174
  329_J0B    CL 1644   1.660   2.845   3.973
  329_J0B   CL1 1645   1.455   2.986   4.130
  330_J0B   CL2 1646   3.223   1.137   1.211
  330_J0B    C1 1647   3.225   1.053   1.053
  330_J0B    H1 1648   3.122   1.051   1.015
  330_J0B    CL 1649   3.323   1.142   0.933
  330_J0B   CL1 1650   3.277   0.882   1.069
  331_J0B   CL2 1651   2.616   2.661   4.669
  331_J0B    C1 1652   2.667   2.830   4.642
  331_J0B    H1 1653   2.751   2.850   4.709
  331_J0B    CL 1654   2.724   2.857   4.475
  331_J0B   CL1 1655   2.536   2.944   4.687
  332_J0B   CL2 1656   2.060   1.859   1.705
  332_J0B    C1 1657   2.002   1.831   1.872
  332_J0B    H1 1658   2.052   1.901   1.939
  332_J0B    CL 1659   1.826   1.862   1.884
  332_J0B   CL1 1660   2.043   1.665   1.926
  333_J0B   CL2 1661   4.863   0.330   3.914
  333_J0B    C1 1662   4.984   0.350   3.785
  333_J0B    H1 1663   4.930   0.354   3.689
  333_J0B    CL 1664   0.072   0.504   3.805
  333_J0B   CL1 1665   0.097   0.211   3.780
  334_J0B   CL2 1666   1.273   1.768   0.632
  334_J0B    C1 1667   1.320   1.628   0.733
  334_J0B    H1 1668   1.278   1.644   0.832
  334_J0B    CL 1669   1.250   1.477   0.666
  334_J0B   CL1 1670   1.497   1.614   0.749
  335_J0B   CL2 1671   2.916   4.101   4.224
  335_J0B    C1 1672   2.925   3.972   4.100
  335_J0B    H1 1673   3.028   3.969   4.064
  335_J0B    CL 1674   2.889   3.812   4.170
  335_J0B   CL1 1675   2.820   4.006   3.960
  336_J0B   CL2 1676   4.552   2.971   2.229
  336_J0B    C1 1677   4.543   2.975   2.050
  336_J0B    H1 1678   4.615   3.049   2.015
  336_J0B    CL 1679   4.586   2.817   1.978
  336_J0B   CL1 1680   4.381   3.027   1.995
  337_J0B   CL2 1681   1.258   0.610   1.215
  337_J0B    C1 1682   1.226   0.434   1.224
  337_J0B    H1 1683   1.140   0.420   1.290
  337_J0B    CL 1684   1.182   0.370   1.063
  337_J0B   CL1 1685   1.366   0.345   1.291
  338_J0B   CL2 1686   4.817   3.295   0.723
  338_J0B    C1 1687   4.695   3.324   0.595
  338_J0B    H1 1688   4.723   3.416   0.542
  338_J0B    CL 1689   4.694   3.189   0.477
  338_J0B   CL1 1690   4.533   3.350   0.667
  339_J0B   CL2 1691   0.594   0.986   0.379
  339_J0B    C1 1692   0.632   1.067   0.533
  339_J0B    H1 1693   0.658   1.171   0.511
  339_J0B    CL 1694   0.490   1.070   0.641
  339_J0B   CL1 1695   0.772   0.991   0.614
  340_J0B   CL2 1696   2.924   0.840   0.944
  340_J0B    C1 1697   2.790   0.949   0.897
  340_J0B    H1 1698   2.835   1.047   0.879
  340_J0B    CL 1699   2.711   0.896   0.745
  340_J0B   CL1 1700   2.671   0.971   1.029
  341_J0B   CL2 1701   0.837   3.070   4.981
  341_J0B    C1 1702   0.781   3.178   0.112
  341_J0B    H1 1703   0.673   3.164   0.123
  341_J0B    CL 1704   0.854   3.134   0.270
  341_J0B   CL1 1705   0.808   3.350   0.071
  342_J0B   CL2 1706   2.112   4.002   2.355
  342_J0B    C1 1707   1.937   3.963   2.362
  342_J0B    H1 1708   1.883   4.054   2.389
  342_J0B    CL 1709   1.878   3.908   2.202
  342_J0B   CL1 1710   1.904   3.840   2.487
  343_J0B   CL2 1711   1.601   0.618   4.072
  343_J0B    C1 1712   1.584   0.441   4.095
  343_J0B    H1 1713   1.516   0.425   4.178
  343_J0B    CL 1714   1.513   0.364   3.950
  343_J0B   CL1 1715   1.740   0.366   4.137
  344_J0B   CL2 1716   4.683   3.935   1.012
  344_J0B    C1 1717   4.653   3.891   1.183
  344_J0B    H1 1718   4.603   3.976   1.231
  344_J0B    CL 1719   4.541   3.752   1.193
  344_J0B   CL1 1720   4.805   3.859   1.271
  345_J0B   CL2 1721   2.665   3.563   4.031
  345_J0B    C1 1722   2.641   3.500   3.866
  345_J0B    H1 1723   2.626   3.585   3.799
  345_J0B    CL 1724   2.786   3.412   3.809
  345_J0B   CL1 1725   2.495   3.396   3.857
  346_J0B   CL2 1726   4.110   0.055   1.583
  346_J0B    C1 1727   4.006   0.131   1.459
  346_J0B    H1 1728   3.930   0.057   1.428
  346_J0B    CL 1729   3.919   0.273   1.523
  346_J0B   CL1 1730   4.101   0.175   1.314
  347_J0B   CL2 1731   0.776   3.979   2.641
  347_J0B    C1 1732   0.943   4.002   2.699
  347_J0B    H1 1733   1.004   3.923   2.656
  347_J0B    CL 1734   1.010   4.158   2.644
  347_J0B   CL1 1735   0.950   3.989   2.877
  348_J0B   CL2 1736   1.118   3.161   2.952
  348_J0B    C1 1737   1.106   3.269   3.094
  348_J0B    H1 1738   1.199   3.328   3.097
  348_J0B    CL 1739   0.969   3.383   3.079
  348_J0B   CL1 1740   1.094   3.174   3.244
  349_J0B   CL2 1741   2.675   1.936   4.069
  349_J0B    C1 1742   2.806   1.995   3.964
  349_J0B    H1 1743   2.838   1.913   3.898
  349_J0B    CL 1744   2.750   2.129   3.860
  349_J0B   CL1 1745   2.948   2.045   4.060
  350_J0B   CL2 1746   2.429   3.509   1.735
  350_J0B    C1 1747   2.568   3.487   1.845
  350_J0B    H1 1748   2.612   3.389   1.824
  350_J0B    CL 1749   2.695   3.610   1.817
  350_J0B   CL1 1750   2.516   3.486   2.017
  351_J0B   CL2 1751   4.582   0.308   0.325
  351_J0B    C1 1752   4.479   0.289   0.471
  351_J0B    H1 1753   4.528   0.341   0.554
  351_J0B    CL 1754   4.318   0.362   0.447
  351_J0B   CL1 1755   4.466   0.116   0.515
  352_J0B   CL2 1756   4.030   3.040   1.991
  352_J0B    C1 1757   3.936   2.956   2.117
  352_J0B    H1 1758   3.859   2.896   2.067
  352_J0B    CL 1759   4.040   2.846   2.212
  352_J0B   CL1 1760   3.855   3.073   2.224
  353_J0B   CL2 1761   1.588   3.480   2.716
  353_J0B    C1 1762   1.545   3.488   2.542
  353_J0B    H1 1763   1.445   3.533   2.534
  353_J0B    CL 1764   1.660   3.592   2.454
  353_J0B   CL1 1765   1.536   3.325   2.470
  354_J0B   CL2 1766   2.563   1.221   3.718
  354_J0B    C1 1767   2.670   1.314   3.826
  354_J0B    H1 1768   2.608   1.356   3.907
  354_J0B    CL 1769   2.791   1.206   3.901
  354_J0B   CL1 1770   2.747   1.450   3.740
  355_J0B   CL2 1771   0.058   1.770   0.020
  355_J0B    C1 1772   0.069   1.793   0.198
  355_J0B    H1 1773   0.101   1.698   0.242
  355_J0B    CL 1774   0.190   1.918   0.239
  355_J0B   CL1 1775   4.909   1.833   0.267
  356_J0B   CL2 1776   2.071   1.905   3.828
  356_J0B    C1 1777   2.218   1.806   3.813
  356_J0B    H1 1778   2.288   1.857   3.746
  356_J0B    CL 1779   2.296   1.785   3.972
  356_J0B   CL1 1780   2.180   1.648   3.739
  357_J0B   CL2 1781   3.114   2.525   0.062
  357_J0B    C1 1782   3.195   2.452   4.921
  357_J0B    H1 1783   3.129   2.464   4.835
  357_J0B    CL 1784   3.349   2.536   4.884
  357_J0B   CL1 1785   3.221   2.276   4.945
  358_J0B   CL2 1786   3.634   4.595   2.303
  358_J0B    C1 1787   3.701   4.632   2.465
  358_J0B    H1 1788   3.665   4.731   2.495
  358_J0B    CL 1789   3.641   4.513   2.585
  358_J0B   CL1 1790   3.880   4.639   2.465
  359_J0B   CL2 1791   4.938   3.720   0.920
  359_J0B    C1 1792   4.812   3.616   0.993
  359_J0B    H1 1793   4.778   3.664   1.085
  359_J0B    CL 1794   4.671   3.599   0.883
  359_J0B   CL1 1795   4.879   3.456   1.037
  360_J0B   CL2 1796   4.145   3.086   1.366
  360_J0B    C1 1797   4.111   3.029   1.532
  360_J0B    H1 1798   4.059   2.933   1.524
  360_J0B    CL 1799   4.261   3.005   1.626
  360_J0B   CL1 1800   3.999   3.141   1.614
  361_J0B   CL2 1801   4.016   2.765   2.681
  361_J0B    C1 1802   3.911   2.662   2.781
  361_J0B    H1 1803   3.942   2.674   2.886
  361_J0B    CL 1804   3.740   2.713   2.769
  361_J0B   CL1 1805   3.932   2.489   2.737
  362_J0B   CL2 1806   2.414   0.333   2.956
  362_J0B    C1 1807   2.507   0.180   2.969
  362_J0B    H1 1808   2.544   0.156   2.868
  362_J0B    CL 1809   2.648   0.200   3.077
  362_J0B   CL1 1810   2.401   0.045   3.022
  363_J0B   CL2 1811   0.667   2.996   0.536
  363_J0B    C1 1812   0.543   2.943   0.418
  363_J0B    H1 1813   0.496   3.033   0.377
  363_J0B    CL 1814   0.619   2.854   0.281
  363_J0B   CL1 1815   0.415   2.845   0.497
  364_J0B   CL2 1816   2.903   1.944   0.176
  364_J0B    C1 1817   2.889   1.798   0.278
  364_J0B    H1 1818   2.788   1.757   0.264
  364_J0B    CL 1819   3.008   1.675   0.227
  364_J0B   CL1 1820   2.912   1.840   0.450
  365_J0B   CL2 1821   0.485   0.536   3.352
  365_J0B    C1 1822   0.437   0.413   3.473
  365_J0B    H1 1823   0.529   0.363   3.506
  365_J0B    CL 1824   0.362   0.488   3.616
  365_J0B   CL1 1825   0.330   0.289   3.401
  366_J0B   CL2 1826   2.916   4.826   0.056
  366_J0B    C1 1827   2.926   4.778   0.229
  366_J0B    H1 1828   3.026   4.739   0.247
  366_J0B    CL 1829   2.902   4.919   0.336
  366_J0B   CL1 1830   2.809   4.648   0.267
  367_J0B   CL2 1831   4.908   3.136   2.876
  367_J0B    C1 1832   0.027   3.139   3.009
  367_J0B    H1 1833   0.121   3.175   2.967
  367_J0B    CL 1834   4.978   3.255   3.137
  367_J0B   CL1 1835   0.055   2.976   3.077
  368_J0B   CL2 1836   1.023   3.103   0.581
  368_J0B    C1 1837   1.178   3.120   0.493
  368_J0B    H1 1838   1.168   3.205   0.425
  368_J0B    CL 1839   1.312   3.155   0.606
  368_J0B   CL1 1840   1.212   2.975   0.393
  369_J0B   CL2 1841   0.746   3.124   2.022
  369_J0B    C1 1842   0.916   3.151   2.069
  369_J0B    H1 1843   0.978   3.096   1.998
  369_J0B    CL 1844   0.959   3.324   2.059
  369_J0B   CL1 1845   0.949   3.088   2.233
  370_J0B   CL2 1846   3.492   3.466   2.486
  370_J0B    C1 1847   3.515   3.362   2.342
  370_J0B    H1 1848   3.453   3.401   2.262
  370_J0B    CL 1849   3.685   3.368   2.287
  370_J0B   CL1 1850   3.465   3.194   2.375
  371_J0B   CL2 1851   3.676   1.792   2.875
  371_J0B    C1 1852   3.690   1.860   2.710
  371_J0B    H1 1853   3.795   1.884   2.693
  371_J0B    CL 1854   3.643   1.739   2.586
  371_J0B   CL1 1855   3.595   2.011   2.692
  372_J0B   CL2 1856   1.719   2.434   4.818
  372_J0B    C1 1857   1.655   2.322   4.694
  372_J0B    H1 1858   1.562   2.365   4.657
  372_J0B    CL 1859   1.766   2.309   4.555
  372_J0B   CL1 1860   1.619   2.161   4.762
  373_J0B   CL2 1861   3.509   0.934   4.464
  373_J0B    C1 1862   3.540   0.847   4.617
  373_J0B    H1 1863   3.464   0.876   4.690
  373_J0B    CL 1864   3.528   0.670   4.595
  373_J0B   CL1 1865   3.700   0.893   4.684
  374_J0B   CL2 1866   4.240   3.828   3.509
  374_J0B    C1 1867   4.317   3.899   3.654
  374_J0B    H1 1868   4.238   3.944   3.713
  374_J0B    CL 1869   4.395   3.772   3.753
  374_J0B   CL1 1870   4.435   4.027   3.612
  375_J0B   CL2 1871   4.886   1.977   2.546
  375_J0B    C1 1872   4.757   1.980   2.670
  375_J0B    H1 1873   4.752   1.880   2.713
  375_J0B    CL 1874   4.796   2.095   2.802
  375_J0B   CL1 1875   4.598   2.017   2.596
  376_J0B   CL2 1876   0.238   2.522   0.187
  376_J0B    C1 1877   0.393   2.558   0.268
  376_J0B    H1 1878   0.399   2.667   0.278
  376_J0B    CL 1879   0.397   2.488   0.433
  376_J0B   CL1 1880   0.535   2.505   0.172
  377_J0B   CL2 1881   4.689   2.895   2.566
  377_J0B    C1 1882   4.776   2.759   2.643
  377_J0B    H1 1883   4.861   2.733   2.578
  377_J0B    CL 1884   4.841   2.807   2.803
  377_J0B   CL1 1885   4.670   2.616   2.660
  378_J0B   CL2 1886   1.008   0.911   0.857
  378_J0B    C1 1887   1.120   0.975   0.981
  378_J0B    H1 1888   1.147   1.076   0.951
  378_J0B    CL 1889   1.040   0.986   1.140
  378_J0B   CL1 1890   1.269   0.877   0.989
  379_J0B   CL2 1891   0.549   1.137   3.320
  379_J0B    C1 1892   0.604   1.125   3.151
  379_J0B    H1 1893   0.630   1.021   3.130
  379_J0B    CL 1894   0.473   1.172   3.039
  379_J0B   CL1 1895   0.751   1.225   3.127
  380_J0B   CL2 1896   1.624   2.302   3.636
  380_J0B    C1 1897   1.450   2.316   3.677
  380_J0B    H1 1898   1.416   2.219   3.716
  380_J0B    CL 1899   1.422   2.437   3.805
  380_J0B   CL1 1900   1.354   2.354   3.531
  381_J0B   CL2 1901   3.664   4.235   3.019
  381_J0B    C1 1902   3.654   4.141   2.867
  381_J0B    H1 1903   3.701   4.043   2.885
  381_J0B    CL 1904   3.484   4.112   2.820
  381_J0B   CL1 1905   3.745   4.223   2.737
  382_J0B   CL2 1906   4.769   2.798   4.765
  382_J0B    C1 1907   4.669   2.932   4.704
  382_J0B    H1 1908   4.705   3.024   4.750
  382_J0B    CL 1909   4.684   2.949   4.526
  382_J0B   CL1 1910   4.498   2.912   4.753
  383_J0B   CL2 1911   1.911   1.391   3.563
  383_J0B    C1 1912   1.788   1.368   3.436
  383_J0B    H1 1913   1.694   1.410   3.474
  383_J0B    CL 1914   1.834   1.457   3.287
  383_J0B   CL1 1915   1.764   1.195   3.401
  384_J0B   CL2 1916   0.124   4.798   2.356
  384_J0B    C1 1917   4.984   4.853   2.454
  384_J0B    H1 1918   4.965   4.777   2.531
  384_J0B    CL 1919   0.021   0.005   2.538
  384_J0B   CL1 1920   4.836   4.870   2.354
  385_J0B   CL2 1921   3.155   4.556   0.931
  385_J0B    C1 1922   3.234   4.416   1.009
  385_J0B    H1 1923   3.308   4.454   1.079
  385_J0B    CL 1924   3.113   4.319   1.098
  385_J0B   CL1 1925   3.321   4.316   0.889
  386_J0B   CL2 1926   0.109   4.129   2.759
  386_J0B    C1 1927   0.026   4.078   2.909
  386_J0B    H1 1928   4.931   4.032   2.880
  386_J0B    CL 1929   0.121   3.953   2.996
  386_J0B   CL1 1930   4.991   4.217   3.014
  387_J0B   CL2 1931   3.172   3.027   2.272
  387_J0B    C1 1932   3.104   3.016   2.438
  387_J0B    H1 1933   3.064   2.915   2.450
  387_J0B    CL 1934   3.231   3.040   2.561
  387_J0B   CL1 1935   2.968   3.131   2.460
  388_J0B   CL2 1936   2.617   1.380   2.498
  388_J0B    C1 1937   2.491   1.278   2.573
  388_J0B    H1 1938   2.502   1.285   2.682
  388_J0B    CL 1939   2.328   1.336   2.530
  388_J0B   CL1 1940   2.511   1.106   2.529
  389_J0B   CL2 1941   0.292   3.444   0.151
  389_J0B    C1 1942   0.363   3.399   4.993
  389_J0B    H1 1943   0.441   3.472   4.968
  389_J0B    CL 1944   0.440   3.238   0.000
  389_J0B   CL1 1945   0.237   3.405   4.866
  390_J0B   CL2 1946   2.064   0.314   3.021
  390_J0B    C1 1947   2.151   0.286   3.174
  390_J0B    H1 1948   2.238   0.225   3.151
  390_J0B    CL 1949   2.209   0.440   3.244
  390_J0B   CL1 1950   2.049   0.195   3.290
  391_J0B   CL2 1951   2.616   3.461   1.191
  391_J0B    C1 1952   2.552   3.458   1.358
  391_J0B    H1 1953   2.594   3.371   1.409
  391_J0B    CL 1954   2.602   3.605   1.448
  391_J0B   CL1 1955   2.374   3.440   1.359
  392_J0B   CL2 1956   0.994   1.744   3.842
  392_J0B    C1 1957   1.080   1.855   3.952
  392_J0B    H1 1958   1.011   1.936   3.978
  392_J0B    CL 1959   1.127   1.772   4.104
  392_J0B   CL1 1960   1.222   1.930   3.875
  393_J0B   CL2 1961   4.320   1.461   4.493
  393_J0B    C1 1962   4.456   1.361   4.551
  393_J0B    H1 1963   4.414   1.274   4.601
  393_J0B    CL 1964   4.557   1.305   4.414
  393_J0B   CL1 1965   4.555   1.450   4.671
  394_J0B   CL2 1966   1.973   3.319   4.107
  394_J0B    C1 1967   1.861   3.179   4.112
  394_J0B    H1 1968   1.867   3.134   4.212
  394_J0B    CL 1969   1.692   3.230   4.086
  394_J0B   CL1 1970   1.912   3.055   3.995
  395_J0B   CL2 1971   0.966   2.718   1.090
  395_J0B    C1 1972   0.910   2.552   1.061
  395_J0B    H1 1973   0.809   2.543   1.101
  395_J0B    CL 1974   0.902   2.517   0.885
  395_J0B   CL1 1975   1.016   2.437   1.146
  396_J0B   CL2 1976   2.997   3.550   4.367
  396_J0B    C1 1977   2.941   3.446   4.233
  396_J0B    H1 1978   2.832   3.454   4.229
  396_J0B    CL 1979   3.008   3.500   4.077
  396_J0B   CL1 1980   2.982   3.274   4.263
  397_J0B   CL2 1981   4.939   0.191   4.218
  397_J0B    C1 1982   4.771   0.221   4.271
  397_J0B    H1 1983   4.752   0.329   4.262
  397_J0B    CL 1984   4.654   0.137   4.166
  397_J0B   CL1 1985   4.748   0.174   4.443
  398_J0B   CL2 1986   2.190   4.484   2.464
  398_J0B    C1 1987   2.081   4.557   2.585
  398_J0B    H1 1988   1.980   4.517   2.571
  398_J0B    CL 1989   2.131   4.514   2.751
  398_J0B   CL1 1990   2.073   4.735   2.564
  399_J0B   CL2 1991   3.560   2.868   2.252
  399_J0B    C1 1992   3.639   2.888   2.411
  399_J0B    H1 1993   3.673   2.991   2.420
  399_J0B    CL 1994   3.523   2.858   2.544
  399_J0B   CL1 1995   3.783   2.783   2.426
  400_J0B   CL2 1996   3.541   2.544   2.423
  400_J0B    C1 1997   3.648   2.462   2.541
  400_J0B    H1 1998   3.730   2.530   2.565
  400_J0B    CL 1999   3.562   2.424   2.693
  400_J0B   CL1 2000   3.720   2.314   2.472
  401_J0B   CL2 2001   0.202   0.619   1.556
  401_J0B    C1 2002   0.171   0.743   1.431
  401_J0B    H1 2003   0.267   0.778   1.392
  401_J0B    CL 2004   0.081   0.673   1.292
  401_J0B   CL1 2005   0.083   0.882   1.499
  402_J0B   CL2 2006   1.734   0.390   4.695
  402_J0B    C1 2007   1.753   0.338   4.525
  402_J0B    H1 2008   1.803   0.241   4.525
  402_J0B    CL 2009   1.593   0.317   4.447
  402_J0B   CL1 2010   1.855   0.453   4.435
  403_J0B   CL2 2011   2.414   4.332   3.421
  403_J0B    C1 2012   2.439   4.488   3.506
  403_J0B    H1 2013   2.546   4.508   3.504
  403_J0B    CL 2014   2.359   4.624   3.421
  403_J0B   CL1 2015   2.389   4.480   3.678
  404_J0B   CL2 2016   2.041   2.125   1.488
  404_J0B    C1 2017   1.869   2.120   1.440
  404_J0B    H1 2018   1.865   2.113   1.330
  404_J0B    CL 2019   1.789   1.973   1.505
  404_J0B   CL1 2020   1.784   2.269   1.489
  405_J0B   CL2 2021   4.936   2.233   1.130
  405_J0B    C1 2022   4.761   2.211   1.157
  405_J0B    H1 2023   4.737   2.107   1.134
  405_J0B    CL 2024   4.715   2.243   1.327
  405_J0B   CL1 2025   4.666   2.315   1.047
  406_J0B   CL2 2026   3.733   4.450   0.748
  406_J0B    C1 2027   3.890   4.390   0.689
  406_J0B    H1 2028   3.968   4.444   0.743
  406_J0B    CL 2029   3.910   4.215   0.723
  406_J0B   CL1 2030   3.909   4.423   0.514
  407_J0B   CL2 2031   4.640   1.726   2.028
  407_J0B    C1 2032   4.783   1.807   2.099
  407_J0B    H1 2033   4.747   1.867   2.183
  407_J0B    CL 2034   4.901   1.690   2.165
  407_J0B   CL1 2035   4.859   1.918   1.981
  408_J0B   CL2 2036   1.879   3.911   4.551
  408_J0B    C1 2037   1.981   4.019   4.650
  408_J0B    H1 2038   2.070   4.045   4.593
  408_J0B    CL 2039   1.894   4.170   4.692
  408_J0B   CL1 2040   2.036   3.935   4.798
  409_J0B   CL2 2041   2.636   3.785   3.067
  409_J0B    C1 2042   2.608   3.960   3.044
  409_J0B    H1 2043   2.698   4.003   2.999
  409_J0B    CL 2044   2.473   3.987   2.929
  409_J0B   CL1 2045   2.579   4.043   3.200
  410_J0B   CL2 2046   1.622   0.133   0.484
  410_J0B    C1 2047   1.656   0.308   0.501
  410_J0B    H1 2048   1.560   0.361   0.514
  410_J0B    CL 2049   1.755   0.337   0.647
  410_J0B   CL1 2050   1.736   0.374   0.356
  411_J0B   CL2 2051   2.018   0.120   0.638
  411_J0B    C1 2052   2.163   0.215   0.593
  411_J0B    H1 2053   2.144   0.264   0.497
  411_J0B    CL 2054   2.196   0.342   0.715
  411_J0B   CL1 2055   2.304   0.108   0.571
  412_J0B   CL2 2056   2.176   3.440   2.048
  412_J0B    C1 2057   2.227   3.290   1.966
  412_J0B    H1 2058   2.293   3.318   1.883
  412_J0B    CL 2059   2.319   3.184   2.077
  412_J0B   CL1 2060   2.085   3.206   1.896
  413_J0B   CL2 2061   0.575   4.356   3.673
  413_J0B    C1 2062   0.579   4.236   3.541
  413_J0B    H1 2063   0.567   4.136   3.585
  413_J0B    CL 2064   0.444   4.261   3.429
  413_J0B   CL1 2065   0.736   4.242   3.455
  414_J0B   CL2 2066   0.561   0.038   0.351
  414_J0B    C1 2067   0.577   0.126   0.196
  414_J0B    H1 2068   0.679   0.165   0.188
  414_J0B    CL 2069   0.549   0.015   0.058
  414_J0B   CL1 2070   0.465   0.266   0.190
  415_J0B   CL2 2071   2.012   4.954   3.060
  415_J0B    C1 2072   2.007   4.793   2.984
  415_J0B    H1 2073   2.000   4.809   2.875
  415_J0B    CL 2074   2.157   4.703   3.021
  415_J0B   CL1 2075   1.862   4.702   3.035
  416_J0B   CL2 2076   2.569   1.223   1.470
  416_J0B    C1 2077   2.617   1.396   1.470
  416_J0B    H1 2078   2.531   1.454   1.507
  416_J0B    CL 2079   2.752   1.425   1.583
  416_J0B   CL1 2080   2.655   1.452   1.305
  417_J0B   CL2 2081   3.879   1.435   2.623
  417_J0B    C1 2082   3.944   1.271   2.653
  417_J0B    H1 2083   3.905   1.204   2.575
  417_J0B    CL 2084   4.123   1.268   2.643
  417_J0B   CL1 2085   3.888   1.207   2.810
  418_J0B   CL2 2086   3.213   4.990   1.984
  418_J0B    C1 2087   3.066   0.091   1.994
  418_J0B    H1 2088   2.993   0.052   1.922
  418_J0B    CL 2089   2.992   0.083   2.157
  418_J0B   CL1 2090   3.103   0.260   1.948
  419_J0B   CL2 2091   3.313   1.099   3.593
  419_J0B    C1 2092   3.169   0.994   3.612
  419_J0B    H1 2093   3.094   1.025   3.539
  419_J0B    CL 2094   3.210   0.824   3.574
  419_J0B   CL1 2095   3.101   1.007   3.777
  420_J0B   CL2 2096   2.600   1.962   0.433
  420_J0B    C1 2097   2.574   1.913   0.603
  420_J0B    H1 2098   2.567   1.804   0.607
  420_J0B    CL 2099   2.711   1.962   0.706
  420_J0B   CL1 2100   2.419   1.979   0.666
  421_J0B   CL2 2101   3.905   0.622   3.069
  421_J0B    C1 2102   4.055   0.705   3.017
  421_J0B    H1 2103   4.033   0.812   3.005
  421_J0B    CL 2104   4.181   0.690   3.142
  421_J0B   CL1 2105   4.115   0.643   2.860
  422_J0B   CL2 2106   4.052   2.125   0.590
  422_J0B    C1 2107   4.097   2.295   0.560
  422_J0B    H1 2108   4.083   2.351   0.653
  422_J0B    CL 2109   4.269   2.306   0.512
  422_J0B   CL1 2110   3.989   2.368   0.437
  423_J0B   CL2 2111   4.025   1.473   0.786
  423_J0B    C1 2112   4.004   1.538   0.951
  423_J0B    H1 2113   3.897   1.551   0.969
  423_J0B    CL 2114   4.067   1.424   1.073
  423_J0B   CL1 2115   4.079   1.700   0.967
  424_J0B   CL2 2116   1.546   3.200   1.218
  424_J0B    C1 2117   1.629   3.145   1.367
  424_J0B    H1 2118   1.604   3.215   1.447
  424_J0B    CL 2119   1.577   2.981   1.415
  424_J0B   CL1 2120   1.807   3.151   1.350
  425_J0B   CL2 2121   4.489   4.681   0.721
  425_J0B    C1 2122   4.490   4.855   0.760
  425_J0B    H1 2123   4.553   4.906   0.687
  425_J0B    CL 2124   4.326   4.925   0.750
  425_J0B   CL1 2125   4.562   4.886   0.921
  426_J0B   CL2 2126   3.846   1.436   4.485
  426_J0B    C1 2127   3.691   1.472   4.404
  426_J0B    H1 2128   3.655   1.568   4.441
  426_J0B    CL 2129   3.712   1.489   4.228
  426_J0B   CL1 2130   3.567   1.348   4.441
  427_J0B   CL2 2131   4.722   3.974   4.561
  427_J0B    C1 2132   4.544   3.959   4.557
  427_J0B    H1 2133   4.503   4.037   4.622
  427_J0B    CL 2134   4.480   3.986   4.392
  427_J0B   CL1 2135   4.491   3.800   4.620
  428_J0B   CL2 2136   1.985   3.642   3.548
  428_J0B    C1 2137   1.923   3.612   3.713
  428_J0B    H1 2138   1.902   3.505   3.722
  428_J0B    CL 2139   2.045   3.655   3.837
  428_J0B   CL1 2140   1.770   3.700   3.739
  429_J0B   CL2 2141   2.538   4.915   3.553
  429_J0B    C1 2142   2.543   4.915   3.732
  429_J0B    H1 2143   2.625   4.978   3.766
  429_J0B    CL 2144   2.392   4.984   3.799
  429_J0B   CL1 2145   2.569   4.750   3.796
  430_J0B   CL2 2146   0.768   3.588   2.578
  430_J0B    C1 2147   0.848   3.554   2.734
  430_J0B    H1 2148   0.773   3.566   2.813
  430_J0B    CL 2149   0.910   3.386   2.741
  430_J0B   CL1 2150   0.980   3.671   2.764
  431_J0B   CL2 2151   2.668   0.142   4.952
  431_J0B    C1 2152   2.659   0.097   0.124
  431_J0B    H1 2153   2.760   0.105   0.166
  431_J0B    CL 2154   2.552   0.208   0.215
  431_J0B   CL1 2155   2.604   4.928   0.144
  432_J0B   CL2 2156   3.886   0.509   0.255
  432_J0B    C1 2157   3.756   0.387   0.240
  432_J0B    H1 2158   3.668   0.426   0.293
  432_J0B    CL 2159   3.711   0.362   0.069
  432_J0B   CL1 2160   3.803   0.233   0.318
  433_J0B   CL2 2161   3.885   4.259   4.728
  433_J0B    C1 2162   3.861   4.364   4.871
  433_J0B    H1 2163   3.755   4.366   4.893
  433_J0B    CL 2164   3.942   4.296   0.016
  433_J0B   CL1 2165   3.913   4.532   4.838
  434_J0B   CL2 2166   4.283   1.863   4.968
  434_J0B    C1 2167   4.104   1.851   4.981
  434_J0B    H1 2168   4.068   1.789   4.899
  434_J0B    CL 2169   4.057   1.772   0.134
  434_J0B   CL1 2170   4.028   2.012   4.964
  435_J0B   CL2 2171   0.057   0.179   0.693
  435_J0B    C1 2172   4.933   0.306   0.717
  435_J0B    H1 2173   4.907   0.306   0.824
  435_J0B    CL 2174   4.996   0.468   0.676
  435_J0B   CL1 2175   4.782   0.271   0.627
  436_J0B   CL2 2176   2.757   1.684   1.911
  436_J0B    C1 2177   2.675   1.744   2.059
  436_J0B    H1 2178   2.575   1.778   2.030
  436_J0B    CL 2179   2.655   1.615   2.182
  436_J0B   CL1 2180   2.760   1.886   2.127
  437_J0B   CL2 2181   4.237   3.209   3.533
  437_J0B    C1 2182   4.287   3.374   3.488
  437_J0B    H1 2183   4.392   3.372   3.459
  437_J0B    CL 2184   4.193   3.434   3.348
  437_J0B   CL1 2185   4.274   3.485   3.628
  438_J0B   CL2 2186   4.527   2.901   1.068
  438_J0B    C1 2187   4.411   2.984   1.175
  438_J0B    H1 2188   4.320   2.924   1.180
  438_J0B    CL 2189   4.476   2.999   1.341
  438_J0B   CL1 2190   4.366   3.144   1.107
  439_J0B   CL2 2191   4.660   3.605   1.487
  439_J0B    C1 2192   4.711   3.438   1.526
  439_J0B    H1 2193   4.799   3.416   1.465
  439_J0B    CL 2194   4.758   3.423   1.698
  439_J0B   CL1 2195   4.583   3.321   1.483
  440_J0B   CL2 2196   1.590   3.057   3.379
  440_J0B    C1 2197   1.468   3.178   3.429
  440_J0B    H1 2198   1.512   3.238   3.508
  440_J0B    CL 2199   1.426   3.286   3.293
  440_J0B   CL1 2200   1.322   3.098   3.495
  441_J0B   CL2 2201   4.799   2.319   2.547
  441_J0B    C1 2202   4.970   2.330   2.599
  441_J0B    H1 2203   4.986   2.254   2.675
  441_J0B    CL 2204   0.079   2.296   2.462
  441_J0B   CL1 2205   0.002   2.491   2.669
  442_J0B   CL2 2206   2.925   0.622   3.786
  442_J0B    C1 2207   3.057   0.535   3.870
  442_J0B    H1 2208   3.033   0.535   3.977
  442_J0B    CL 2209   3.069   0.365   3.819
  442_J0B   CL1 2210   3.213   0.621   3.852
  443_J0B   CL2 2211   2.707   0.887   3.834
  443_J0B    C1 2212   2.716   0.895   3.656
  443_J0B    H1 2213   2.765   0.804   3.621
  443_J0B    CL 2214   2.553   0.900   3.582
  443_J0B   CL1 2215   2.814   1.034   3.604
  444_J0B   CL2 2216   2.105   1.864   0.226
  444_J0B    C1 2217   1.963   1.964   0.185
  444_J0B    H1 2218   2.001   2.060   0.149
  444_J0B    CL 2219   1.868   1.893   0.052
  444_J0B   CL1 2220   1.862   1.993   0.330
  445_J0B   CL2 2221   2.785   3.160   0.365
  445_J0B    C1 2222   2.736   3.239   0.518
  445_J0B    H1 2223   2.643   3.294   0.500
  445_J0B    CL 2224   2.707   3.115   0.643
  445_J0B   CL1 2225   2.857   3.360   0.573
  446_J0B   CL2 2226   4.587   1.641   1.343
  446_J0B    C1 2227   4.412   1.674   1.325
  446_J0B    H1 2228   4.390   1.756   1.393
  446_J0B    CL 2229   4.372   1.725   1.159
  446_J0B   CL1 2230   4.311   1.535   1.374
  447_J0B   CL2 2231   1.954   0.755   1.478
  447_J0B    C1 2232   2.052   0.853   1.365
  447_J0B    H1 2233   2.140   0.795   1.338
  447_J0B    CL 2234   1.962   0.887   1.213
  447_J0B   CL1 2235   2.107   1.004   1.442
  448_J0B   CL2 2236   1.132   2.768   4.894
  448_J0B    C1 2237   1.017   2.715   0.020
  448_J0B    H1 2238   1.054   2.622   0.063
  448_J0B    CL 2239   1.007   2.834   0.153
  448_J0B   CL1 2240   0.855   2.684   4.950
  449_J0B   CL2 2241   0.055   2.403   1.411
  449_J0B    C1 2242   4.927   2.518   1.363
  449_J0B    H1 2243   4.873   2.476   1.277
  449_J0B    CL 2244   4.810   2.542   1.497
  449_J0B   CL1 2245   4.996   2.674   1.313
  450_J0B   CL2 2246   2.873   2.207   0.439
  450_J0B    C1 2247   2.954   2.298   0.308
  450_J0B    H1 2248   2.975   2.400   0.343
  450_J0B    CL 2249   3.110   2.222   0.265
  450_J0B   CL1 2250   2.847   2.310   0.164
  451_J0B   CL2 2251   2.365   0.661   4.642
  451_J0B    C1 2252   2.394   0.791   4.762
  451_J0B    H1 2253   2.416   0.882   4.707
  451_J0B    CL 2254   2.247   0.820   4.860
  451_J0B   CL1 2255   2.534   0.752   4.866
  452_J0B   CL2 2256   3.656   0.250   3.545
  452_J0B    C1 2257   3.756   0.397   3.527
  452_J0B    H1 2258   3.861   0.366   3.525
  452_J0B    CL 2259   3.720   0.480   3.372
  452_J0B   CL1 2260   3.736   0.507   3.667
  453_J0B   CL2 2261   3.271   1.277   1.532
  453_J0B    C1 2262   3.377   1.421   1.520
  453_J0B    H1 2263   3.472   1.397   1.567
  453_J0B    CL 2264   3.408   1.464   1.350
  453_J0B   CL1 2265   3.309   1.561   1.609
  454_J0B   CL2 2266   1.219   2.115   2.317
  454_J0B    C1 2267   1.124   2.036   2.189
  454_J0B    H1 2268   1.080   2.115   2.128
  454_J0B    CL 2269   1.228   1.935   2.083
  454_J0B   CL1 2270   0.990   1.940   2.257
  455_J0B   CL2 2271   3.636   3.594   0.283
  455_J0B    C1 2272   3.457   3.596   0.295
  455_J0B    H1 2273   3.419   3.658   0.213
  455_J0B    CL 2274   3.390   3.431   0.276
  455_J0B   CL1 2275   3.405   3.670   0.449
  456_J0B   CL2 2276   0.814   4.137   2.020
  456_J0B    C1 2277   0.972   4.063   1.977
  456_J0B    H1 2278   1.034   4.064   2.067
  456_J0B    CL 2279   0.953   3.893   1.926
  456_J0B   CL1 2280   1.056   4.161   1.852
  457_J0B   CL2 2281   2.980   4.169   4.800
  457_J0B    C1 2282   3.134   4.162   4.710
  457_J0B    H1 2283   3.179   4.065   4.734
  457_J0B    CL 2284   3.106   4.167   4.533
  457_J0B   CL1 2285   3.246   4.291   4.763
  458_J0B   CL2 2286   0.745   2.137   2.779
  458_J0B    C1 2287   0.868   2.033   2.858
  458_J0B    H1 2288   0.947   2.099   2.894
  458_J0B    CL 2289   0.799   1.948   3.000
  458_J0B   CL1 2290   0.941   1.919   2.742
  459_J0B   CL2 2291   0.464   2.247   4.291
  459_J0B    C1 2292   0.416   2.396   4.377
  459_J0B    H1 2293   0.404   2.476   4.304
  459_J0B    CL 2294   0.260   2.373   4.462
  459_J0B   CL1 2295   0.544   2.447   4.492
  460_J0B   CL2 2296   1.379   1.901   1.256
  460_J0B    C1 2297   1.373   1.985   1.414
  460_J0B    H1 2298   1.272   2.023   1.427
  460_J0B    CL 2299   1.408   1.871   1.547
  460_J0B   CL1 2300   1.486   2.123   1.418
  461_J0B   CL2 2301   1.751   4.344   2.573
  461_J0B    C1 2302   1.854   4.236   2.670
  461_J0B    H1 2303   1.866   4.280   2.769
  461_J0B    CL 2304   1.773   4.078   2.688
  461_J0B   CL1 2305   2.016   4.217   2.597
  462_J0B   CL2 2306   4.458   0.972   0.574
  462_J0B    C1 2307   4.601   1.079   0.582
  462_J0B    H1 2308   4.565   1.181   0.602
  462_J0B    CL 2309   4.711   1.031   0.715
  462_J0B   CL1 2310   4.688   1.083   0.427
  463_J0B   CL2 2311   0.481   0.879   1.537
  463_J0B    C1 2312   0.474   1.015   1.421
  463_J0B    H1 2313   0.566   1.074   1.434
  463_J0B    CL 2314   0.469   0.957   1.252
  463_J0B   CL1 2315   0.335   1.121   1.456
  464_J0B   CL2 2316   2.138   1.195   3.379
  464_J0B    C1 2317   2.133   1.134   3.212
  464_J0B    H1 2318   2.225   1.077   3.194
  464_J0B    CL 2319   1.994   1.023   3.189
  464_J0B   CL1 2320   2.127   1.269   3.095
  465_J0B   CL2 2321   1.111   3.777   0.424
  465_J0B    C1 2322   1.261   3.860   0.377
  465_J0B    H1 2323   1.234   3.958   0.337
  465_J0B    CL 2324   1.368   3.890   0.518
  465_J0B   CL1 2325   1.346   3.768   0.249
  466_J0B   CL2 2326   3.887   1.025   4.121
  466_J0B    C1 2327   3.781   1.131   4.219
  466_J0B    H1 2328   3.806   1.234   4.195
  466_J0B    CL 2329   3.609   1.106   4.178
  466_J0B   CL1 2330   3.810   1.106   4.393
  467_J0B   CL2 2331   3.174   4.588   2.271
  467_J0B    C1 2332   3.125   4.760   2.262
  467_J0B    H1 2333   3.112   4.785   2.156
  467_J0B    CL 2334   2.967   4.786   2.342
  467_J0B   CL1 2335   3.250   4.869   2.329
  468_J0B   CL2 2336   3.096   4.193   2.038
  468_J0B    C1 2337   3.162   4.175   1.873
  468_J0B    H1 2338   3.264   4.213   1.873
  468_J0B    CL 2339   3.166   4.003   1.824
  468_J0B   CL1 2340   3.069   4.273   1.755
  469_J0B   CL2 2341   2.346   1.028   0.167
  469_J0B    C1 2342   2.512   1.091   0.182
  469_J0B    H1 2343   2.505   1.199   0.198
  469_J0B    CL 2344   2.595   1.021   0.324
  469_J0B   CL1 2345   2.604   1.064   0.032
  470_J0B   CL2 2346   2.508   2.574   1.580
  470_J0B    C1 2347   2.362   2.659   1.640
  470_J0B    H1 2348   2.278   2.590   1.632
  470_J0B    CL 2349   2.380   2.701   1.813
  470_J0B   CL1 2350   2.330   2.805   1.542
  471_J0B   CL2 2351   1.431   2.901   1.102
  471_J0B    C1 2352   1.281   2.813   1.140
  471_J0B    H1 2353   1.201   2.858   1.080
  471_J0B    CL 2354   1.293   2.641   1.091
  471_J0B   CL1 2355   1.234   2.832   1.312
  472_J0B   CL2 2356   4.798   0.646   4.794
  472_J0B    C1 2357   4.794   0.652   4.973
  472_J0B    H1 2358   4.707   0.711   0.003
  472_J0B    CL 2359   4.775   0.488   0.043
  472_J0B   CL1 2360   4.940   0.733   0.038
  473_J0B   CL2 2361   3.755   2.529   4.833
  473_J0B    C1 2362   3.884   2.413   4.879
  473_J0B    H1 2363   3.980   2.457   4.853
  473_J0B    CL 2364   3.880   2.381   0.055
  473_J0B   CL1 2365   3.869   2.260   4.787
  474_J0B   CL2 2366   1.480   2.281   2.894
  474_J0B    C1 2367   1.348   2.266   3.013
  474_J0B    H1 2368   1.301   2.169   3.000
  474_J0B    CL 2369   1.413   2.274   3.180
  474_J0B   CL1 2370   1.223   2.392   2.988
  475_J0B   CL2 2371   3.920   4.862   0.261
  475_J0B    C1 2372   3.915   4.730   0.141
  475_J0B    H1 2373   3.983   4.756   0.059
  475_J0B    CL 2374   3.975   4.577   0.212
  475_J0B   CL1 2375   3.751   4.711   0.072
  476_J0B   CL2 2376   2.809   3.508   3.161
  476_J0B    C1 2377   2.975   3.536   3.099
  476_J0B    H1 2378   3.044   3.514   3.180
  476_J0B    CL 2379   3.012   3.424   2.965
  476_J0B   CL1 2380   2.996   3.705   3.047
  477_J0B   CL2 2381   1.939   0.666   3.314
  477_J0B    C1 2382   1.897   0.506   3.381
  477_J0B    H1 2383   1.910   0.433   3.300
  477_J0B    CL 2384   2.004   0.460   3.517
  477_J0B   CL1 2385   1.725   0.500   3.431
  478_J0B   CL2 2386   2.019   4.984   0.051
  478_J0B    C1 2387   2.079   0.104   0.169
  478_J0B    H1 2388   2.090   0.200   0.118
  478_J0B    CL 2389   1.961   0.127   0.302
  478_J0B   CL1 2390   2.239   0.057   0.233
  479_J0B   CL2 2391   4.082   0.430   3.871
  479_J0B    C1 2392   4.035   0.510   4.024
  479_J0B    H1 2393   3.950   0.455   4.065
  479_J0B    CL 2394   4.168   0.504   4.144
  479_J0B   CL1 2395   3.982   0.679   3.999
  480_J0B   CL2 2396   3.620   2.099   4.585
  480_J0B    C1 2397   3.567   2.085   4.755
  480_J0B    H1 2398   3.646   2.036   4.813
  480_J0B    CL 2399   3.539   2.245   4.830
  480_J0B   CL1 2400   3.420   1.983   4.768
  481_J0B   CL2 2401   1.015   4.370   4.063
  481_J0B    C1 2402   1.121   4.271   3.958
  481_J0B    H1 2403   1.061   4.189   3.918
  481_J0B    CL 2404   1.182   4.368   3.820
  481_J0B   CL1 2405   1.257   4.200   4.051
  482_J0B   CL2 2406   3.872   2.543   4.505
  482_J0B    C1 2407   3.831   2.377   4.455
  482_J0B    H1 2408   3.751   2.342   4.521
  482_J0B    CL 2409   3.768   2.372   4.288
  482_J0B   CL1 2410   3.970   2.265   4.473
  483_J0B   CL2 2411   1.909   4.156   0.597
  483_J0B    C1 2412   1.856   4.248   0.741
  483_J0B    H1 2413   1.940   4.309   0.775
  483_J0B    CL 2414   1.722   4.359   0.701
  483_J0B   CL1 2415   1.812   4.138   0.875
  484_J0B   CL2 2416   3.138   4.522   0.416
  484_J0B    C1 2417   3.097   4.575   0.582
  484_J0B    H1 2418   3.099   4.488   0.648
  484_J0B    CL 2419   3.217   4.695   0.639
  484_J0B   CL1 2420   2.932   4.642   0.587
  485_J0B   CL2 2421   1.568   4.616   0.123
  485_J0B    C1 2422   1.596   4.514   4.979
  485_J0B    H1 2423   1.509   4.524   4.913
  485_J0B    CL 2424   1.740   4.570   4.888
  485_J0B   CL1 2425   1.612   4.342   0.024
  486_J0B   CL2 2426   3.140   2.090   2.189
  486_J0B    C1 2427   3.151   1.926   2.118
  486_J0B    H1 2428   3.104   1.856   2.188
  486_J0B    CL 2429   3.064   1.917   1.963
  486_J0B   CL1 2430   3.322   1.876   2.098
  487_J0B   CL2 2431   4.040   1.472   1.884
  487_J0B    C1 2432   3.928   1.604   1.932
  487_J0B    H1 2433   3.921   1.603   2.041
  487_J0B    CL 2434   3.994   1.763   1.882
  487_J0B   CL1 2435   3.764   1.577   1.867
  488_J0B   CL2 2436   4.782   0.604   2.568
  488_J0B    C1 2437   4.730   0.608   2.397
  488_J0B    H1 2438   4.674   0.701   2.380
  488_J0B    CL 2439   4.871   0.611   2.286
  488_J0B   CL1 2440   4.621   0.472   2.361
  489_J0B   CL2 2441   4.444   4.865   4.649
  489_J0B    C1 2442   4.338   4.885   4.506
  489_J0B    H1 2443   4.266   4.964   4.528
  489_J0B    CL 2444   4.432   4.935   4.363
  489_J0B   CL1 2445   4.244   4.735   4.474
  490_J0B   CL2 2446   4.613   2.630   2.320
  490_J0B    C1 2447   4.464   2.571   2.240
  490_J0B    H1 2448   4.421   2.493   2.304
  490_J0B    CL 2449   4.344   2.703   2.226
  490_J0B   CL1 2450   4.504   2.502   2.080
  491_J0B   CL2 2451   0.358   1.691   3.716
  491_J0B    C1 2452   0.210   1.782   3.758
  491_J0B    H1 2453   0.231   1.889   3.747
  491_J0B    CL 2454   0.076   1.740   3.647
  491_J0B   CL1 2455   0.163   1.752   3.928
  492_J0B   CL2 2456   1.219   1.599   1.279
  492_J0B    C1 2457   1.101   1.635   1.408
  492_J0B    H1 2458   1.005   1.590   1.381
  492_J0B    CL 2459   1.150   1.562   1.563
  492_J0B   CL1 2460   1.075   1.812   1.425
  493_J0B   CL2 2461   4.191   0.247   0.768
  493_J0B    C1 2462   4.032   0.187   0.712
  493_J0B    H1 2463   3.966   0.274   0.701
  493_J0B    CL 2464   4.046   0.107   0.553
  493_J0B   CL1 2465   3.957   0.077   0.832
  494_J0B   CL2 2466   1.805   3.662   4.325
  494_J0B    C1 2467   1.859   3.675   4.155
  494_J0B    H1 2468   1.962   3.639   4.149
  494_J0B    CL 2469   1.758   3.573   4.049
  494_J0B   CL1 2470   1.856   3.845   4.099
  495_J0B   CL2 2471   4.523   2.512   0.353
  495_J0B    C1 2472   4.594   2.675   0.372
  495_J0B    H1 2473   4.641   2.703   0.277
  495_J0B    CL 2474   4.469   2.797   0.409
  495_J0B   CL1 2475   4.721   2.675   0.497
  496_J0B   CL2 2476   3.256   0.594   4.784
  496_J0B    C1 2477   3.174   0.480   4.674
  496_J0B    H1 2478   3.068   0.507   4.672
  496_J0B    CL 2479   3.236   0.493   4.506
  496_J0B   CL1 2480   3.188   0.312   4.735
  497_J0B   CL2 2481   1.340   2.092   1.796
  497_J0B    C1 2482   1.498   2.063   1.875
  497_J0B    H1 2483   1.509   1.954   1.888
  497_J0B    CL 2484   1.632   2.122   1.772
  497_J0B   CL1 2485   1.504   2.139   2.037
  498_J0B   CL2 2486   3.546   1.393   0.078
  498_J0B    C1 2487   3.639   1.444   0.222
  498_J0B    H1 2488   3.573   1.507   0.282
  498_J0B    CL 2489   3.687   1.306   0.325
  498_J0B   CL1 2490   3.781   1.543   0.175
  499_J0B   CL2 2491   1.019   0.033   1.095
  499_J0B    C1 2492   0.867   0.077   1.012
  499_J0B    H1 2493   0.849   0.002   0.934
  499_J0B    CL 2494   0.728   0.074   1.125
  499_J0B   CL1 2495   0.880   0.237   0.933
  500_J0B   CL2 2496   1.291   4.660   3.983
  500_J0B    C1 2497   1.130   4.702   3.918
  500_J0B    H1 2498   1.065   4.615   3.932
  500_J0B    CL 2499   1.060   4.841   4.006
  500_J0B   CL1 2500   1.138   4.735   3.742
  501SOL     OW 2501   0.266   0.415   0.855
  501SOL    HW1 2502   0.350   0.363   0.843
  501SOL    HW2 2503   0.209   0.406   0.773
  502SOL     OW 2504   0.601   1.320   1.212
  502SOL    HW1 2505   0.517   1.332   1.158
  502SOL    HW2 2506   0.625   1.407   1.255
  503SOL     OW 2507   1.244   0.641   0.743
  503SOL    HW1 2508   1.268   0.736   0.763
  503SOL    HW2 2509   1.158   0.618   0.788
  504SOL     OW 2510   1.634   0.683   0.244
  504SOL    HW1 2511   1.591   0.669   0.155
  504SOL    HW2 2512   1.565   0.676   0.316
  505SOL     OW 2513   0.719   1.112   1.074
  505SOL    HW1 2514   0.678   1.184   1.131
  505SOL    HW2 2515   0.813   1.096   1.104
  506SOL     OW 2516   1.046   0.726   1.795
  506SOL    HW1 2517   1.119   0.783   1.832
  506SOL    HW2 2518   0.984   0.782   1.741
  507SOL     OW 2519   0.740   1.209   1.832
  507SOL    HW1 2520   0.792   1.276   1.885
  507SOL    HW2 2521   0.697   1.255   1.754
  508SOL     OW 2522   0.373   1.444   1.109
  508SOL    HW1 2523   0.288   1.413   1.068
  508SOL    HW2 2524   0.425   1.496   1.042
  509SOL     OW 2525   0.368   0.384   1.378
  509SOL    HW1 2526   0.433   0.363   1.451
  509SOL    HW2 2527   0.275   0.364   1.410
  510SOL     OW 2528   0.150   1.682   0.496
  510SOL    HW1 2529   0.082   1.711   0.564
  510SOL    HW2 2530   0.227   1.746   0.497
  511SOL     OW 2531   1.097   1.296   1.753
  511SOL    HW1 2532   1.190   1.282   1.719
  511SOL    HW2 2533   1.040   1.217   1.728
  512SOL     OW 2534   0.302   1.179   0.913
  512SOL    HW1 2535   0.255   1.091   0.921
  512SOL    HW2 2536   0.241   1.252   0.943
  513SOL     OW 2537   0.631   1.789   1.469
  513SOL    HW1 2538   0.543   1.825   1.502
  513SOL    HW2 2539   0.688   1.864   1.436
  514SOL     OW 2540   0.630   0.844   0.071
  514SOL    HW1 2541   0.719   0.881   0.045
  514SOL    HW2 2542   0.642   0.777   0.145
  515SOL     OW 2543   1.569   0.086   1.618
  515SOL    HW1 2544   1.528   0.041   1.539
  515SOL    HW2 2545   1.593   0.180   1.593
  516SOL     OW 2546   0.242   0.611   0.477
  516SOL    HW1 2547   0.164   0.586   0.419
  516SOL    HW2 2548   0.220   0.695   0.526
  517SOL     OW 2549   1.859   1.640   0.313
  517SOL    HW1 2550   1.864   1.581   0.394
  517SOL    HW2 2551   1.881   1.734   0.339
  518SOL     OW 2552   1.695   0.959   0.612
  518SOL    HW1 2553   1.739   0.881   0.567
  518SOL    HW2 2554   1.690   1.036   0.548
  519SOL     OW 2555   1.701   1.162   0.418
  519SOL    HW1 2556   1.767   1.207   0.479
  519SOL    HW2 2557   1.616   1.214   0.416
  520SOL     OW 2558   0.254   0.855   1.782
  520SOL    HW1 2559   0.307   0.800   1.719
  520SOL    HW2 2560   0.160   0.864   1.748
  521SOL     OW 2561   0.565   1.262   0.896
  521SOL    HW1 2562   0.614   1.189   0.944
  521SOL    HW2 2563   0.468   1.238   0.889
  522SOL     OW 2564   1.225   1.219   1.433
  522SOL    HW1 2565   1.278   1.160   1.374
  522SOL    HW2 2566   1.272   1.232   1.520
  523SOL     OW 2567   0.817   0.216   0.489
  523SOL    HW1 2568   0.845   0.257   0.403
  523SOL    HW2 2569   0.731   0.257   0.520
  524SOL     OW 2570   0.143   1.058   1.208
  524SOL    HW1 2571   0.240   1.072   1.230
  524SOL    HW2 2572   0.136   1.014   1.119
  525SOL     OW 2573   1.315   1.026   0.213
  525SOL    HW1 2574   1.291   0.953   0.149
  525SOL    HW2 2575   1.404   1.006   0.254
  526SOL     OW 2576   0.354   0.286   1.683
  526SOL    HW1 2577   0.335   0.358   1.749
  526SOL    HW2 2578   0.276   0.276   1.621
  527SOL     OW 2579   0.667   0.658   0.270
  527SOL    HW1 2580   0.756   0.615   0.281
  527SOL    HW2 2581   0.602   0.617   0.334
  528SOL     OW 2582   1.626   1.552   0.196
  528SOL    HW1 2583   1.706   1.589   0.242
  528SOL    HW2 2584   1.606   1.605   0.114
  529SOL     OW 2585   0.886   0.825   1.576
  529SOL    HW1 2586   0.953   0.758   1.543
  529SOL    HW2 2587   0.797   0.807   1.533
  530SOL     OW 2588   0.933   0.279   1.299
  530SOL    HW1 2589   0.866   0.351   1.282
  530SOL    HW2 2590   0.927   0.211   1.226
  531SOL     OW 2591   0.195   0.846   0.624
  531SOL    HW1 2592   0.261   0.838   0.699
  531SOL    HW2 2593   0.189   0.941   0.595
  532SOL     OW 2594   0.901   0.289   0.234
  532SOL    HW1 2595   0.958   0.359   0.191
  532SOL    HW2 2596   0.942   0.199   0.220
  533SOL     OW 2597   1.458   1.271   0.355
  533SOL    HW1 2598   1.406   1.208   0.297
  533SOL    HW2 2599   1.421   1.363   0.345
  534SOL     OW 2600   0.525   0.315   0.859
  534SOL    HW1 2601   0.519   0.294   0.956
  534SOL    HW2 2602   0.574   0.402   0.847
  535SOL     OW 2603   0.957   1.514   0.490
  535SOL    HW1 2604   0.966   1.604   0.448
  535SOL    HW2 2605   0.926   1.524   0.584
  536SOL     OW 2606   1.749   1.012   0.874
  536SOL    HW1 2607   1.735   0.999   0.776
  536SOL    HW2 2608   1.661   1.014   0.921
  537SOL     OW 2609   0.260   1.034   0.281
  537SOL    HW1 2610   0.346   0.986   0.298
  537SOL    HW2 2611   0.250   1.051   0.183
  538SOL     OW 2612   1.470   0.834   0.710
  538SOL    HW1 2613   1.496   0.738   0.709
  538SOL    HW2 2614   1.546   0.890   0.678
  539SOL     OW 2615   0.371   1.352   1.671
  539SOL    HW1 2616   0.331   1.346   1.580
  539SOL    HW2 2617   0.365   1.263   1.716
  540SOL     OW 2618   1.147   1.710   0.191
  540SOL    HW1 2619   1.105   1.738   0.277
  540SOL    HW2 2620   1.077   1.708   0.119
  541SOL     OW 2621   0.135   0.290   1.517
  541SOL    HW1 2622   0.055   0.309   1.574
  541SOL    HW2 2623   0.112   0.219   1.450
  542SOL     OW 2624   0.513   1.814   0.410
  542SOL    HW1 2625   0.566   1.853   0.486
  542SOL    HW2 2626   0.576   1.778   0.341
  543SOL     OW 2627   1.422   0.304   0.303
  543SOL    HW1 2628   1.354   0.243   0.262
  543SOL    HW2 2629   1.512   0.261   0.300
  544SOL     OW 2630   1.055   1.631   0.927
  544SOL    HW1 2631   1.028   1.589   1.013
  544SOL    HW2 2632   0.998   1.595   0.853
  545SOL     OW 2633   0.505   0.544   0.464
  545SOL    HW1 2634   0.523   0.452   0.498
  545SOL    HW2 2635   0.407   0.561   0.462
  546SOL     OW 2636   0.892   1.531   1.157
  546SOL    HW1 2637   0.846   1.488   1.079
  546SOL    HW2 2638   0.939   1.460   1.211
  547SOL     OW 2639   1.312   0.566   1.533
  547SOL    HW1 2640   1.380   0.513   1.482
  547SOL    HW2 2641   1.335   0.663   1.526
  548SOL     OW 2642   0.799   1.399   0.937
  548SOL    HW1 2643   0.879   1.341   0.921
  548SOL    HW2 2644   0.716   1.345   0.923
  549SOL     OW 2645   1.001   0.573   0.841
  549SOL    HW1 2646   0.964   0.483   0.818
  549SOL    HW2 2647   0.944   0.616   0.910
  550SOL     OW 2648   1.045   0.607   1.493
  550SOL    HW1 2649   1.001   0.548   1.561
  550SOL    HW2 2650   1.145   0.599   1.502
  551SOL     OW 2651   1.081   0.468   0.105
  551SOL    HW1 2652   1.049   0.550   0.058
  551SOL    HW2 2653   1.160   0.491   0.162
  552SOL     OW 2654   0.507   0.303   1.145
  552SOL    HW1 2655   0.516   0.205   1.164
  552SOL    HW2 2656   0.445   0.344   1.211
  553SOL     OW 2657   1.801   0.752   0.471
  553SOL    HW1 2658   1.848   0.688   0.532
  553SOL    HW2 2659   1.751   0.702   0.401
  554SOL     OW 2660   1.466   0.629   0.028
  554SOL    HW1 2661   1.405   0.590   0.097
  554SOL    HW2 2662   1.477   0.564   4.953
  555SOL     OW 2663   1.624   1.235   1.596
  555SOL    HW1 2664   1.685   1.169   1.551
  555SOL    HW2 2665   1.663   1.260   1.685
  556SOL     OW 2666   1.004   1.328   1.313
  556SOL    HW1 2667   0.920   1.290   1.352
  556SOL    HW2 2668   1.082   1.299   1.368
  557SOL     OW 2669   1.183   0.008   1.387
  557SOL    HW1 2670   1.184   0.058   1.300
  557SOL    HW2 2671   1.137   0.063   1.456
  558SOL     OW 2672   0.944   1.058   1.728
  558SOL    HW1 2673   0.859   1.102   1.758
  558SOL    HW2 2674   0.923   0.986   1.663
  559SOL     OW 2675   0.190   1.108   0.538
  559SOL    HW1 2676   0.253   1.176   0.575
  559SOL    HW2 2677   0.211   1.092   0.442
  560SOL     OW 2678   0.633   0.563   0.851
  560SOL    HW1 2679   0.619   0.625   0.774
  560SOL    HW2 2680   0.708   0.598   0.908
  561SOL     OW 2681   1.124   1.386   0.307
  561SOL    HW1 2682   1.213   1.432   0.304
  561SOL    HW2 2683   1.068   1.425   0.379
  562SOL     OW 2684   1.203   1.273   1.116
  562SOL    HW1 2685   1.276   1.222   1.160
  562SOL    HW2 2686   1.135   1.300   1.185
  563SOL     OW 2687   1.443   0.685   0.438
  563SOL    HW1 2688   1.457   0.627   0.518
  563SOL    HW2 2689   1.418   0.777   0.468
  564SOL     OW 2690   0.364   1.447   1.384
  564SOL    HW1 2691   0.371   1.443   1.284
  564SOL    HW2 2692   0.445   1.491   1.422
  565SOL     OW 2693   0.889   0.100   1.756
  565SOL    HW1 2694   0.941   0.137   1.679
  565SOL    HW2 2695   0.935   0.018   1.791
  566SOL     OW 2696   0.461   0.080   1.828
  566SOL    HW1 2697   0.383   0.040   1.877
  566SOL    HW2 2698   0.428   0.149   1.763
  567SOL     OW 2699   0.644   0.870   0.968
  567SOL    HW1 2700   0.670   0.958   1.007
  567SOL    HW2 2701   0.552   0.877   0.929
  568SOL     OW 2702   1.316   0.540   0.236
  568SOL    HW1 2703   1.351   0.450   0.261
  568SOL    HW2 2704   1.337   0.605   0.309
  569SOL     OW 2705   0.106   1.395   1.292
  569SOL    HW1 2706   0.059   1.317   1.334
  569SOL    HW2 2707   0.190   1.415   1.343
  570SOL     OW 2708   0.816   0.668   1.026
  570SOL    HW1 2709   0.876   0.687   1.105
  570SOL    HW2 2710   0.759   0.748   1.008
  571SOL     OW 2711   1.653   0.939   1.865
  571SOL    HW1 2712   1.576   0.943   1.801
  571SOL    HW2 2713   1.622   0.964   1.957
  572SOL     OW 2714   1.956   1.365   1.452
  572SOL    HW1 2715   1.946   1.464   1.447
  572SOL    HW2 2716   1.949   1.336   1.547
  573SOL     OW 2717   0.389   1.103   1.793
  573SOL    HW1 2718   0.462   1.091   1.860
  573SOL    HW2 2719   0.336   1.019   1.784
  574SOL     OW 2720   1.285   0.839   0.011
  574SOL    HW1 2721   1.359   0.770   0.011
  574SOL    HW2 2722   1.305   0.909   4.943
  575SOL     OW 2723   1.047   1.298   0.896
  575SOL    HW1 2724   1.100   1.310   0.812
  575SOL    HW2 2725   1.109   1.296   0.974
  576SOL     OW 2726   0.379   0.807   0.834
  576SOL    HW1 2727   0.446   0.787   0.763
  576SOL    HW2 2728   0.379   0.734   0.902
  577SOL     OW 2729   0.403   0.597   1.005
  577SOL    HW1 2730   0.337   0.532   0.967
  577SOL    HW2 2731   0.493   0.580   0.965
  578SOL     OW 2732   1.143   0.398   1.686
  578SOL    HW1 2733   1.120   0.422   1.781
  578SOL    HW2 2734   1.214   0.460   1.652
  579SOL     OW 2735   1.042   0.193   1.539
  579SOL    HW1 2736   1.081   0.267   1.593
  579SOL    HW2 2737   0.994   0.231   1.460
  580SOL     OW 2738   4.961   1.292   0.207
  580SOL    HW1 2739   4.969   1.356   0.284
  580SOL    HW2 2740   4.958   1.199   0.241
  581SOL     OW 2741   0.515   1.560   0.912
  581SOL    HW1 2742   0.569   1.635   0.873
  581SOL    HW2 2743   0.542   1.474   0.870
  582SOL     OW 2744   0.936   0.709   1.264
  582SOL    HW1 2745   0.995   0.670   1.335
  582SOL    HW2 2746   0.845   0.725   1.301
  583SOL     OW 2747   1.424   0.955   1.712
  583SOL    HW1 2748   1.403   1.051   1.696
  583SOL    HW2 2749   1.402   0.901   1.631
  584SOL     OW 2750   1.693   0.675   1.259
  584SOL    HW1 2751   1.732   0.597   1.308
  584SOL    HW2 2752   1.731   0.679   1.167
  585SOL     OW 2753   0.372   1.618   1.748
  585SOL    HW1 2754   0.287   1.652   1.789
  585SOL    HW2 2755   0.364   1.520   1.730
  586SOL     OW 2756   0.738   0.452   1.207
  586SOL    HW1 2757   0.655   0.405   1.179
  586SOL    HW2 2758   0.761   0.522   1.139
  587SOL     OW 2759   4.960   1.174   1.374
  587SOL    HW1 2760   4.906   1.112   1.430
  587SOL    HW2 2761   0.021   1.121   1.315
  588SOL     OW 2762   1.357   1.056   1.252
  588SOL    HW1 2763   1.446   1.019   1.279
  588SOL    HW2 2764   1.315   0.997   1.183
  589SOL     OW 2765   1.763   1.749   1.028
  589SOL    HW1 2766   1.843   1.740   0.969
  589SOL    HW2 2767   1.729   1.659   1.054
  590SOL     OW 2768   0.128   1.364   1.021
  590SOL    HW1 2769   0.105   1.369   1.118
  590SOL    HW2 2770   0.044   1.352   0.967
  591SOL     OW 2771   0.642   1.627   1.694
  591SOL    HW1 2772   0.546   1.629   1.719
  591SOL    HW2 2773   0.657   1.688   1.615
  592SOL     OW 2774   1.003   0.034   0.220
  592SOL    HW1 2775   1.023   4.959   0.157
  592SOL    HW2 2776   0.964   4.998   0.304
  593SOL     OW 2777   1.360   1.529   0.292
  593SOL    HW1 2778   1.455   1.545   0.264
  593SOL    HW2 2779   1.304   1.607   0.264
  594SOL     OW 2780   0.138   1.732   1.835
  594SOL    HW1 2781   0.050   1.686   1.832
  594SOL    HW2 2782   0.128   1.821   1.879
  595SOL     OW 2783   0.763   1.239   1.414
  595SOL    HW1 2784   0.731   1.281   1.499
  595SOL    HW2 2785   0.700   1.261   1.340
  596SOL     OW 2786   0.726   1.747   0.238
  596SOL    HW1 2787   0.730   1.806   0.157
  596SOL    HW2 2788   0.740   1.652   0.210
  597SOL     OW 2789   1.960   0.169   0.985
  597SOL    HW1 2790   1.956   0.078   1.026
  597SOL    HW2 2791   1.972   0.161   0.886
  598SOL     OW 2792   0.938   1.682   4.999
  598SOL    HW1 2793   0.879   1.624   0.054
  598SOL    HW2 2794   0.989   1.625   4.934
  599SOL     OW 2795   1.290   1.645   4.958
  599SOL    HW1 2796   1.252   1.673   0.046
  599SOL    HW2 2797   1.389   1.657   4.958
  600SOL     OW 2798   1.807   0.442   1.361
  600SOL    HW1 2799   1.906   0.450   1.377
  600SOL    HW2 2800   1.791   0.371   1.292
  601SOL     OW 2801   1.354   0.832   1.477
  601SOL    HW1 2802   1.276   0.878   1.435
  601SOL    HW2 2803   1.438   0.856   1.428
  602SOL     OW 2804   4.979   0.284   0.392
  602SOL    HW1 2805   4.943   0.195   0.363
  602SOL    HW2 2806   4.970   0.293   0.491
  603SOL     OW 2807   1.016   1.350   0.056
  603SOL    HW1 2808   1.034   1.255   0.032
  603SOL    HW2 2809   1.058   1.370   0.145
  604SOL     OW 2810   0.689   0.685   1.372
  604SOL    HW1 2811   0.593   0.699   1.348
  604SOL    HW2 2812   0.715   0.591   1.352
  605SOL     OW 2813   1.567   1.908   0.915
  605SOL    HW1 2814   1.626   1.982   0.883
  605SOL    HW2 2815   1.623   1.839   0.961
  606SOL     OW 2816   1.366   1.229   1.680
  606SOL    HW1 2817   1.380   1.231   1.779
  606SOL    HW2 2818   1.453   1.247   1.634
  607SOL     OW 2819   0.384   1.841   1.588
  607SOL    HW1 2820   0.299   1.853   1.537
  607SOL    HW2 2821   0.378   1.760   1.645
  608SOL     OW 2822   1.579   0.911   1.344
  608SOL    HW1 2823   1.618   0.825   1.310
  608SOL    HW2 2824   1.647   0.961   1.396
  609SOL     OW 2825   0.566   0.739   0.647
  609SOL    HW1 2826   0.613   0.818   0.607
  609SOL    HW2 2827   0.546   0.672   0.575
  610SOL     OW 2828   1.637   0.344   1.559
  610SOL    HW1 2829   1.697   0.379   1.487
  610SOL    HW2 2830   1.617   0.418   1.623
  611SOL     OW 2831   0.804   1.493   0.154
  611SOL    HW1 2832   0.770   1.440   0.232
  611SOL    HW2 2833   0.872   1.440   0.105
  612SOL     OW 2834   0.669   1.772   0.809
  612SOL    HW1 2835   0.605   1.847   0.797
  612SOL    HW2 2836   0.756   1.807   0.844
  613SOL     OW 2837   1.103   1.092   0.026
  613SOL    HW1 2838   1.165   1.079   4.949
  613SOL    HW2 2839   1.154   1.083   0.111
  614SOL     OW 2840   1.834   1.482   0.819
  614SOL    HW1 2841   1.761   1.494   0.886
  614SOL    HW2 2842   1.878   1.393   0.833
  615SOL     OW 2843   4.976   1.271   0.622
  615SOL    HW1 2844   0.036   1.194   0.600
  615SOL    HW2 2845   4.979   1.338   0.548
  616SOL     OW 2846   0.640   1.360   1.629
  616SOL    HW1 2847   0.541   1.350   1.643
  616SOL    HW2 2848   0.667   1.454   1.647
  617SOL     OW 2849   1.768   0.249   1.177
  617SOL    HW1 2850   1.732   0.161   1.208
  617SOL    HW2 2851   1.831   0.234   1.101
  618SOL     OW 2852   0.557   0.292   0.579
  618SOL    HW1 2853   0.509   0.213   0.540
  618SOL    HW2 2854   0.548   0.290   0.679
  619SOL     OW 2855   1.691   1.488   1.065
  619SOL    HW1 2856   1.611   1.473   1.123
  619SOL    HW2 2857   1.769   1.440   1.104
  620SOL     OW 2858   0.430   0.634   1.278
  620SOL    HW1 2859   0.401   0.547   1.317
  620SOL    HW2 2860   0.417   0.632   1.179
  621SOL     OW 2861   0.855   1.571   0.738
  621SOL    HW1 2862   0.787   1.645   0.736
  621SOL    HW2 2863   0.828   1.502   0.805
  622SOL     OW 2864   0.804   1.319   0.372
  622SOL    HW1 2865   0.864   1.240   0.357
  622SOL    HW2 2866   0.853   1.389   0.423
  623SOL     OW 2867   0.665   1.557   1.326
  623SOL    HW1 2868   0.650   1.642   1.377
  623SOL    HW2 2869   0.744   1.567   1.267
  624SOL     OW 2870   1.252   0.142   0.179
  624SOL    HW1 2871   1.273   0.099   0.091
  624SOL    HW2 2872   1.162   0.112   0.210
  625SOL     OW 2873   1.485   0.548   0.673
  625SOL    HW1 2874   1.390   0.566   0.698
  625SOL    HW2 2875   1.532   0.502   0.749
  626SOL     OW 2876   4.982   1.017   0.264
  626SOL    HW1 2877   0.081   1.022   0.274
  626SOL    HW2 2878   4.947   0.937   0.314
  627SOL     OW 2879   0.960   1.771   0.394
  627SOL    HW1 2880   0.874   1.774   0.344
  627SOL    HW2 2881   0.955   1.831   0.474
  628SOL     OW 2882   0.281   0.812   2.054
  628SOL    HW1 2883   0.226   0.733   2.080
  628SOL    HW2 2884   0.273   0.827   1.955
  629SOL     OW 2885   0.111   0.273   2.802
  629SOL    HW1 2886   0.161   0.248   2.885
  629SOL    HW2 2887   0.020   0.232   2.804
  630SOL     OW 2888   4.913   0.307   2.410
  630SOL    HW1 2889   4.881   0.397   2.383
  630SOL    HW2 2890   4.954   0.261   2.331
  631SOL     OW 2891   1.634   1.490   2.552
  631SOL    HW1 2892   1.581   1.481   2.636
  631SOL    HW2 2893   1.574   1.482   2.473
  632SOL     OW 2894   1.643   0.610   2.135
  632SOL    HW1 2895   1.725   0.576   2.088
  632SOL    HW2 2896   1.586   0.533   2.162
  633SOL     OW 2897   0.710   1.014   2.865
  633SOL    HW1 2898   0.708   1.113   2.878
  633SOL    HW2 2899   0.804   0.984   2.847
  634SOL     OW 2900   0.883   0.659   3.765
  634SOL    HW1 2901   0.919   0.752   3.756
  634SOL    HW2 2902   0.855   0.626   3.675
  635SOL     OW 2903   0.347   1.531   2.875
  635SOL    HW1 2904   0.278   1.467   2.842
  635SOL    HW2 2905   0.404   1.562   2.799
  636SOL     OW 2906   1.504   1.549   3.218
  636SOL    HW1 2907   1.564   1.627   3.236
  636SOL    HW2 2908   1.419   1.559   3.270
  637SOL     OW 2909   1.620   0.471   2.474
  637SOL    HW1 2910   1.531   0.426   2.477
  637SOL    HW2 2911   1.608   0.569   2.457
  638SOL     OW 2912   0.133   1.640   2.448
  638SOL    HW1 2913   0.189   1.698   2.508
  638SOL    HW2 2914   0.127   1.683   2.358
  639SOL     OW 2915   1.136   1.486   3.565
  639SOL    HW1 2916   1.182   1.502   3.652
  639SOL    HW2 2917   1.087   1.399   3.568
  640SOL     OW 2918   0.192   1.368   2.445
  640SOL    HW1 2919   0.179   1.466   2.429
  640SOL    HW2 2920   0.187   1.349   2.543
  641SOL     OW 2921   0.266   1.029   2.787
  641SOL    HW1 2922   0.263   0.929   2.778
  641SOL    HW2 2923   0.185   1.060   2.836
  642SOL     OW 2924   0.571   1.748   3.449
  642SOL    HW1 2925   0.476   1.729   3.422
  642SOL    HW2 2926   0.587   1.847   3.447
  643SOL     OW 2927   0.582   1.046   1.985
  643SOL    HW1 2928   0.647   1.105   1.938
  643SOL    HW2 2929   0.631   0.973   2.031
  644SOL     OW 2930   1.671   0.130   3.327
  644SOL    HW1 2931   1.704   0.195   3.259
  644SOL    HW2 2932   1.693   0.163   3.418
  645SOL     OW 2933   0.144   0.592   2.506
  645SOL    HW1 2934   0.144   0.493   2.520
  645SOL    HW2 2935   0.074   0.634   2.565
  646SOL     OW 2936   4.885   1.618   1.854
  646SOL    HW1 2937   4.850   1.626   1.947
  646SOL    HW2 2938   4.864   1.527   1.818
  647SOL     OW 2939   1.647   1.104   2.309
  647SOL    HW1 2940   1.729   1.095   2.252
  647SOL    HW2 2941   1.670   1.151   2.394
  648SOL     OW 2942   0.553   1.400   2.512
  648SOL    HW1 2943   0.512   1.329   2.568
  648SOL    HW2 2944   0.556   1.370   2.416
  649SOL     OW 2945   1.392   1.195   3.351
  649SOL    HW1 2946   1.450   1.230   3.278
  649SOL    HW2 2947   1.434   1.215   3.440
  650SOL     OW 2948   0.192   0.985   3.155
  650SOL    HW1 2949   0.284   0.956   3.127
  650SOL    HW2 2950   0.124   0.933   3.103
  651SOL     OW 2951   1.510   0.998   2.097
  651SOL    HW1 2952   1.466   0.910   2.117
  651SOL    HW2 2953   1.552   1.034   2.180
  652SOL     OW 2954   1.481   1.442   2.773
  652SOL    HW1 2955   1.430   1.495   2.841
  652SOL    HW2 2956   1.442   1.350   2.768
  653SOL     OW 2957   1.894   1.584   2.582
  653SOL    HW1 2958   1.884   1.677   2.619
  653SOL    HW2 2959   1.803   1.546   2.565
  654SOL     OW 2960   0.519   0.739   2.186
  654SOL    HW1 2961   0.442   0.772   2.132
  654SOL    HW2 2962   0.486   0.706   2.275
  655SOL     OW 2963   1.396   0.163   2.680
  655SOL    HW1 2964   1.402   0.063   2.683
  655SOL    HW2 2965   1.451   0.201   2.754
  656SOL     OW 2966   1.369   0.507   3.510
  656SOL    HW1 2967   1.333   0.554   3.590
  656SOL    HW2 2968   1.460   0.470   3.531
  657SOL     OW 2969   0.993   0.721   2.329
  657SOL    HW1 2970   0.958   0.675   2.411
  657SOL    HW2 2971   0.922   0.722   2.259
  658SOL     OW 2972   0.026   0.797   2.700
  658SOL    HW1 2973   0.125   0.786   2.699
  658SOL    HW2 2974   4.999   0.866   2.634
  659SOL     OW 2975   0.082   1.802   3.271
  659SOL    HW1 2976   0.033   1.733   3.323
  659SOL    HW2 2977   0.059   1.793   3.174
  660SOL     OW 2978   0.835   0.415   2.059
  660SOL    HW1 2979   0.918   0.441   2.010
  660SOL    HW2 2980   0.788   0.342   2.009
  661SOL     OW 2981   1.582   0.586   3.724
  661SOL    HW1 2982   1.607   0.667   3.671
  661SOL    HW2 2983   1.653   0.567   3.792
  662SOL     OW 2984   0.281   1.784   2.636
  662SOL    HW1 2985   0.353   1.715   2.638
  662SOL    HW2 2986   0.313   1.868   2.680
  663SOL     OW 2987   1.808   1.034   2.701
  663SOL    HW1 2988   1.785   1.107   2.636
  663SOL    HW2 2989   1.737   1.027   2.771
  664SOL     OW 2990   1.251   1.568   3.324
  664SOL    HW1 2991   1.217   1.535   3.412
  664SOL    HW2 2992   1.209   1.516   3.250
  665SOL     OW 2993   0.346   1.068   2.128
  665SOL    HW1 2994   0.435   1.075   2.083
  665SOL    HW2 2995   0.311   0.975   2.117
  666SOL     OW 2996   0.455   1.307   3.605
  666SOL    HW1 2997   0.411   1.346   3.524
  666SOL    HW2 2998   0.388   1.301   3.679
  667SOL     OW 2999   1.664   1.324   1.860
  667SOL    HW1 3000   1.655   1.424   1.864
  667SOL    HW2 3001   1.580   1.282   1.896
  668SOL     OW 3002   1.374   0.100   2.235
  668SOL    HW1 3003   1.367   0.088   2.136
  668SOL    HW2 3004   1.466   0.131   2.258
  669SOL     OW 3005   0.329   1.752   3.055
  669SOL    HW1 3006   0.354   1.714   3.144
  669SOL    HW2 3007   0.331   1.679   2.986
  670SOL     OW 3008   0.406   0.628   2.415
  670SOL    HW1 3009   0.420   0.529   2.407
  670SOL    HW2 3010   0.312   0.646   2.444
  671SOL     OW 3011   0.695   0.209   1.920
  671SOL    HW1 3012   0.774   0.176   1.869
  671SOL    HW2 3013   0.614   0.154   1.896
  672SOL     OW 3014   1.411   0.553   3.238
  672SOL    HW1 3015   1.394   0.533   3.335
  672SOL    HW2 3016   1.364   0.636   3.212
  673SOL     OW 3017   0.927   0.634   2.784
  673SOL    HW1 3018   0.901   0.614   2.689
  673SOL    HW2 3019   1.016   0.593   2.803
  674SOL     OW 3020   1.429   1.212   1.948
  674SOL    HW1 3021   1.461   1.132   1.998
  674SOL    HW2 3022   1.354   1.255   1.997
  675SOL     OW 3023   0.314   0.118   2.187
  675SOL    HW1 3024   0.397   0.169   2.167
  675SOL    HW2 3025   0.315   0.088   2.282
  676SOL     OW 3026   0.933   0.394   2.323
  676SOL    HW1 3027   0.892   0.397   2.233
  676SOL    HW2 3028   1.024   0.353   2.317
  677SOL     OW 3029   1.175   1.534   2.678
  677SOL    HW1 3030   1.256   1.558   2.624
  677SOL    HW2 3031   1.157   1.607   2.743
  678SOL     OW 3032   0.416   1.195   2.637
  678SOL    HW1 3033   0.372   1.123   2.692
  678SOL    HW2 3034   0.403   1.174   2.540
  679SOL     OW 3035   1.069   0.502   1.941
  679SOL    HW1 3036   1.053   0.585   1.886
  679SOL    HW2 3037   1.120   0.527   2.024
  680SOL     OW 3038   0.165   0.572   3.297
  680SOL    HW1 3039   0.238   0.527   3.348
  680SOL    HW2 3040   0.118   0.637   3.356
  681SOL     OW 3041   0.465   0.290   3.042
  681SOL    HW1 3042   0.484   0.333   2.954
  681SOL    HW2 3043   0.366   0.276   3.052
  682SOL     OW 3044   0.864   0.567   2.527
  682SOL    HW1 3045   0.766   0.580   2.541
  682SOL    HW2 3046   0.879   0.496   2.459
  683SOL     OW 3047   1.344   1.193   2.802
  683SOL    HW1 3048   1.265   1.248   2.832
  683SOL    HW2 3049   1.311   1.111   2.755
  684SOL     OW 3050   1.795   0.813   2.244
  684SOL    HW1 3051   1.873   0.765   2.284
  684SOL    HW2 3052   1.731   0.747   2.206
  685SOL     OW 3053   1.747   1.238   2.528
  685SOL    HW1 3054   1.844   1.247   2.509
  685SOL    HW2 3055   1.707   1.329   2.543
  686SOL     OW 3056   1.398   0.743   2.113
  686SOL    HW1 3057   1.324   0.683   2.142
  686SOL    HW2 3058   1.485   0.695   2.122
  687SOL     OW 3059   0.532   0.270   2.138
  687SOL    HW1 3060   0.601   0.248   2.070
  687SOL    HW2 3061   0.563   0.347   2.193
  688SOL     OW 3062   1.121   1.242   3.314
  688SOL    HW1 3063   1.069   1.242   3.399
  688SOL    HW2 3064   1.216   1.218   3.333
  689SOL     OW 3065   1.639   1.661   3.516
  689SOL    HW1 3066   1.653   1.688   3.421
  689SOL    HW2 3067   1.723   1.677   3.568
  690SOL     OW 3068   1.155   1.412   3.107
  690SOL    HW1 3069   1.134   1.343   3.176
  690SOL    HW2 3070   1.124   1.379   3.017
  691SOL     OW 3071   1.600   1.169   2.910
  691SOL    HW1 3072   1.588   1.214   2.998
  691SOL    HW2 3073   1.513   1.166   2.862
  692SOL     OW 3074   0.976   1.252   3.549
  692SOL    HW1 3075   0.883   1.284   3.566
  692SOL    HW2 3076   1.000   1.181   3.616
  693SOL     OW 3077   0.358   0.775   3.048
  693SOL    HW1 3078   0.365   0.708   3.123
  693SOL    HW2 3079   0.265   0.776   3.013
  694SOL     OW 3080   1.378   0.312   3.095
  694SOL    HW1 3081   1.402   0.393   3.148
  694SOL    HW2 3082   1.280   0.310   3.078
  695SOL     OW 3083   0.116   1.506   3.134
  695SOL    HW1 3084   0.075   1.527   3.222
  695SOL    HW2 3085   0.215   1.496   3.144
  696SOL     OW 3086   0.382   1.192   2.368
  696SOL    HW1 3087   0.314   1.264   2.377
  696SOL    HW2 3088   0.372   1.147   2.279
  697SOL     OW 3089   0.508   0.451   2.820
  697SOL    HW1 3090   0.522   0.463   2.722
  697SOL    HW2 3091   0.581   0.498   2.870
  698SOL     OW 3092   1.354   1.555   2.989
  698SOL    HW1 3093   1.426   1.566   3.057
  698SOL    HW2 3094   1.279   1.500   3.027
  699SOL     OW 3095   0.396   1.475   3.142
  699SOL    HW1 3096   0.395   1.479   3.042
  699SOL    HW2 3097   0.488   1.498   3.175
  700SOL     OW 3098   1.626   0.806   3.569
  700SOL    HW1 3099   1.539   0.854   3.556
  700SOL    HW2 3100   1.674   0.800   3.481
  701SOL     OW 3101   0.915   4.985   3.705
  701SOL    HW1 3102   0.999   4.980   3.651
  701SOL    HW2 3103   0.858   4.905   3.685
  702SOL     OW 3104   0.542   0.803   2.845
  702SOL    HW1 3105   0.598   0.886   2.846
  702SOL    HW2 3106   0.479   0.805   2.922
  703SOL     OW 3107   1.185   0.579   2.186
  703SOL    HW1 3108   1.192   0.488   2.227
  703SOL    HW2 3109   1.118   0.634   2.235
  704SOL     OW 3110   0.198   0.228   3.059
  704SOL    HW1 3111   0.120   0.267   3.108
  704SOL    HW2 3112   0.205   0.130   3.079
  705SOL     OW 3113   4.993   1.264   3.155
  705SOL    HW1 3114   0.040   1.223   3.233
  705SOL    HW2 3115   0.033   1.353   3.135
  706SOL     OW 3116   0.705   0.603   2.939
  706SOL    HW1 3117   0.791   0.608   2.888
  706SOL    HW2 3118   0.647   0.681   2.915
  707SOL     OW 3119   1.663   1.032   3.734
  707SOL    HW1 3120   1.675   0.943   3.690
  707SOL    HW2 3121   1.613   1.020   3.820
  708SOL     OW 3122   0.323   0.077   2.455
  708SOL    HW1 3123   0.257   0.141   2.493
  708SOL    HW2 3124   0.339   0.003   2.520
  709SOL     OW 3125   1.488   0.403   2.203
  709SOL    HW1 3126   1.537   0.329   2.247
  709SOL    HW2 3127   1.389   0.389   2.214
  710SOL     OW 3128   0.963   0.904   2.844
  710SOL    HW1 3129   1.003   0.900   2.935
  710SOL    HW2 3130   0.944   0.811   2.812
  711SOL     OW 3131   0.948   1.681   3.512
  711SOL    HW1 3132   0.958   1.711   3.418
  711SOL    HW2 3133   1.018   1.613   3.534
  712SOL     OW 3134   1.868   1.725   3.645
  712SOL    HW1 3135   1.952   1.738   3.592
  712SOL    HW2 3136   1.889   1.676   3.730
  713SOL     OW 3137   1.260   0.861   1.908
  713SOL    HW1 3138   1.309   0.816   1.982
  713SOL    HW2 3139   1.324   0.894   1.839
  714SOL     OW 3140   1.107   1.331   2.844
  714SOL    HW1 3141   1.025   1.285   2.813
  714SOL    HW2 3142   1.129   1.406   2.782
  715SOL     OW 3143   0.289   0.754   2.746
  715SOL    HW1 3144   0.387   0.770   2.758
  715SOL    HW2 3145   0.265   0.665   2.783
  716SOL     OW 3146   0.240   0.507   2.859
  716SOL    HW1 3147   0.188   0.429   2.823
  716SOL    HW2 3148   0.338   0.487   2.853
  717SOL     OW 3149   1.094   0.430   3.527
  717SOL    HW1 3150   1.080   0.422   3.626
  717SOL    HW2 3151   1.190   0.450   3.509
  718SOL     OW 3152   0.033   1.758   2.750
  718SOL    HW1 3153   4.992   1.673   2.717
  718SOL    HW2 3154   0.125   1.767   2.710
  719SOL     OW 3155   0.488   1.615   2.658
  719SOL    HW1 3156   0.561   1.681   2.675
  719SOL    HW2 3157   0.522   1.542   2.599
  720SOL     OW 3158   0.038   0.508   3.064
  720SOL    HW1 3159   0.107   0.504   2.993
  720SOL    HW2 3160   0.081   0.529   3.152
  721SOL     OW 3161   1.401   0.965   3.535
  721SOL    HW1 3162   1.438   1.047   3.577
  721SOL    HW2 3163   1.364   0.987   3.444
  722SOL     OW 3164   0.786   0.680   2.155
  722SOL    HW1 3165   0.793   0.588   2.115
  722SOL    HW2 3166   0.690   0.705   2.165
  723SOL     OW 3167   1.649   0.546   3.094
  723SOL    HW1 3168   1.565   0.555   3.148
  723SOL    HW2 3169   1.662   0.629   3.040
  724SOL     OW 3170   0.706   0.404   3.130
  724SOL    HW1 3171   0.619   0.356   3.115
  724SOL    HW2 3172   0.711   0.484   3.071
  725SOL     OW 3173   0.165   1.171   3.351
  725SOL    HW1 3174   0.172   1.132   3.443
  725SOL    HW2 3175   0.180   1.100   3.283
  726SOL     OW 3176   1.161   0.916   2.434
  726SOL    HW1 3177   1.095   0.850   2.398
  726SOL    HW2 3178   1.227   0.940   2.363
  727SOL     OW 3179   1.841   1.713   3.043
  727SOL    HW1 3180   1.920   1.716   2.982
  727SOL    HW2 3181   1.778   1.642   3.013
  728SOL     OW 3182   1.158   1.712   2.877
  728SOL    HW1 3183   1.106   1.761   2.947
  728SOL    HW2 3184   1.239   1.670   2.920
  729SOL     OW 3185   0.047   1.159   2.899
  729SOL    HW1 3186   0.050   1.180   2.996
  729SOL    HW2 3187   4.951   1.154   2.869
  730SOL     OW 3188   0.721   1.632   3.654
  730SOL    HW1 3189   0.649   1.672   3.596
  730SOL    HW2 3190   0.810   1.655   3.615
  731SOL     OW 3191   1.626   0.185   2.304
  731SOL    HW1 3192   1.702   0.198   2.239
  731SOL    HW2 3193   1.663   0.151   2.390
  732SOL     OW 3194   1.190   0.984   2.698
  732SOL    HW1 3195   1.183   0.964   2.600
  732SOL    HW2 3196   1.103   0.964   2.743
  733SOL     OW 3197   0.775   1.636   1.935
  733SOL    HW1 3198   0.736   1.634   1.842
  733SOL    HW2 3199   0.827   1.552   1.950
  734SOL     OW 3200   1.668   1.765   3.265
  734SOL    HW1 3201   1.733   1.751   3.190
  734SOL    HW2 3202   1.665   1.862   3.288
  735SOL     OW 3203   1.942   0.221   2.727
  735SOL    HW1 3204   2.018   0.250   2.669
  735SOL    HW2 3205   1.867   0.287   2.721
  736SOL     OW 3206   0.159   0.306   2.537
  736SOL    HW1 3207   0.071   0.297   2.491
  736SOL    HW2 3208   0.147   0.290   2.635
  737SOL     OW 3209   1.243   1.512   1.894
  737SOL    HW1 3210   1.236   1.448   1.971
  737SOL    HW2 3211   1.186   1.481   1.819
  738SOL     OW 3212   1.414   1.719   1.843
  738SOL    HW1 3213   1.352   1.647   1.874
  738SOL    HW2 3214   1.383   1.754   1.754
  739SOL     OW 3215   0.308   1.403   3.388
  739SOL    HW1 3216   0.351   1.419   3.299
  739SOL    HW2 3217   0.248   1.324   3.382
  740SOL     OW 3218   1.576   1.289   3.161
  740SOL    HW1 3219   1.669   1.279   3.196
  740SOL    HW2 3220   1.547   1.385   3.168
  741SOL     OW 3221   1.759   0.305   3.149
  741SOL    HW1 3222   1.724   0.395   3.122
  741SOL    HW2 3223   1.782   0.253   3.067
  742SOL     OW 3224   0.192   1.060   3.599
  742SOL    HW1 3225   0.100   1.062   3.639
  742SOL    HW2 3226   0.233   0.970   3.616
  743SOL     OW 3227   0.476   0.055   3.187
  743SOL    HW1 3228   0.483   0.138   3.132
  743SOL    HW2 3229   0.555   0.049   3.248
  744SOL     OW 3230   0.040   0.187   2.203
  744SOL    HW1 3231   4.996   0.129   2.135
  744SOL    HW2 3232   0.138   0.171   2.202
  745SOL     OW 3233   1.200   1.299   2.068
  745SOL    HW1 3234   1.159   1.218   2.027
  745SOL    HW2 3235   1.147   1.326   2.148
  746SOL     OW 3236   0.853   0.563   3.509
  746SOL    HW1 3237   0.939   0.513   3.504
  746SOL    HW2 3238   0.812   0.567   3.418
  747SOL     OW 3239   1.509   1.216   3.600
  747SOL    HW1 3240   1.463   1.253   3.680
  747SOL    HW2 3241   1.591   1.166   3.629
  748SOL     OW 3242   0.321   1.691   3.362
  748SOL    HW1 3243   0.234   1.734   3.337
  748SOL    HW2 3244   0.305   1.596   3.389
  749SOL     OW 3245   1.219   0.328   2.299
  749SOL    HW1 3246   1.242   0.235   2.271
  749SOL    HW2 3247   1.263   0.349   2.386
  750SOL     OW 3248   0.602   0.628   2.608
  750SOL    HW1 3249   0.592   0.702   2.674
  750SOL    HW2 3250   0.535   0.639   2.535
  751SOL     OW 3251   0.910   1.393   1.945
  751SOL    HW1 3252   0.919   1.339   2.029
  751SOL    HW2 3253   0.985   1.372   1.884
  752SOL     OW 3254   0.641   1.821   2.748
  752SOL    HW1 3255   0.564   1.879   2.775
  752SOL    HW2 3256   0.726   1.867   2.772
  753SOL     OW 3257   1.085   1.061   1.967
  753SOL    HW1 3258   1.032   1.063   1.882
  753SOL    HW2 3259   1.152   0.987   1.963
  754SOL     OW 3260   2.034   1.435   2.769
  754SOL    HW1 3261   1.987   1.478   2.692
  754SOL    HW2 3262   1.972   1.372   2.816
  755SOL     OW 3263   0.190   1.336   2.734
  755SOL    HW1 3264   0.138   1.274   2.793
  755SOL    HW2 3265   0.277   1.293   2.710
  756SOL     OW 3266   0.728   1.359   3.624
  756SOL    HW1 3267   0.635   1.322   3.615
  756SOL    HW2 3268   0.724   1.458   3.629
  757SOL     OW 3269   1.779   0.140   2.932
  757SOL    HW1 3270   1.739   0.050   2.916
  757SOL    HW2 3271   1.849   0.158   2.863
  758SOL     OW 3272   0.410   0.357   2.425
  758SOL    HW1 3273   0.450   0.267   2.409
  758SOL    HW2 3274   0.318   0.347   2.463
  759SOL     OW 3275   1.710   1.501   2.934
  759SOL    HW1 3276   1.630   1.484   2.876
  759SOL    HW2 3277   1.770   1.421   2.931
  760SOL     OW 3278   1.546   0.273   2.878
  760SOL    HW1 3279   1.629   0.225   2.908
  760SOL    HW2 3280   1.491   0.297   2.958
  761SOL     OW 3281   0.930   1.203   2.142
  761SOL    HW1 3282   0.899   1.166   2.229
  761SOL    HW2 3283   0.978   1.132   2.091
  762SOL     OW 3284   0.631   1.549   3.259
  762SOL    HW1 3285   0.619   1.621   3.328
  762SOL    HW2 3286   0.709   1.492   3.283
  763SOL     OW 3287   1.362   0.378   2.525
  763SOL    HW1 3288   1.328   0.449   2.587
  763SOL    HW2 3289   1.373   0.292   2.575
  764SOL     OW 3290   1.734   0.391   2.710
  764SOL    HW1 3291   1.660   0.363   2.771
  764SOL    HW2 3292   1.695   0.425   2.624
  765SOL     OW 3293   0.715   1.147   4.834
  765SOL    HW1 3294   0.688   1.213   4.905
  765SOL    HW2 3295   0.743   1.197   4.752
  766SOL     OW 3296   0.051   1.528   4.346
  766SOL    HW1 3297   0.150   1.529   4.361
  766SOL    HW2 3298   0.024   1.438   4.311
  767SOL     OW 3299   1.803   1.750   4.094
  767SOL    HW1 3300   1.789   1.720   4.188
  767SOL    HW2 3301   1.844   1.842   4.094
  768SOL     OW 3302   4.794   1.411   3.804
  768SOL    HW1 3303   4.831   1.374   3.889
  768SOL    HW2 3304   4.770   1.507   3.818
  769SOL     OW 3305   1.754   0.940   4.408
  769SOL    HW1 3306   1.714   0.848   4.417
  769SOL    HW2 3307   1.721   0.982   4.323
  770SOL     OW 3308   1.675   1.058   4.176
  770SOL    HW1 3309   1.766   1.053   4.134
  770SOL    HW2 3310   1.652   1.154   4.194
  771SOL     OW 3311   0.498   1.454   4.418
  771SOL    HW1 3312   0.488   1.367   4.466
  771SOL    HW2 3313   0.500   1.438   4.319
  772SOL     OW 3314   0.213   1.043   0.010
  772SOL    HW1 3315   0.285   0.981   4.979
  772SOL    HW2 3316   0.124   1.010   4.979
  773SOL     OW 3317   1.507   1.012   3.963
  773SOL    HW1 3318   1.426   0.957   3.982
  773SOL    HW2 3319   1.563   1.019   4.046
  774SOL     OW 3320   1.710   1.658   4.338
  774SOL    HW1 3321   1.632   1.613   4.295
  774SOL    HW2 3322   1.677   1.731   4.398
  775SOL     OW 3323   0.645   0.807   4.141
  775SOL    HW1 3324   0.622   0.894   4.098
  775SOL    HW2 3325   0.571   0.778   4.201
  776SOL     OW 3326   1.097   0.409   4.668
  776SOL    HW1 3327   1.065   0.339   4.605
  776SOL    HW2 3328   1.135   0.366   4.750
  777SOL     OW 3329   1.544   1.737   4.003
  777SOL    HW1 3330   1.642   1.748   4.024
  777SOL    HW2 3331   1.534   1.699   3.911
  778SOL     OW 3332   1.102   0.697   4.127
  778SOL    HW1 3333   1.103   0.700   4.227
  778SOL    HW2 3334   1.009   0.684   4.094
  779SOL     OW 3335   0.966   0.174   3.898
  779SOL    HW1 3336   0.985   0.260   3.850
  779SOL    HW2 3337   0.948   0.102   3.831
  780SOL     OW 3338   0.529   0.238   4.463
  780SOL    HW1 3339   0.564   0.164   4.520
  780SOL    HW2 3340   0.594   0.314   4.463
  781SOL     OW 3341   1.040   1.455   4.224
  781SOL    HW1 3342   0.968   1.523   4.211
  781SOL    HW2 3343   0.998   1.365   4.235
  782SOL     OW 3344   1.655   1.109   4.600
  782SOL    HW1 3345   1.697   1.049   4.533
  782SOL    HW2 3346   1.556   1.093   4.602
  783SOL     OW 3347   0.355   0.941   4.107
  783SOL    HW1 3348   0.355   0.895   4.018
  783SOL    HW2 3349   0.370   0.873   4.179
  784SOL     OW 3350   1.676   1.394   3.849
  784SOL    HW1 3351   1.631   1.475   3.811
  784SOL    HW2 3352   1.607   1.326   3.874
  785SOL     OW 3353   0.466   1.652   4.037
  785SOL    HW1 3354   0.472   1.737   4.090
  785SOL    HW2 3355   0.386   1.655   3.978
  786SOL     OW 3356   1.458   0.112   4.182
  786SOL    HW1 3357   1.429   0.086   4.089
  786SOL    HW2 3358   1.556   0.091   4.193
  787SOL     OW 3359   0.987   1.627   4.599
  787SOL    HW1 3360   1.027   1.571   4.672
  787SOL    HW2 3361   0.917   1.574   4.552
  788SOL     OW 3362   0.421   0.758   4.295
  788SOL    HW1 3363   0.423   0.658   4.296
  788SOL    HW2 3364   0.409   0.792   4.389
  789SOL     OW 3365   0.747   1.297   4.607
  789SOL    HW1 3366   0.770   1.380   4.556
  789SOL    HW2 3367   0.662   1.258   4.571
  790SOL     OW 3368   1.416   1.248   3.856
  790SOL    HW1 3369   1.446   1.163   3.900
  790SOL    HW2 3370   1.318   1.260   3.870
  791SOL     OW 3371   0.308   4.935   3.955
  791SOL    HW1 3372   0.210   4.940   3.973
  791SOL    HW2 3373   0.336   0.011   3.897
  792SOL     OW 3374   1.017   0.260   4.153
  792SOL    HW1 3375   0.993   0.218   4.066
  792SOL    HW2 3376   1.116   0.270   4.159
  793SOL     OW 3377   0.506   1.198   4.520
  793SOL    HW1 3378   0.482   1.128   4.587
  793SOL    HW2 3379   0.488   1.164   4.428
  794SOL     OW 3380   1.337   1.790   4.358
  794SOL    HW1 3381   1.359   1.854   4.284
  794SOL    HW2 3382   1.244   1.807   4.390
  795SOL     OW 3383   1.032   0.423   3.795
  795SOL    HW1 3384   0.970   0.501   3.791
  795SOL    HW2 3385   1.100   0.438   3.868
  796SOL     OW 3386   0.866   0.463   4.251
  796SOL    HW1 3387   0.853   0.525   4.174
  796SOL    HW2 3388   0.917   0.382   4.221
  797SOL     OW 3389   1.378   1.058   4.582
  797SOL    HW1 3390   1.305   0.991   4.573
  797SOL    HW2 3391   1.357   1.138   4.525
  798SOL     OW 3392   1.645   1.322   4.226
  798SOL    HW1 3393   1.733   1.341   4.271
  798SOL    HW2 3394   1.589   1.405   4.227
  799SOL     OW 3395   1.314   0.603   3.762
  799SOL    HW1 3396   1.279   0.559   3.845
  799SOL    HW2 3397   1.414   0.597   3.761
  800SOL     OW 3398   0.397   0.855   4.939
  800SOL    HW1 3399   0.483   0.854   4.990
  800SOL    HW2 3400   0.358   0.763   4.938
  801SOL     OW 3401   0.465   1.149   4.255
  801SOL    HW1 3402   0.474   1.235   4.205
  801SOL    HW2 3403   0.423   1.080   4.197
  802SOL     OW 3404   0.700   0.463   4.463
  802SOL    HW1 3405   0.763   0.459   4.386
  802SOL    HW2 3406   0.735   0.526   4.532
  803SOL     OW 3407   1.259   1.466   4.066
  803SOL    HW1 3408   1.343   1.486   4.117
  803SOL    HW2 3409   1.181   1.470   4.127
  804SOL     OW 3410   1.083   1.515   4.836
  804SOL    HW1 3411   1.170   1.557   4.864
  804SOL    HW2 3412   1.062   1.439   4.898
  805SOL     OW 3413   0.492   1.011   4.733
  805SOL    HW1 3414   0.575   1.056   4.766
  805SOL    HW2 3415   0.449   0.961   4.808
  806SOL     OW 3416   1.213   0.489   3.992
  806SOL    HW1 3417   1.248   0.421   4.057
  806SOL    HW2 3418   1.176   0.567   4.041
  807SOL     OW 3419   0.148   1.313   0.010
  807SOL    HW1 3420   0.187   1.221   0.005
  807SOL    HW2 3421   0.080   1.317   0.083
  808SOL     OW 3422   0.791   0.630   4.662
  808SOL    HW1 3423   0.891   0.639   4.667
  808SOL    HW2 3424   0.748   0.709   4.707
  809SOL     OW 3425   1.064   0.673   4.713
  809SOL    HW1 3426   1.057   0.684   4.812
  809SOL    HW2 3427   1.085   0.578   4.691
  810SOL     OW 3428   1.225   0.859   3.723
  810SOL    HW1 3429   1.246   0.761   3.734
  810SOL    HW2 3430   1.285   0.898   3.653
  811SOL     OW 3431   0.406   0.811   4.563
  811SOL    HW1 3432   0.436   0.889   4.618
  811SOL    HW2 3433   0.448   0.728   4.598
  812SOL     OW 3434   0.145   1.680   4.643
  812SOL    HW1 3435   0.129   1.608   4.710
  812SOL    HW2 3436   0.240   1.675   4.611
  813SOL     OW 3437   0.403   1.676   4.556
  813SOL    HW1 3438   0.488   1.724   4.580
  813SOL    HW2 3439   0.425   1.594   4.504
  814SOL     OW 3440   1.036   0.722   4.984
  814SOL    HW1 3441   1.124   0.764   0.004
  814SOL    HW2 3442   0.965   0.793   4.986
  815SOL     OW 3443   0.846   0.647   4.043
  815SOL    HW1 3444   0.843   0.644   3.944
  815SOL    HW2 3445   0.770   0.702   4.077
  816SOL     OW 3446   1.319   1.062   4.852
  816SOL    HW1 3447   1.337   1.057   4.754
  816SOL    HW2 3448   1.376   1.133   4.893
  817SOL     OW 3449   1.276   0.874   3.997
  817SOL    HW1 3450   1.215   0.814   4.049
  817SOL    HW2 3451   1.250   0.871   3.900
  818SOL     OW 3452   1.694   1.757   4.751
  818SOL    HW1 3453   1.768   1.824   4.756
  818SOL    HW2 3454   1.726   1.676   4.701
  819SOL     OW 3455   0.076   1.468   4.799
  819SOL    HW1 3456   0.109   1.420   4.880
  819SOL    HW2 3457   0.005   1.414   4.755
  820SOL     OW 3458   1.721   0.022   4.185
  820SOL    HW1 3459   1.771   0.067   4.111
  820SOL    HW2 3460   1.774   0.026   4.269
  821SOL     OW 3461   1.471   1.583   4.216
  821SOL    HW1 3462   1.494   1.633   4.132
  821SOL    HW2 3463   1.417   1.641   4.276
  822SOL     OW 3464   0.714   1.595   3.934
  822SOL    HW1 3465   0.719   1.619   3.837
  822SOL    HW2 3466   0.623   1.618   3.969
  823SOL     OW 3467   1.560   1.709   4.985
  823SOL    HW1 3468   1.611   1.712   4.898
  823SOL    HW2 3469   1.545   1.802   0.018
  824SOL     OW 3470   2.002   0.137   4.720
  824SOL    HW1 3471   1.967   0.050   4.683
  824SOL    HW2 3472   1.949   0.162   4.801
  825SOL     OW 3473   1.256   1.574   3.808
  825SOL    HW1 3474   1.262   1.527   3.896
  825SOL    HW2 3475   1.207   1.661   3.820
  826SOL     OW 3476   0.868   0.955   4.971
  826SOL    HW1 3477   0.812   1.014   4.913
  826SOL    HW2 3478   0.951   1.004   4.998
  827SOL     OW 3479   1.525   1.608   3.760
  827SOL    HW1 3480   1.427   1.591   3.761
  827SOL    HW2 3481   1.555   1.630   3.667
  828SOL     OW 3482   1.167   0.886   4.573
  828SOL    HW1 3483   1.136   0.808   4.628
  828SOL    HW2 3484   1.090   0.922   4.521
  829SOL     OW 3485   0.528   1.405   4.147
  829SOL    HW1 3486   0.607   1.375   4.093
  829SOL    HW2 3487   0.494   1.491   4.109
  830SOL     OW 3488   1.137   1.287   3.902
  830SOL    HW1 3489   1.050   1.329   3.877
  830SOL    HW2 3490   1.183   1.343   3.970
  831SOL     OW 3491   1.577   1.834   4.503
  831SOL    HW1 3492   1.482   1.821   4.472
  831SOL    HW2 3493   1.583   1.810   4.600
  832SOL     OW 3494   1.286   0.319   4.203
  832SOL    HW1 3495   1.349   0.242   4.196
  832SOL    HW2 3496   1.271   0.341   4.299
  833SOL     OW 3497   1.561   0.955   0.299
  833SOL    HW1 3498   1.624   1.023   0.336
  833SOL    HW2 3499   1.612   0.872   0.276
  834SOL     OW 3500   0.891   1.395   3.847
  834SOL    HW1 3501   0.843   1.469   3.894
  834SOL    HW2 3502   0.839   1.369   3.765
  835SOL     OW 3503   0.660   1.766   4.598
  835SOL    HW1 3504   0.724   1.803   4.665
  835SOL    HW2 3505   0.704   1.691   4.548
  836SOL     OW 3506   1.054   1.077   3.743
  836SOL    HW1 3507   1.096   1.140   3.808
  836SOL    HW2 3508   1.108   0.993   3.737
  837SOL     OW 3509   1.813   1.576   4.585
  837SOL    HW1 3510   1.789   1.586   4.488
  837SOL    HW2 3511   1.827   1.479   4.605
  838SOL     OW 3512   4.998   1.264   4.282
  838SOL    HW1 3513   4.950   1.223   4.359
  838SOL    HW2 3514   0.048   1.194   4.233
  839SOL     OW 3515   0.456   0.495   4.336
  839SOL    HW1 3516   0.419   0.402   4.336
  839SOL    HW2 3517   0.547   0.494   4.378
  840SOL     OW 3518   0.758   1.541   4.448
  840SOL    HW1 3519   0.789   1.568   4.357
  840SOL    HW2 3520   0.662   1.513   4.443
  841SOL     OW 3521   1.173   0.290   4.898
  841SOL    HW1 3522   1.211   0.200   4.918
  841SOL    HW2 3523   1.153   0.337   4.984
  842SOL     OW 3524   1.384   0.020   3.941
  842SOL    HW1 3525   1.452   4.963   3.894
  842SOL    HW2 3526   1.293   4.998   3.907
  843SOL     OW 3527   0.107   1.061   4.136
  843SOL    HW1 3528   0.202   1.032   4.130
  843SOL    HW2 3529   0.046   0.983   4.121
  844SOL     OW 3530   0.830   1.627   4.190
  844SOL    HW1 3531   0.793   1.618   4.098
  844SOL    HW2 3532   0.841   1.724   4.212
  845SOL     OW 3533   4.966   2.403   0.522
  845SOL    HW1 3534   4.917   2.444   0.599
  845SOL    HW2 3535   4.911   2.330   0.482
  846SOL     OW 3536   0.569   3.213   1.248
  846SOL    HW1 3537   0.489   3.197   1.190
  846SOL    HW2 3538   0.579   3.311   1.265
  847SOL     OW 3539   1.686   3.412   0.709
  847SOL    HW1 3540   1.636   3.364   0.781
  847SOL    HW2 3541   1.656   3.507   0.705
  848SOL     OW 3542   1.104   2.626   0.630
  848SOL    HW1 3543   1.158   2.708   0.650
  848SOL    HW2 3544   1.017   2.631   0.678
  849SOL     OW 3545   1.641   2.542   0.224
  849SOL    HW1 3546   1.582   2.614   0.189
  849SOL    HW2 3547   1.588   2.457   0.234
  850SOL     OW 3548   0.342   3.210   1.087
  850SOL    HW1 3549   0.243   3.192   1.090
  850SOL    HW2 3550   0.375   3.198   0.993
  851SOL     OW 3551   0.388   2.230   1.557
  851SOL    HW1 3552   0.483   2.218   1.527
  851SOL    HW2 3553   0.326   2.211   1.481
  852SOL     OW 3554   1.689   2.359   0.740
  852SOL    HW1 3555   1.637   2.378   0.657
  852SOL    HW2 3556   1.668   2.427   0.810
  853SOL     OW 3557   0.289   3.573   0.451
  853SOL    HW1 3558   0.297   3.631   0.532
  853SOL    HW2 3559   0.370   3.586   0.394
  854SOL     OW 3560   1.140   3.199   1.827
  854SOL    HW1 3561   1.226   3.153   1.803
  854SOL    HW2 3562   1.063   3.148   1.788
  855SOL     OW 3563   0.345   3.299   0.458
  855SOL    HW1 3564   0.312   3.394   0.462
  855SOL    HW2 3565   0.288   3.242   0.517
  856SOL     OW 3566   0.160   3.008   0.851
  856SOL    HW1 3567   0.147   2.932   0.915
  856SOL    HW2 3568   0.125   3.092   0.893
  857SOL     OW 3569   0.581   3.757   1.356
  857SOL    HW1 3570   0.496   3.753   1.408
  857SOL    HW2 3571   0.649   3.810   1.407
  858SOL     OW 3572   0.056   2.655   0.438
  858SOL    HW1 3573   0.029   2.560   0.451
  858SOL    HW2 3574   0.073   2.697   0.528
  859SOL     OW 3575   1.715   2.678   0.597
  859SOL    HW1 3576   1.794   2.664   0.657
  859SOL    HW2 3577   1.747   2.706   0.506
  860SOL     OW 3578   0.276   2.653   1.500
  860SOL    HW1 3579   0.370   2.690   1.505
  860SOL    HW2 3580   0.245   2.653   1.405
  861SOL     OW 3581   0.927   1.954   0.607
  861SOL    HW1 3582   0.981   2.031   0.573
  861SOL    HW2 3583   0.830   1.971   0.589
  862SOL     OW 3584   0.235   2.929   1.255
  862SOL    HW1 3585   0.323   2.959   1.218
  862SOL    HW2 3586   0.179   2.890   1.181
  863SOL     OW 3587   1.185   3.592   1.630
  863SOL    HW1 3588   1.262   3.650   1.603
  863SOL    HW2 3589   1.138   3.558   1.549
  864SOL     OW 3590   1.550   3.288   0.907
  864SOL    HW1 3591   1.465   3.324   0.870
  864SOL    HW2 3592   1.553   3.189   0.893
  865SOL     OW 3593   1.370   2.342   0.930
  865SOL    HW1 3594   1.275   2.315   0.915
  865SOL    HW2 3595   1.419   2.269   0.978
  866SOL     OW 3596   0.803   2.467   1.422
  866SOL    HW1 3597   0.736   2.473   1.496
  866SOL    HW2 3598   0.816   2.372   1.395
  867SOL     OW 3599   1.388   2.383   1.640
  867SOL    HW1 3600   1.342   2.397   1.728
  867SOL    HW2 3601   1.423   2.290   1.636
  868SOL     OW 3602   0.991   2.831   1.570
  868SOL    HW1 3603   1.022   2.736   1.564
  868SOL    HW2 3604   0.963   2.862   1.479
  869SOL     OW 3605   1.108   2.532   0.363
  869SOL    HW1 3606   1.103   2.575   0.454
  869SOL    HW2 3607   1.016   2.523   0.326
  870SOL     OW 3608   0.093   2.741   0.701
  870SOL    HW1 3609   0.163   2.683   0.741
  870SOL    HW2 3610   0.102   2.835   0.735
  871SOL     OW 3611   1.560   2.472   1.915
  871SOL    HW1 3612   1.566   2.569   1.895
  871SOL    HW2 3613   1.615   2.420   1.849
  872SOL     OW 3614   0.536   2.018   0.798
  872SOL    HW1 3615   0.519   2.023   0.896
  872SOL    HW2 3616   0.483   2.089   0.751
  873SOL     OW 3617   0.301   3.706   0.938
  873SOL    HW1 3618   0.398   3.685   0.921
  873SOL    HW2 3619   0.291   3.802   0.962
  874SOL     OW 3620   1.515   2.765   0.767
  874SOL    HW1 3621   1.519   2.691   0.834
  874SOL    HW2 3622   1.581   2.747   0.694
  875SOL     OW 3623   0.420   3.211   1.728
  875SOL    HW1 3624   0.375   3.256   1.650
  875SOL    HW2 3625   0.351   3.164   1.783
  876SOL     OW 3626   1.101   3.432   0.317
  876SOL    HW1 3627   1.007   3.436   0.351
  876SOL    HW2 3628   1.109   3.487   0.234
  877SOL     OW 3629   0.513   3.628   0.300
  877SOL    HW1 3630   0.545   3.692   0.371
  877SOL    HW2 3631   0.483   3.680   0.220
  878SOL     OW 3632   0.183   3.626   1.178
  878SOL    HW1 3633   0.239   3.554   1.218
  878SOL    HW2 3634   0.205   3.636   1.081
  879SOL     OW 3635   0.776   2.264   1.728
  879SOL    HW1 3636   0.875   2.282   1.729
  879SOL    HW2 3637   0.753   2.201   1.802
  880SOL     OW 3638   0.862   3.362   1.309
  880SOL    HW1 3639   0.863   3.337   1.212
  880SOL    HW2 3640   0.840   3.282   1.364
  881SOL     OW 3641   1.296   2.477   1.401
  881SOL    HW1 3642   1.326   2.442   1.490
  881SOL    HW2 3643   1.365   2.539   1.364
  882SOL     OW 3644   1.123   2.261   0.869
  882SOL    HW1 3645   1.109   2.250   0.771
  882SOL    HW2 3646   1.037   2.244   0.917
  883SOL     OW 3647   0.666   2.006   0.558
  883SOL    HW1 3648   0.625   2.012   0.650
  883SOL    HW2 3649   0.612   2.060   0.494
  884SOL     OW 3650   1.278   3.047   0.035
  884SOL    HW1 3651   1.285   3.059   4.936
  884SOL    HW2 3652   1.217   3.117   0.073
  885SOL     OW 3653   1.049   2.556   1.517
  885SOL    HW1 3654   0.966   2.529   1.467
  885SOL    HW2 3655   1.129   2.539   1.461
  886SOL     OW 3656   1.365   3.444   0.774
  886SOL    HW1 3657   1.321   3.454   0.685
  886SOL    HW2 3658   1.424   3.523   0.791
  887SOL     OW 3659   0.404   3.151   0.825
  887SOL    HW1 3660   0.337   3.077   0.829
  887SOL    HW2 3661   0.403   3.191   0.733
  888SOL     OW 3662   1.033   2.354   0.016
  888SOL    HW1 3663   1.056   2.278   4.954
  888SOL    HW2 3664   1.107   2.365   0.083
  889SOL     OW 3665   0.495   2.018   1.068
  889SOL    HW1 3666   0.506   2.069   1.153
  889SOL    HW2 3667   0.441   1.935   1.086
  890SOL     OW 3668   0.920   1.864   0.874
  890SOL    HW1 3669   0.933   1.902   0.783
  890SOL    HW2 3670   0.988   1.792   0.890
  891SOL     OW 3671   1.605   3.021   0.837
  891SOL    HW1 3672   1.567   2.930   0.821
  891SOL    HW2 3673   1.628   3.063   0.749
  892SOL     OW 3674   1.564   2.535   0.919
  892SOL    HW1 3675   1.486   2.473   0.925
  892SOL    HW2 3676   1.615   2.533   1.005
  893SOL     OW 3677   1.838   2.682   0.345
  893SOL    HW1 3678   1.895   2.617   0.395
  893SOL    HW2 3679   1.765   2.633   0.298
  894SOL     OW 3680   1.654   3.155   0.604
  894SOL    HW1 3681   1.666   3.135   0.507
  894SOL    HW2 3682   1.672   3.252   0.621
  895SOL     OW 3683   1.335   2.334   4.925
  895SOL    HW1 3684   1.310   2.367   0.016
  895SOL    HW2 3685   1.263   2.273   4.891
  896SOL     OW 3686   0.448   2.090   0.391
  896SOL    HW1 3687   0.448   1.991   0.381
  896SOL    HW2 3688   0.418   2.132   0.305
  897SOL     OW 3689   1.037   3.053   1.127
  897SOL    HW1 3690   1.081   3.143   1.125
  897SOL    HW2 3691   1.041   3.013   1.035
  898SOL     OW 3692   1.767   3.021   1.063
  898SOL    HW1 3693   1.708   3.049   1.139
  898SOL    HW2 3694   1.713   3.018   0.979
  899SOL     OW 3695   0.791   1.987   1.359
  899SOL    HW1 3696   0.820   1.928   1.284
  899SOL    HW2 3697   0.868   2.043   1.390
  900SOL     OW 3698   0.939   3.045   1.737
  900SOL    HW1 3699   0.844   3.073   1.721
  900SOL    HW2 3700   0.960   2.964   1.682
  901SOL     OW 3701   1.199   2.237   1.310
  901SOL    HW1 3702   1.235   2.326   1.339
  901SOL    HW2 3703   1.202   2.231   1.210
  902SOL     OW 3704   0.017   3.508   1.374
  902SOL    HW1 3705   0.055   3.559   1.297
  902SOL    HW2 3706   0.063   3.534   1.458
  903SOL     OW 3707   0.541   2.511   0.847
  903SOL    HW1 3708   0.589   2.577   0.789
  903SOL    HW2 3709   0.553   2.419   0.810
  904SOL     OW 3710   1.547   2.453   0.528
  904SOL    HW1 3711   1.458   2.457   0.573
  904SOL    HW2 3712   1.594   2.540   0.540
  905SOL     OW 3713   0.341   3.422   1.268
  905SOL    HW1 3714   0.340   3.351   1.198
  905SOL    HW2 3715   0.435   3.453   1.282
  906SOL     OW 3716   0.547   2.716   1.526
  906SOL    HW1 3717   0.597   2.735   1.441
  906SOL    HW2 3718   0.586   2.637   1.571
  907SOL     OW 3719   1.494   2.640   1.603
  907SOL    HW1 3720   1.456   2.548   1.616
  907SOL    HW2 3721   1.502   2.658   1.505
  908SOL     OW 3722   0.469   2.049   1.756
  908SOL    HW1 3723   0.450   1.965   1.705
  908SOL    HW2 3724   0.436   2.128   1.703
  909SOL     OW 3725   0.643   2.738   1.029
  909SOL    HW1 3726   0.580   2.667   0.998
  909SOL    HW2 3727   0.653   2.733   1.129
  910SOL     OW 3728   1.251   2.392   0.183
  910SOL    HW1 3729   1.338   2.363   0.222
  910SOL    HW2 3730   1.203   2.453   0.247
  911SOL     OW 3731   4.965   3.245   1.326
  911SOL    HW1 3732   0.018   3.186   1.387
  911SOL    HW2 3733   4.986   3.341   1.346
  912SOL     OW 3734   1.578   2.731   1.840
  912SOL    HW1 3735   1.547   2.709   1.747
  912SOL    HW2 3736   1.528   2.811   1.874
  913SOL     OW 3737   1.488   2.317   0.300
  913SOL    HW1 3738   1.503   2.219   0.313
  913SOL    HW2 3739   1.508   2.365   0.385
  914SOL     OW 3740   2.016   3.384   1.511
  914SOL    HW1 3741   1.993   3.378   1.414
  914SOL    HW2 3742   1.951   3.444   1.558
  915SOL     OW 3743   0.420   2.830   1.752
  915SOL    HW1 3744   0.470   2.833   1.838
  915SOL    HW2 3745   0.481   2.802   1.678
  916SOL     OW 3746   0.268   2.556   0.811
  916SOL    HW1 3747   0.240   2.474   0.760
  916SOL    HW2 3748   0.366   2.551   0.829
  917SOL     OW 3749   1.043   2.347   1.700
  917SOL    HW1 3750   1.050   2.428   1.642
  917SOL    HW2 3751   1.113   2.350   1.771
  918SOL     OW 3752   0.976   2.177   1.457
  918SOL    HW1 3753   0.994   2.211   1.549
  918SOL    HW2 3754   1.056   2.195   1.399
  919SOL     OW 3755   0.048   2.567   0.982
  919SOL    HW1 3756   0.139   2.556   0.941
  919SOL    HW2 3757   4.979   2.533   0.918
  920SOL     OW 3758   0.357   2.467   1.691
  920SOL    HW1 3759   0.358   2.378   1.645
  920SOL    HW2 3760   0.315   2.535   1.631
  921SOL     OW 3761   0.883   2.474   0.218
  921SOL    HW1 3762   0.919   2.422   0.141
  921SOL    HW2 3763   0.785   2.493   0.203
  922SOL     OW 3764   1.697   2.499   1.154
  922SOL    HW1 3765   1.647   2.500   1.240
  922SOL    HW2 3766   1.754   2.417   1.149
  923SOL     OW 3767   0.180   3.555   1.593
  923SOL    HW1 3768   0.177   3.574   1.691
  923SOL    HW2 3769   0.214   3.462   1.579
  924SOL     OW 3770   0.363   2.235   0.160
  924SOL    HW1 3771   0.406   2.247   0.070
  924SOL    HW2 3772   0.368   2.321   0.211
  925SOL     OW 3773   0.138   3.071   1.466
  925SOL    HW1 3774   0.137   3.012   1.546
  925SOL    HW2 3775   0.172   3.020   1.387
  926SOL     OW 3776   1.674   3.499   1.046
  926SOL    HW1 3777   1.766   3.517   1.013
  926SOL    HW2 3778   1.640   3.413   1.008
  927SOL     OW 3779   0.069   3.166   1.079
  927SOL    HW1 3780   0.043   3.215   1.162
  927SOL    HW2 3781   4.998   3.100   1.055
  928SOL     OW 3782   1.276   3.504   0.516
  928SOL    HW1 3783   1.297   3.599   0.495
  928SOL    HW2 3784   1.211   3.469   0.449
  929SOL     OW 3785   0.214   3.626   1.859
  929SOL    HW1 3786   0.236   3.586   1.948
  929SOL    HW2 3787   0.281   3.696   1.836
  930SOL     OW 3788   1.254   2.846   0.698
  930SOL    HW1 3789   1.346   2.818   0.726
  930SOL    HW2 3790   1.261   2.921   0.633
  931SOL     OW 3791   0.757   3.136   1.428
  931SOL    HW1 3792   0.727   3.141   1.524
  931SOL    HW2 3793   0.678   3.150   1.368
  932SOL     OW 3794   1.700   3.474   1.323
  932SOL    HW1 3795   1.667   3.493   1.231
  932SOL    HW2 3796   1.665   3.543   1.386
  933SOL     OW 3797   1.957   1.995   0.880
  933SOL    HW1 3798   1.948   1.897   0.860
  933SOL    HW2 3799   1.866   2.037   0.882
  934SOL     OW 3800   0.177   2.331   0.683
  934SOL    HW1 3801   0.110   2.361   0.615
  934SOL    HW2 3802   0.135   2.261   0.742
  935SOL     OW 3803   1.119   3.521   0.055
  935SOL    HW1 3804   1.137   3.425   0.034
  935SOL    HW2 3805   1.074   3.565   4.977
  936SOL     OW 3806   0.894   2.924   1.328
  936SOL    HW1 3807   0.950   2.960   1.253
  936SOL    HW2 3808   0.842   2.999   1.370
  937SOL     OW 3809   0.272   3.309   1.513
  937SOL    HW1 3810   0.297   3.348   1.424
  937SOL    HW2 3811   0.224   3.223   1.499
  938SOL     OW 3812   1.065   2.935   0.883
  938SOL    HW1 3813   0.974   2.903   0.858
  938SOL    HW2 3814   1.132   2.906   0.815
  939SOL     OW 3815   0.588   3.365   0.341
  939SOL    HW1 3816   0.508   3.329   0.389
  939SOL    HW2 3817   0.570   3.459   0.312
  940SOL     OW 3818   0.273   3.099   0.277
  940SOL    HW1 3819   0.183   3.082   0.317
  940SOL    HW2 3820   0.312   3.181   0.318
  941SOL     OW 3821   0.167   2.861   1.668
  941SOL    HW1 3822   0.156   2.789   1.600
  941SOL    HW2 3823   0.259   2.856   1.707
  942SOL     OW 3824   0.647   2.183   1.492
  942SOL    HW1 3825   0.695   2.112   1.439
  942SOL    HW2 3826   0.699   2.204   1.575
  943SOL     OW 3827   0.123   2.184   0.029
  943SOL    HW1 3828   0.143   2.113   4.961
  943SOL    HW2 3829   0.203   2.198   0.087
  944SOL     OW 3830   1.502   2.666   1.326
  944SOL    HW1 3831   1.429   2.712   1.276
  944SOL    HW2 3832   1.590   2.707   1.301
  945SOL     OW 3833   4.867   2.162   0.395
  945SOL    HW1 3834   4.865   2.163   0.295
  945SOL    HW2 3835   4.940   2.102   0.427
  946SOL     OW 3836   1.106   3.239   0.117
  946SOL    HW1 3837   1.011   3.211   0.103
  946SOL    HW2 3838   1.111   3.300   0.197
  947SOL     OW 3839   0.718   2.708   1.301
  947SOL    HW1 3840   0.783   2.784   1.307
  947SOL    HW2 3841   0.759   2.626   1.339
  948SOL     OW 3842   1.544   3.637   0.844
  948SOL    HW1 3843   1.545   3.737   0.851
  948SOL    HW2 3844   1.583   3.597   0.927
  949SOL     OW 3845   0.632   2.480   1.643
  949SOL    HW1 3846   0.536   2.479   1.673
  949SOL    HW2 3847   0.679   2.401   1.682
  950SOL     OW 3848   0.337   3.753   1.484
  950SOL    HW1 3849   0.283   3.833   1.457
  950SOL    HW2 3850   0.276   3.678   1.509
  951SOL     OW 3851   1.727   2.773   1.204
  951SOL    HW1 3852   1.744   2.683   1.163
  951SOL    HW2 3853   1.759   2.844   1.142
  952SOL     OW 3854   0.669   2.686   0.681
  952SOL    HW1 3855   0.722   2.752   0.735
  952SOL    HW2 3856   0.645   2.726   0.593
  953SOL     OW 3857   0.559   3.688   0.863
  953SOL    HW1 3858   0.575   3.787   0.867
  953SOL    HW2 3859   0.643   3.641   0.834
  954SOL     OW 3860   0.794   2.871   0.844
  954SOL    HW1 3861   0.747   2.823   0.919
  954SOL    HW2 3862   0.762   2.966   0.840
  955SOL     OW 3863   1.943   3.355   0.772
  955SOL    HW1 3864   1.850   3.368   0.739
  955SOL    HW2 3865   1.942   3.305   0.859
  956SOL     OW 3866   0.215   3.078   1.853
  956SOL    HW1 3867   0.188   3.009   1.784
  956SOL    HW2 3868   0.183   3.049   1.943
  957SOL     OW 3869   0.189   3.126   0.600
  957SOL    HW1 3870   0.171   3.079   0.686
  957SOL    HW2 3871   0.124   3.096   0.530
  958SOL     OW 3872   0.686   3.171   1.692
  958SOL    HW1 3873   0.587   3.170   1.706
  958SOL    HW2 3874   0.725   3.257   1.726
  959SOL     OW 3875   1.913   1.950   1.156
  959SOL    HW1 3876   1.849   1.876   1.138
  959SOL    HW2 3877   1.957   1.978   1.071
  960SOL     OW 3878   0.422   2.211   0.641
  960SOL    HW1 3879   0.427   2.175   0.548
  960SOL    HW2 3880   0.336   2.260   0.653
  961SOL     OW 3881   1.490   2.131   1.063
  961SOL    HW1 3882   1.486   2.042   1.019
  961SOL    HW2 3883   1.484   2.120   1.162
  962SOL     OW 3884   0.856   1.815   1.148
  962SOL    HW1 3885   0.872   1.717   1.157
  962SOL    HW2 3886   0.881   1.844   1.056
  963SOL     OW 3887   0.608   3.485   1.304
  963SOL    HW1 3888   0.600   3.584   1.317
  963SOL    HW2 3889   0.703   3.458   1.316
  964SOL     OW 3890   1.315   2.446   0.663
  964SOL    HW1 3891   1.236   2.507   0.655
  964SOL    HW2 3892   1.326   2.419   0.759
  965SOL     OW 3893   1.718   2.142   0.904
  965SOL    HW1 3894   1.644   2.152   0.970
  965SOL    HW2 3895   1.715   2.217   0.838
  966SOL     OW 3896   0.018   2.830   0.234
  966SOL    HW1 3897   0.102   2.837   0.180
  966SOL    HW2 3898   0.029   2.759   0.303
  967SOL     OW 3899   0.847   3.451   0.404
  967SOL    HW1 3900   0.763   3.403   0.381
  967SOL    HW2 3901   0.825   3.541   0.443
  968SOL     OW 3902   0.289   2.491   1.958
  968SOL    HW1 3903   0.302   2.400   1.996
  968SOL    HW2 3904   0.314   2.490   1.861
  969SOL     OW 3905   0.115   2.036   2.764
  969SOL    HW1 3906   0.153   2.032   2.857
  969SOL    HW2 3907   0.057   1.956   2.748
  970SOL     OW 3908   0.632   3.222   3.082
  970SOL    HW1 3909   0.539   3.199   3.052
  970SOL    HW2 3910   0.627   3.273   3.168
  971SOL     OW 3911   1.675   2.517   2.161
  971SOL    HW1 3912   1.630   2.494   2.075
  971SOL    HW2 3913   1.674   2.437   2.222
  972SOL     OW 3914   0.824   3.063   2.962
  972SOL    HW1 3915   0.748   3.111   3.004
  972SOL    HW2 3916   0.904   3.123   2.958
  973SOL     OW 3917   0.704   3.006   2.476
  973SOL    HW1 3918   0.766   2.982   2.550
  973SOL    HW2 3919   0.612   3.019   2.513
  974SOL     OW 3920   0.791   3.081   3.678
  974SOL    HW1 3921   0.848   3.121   3.750
  974SOL    HW2 3922   0.737   3.152   3.634
  975SOL     OW 3923   0.377   3.218   2.971
  975SOL    HW1 3924   0.343   3.142   2.915
  975SOL    HW2 3925   0.405   3.293   2.912
  976SOL     OW 3926   0.963   3.277   3.533
  976SOL    HW1 3927   0.961   3.183   3.566
  976SOL    HW2 3928   0.875   3.300   3.491
  977SOL     OW 3929   0.272   3.024   2.813
  977SOL    HW1 3930   0.242   2.930   2.831
  977SOL    HW2 3931   0.234   3.055   2.726
  978SOL     OW 3932   0.555   3.660   3.299
  978SOL    HW1 3933   0.517   3.658   3.206
  978SOL    HW2 3934   0.614   3.740   3.309
  979SOL     OW 3935   0.515   2.874   2.013
  979SOL    HW1 3936   0.496   2.971   1.998
  979SOL    HW2 3937   0.580   2.864   2.088
  980SOL     OW 3938   1.640   2.027   3.361
  980SOL    HW1 3939   1.672   2.098   3.298
  980SOL    HW2 3940   1.552   2.053   3.400
  981SOL     OW 3941   0.596   3.300   2.665
  981SOL    HW1 3942   0.544   3.218   2.641
  981SOL    HW2 3943   0.673   3.310   2.602
  982SOL     OW 3944   0.703   1.861   2.068
  982SOL    HW1 3945   0.691   1.848   2.167
  982SOL    HW2 3946   0.729   1.774   2.026
  983SOL     OW 3947   1.215   3.702   3.570
  983SOL    HW1 3948   1.216   3.772   3.498
  983SOL    HW2 3949   1.199   3.613   3.528
  984SOL     OW 3950   0.807   2.423   3.146
  984SOL    HW1 3951   0.804   2.417   3.245
  984SOL    HW2 3952   0.724   2.468   3.113
  985SOL     OW 3953   0.976   2.213   3.109
  985SOL    HW1 3954   0.912   2.289   3.112
  985SOL    HW2 3955   0.940   2.136   3.161
  986SOL     OW 3956   1.053   2.635   2.292
  986SOL    HW1 3957   1.132   2.674   2.338
  986SOL    HW2 3958   0.986   2.604   2.360
  987SOL     OW 3959   0.113   2.802   2.555
  987SOL    HW1 3960   0.161   2.737   2.496
  987SOL    HW2 3961   0.137   2.785   2.651
  988SOL     OW 3962   0.845   2.234   2.112
  988SOL    HW1 3963   0.858   2.323   2.067
  988SOL    HW2 3964   0.782   2.179   2.058
  989SOL     OW 3965   1.310   3.009   2.445
  989SOL    HW1 3966   1.367   3.028   2.524
  989SOL    HW2 3967   1.290   3.095   2.397
  990SOL     OW 3968   0.427   1.979   2.797
  990SOL    HW1 3969   0.375   1.987   2.882
  990SOL    HW2 3970   0.405   2.056   2.737
  991SOL     OW 3971   1.024   3.409   2.407
  991SOL    HW1 3972   0.983   3.475   2.344
  991SOL    HW2 3973   0.952   3.351   2.446
  992SOL     OW 3974   1.686   3.047   2.814
  992SOL    HW1 3975   1.766   3.020   2.761
  992SOL    HW2 3976   1.604   3.043   2.756
  993SOL     OW 3977   1.153   3.457   3.446
  993SOL    HW1 3978   1.097   3.380   3.476
  993SOL    HW2 3979   1.228   3.424   3.390
  994SOL     OW 3980   0.284   2.738   2.072
  994SOL    HW1 3981   0.368   2.786   2.048
  994SOL    HW2 3982   0.285   2.647   2.031
  995SOL     OW 3983   0.411   3.227   3.677
  995SOL    HW1 3984   0.342   3.248   3.607
  995SOL    HW2 3985   0.414   3.129   3.693
  996SOL     OW 3986   1.093   3.637   2.073
  996SOL    HW1 3987   1.017   3.607   2.129
  996SOL    HW2 3988   1.121   3.563   2.012
  997SOL     OW 3989   0.164   2.059   3.281
  997SOL    HW1 3990   0.254   2.063   3.325
  997SOL    HW2 3991   0.131   1.964   3.282
  998SOL     OW 3992   1.576   3.299   2.126
  998SOL    HW1 3993   1.522   3.319   2.044
  998SOL    HW2 3994   1.516   3.295   2.205
  999SOL     OW 3995   0.455   3.641   3.040
  999SOL    HW1 3996   0.500   3.572   2.984
  999SOL    HW2 3997   0.360   3.615   3.056
 1000SOL     OW 3998   0.677   2.095   1.931
 1000SOL    HW1 3999   0.691   2.010   1.983
 1000SOL    HW2 4000   0.600   2.083   1.869
 1001SOL     OW 4001   1.262   2.566   3.262
 1001SOL    HW1 4002   1.339   2.533   3.208
 1001SOL    HW2 4003   1.292   2.639   3.323
 1002SOL     OW 4004   0.910   2.294   2.374
 1002SOL    HW1 4005   0.880   2.266   2.282
 1002SOL    HW2 4006   0.980   2.230   2.406
 1003SOL     OW 4007   1.198   3.502   2.600
 1003SOL    HW1 4008   1.143   3.466   2.525
 1003SOL    HW2 4009   1.139   3.544   2.668
 1004SOL     OW 4010   0.464   3.064   2.604
 1004SOL    HW1 4011   0.440   3.026   2.694
 1004SOL    HW2 4012   0.380   3.078   2.551
 1005SOL     OW 4013   0.859   2.542   2.471
 1005SOL    HW1 4014   0.764   2.564   2.450
 1005SOL    HW2 4015   0.878   2.448   2.444
 1006SOL     OW 4016   1.435   3.040   2.695
 1006SOL    HW1 4017   1.395   3.131   2.704
 1006SOL    HW2 4018   1.392   2.977   2.760
 1007SOL     OW 4019   1.930   2.600   2.096
 1007SOL    HW1 4020   1.948   2.697   2.115
 1007SOL    HW2 4021   1.837   2.577   2.126
 1008SOL     OW 4022   1.288   2.409   1.894
 1008SOL    HW1 4023   1.239   2.415   1.981
 1008SOL    HW2 4024   1.385   2.429   1.910
 1009SOL     OW 4025   0.685   2.864   2.228
 1009SOL    HW1 4026   0.694   2.914   2.314
 1009SOL    HW2 4027   0.776   2.846   2.191
 1010SOL     OW 4028   1.108   2.342   3.320
 1010SOL    HW1 4029   1.160   2.425   3.302
 1010SOL    HW2 4030   1.082   2.300   3.233
 1011SOL     OW 4031   0.200   3.548   3.097
 1011SOL    HW1 4032   0.117   3.580   3.143
 1011SOL    HW2 4033   0.234   3.467   3.145
 1012SOL     OW 4034   1.234   3.244   2.318
 1012SOL    HW1 4035   1.218   3.238   2.220
 1012SOL    HW2 4036   1.164   3.302   2.360
 1013SOL     OW 4037   1.399   3.359   2.955
 1013SOL    HW1 4038   1.490   3.321   2.973
 1013SOL    HW2 4039   1.363   3.321   2.870
 1014SOL     OW 4040   1.427   2.524   2.311
 1014SOL    HW1 4041   1.378   2.600   2.353
 1014SOL    HW2 4042   1.507   2.560   2.261
 1015SOL     OW 4043   0.321   3.329   3.217
 1015SOL    HW1 4044   0.331   3.279   3.131
 1015SOL    HW2 4045   0.411   3.350   3.254
 1016SOL     OW 4046   1.647   2.651   3.708
 1016SOL    HW1 4047   1.548   2.667   3.703
 1016SOL    HW2 4048   1.688   2.673   3.619
 1017SOL     OW 4049   0.917   2.012   3.668
 1017SOL    HW1 4050   0.939   2.091   3.611
 1017SOL    HW2 4051   0.941   1.928   3.619
 1018SOL     OW 4052   1.202   2.440   2.155
 1018SOL    HW1 4053   1.286   2.448   2.208
 1018SOL    HW2 4054   1.132   2.501   2.194
 1019SOL     OW 4055   0.242   2.002   3.009
 1019SOL    HW1 4056   0.207   2.043   3.093
 1019SOL    HW2 4057   0.270   1.907   3.027
 1020SOL     OW 4058   1.621   2.318   2.344
 1020SOL    HW1 4059   1.592   2.223   2.352
 1020SOL    HW2 4060   1.543   2.379   2.358
 1021SOL     OW 4061   0.908   2.691   2.706
 1021SOL    HW1 4062   0.935   2.638   2.786
 1021SOL    HW2 4063   0.896   2.630   2.627
 1022SOL     OW 4064   0.959   3.459   3.745
 1022SOL    HW1 4065   0.891   3.527   3.719
 1022SOL    HW2 4066   0.978   3.400   3.667
 1023SOL     OW 4067   1.954   3.215   3.570
 1023SOL    HW1 4068   1.889   3.167   3.511
 1023SOL    HW2 4069   1.909   3.243   3.654
 1024SOL     OW 4070   0.422   2.946   3.684
 1024SOL    HW1 4071   0.491   2.934   3.755
 1024SOL    HW2 4072   0.451   2.899   3.600
 1025SOL     OW 4073   1.290   3.269   2.712
 1025SOL    HW1 4074   1.213   3.209   2.692
 1025SOL    HW2 4075   1.275   3.358   2.670
 1026SOL     OW 4076   0.987   2.249   3.543
 1026SOL    HW1 4077   1.027   2.284   3.628
 1026SOL    HW2 4078   1.043   2.278   3.465
 1027SOL     OW 4079   0.574   3.431   2.902
 1027SOL    HW1 4080   0.620   3.368   2.964
 1027SOL    HW2 4081   0.582   3.397   2.808
 1028SOL     OW 4082   0.954   2.590   2.962
 1028SOL    HW1 4083   0.921   2.518   3.023
 1028SOL    HW2 4084   0.946   2.679   3.007
 1029SOL     OW 4085   1.371   2.766   3.670
 1029SOL    HW1 4086   1.398   2.857   3.701
 1029SOL    HW2 4087   1.376   2.761   3.570
 1030SOL     OW 4088   1.691   2.479   3.090
 1030SOL    HW1 4089   1.678   2.383   3.115
 1030SOL    HW2 4090   1.787   2.495   3.068
 1031SOL     OW 4091   0.906   3.587   3.437
 1031SOL    HW1 4092   0.994   3.541   3.436
 1031SOL    HW2 4093   0.909   3.667   3.377
 1032SOL     OW 4094   0.033   3.054   3.470
 1032SOL    HW1 4095   0.072   3.003   3.547
 1032SOL    HW2 4096   0.029   2.996   3.389
 1033SOL     OW 4097   1.753   3.503   3.052
 1033SOL    HW1 4098   1.847   3.520   3.022
 1033SOL    HW2 4099   1.725   3.412   3.023
 1034SOL     OW 4100   1.345   3.629   2.966
 1034SOL    HW1 4101   1.432   3.677   2.979
 1034SOL    HW2 4102   1.362   3.530   2.965
 1035SOL     OW 4103   0.712   3.564   3.624
 1035SOL    HW1 4104   0.635   3.625   3.609
 1035SOL    HW2 4105   0.781   3.579   3.553
 1036SOL     OW 4106   1.276   2.738   2.428
 1036SOL    HW1 4107   1.268   2.710   2.524
 1036SOL    HW2 4108   1.282   2.837   2.423
 1037SOL     OW 4109   0.685   3.374   2.218
 1037SOL    HW1 4110   0.586   3.370   2.205
 1037SOL    HW2 4111   0.730   3.310   2.155
 1038SOL     OW 4112   0.321   2.166   2.636
 1038SOL    HW1 4113   0.303   2.223   2.556
 1038SOL    HW2 4114   0.235   2.128   2.670
 1039SOL     OW 4115   1.175   3.465   1.871
 1039SOL    HW1 4116   1.151   3.369   1.855
 1039SOL    HW2 4117   1.178   3.514   1.784
 1040SOL     OW 4118   0.921   2.831   3.080
 1040SOL    HW1 4119   0.884   2.913   3.036
 1040SOL    HW2 4120   0.946   2.853   3.174
 1041SOL     OW 4121   0.926   2.794   2.112
 1041SOL    HW1 4122   0.905   2.744   2.028
 1041SOL    HW2 4123   0.974   2.734   2.176
 1042SOL     OW 4124   1.431   3.364   1.908
 1042SOL    HW1 4125   1.341   3.408   1.906
 1042SOL    HW2 4126   1.473   3.368   1.818
 1043SOL     OW 4127   0.231   3.253   3.470
 1043SOL    HW1 4128   0.253   3.279   3.376
 1043SOL    HW2 4129   0.152   3.192   3.470
 1044SOL     OW 4130   1.676   2.918   3.067
 1044SOL    HW1 4131   1.749   2.967   3.113
 1044SOL    HW2 4132   1.669   2.950   2.972
 1045SOL     OW 4133   1.099   3.094   2.627
 1045SOL    HW1 4134   1.011   3.051   2.648
 1045SOL    HW2 4135   1.139   3.050   2.547
 1046SOL     OW 4136   0.782   3.272   2.455
 1046SOL    HW1 4137   0.764   3.173   2.454
 1046SOL    HW2 4138   0.743   3.313   2.372
 1047SOL     OW 4139   1.742   2.210   3.180
 1047SOL    HW1 4140   1.820   2.261   3.216
 1047SOL    HW2 4141   1.774   2.126   3.136
 1048SOL     OW 4142   0.147   2.923   3.680
 1048SOL    HW1 4143   0.111   2.950   3.769
 1048SOL    HW2 4144   0.246   2.925   3.681
 1049SOL     OW 4145   1.398   2.777   3.391
 1049SOL    HW1 4146   1.377   2.872   3.367
 1049SOL    HW2 4147   1.476   2.746   3.337
 1050SOL     OW 4148   1.605   3.726   3.001
 1050SOL    HW1 4149   1.670   3.784   2.950
 1050SOL    HW2 4150   1.646   3.637   3.018
 1051SOL     OW 4151   0.789   2.403   3.420
 1051SOL    HW1 4152   0.798   2.491   3.465
 1051SOL    HW2 4153   0.852   2.337   3.461
 1052SOL     OW 4154   1.608   2.705   3.226
 1052SOL    HW1 4155   1.630   2.620   3.178
 1052SOL    HW2 4156   1.626   2.783   3.166
 1053SOL     OW 4157   1.757   2.719   3.456
 1053SOL    HW1 4158   1.821   2.794   3.437
 1053SOL    HW2 4159   1.695   2.708   3.378
 1054SOL     OW 4160   0.865   2.960   2.697
 1054SOL    HW1 4161   0.883   2.861   2.700
 1054SOL    HW2 4162   0.840   2.991   2.789
 1055SOL     OW 4163   0.181   3.072   2.561
 1055SOL    HW1 4164   0.111   3.142   2.551
 1055SOL    HW2 4165   0.142   2.982   2.541
 1056SOL     OW 4166   0.653   3.303   3.569
 1056SOL    HW1 4167   0.565   3.276   3.608
 1056SOL    HW2 4168   0.675   3.396   3.597
 1057SOL     OW 4169   1.883   1.980   3.121
 1057SOL    HW1 4170   1.867   1.888   3.087
 1057SOL    HW2 4171   1.961   2.021   3.074
 1058SOL     OW 4172   1.656   3.247   3.001
 1058SOL    HW1 4173   1.671   3.183   2.925
 1058SOL    HW2 4174   1.675   3.201   3.087
 1059SOL     OW 4175   0.577   3.380   3.307
 1059SOL    HW1 4176   0.580   3.480   3.307
 1059SOL    HW2 4177   0.607   3.346   3.396
 1060SOL     OW 4178   0.118   2.955   2.081
 1060SOL    HW1 4179   0.179   2.876   2.090
 1060SOL    HW2 4180   0.032   2.936   2.130
 1061SOL     OW 4181   0.876   3.582   2.244
 1061SOL    HW1 4182   0.800   3.517   2.234
 1061SOL    HW2 4183   0.839   3.672   2.266
 1062SOL     OW 4184   1.751   2.528   3.937
 1062SOL    HW1 4185   1.707   2.570   3.857
 1062SOL    HW2 4186   1.696   2.451   3.968
 1063SOL     OW 4187   0.241   3.263   4.580
 1063SOL    HW1 4188   0.254   3.165   4.593
 1063SOL    HW2 4189   0.326   3.311   4.601
 1064SOL     OW 4190   0.182   3.506   4.283
 1064SOL    HW1 4191   0.226   3.590   4.315
 1064SOL    HW2 4192   0.186   3.502   4.184
 1065SOL     OW 4193   0.133   3.219   4.280
 1065SOL    HW1 4194   0.167   3.308   4.311
 1065SOL    HW2 4195   0.101   3.166   4.358
 1066SOL     OW 4196   0.246   2.956   4.637
 1066SOL    HW1 4197   0.269   2.859   4.641
 1066SOL    HW2 4198   0.226   2.990   4.729
 1067SOL     OW 4199   0.636   2.923   3.847
 1067SOL    HW1 4200   0.698   2.970   3.784
 1067SOL    HW2 4201   0.678   2.915   3.937
 1068SOL     OW 4202   0.183   3.485   4.000
 1068SOL    HW1 4203   0.104   3.425   4.016
 1068SOL    HW2 4204   0.154   3.566   3.950
 1069SOL     OW 4205   1.833   2.753   4.430
 1069SOL    HW1 4206   1.825   2.709   4.341
 1069SOL    HW2 4207   1.873   2.844   4.419
 1070SOL     OW 4208   0.617   3.211   4.463
 1070SOL    HW1 4209   0.567   3.124   4.467
 1070SOL    HW2 4210   0.607   3.252   4.373
 1071SOL     OW 4211   0.844   1.891   4.274
 1071SOL    HW1 4212   0.880   1.976   4.235
 1071SOL    HW2 4213   0.749   1.904   4.300
 1072SOL     OW 4214   0.247   2.901   0.090
 1072SOL    HW1 4215   0.272   2.967   0.161
 1072SOL    HW2 4216   0.222   2.950   0.006
 1073SOL     OW 4217   1.518   3.509   4.279
 1073SOL    HW1 4218   1.427   3.516   4.239
 1073SOL    HW2 4219   1.585   3.546   4.215
 1074SOL     OW 4220   1.134   2.155   4.851
 1074SOL    HW1 4221   1.084   2.133   4.768
 1074SOL    HW2 4222   1.164   2.071   4.895
 1075SOL     OW 4223   1.050   2.519   4.215
 1075SOL    HW1 4224   1.106   2.569   4.281
 1075SOL    HW2 4225   0.983   2.463   4.265
 1076SOL     OW 4226   0.074   3.716   0.351
 1076SOL    HW1 4227   0.150   3.660   0.384
 1076SOL    HW2 4228   0.096   3.752   0.260
 1077SOL     OW 4229   0.928   2.154   3.903
 1077SOL    HW1 4230   0.974   2.237   3.871
 1077SOL    HW2 4231   0.905   2.096   3.826
 1078SOL     OW 4232   1.284   3.135   4.369
 1078SOL    HW1 4233   1.337   3.051   4.353
 1078SOL    HW2 4234   1.268   3.181   4.282
 1079SOL     OW 4235   0.958   3.313   4.224
 1079SOL    HW1 4236   0.916   3.400   4.196
 1079SOL    HW2 4237   0.989   3.320   4.319
 1080SOL     OW 4238   0.375   3.651   4.628
 1080SOL    HW1 4239   0.415   3.560   4.624
 1080SOL    HW2 4240   0.434   3.711   4.682
 1081SOL     OW 4241   1.527   2.571   4.533
 1081SOL    HW1 4242   1.451   2.561   4.597
 1081SOL    HW2 4243   1.594   2.635   4.570
 1082SOL     OW 4244   1.080   3.554   3.975
 1082SOL    HW1 4245   0.999   3.556   4.033
 1082SOL    HW2 4246   1.055   3.523   3.883
 1083SOL     OW 4247   1.561   3.222   3.749
 1083SOL    HW1 4248   1.498   3.297   3.770
 1083SOL    HW2 4249   1.516   3.135   3.767
 1084SOL     OW 4250   1.435   1.949   4.145
 1084SOL    HW1 4251   1.461   1.874   4.085
 1084SOL    HW2 4252   1.517   1.995   4.178
 1085SOL     OW 4253   0.811   3.514   4.638
 1085SOL    HW1 4254   0.837   3.419   4.651
 1085SOL    HW2 4255   0.751   3.523   4.558
 1086SOL     OW 4256   0.851   3.250   4.616
 1086SOL    HW1 4257   0.935   3.250   4.562
 1086SOL    HW2 4258   0.774   3.222   4.558
 1087SOL     OW 4259   0.871   2.307   4.611
 1087SOL    HW1 4260   0.866   2.328   4.513
 1087SOL    HW2 4261   0.906   2.213   4.623
 1088SOL     OW 4262   0.468   1.895   4.161
 1088SOL    HW1 4263   0.392   1.918   4.222
 1088SOL    HW2 4264   0.488   1.973   4.102
 1089SOL     OW 4265   1.416   2.999   3.817
 1089SOL    HW1 4266   1.462   2.944   3.888
 1089SOL    HW2 4267   1.328   3.031   3.851
 1090SOL     OW 4268   0.951   2.124   4.173
 1090SOL    HW1 4269   0.933   2.142   4.076
 1090SOL    HW2 4270   1.050   2.121   4.188
 1091SOL     OW 4271   1.250   3.504   4.530
 1091SOL    HW1 4272   1.225   3.583   4.474
 1091SOL    HW2 4273   1.346   3.513   4.558
 1092SOL     OW 4274   0.456   2.986   4.451
 1092SOL    HW1 4275   0.387   2.969   4.521
 1092SOL    HW2 4276   0.411   3.003   4.363
 1093SOL     OW 4277   1.182   3.718   4.366
 1093SOL    HW1 4278   1.209   3.813   4.352
 1093SOL    HW2 4279   1.090   3.715   4.406
 1094SOL     OW 4280   1.092   2.360   3.777
 1094SOL    HW1 4281   1.130   2.443   3.737
 1094SOL    HW2 4282   1.126   2.348   3.870
 1095SOL     OW 4283   0.861   2.339   4.328
 1095SOL    HW1 4284   0.769   2.365   4.297
 1095SOL    HW2 4285   0.892   2.259   4.276
 1096SOL     OW 4286   1.068   1.841   4.442
 1096SOL    HW1 4287   0.993   1.856   4.378
 1096SOL    HW2 4288   1.047   1.762   4.499
 1097SOL     OW 4289   1.821   2.603   4.197
 1097SOL    HW1 4290   1.894   2.542   4.228
 1097SOL    HW2 4291   1.803   2.587   4.100
 1098SOL     OW 4292   0.435   3.388   3.923
 1098SOL    HW1 4293   0.345   3.422   3.952
 1098SOL    HW2 4294   0.424   3.329   3.843
 1099SOL     OW 4295   1.822   3.051   4.688
 1099SOL    HW1 4296   1.771   3.036   4.772
 1099SOL    HW2 4297   1.759   3.076   4.615
 1100SOL     OW 4298   0.753   2.887   4.093
 1100SOL    HW1 4299   0.716   2.864   4.183
 1100SOL    HW2 4300   0.828   2.824   4.071
 1101SOL     OW 4301   0.392   2.704   4.960
 1101SOL    HW1 4302   0.329   2.632   4.932
 1101SOL    HW2 4303   0.342   2.774   0.013
 1102SOL     OW 4304   0.335   3.045   4.219
 1102SOL    HW1 4305   0.262   3.112   4.230
 1102SOL    HW2 4306   0.362   3.041   4.123
 1103SOL     OW 4307   1.214   3.262   4.137
 1103SOL    HW1 4308   1.257   3.353   4.139
 1103SOL    HW2 4309   1.117   3.270   4.156
 1104SOL     OW 4310   1.565   2.533   4.265
 1104SOL    HW1 4311   1.542   2.542   4.362
 1104SOL    HW2 4312   1.660   2.561   4.251
 1105SOL     OW 4313   0.581   2.639   4.779
 1105SOL    HW1 4314   0.651   2.711   4.769
 1105SOL    HW2 4315   0.518   2.664   4.852
 1106SOL     OW 4316   1.334   2.507   4.716
 1106SOL    HW1 4317   1.235   2.517   4.707
 1106SOL    HW2 4318   1.354   2.458   4.800
 1107SOL     OW 4319   1.163   2.338   4.036
 1107SOL    HW1 4320   1.197   2.262   4.091
 1107SOL    HW2 4321   1.128   2.410   4.096
 1108SOL     OW 4322   0.682   2.382   4.805
 1108SOL    HW1 4323   0.746   2.357   4.733
 1108SOL    HW2 4324   0.651   2.476   4.791
 1109SOL     OW 4325   0.248   1.977   4.313
 1109SOL    HW1 4326   0.273   2.040   4.387
 1109SOL    HW2 4327   0.176   1.915   4.345
 1110SOL     OW 4328   1.604   2.324   4.092
 1110SOL    HW1 4329   1.634   2.248   4.150
 1110SOL    HW2 4330   1.574   2.400   4.150
 1111SOL     OW 4331   1.056   2.469   4.747
 1111SOL    HW1 4332   1.036   2.455   4.844
 1111SOL    HW2 4333   0.989   2.420   4.691
 1112SOL     OW 4334   1.517   2.126   3.922
 1112SOL    HW1 4335   1.460   2.069   3.981
 1112SOL    HW2 4336   1.539   2.211   3.970
 1113SOL     OW 4337   1.085   3.295   4.469
 1113SOL    HW1 4338   1.151   3.228   4.437
 1113SOL    HW2 4339   1.133   3.376   4.503
 1114SOL     OW 4340   0.324   2.694   4.655
 1114SOL    HW1 4341   0.423   2.682   4.659
 1114SOL    HW2 4342   0.280   2.623   4.710
 1115SOL     OW 4343   0.258   2.484   4.839
 1115SOL    HW1 4344   0.176   2.435   4.810
 1115SOL    HW2 4345   0.330   2.418   4.862
 1116SOL     OW 4346   0.111   3.660   4.691
 1116SOL    HW1 4347   0.067   3.598   4.626
 1116SOL    HW2 4348   0.210   3.660   4.675
 1117SOL     OW 4349   0.480   3.388   4.639
 1117SOL    HW1 4350   0.533   3.432   4.711
 1117SOL    HW2 4351   0.541   3.336   4.580
 1118SOL     OW 4352   0.444   2.282   4.897
 1118SOL    HW1 4353   0.431   2.197   4.846
 1118SOL    HW2 4354   0.534   2.321   4.874
 1119SOL     OW 4355   0.177   3.069   4.881
 1119SOL    HW1 4356   0.226   3.152   4.906
 1119SOL    HW2 4357   0.079   3.086   4.882
 1120SOL     OW 4358   1.668   2.068   4.221
 1120SOL    HW1 4359   1.745   2.051   4.158
 1120SOL    HW2 4360   1.700   2.061   4.315
 1121SOL     OW 4361   1.266   3.539   4.174
 1121SOL    HW1 4362   1.208   3.549   4.094
 1121SOL    HW2 4363   1.236   3.602   4.246
 1122SOL     OW 4364   0.661   3.545   3.900
 1122SOL    HW1 4365   0.684   3.540   3.803
 1122SOL    HW2 4366   0.580   3.489   3.917
 1123SOL     OW 4367   1.804   1.983   4.464
 1123SOL    HW1 4368   1.874   1.939   4.520
 1123SOL    HW2 4369   1.715   1.939   4.481
 1124SOL     OW 4370   0.955   2.715   4.030
 1124SOL    HW1 4371   1.020   2.738   3.958
 1124SOL    HW2 4372   0.991   2.640   4.086
 1125SOL     OW 4373   0.982   2.051   4.641
 1125SOL    HW1 4374   1.029   2.010   4.563
 1125SOL    HW2 4375   0.933   1.980   4.692
 1126SOL     OW 4376   0.591   3.331   4.209
 1126SOL    HW1 4377   0.655   3.271   4.160
 1126SOL    HW2 4378   0.521   3.364   4.145
 1127SOL     OW 4379   0.075   2.354   3.725
 1127SOL    HW1 4380   0.007   2.344   3.651
 1127SOL    HW2 4381   0.149   2.413   3.694
 1128SOL     OW 4382   0.164   2.062   4.063
 1128SOL    HW1 4383   0.069   2.031   4.054
 1128SOL    HW2 4384   0.200   2.036   4.152
 1129SOL     OW 4385   1.176   3.075   3.928
 1129SOL    HW1 4386   1.089   3.111   3.894
 1129SOL    HW2 4387   1.205   3.130   4.007
 1130SOL     OW 4388   1.523   3.565   4.547
 1130SOL    HW1 4389   1.527   3.538   4.451
 1130SOL    HW2 4390   1.557   3.658   4.557
 1131SOL     OW 4391   1.226   2.123   4.207
 1131SOL    HW1 4392   1.293   2.056   4.173
 1131SOL    HW2 4393   1.256   2.157   4.296
 1132SOL     OW 4394   0.661   2.835   4.345
 1132SOL    HW1 4395   0.727   2.818   4.419
 1132SOL    HW2 4396   0.582   2.885   4.382
 1133SOL     OW 4397   0.936   3.209   3.869
 1133SOL    HW1 4398   0.874   3.200   3.947
 1133SOL    HW2 4399   0.947   3.305   3.846
 1134SOL     OW 4400   0.604   3.578   4.811
 1134SOL    HW1 4401   0.588   3.677   4.813
 1134SOL    HW2 4402   0.692   3.559   4.768
 1135SOL     OW 4403   1.136   2.807   3.836
 1135SOL    HW1 4404   1.153   2.897   3.875
 1135SOL    HW2 4405   1.216   2.776   3.784
 1136SOL     OW 4406   0.038   3.028   4.469
 1136SOL    HW1 4407   0.113   2.997   4.527
 1136SOL    HW2 4408   0.000   2.949   4.420
 1137SOL     OW 4409   0.669   3.523   4.406
 1137SOL    HW1 4410   0.682   3.610   4.359
 1137SOL    HW2 4411   0.637   3.455   4.341
 1138SOL     OW 4412   0.885   1.823   4.761
 1138SOL    HW1 4413   0.929   1.755   4.703
 1138SOL    HW2 4414   0.892   1.796   4.856
 1139SOL     OW 4415   0.776   3.163   4.088
 1139SOL    HW1 4416   0.770   3.064   4.098
 1139SOL    HW2 4417   0.847   3.198   4.149
 1140SOL     OW 4418   0.843   3.545   4.112
 1140SOL    HW1 4419   0.777   3.537   4.037
 1140SOL    HW2 4420   0.811   3.616   4.176
 1141SOL     OW 4421   0.304   4.329   0.141
 1141SOL    HW1 4422   0.274   4.351   0.234
 1141SOL    HW2 4423   0.224   4.314   0.082
 1142SOL     OW 4424   0.130   4.020   0.953
 1142SOL    HW1 4425   0.163   3.978   1.038
 1142SOL    HW2 4426   0.042   4.064   0.970
 1143SOL     OW 4427   1.139   4.452   0.717
 1143SOL    HW1 4428   1.150   4.550   0.697
 1143SOL    HW2 4429   1.097   4.441   0.807
 1144SOL     OW 4430   1.743   4.344   0.341
 1144SOL    HW1 4431   1.783   4.399   0.268
 1144SOL    HW2 4432   1.744   4.247   0.315
 1145SOL     OW 4433   0.943   4.454   1.729
 1145SOL    HW1 4434   0.937   4.456   1.829
 1145SOL    HW2 4435   0.998   4.532   1.698
 1146SOL     OW 4436   0.628   4.639   0.584
 1146SOL    HW1 4437   0.709   4.685   0.618
 1146SOL    HW2 4438   0.552   4.703   0.579
 1147SOL     OW 4439   0.681   4.916   1.762
 1147SOL    HW1 4440   0.744   4.991   1.742
 1147SOL    HW2 4441   0.591   4.954   1.784
 1148SOL     OW 4442   0.535   4.077   1.438
 1148SOL    HW1 4443   0.625   4.035   1.448
 1148SOL    HW2 4444   0.500   4.057   1.346
 1149SOL     OW 4445   1.509   4.135   0.765
 1149SOL    HW1 4446   1.434   4.169   0.709
 1149SOL    HW2 4447   1.596   4.150   0.718
 1150SOL     OW 4448   0.529   4.669   0.126
 1150SOL    HW1 4449   0.580   4.739   0.076
 1150SOL    HW2 4450   0.587   4.631   0.198
 1151SOL     OW 4451   1.623   3.684   1.486
 1151SOL    HW1 4452   1.651   3.741   1.409
 1151SOL    HW2 4453   1.533   3.713   1.519
 1152SOL     OW 4454   0.081   4.540   0.558
 1152SOL    HW1 4455   4.983   4.527   0.574
 1152SOL    HW2 4456   0.107   4.633   0.587
 1153SOL     OW 4457   1.454   4.937   1.411
 1153SOL    HW1 4458   1.459   4.837   1.411
 1153SOL    HW2 4459   1.359   4.966   1.405
 1154SOL     OW 4460   0.799   3.712   0.483
 1154SOL    HW1 4461   0.830   3.755   0.399
 1154SOL    HW2 4462   0.710   3.749   0.510
 1155SOL     OW 4463   0.393   4.695   1.385
 1155SOL    HW1 4464   0.455   4.638   1.331
 1155SOL    HW2 4465   0.338   4.637   1.445
 1156SOL     OW 4466   0.374   4.067   1.660
 1156SOL    HW1 4467   0.440   4.070   1.585
 1156SOL    HW2 4468   0.369   4.156   1.705
 1157SOL     OW 4469   0.660   4.307   0.368
 1157SOL    HW1 4470   0.674   4.402   0.337
 1157SOL    HW2 4471   0.607   4.307   0.453
 1158SOL     OW 4472   0.783   4.379   1.340
 1158SOL    HW1 4473   0.778   4.354   1.436
 1158SOL    HW2 4474   0.752   4.302   1.284
 1159SOL     OW 4475   1.089   4.672   1.638
 1159SOL    HW1 4476   1.187   4.676   1.657
 1159SOL    HW2 4477   1.073   4.697   1.543
 1160SOL     OW 4478   1.091   4.419   0.448
 1160SOL    HW1 4479   1.102   4.422   0.548
 1160SOL    HW2 4480   1.020   4.353   0.425
 1161SOL     OW 4481   1.816   4.291   1.834
 1161SOL    HW1 4482   1.748   4.363   1.820
 1161SOL    HW2 4483   1.841   4.250   1.747
 1162SOL     OW 4484   0.572   3.956   0.898
 1162SOL    HW1 4485   0.549   3.967   0.995
 1162SOL    HW2 4486   0.566   4.045   0.853
 1163SOL     OW 4487   0.310   4.659   0.301
 1163SOL    HW1 4488   0.378   4.662   0.227
 1163SOL    HW2 4489   0.297   4.564   0.330
 1164SOL     OW 4490   0.221   4.011   1.432
 1164SOL    HW1 4491   0.192   4.102   1.401
 1164SOL    HW2 4492   0.258   4.018   1.524
 1165SOL     OW 4493   0.263   4.397   0.416
 1165SOL    HW1 4494   0.259   4.299   0.438
 1165SOL    HW2 4495   0.193   4.445   0.469
 1166SOL     OW 4496   0.396   3.785   0.103
 1166SOL    HW1 4497   0.436   3.811   0.015
 1166SOL    HW2 4498   0.297   3.781   0.094
 1167SOL     OW 4499   0.773   4.053   1.720
 1167SOL    HW1 4500   0.849   4.076   1.781
 1167SOL    HW2 4501   0.707   3.997   1.771
 1168SOL     OW 4502   0.544   3.808   0.508
 1168SOL    HW1 4503   0.479   3.786   0.581
 1168SOL    HW2 4504   0.506   3.881   0.450
 1169SOL     OW 4505   1.037   4.248   0.106
 1169SOL    HW1 4506   1.058   4.162   0.059
 1169SOL    HW2 4507   1.121   4.286   0.144
 1170SOL     OW 4508   0.200   4.278   1.369
 1170SOL    HW1 4509   0.277   4.283   1.305
 1170SOL    HW2 4510   0.200   4.359   1.428
 1171SOL     OW 4511   0.506   3.953   1.172
 1171SOL    HW1 4512   0.544   3.874   1.220
 1171SOL    HW2 4513   0.407   3.944   1.166
 1172SOL     OW 4514   1.106   4.100   0.514
 1172SOL    HW1 4515   1.033   4.141   0.459
 1172SOL    HW2 4516   1.070   4.021   0.563
 1173SOL     OW 4517   1.375   4.884   0.677
 1173SOL    HW1 4518   1.333   4.975   0.677
 1173SOL    HW2 4519   1.455   4.884   0.617
 1174SOL     OW 4520   1.524   4.300   0.993
 1174SOL    HW1 4521   1.515   4.234   0.919
 1174SOL    HW2 4522   1.530   4.392   0.955
 1175SOL     OW 4523   0.421   3.963   0.316
 1175SOL    HW1 4524   0.401   3.893   0.247
 1175SOL    HW2 4525   0.464   4.041   0.271
 1176SOL     OW 4526   1.960   4.964   1.392
 1176SOL    HW1 4527   1.963   4.885   1.452
 1176SOL    HW2 4528   2.011   0.039   1.433
 1177SOL     OW 4529   1.024   3.804   1.465
 1177SOL    HW1 4530   1.023   3.712   1.427
 1177SOL    HW2 4531   1.050   3.801   1.561
 1178SOL     OW 4532   0.943   4.829   1.814
 1178SOL    HW1 4533   0.844   4.829   1.800
 1178SOL    HW2 4534   0.987   4.771   1.745
 1179SOL     OW 4535   0.687   4.575   0.327
 1179SOL    HW1 4536   0.659   4.593   0.421
 1179SOL    HW2 4537   0.770   4.627   0.307
 1180SOL     OW 4538   0.555   4.517   1.255
 1180SOL    HW1 4539   0.638   4.485   1.299
 1180SOL    HW2 4540   0.491   4.441   1.244
 1181SOL     OW 4541   1.241   3.927   1.343
 1181SOL    HW1 4542   1.230   4.027   1.341
 1181SOL    HW2 4543   1.156   3.885   1.373
 1182SOL     OW 4544   0.401   4.784   0.532
 1182SOL    HW1 4545   0.315   4.799   0.581
 1182SOL    HW2 4546   0.380   4.748   0.441
 1183SOL     OW 4547   0.554   4.215   0.797
 1183SOL    HW1 4548   0.533   4.268   0.714
 1183SOL    HW2 4549   0.632   4.256   0.844
 1184SOL     OW 4550   1.475   4.256   0.372
 1184SOL    HW1 4551   1.428   4.257   0.460
 1184SOL    HW2 4552   1.559   4.309   0.377
 1185SOL     OW 4553   0.491   4.331   1.547
 1185SOL    HW1 4554   0.584   4.347   1.581
 1185SOL    HW2 4555   0.490   4.249   1.490
 1186SOL     OW 4556   1.631   4.480   1.768
 1186SOL    HW1 4557   1.533   4.468   1.781
 1186SOL    HW2 4558   1.647   4.532   1.685
 1187SOL     OW 4559   0.388   3.812   1.753
 1187SOL    HW1 4560   0.386   3.765   1.664
 1187SOL    HW2 4561   0.372   3.910   1.740
 1188SOL     OW 4562   0.633   4.575   1.000
 1188SOL    HW1 4563   0.564   4.629   0.952
 1188SOL    HW2 4564   0.604   4.561   1.095
 1189SOL     OW 4565   1.254   4.358   0.235
 1189SOL    HW1 4566   1.341   4.318   0.262
 1189SOL    HW2 4567   1.200   4.380   0.317
 1190SOL     OW 4568   0.231   3.899   1.180
 1190SOL    HW1 4569   0.217   3.943   1.269
 1190SOL    HW2 4570   0.207   3.802   1.187
 1191SOL     OW 4571   0.753   4.335   0.947
 1191SOL    HW1 4572   0.852   4.351   0.945
 1191SOL    HW2 4573   0.705   4.421   0.962
 1192SOL     OW 4574   1.739   4.683   1.925
 1192SOL    HW1 4575   1.706   4.607   1.870
 1192SOL    HW2 4576   1.695   4.681   2.015
 1193SOL     OW 4577   0.314   3.749   0.658
 1193SOL    HW1 4578   0.262   3.835   0.656
 1193SOL    HW2 4579   0.312   3.711   0.750
 1194SOL     OW 4580   1.685   4.082   0.269
 1194SOL    HW1 4581   1.691   3.990   0.306
 1194SOL    HW2 4582   1.593   4.118   0.285
 1195SOL     OW 4583   1.027   4.409   0.982
 1195SOL    HW1 4584   1.025   4.449   1.073
 1195SOL    HW2 4585   1.072   4.319   0.987
 1196SOL     OW 4586   0.275   4.495   1.544
 1196SOL    HW1 4587   0.230   4.489   1.633
 1196SOL    HW2 4588   0.359   4.439   1.546
 1197SOL     OW 4589   1.226   4.601   0.099
 1197SOL    HW1 4590   1.246   4.509   0.133
 1197SOL    HW2 4591   1.266   4.612   0.008
 1198SOL     OW 4592   0.331   4.215   0.962
 1198SOL    HW1 4593   0.260   4.148   0.939
 1198SOL    HW2 4594   0.402   4.214   0.891
 1199SOL     OW 4595   1.255   3.920   1.756
 1199SOL    HW1 4596   1.257   3.880   1.847
 1199SOL    HW2 4597   1.206   4.007   1.759
 1200SOL     OW 4598   1.371   3.789   1.548
 1200SOL    HW1 4599   1.336   3.837   1.628
 1200SOL    HW2 4600   1.338   3.834   1.465
 1201SOL     OW 4601   4.882   4.971   0.439
 1201SOL    HW1 4602   4.813   4.984   0.367
 1201SOL    HW2 4603   4.960   4.922   0.401
 1202SOL     OW 4604   0.999   4.516   1.232
 1202SOL    HW1 4605   1.020   4.601   1.280
 1202SOL    HW2 4606   0.917   4.474   1.273
 1203SOL     OW 4607   1.366   4.682   1.673
 1203SOL    HW1 4608   1.432   4.747   1.709
 1203SOL    HW2 4609   1.386   4.663   1.577
 1204SOL     OW 4610   0.921   4.227   0.358
 1204SOL    HW1 4611   0.946   4.228   0.261
 1204SOL    HW2 4612   0.823   4.244   0.366
 1205SOL     OW 4613   0.673   4.189   1.170
 1205SOL    HW1 4614   0.644   4.094   1.158
 1205SOL    HW2 4615   0.706   4.225   1.083
 1206SOL     OW 4616   0.524   4.170   0.176
 1206SOL    HW1 4617   0.583   4.218   0.241
 1206SOL    HW2 4618   0.445   4.227   0.155
 1207SOL     OW 4619   1.147   4.664   0.353
 1207SOL    HW1 4620   1.127   4.572   0.388
 1207SOL    HW2 4621   1.191   4.657   0.264
 1208SOL     OW 4622   1.161   4.714   0.622
 1208SOL    HW1 4623   1.237   4.772   0.653
 1208SOL    HW2 4624   1.163   4.708   0.522
 1209SOL     OW 4625   1.810   3.830   1.018
 1209SOL    HW1 4626   1.843   3.743   0.980
 1209SOL    HW2 4627   1.730   3.861   0.967
 1210SOL     OW 4628   0.157   3.974   0.680
 1210SOL    HW1 4629   0.075   3.928   0.644
 1210SOL    HW2 4630   0.145   3.992   0.777
 1211SOL     OW 4631   1.045   4.760   1.381
 1211SOL    HW1 4632   0.948   4.787   1.381
 1211SOL    HW2 4633   1.102   4.842   1.377
 1212SOL     OW 4634   0.895   4.739   0.282
 1212SOL    HW1 4635   0.870   4.818   0.338
 1212SOL    HW2 4636   0.989   4.711   0.304
 1213SOL     OW 4637   1.695   0.002   1.274
 1213SOL    HW1 4638   1.771   4.986   1.337
 1213SOL    HW2 4639   1.609   4.980   1.320
 1214SOL     OW 4640   0.886   4.759   0.661
 1214SOL    HW1 4641   0.873   4.729   0.756
 1214SOL    HW2 4642   0.982   4.746   0.636
 1215SOL     OW 4643   0.109   4.905   1.720
 1215SOL    HW1 4644   0.153   4.940   1.803
 1215SOL    HW2 4645   0.173   4.846   1.670
 1216SOL     OW 4646   0.769   3.929   1.476
 1216SOL    HW1 4647   0.858   3.890   1.453
 1216SOL    HW2 4648   0.773   3.974   1.565
 1217SOL     OW 4649   0.047   4.024   4.961
 1217SOL    HW1 4650   4.948   4.018   4.947
 1217SOL    HW2 4651   0.073   4.119   4.975
 1218SOL     OW 4652   1.470   4.659   1.416
 1218SOL    HW1 4653   1.462   4.597   1.338
 1218SOL    HW2 4654   1.561   4.649   1.457
 1219SOL     OW 4655   0.761   4.305   1.602
 1219SOL    HW1 4656   0.826   4.363   1.650
 1219SOL    HW2 4657   0.760   4.214   1.642
 1220SOL     OW 4658   1.580   4.842   1.740
 1220SOL    HW1 4659   1.632   4.832   1.825
 1220SOL    HW2 4660   1.582   4.937   1.710
 1221SOL     OW 4661   0.505   4.387   0.584
 1221SOL    HW1 4662   0.546   4.477   0.596
 1221SOL    HW2 4663   0.416   4.397   0.537
 1222SOL     OW 4664   1.834   4.161   1.586
 1222SOL    HW1 4665   1.795   4.206   1.506
 1222SOL    HW2 4666   1.772   4.089   1.618
 1223SOL     OW 4667   1.696   4.663   1.569
 1223SOL    HW1 4668   1.659   4.735   1.628
 1223SOL    HW2 4669   1.792   4.682   1.549
 1224SOL     OW 4670   0.878   4.659   0.913
 1224SOL    HW1 4671   0.945   4.590   0.943
 1224SOL    HW2 4672   0.788   4.636   0.951
 1225SOL     OW 4673   1.081   4.833   0.036
 1225SOL    HW1 4674   0.992   4.798   0.008
 1225SOL    HW2 4675   1.140   4.756   0.063
 1226SOL     OW 4676   0.131   4.814   0.603
 1226SOL    HW1 4677   0.062   4.859   0.659
 1226SOL    HW2 4678   0.118   4.838   0.507
 1227SOL     OW 4679   1.691   3.839   1.268
 1227SOL    HW1 4680   1.717   3.931   1.296
 1227SOL    HW2 4681   1.738   3.815   1.183
 1228SOL     OW 4682   0.261   4.130   0.474
 1228SOL    HW1 4683   0.315   4.067   0.419
 1228SOL    HW2 4684   0.226   4.082   0.555
 1229SOL     OW 4685   0.419   4.286   1.205
 1229SOL    HW1 4686   0.511   4.248   1.204
 1229SOL    HW2 4687   0.375   4.268   1.116
 1230SOL     OW 4688   1.440   3.891   1.150
 1230SOL    HW1 4689   1.521   3.861   1.201
 1230SOL    HW2 4690   1.362   3.899   1.213
 1231SOL     OW 4691   1.059   3.542   1.386
 1231SOL    HW1 4692   0.984   3.478   1.372
 1231SOL    HW2 4693   1.123   3.536   1.309
 1232SOL     OW 4694   0.874   4.949   0.454
 1232SOL    HW1 4695   0.872   4.894   0.537
 1232SOL    HW2 4696   0.849   0.043   0.475
 1233SOL     OW 4697   1.315   4.251   0.607
 1233SOL    HW1 4698   1.271   4.328   0.654
 1233SOL    HW2 4699   1.245   4.189   0.571
 1234SOL     OW 4700   1.562   3.904   0.908
 1234SOL    HW1 4701   1.508   3.904   0.993
 1234SOL    HW2 4702   1.539   3.985   0.854
 1235SOL     OW 4703   0.110   4.850   0.328
 1235SOL    HW1 4704   0.174   4.774   0.318
 1235SOL    HW2 4705   0.116   4.908   0.246
 1236SOL     OW 4706   1.100   4.443   2.450
 1236SOL    HW1 4707   1.152   4.528   2.443
 1236SOL    HW2 4708   1.037   4.448   2.528
 1237SOL     OW 4709   1.850   4.321   2.111
 1237SOL    HW1 4710   1.824   4.312   2.015
 1237SOL    HW2 4711   1.789   4.265   2.168
 1238SOL     OW 4712   0.871   4.442   3.750
 1238SOL    HW1 4713   0.841   4.511   3.817
 1238SOL    HW2 4714   0.885   4.485   3.661
 1239SOL     OW 4715   0.504   4.023   3.187
 1239SOL    HW1 4716   0.577   3.976   3.237
 1239SOL    HW2 4717   0.418   4.013   3.236
 1240SOL     OW 4718   0.099   4.708   2.732
 1240SOL    HW1 4719   0.067   4.645   2.802
 1240SOL    HW2 4720   0.091   4.802   2.765
 1241SOL     OW 4721   0.196   4.315   2.389
 1241SOL    HW1 4722   0.275   4.355   2.343
 1241SOL    HW2 4723   0.172   4.369   2.469
 1242SOL     OW 4724   1.747   4.651   2.500
 1242SOL    HW1 4725   1.796   4.585   2.443
 1242SOL    HW2 4726   1.727   4.733   2.447
 1243SOL     OW 4727   1.699   4.859   2.329
 1243SOL    HW1 4728   1.777   4.834   2.272
 1243SOL    HW2 4729   1.723   4.937   2.386
 1244SOL     OW 4730   0.188   4.486   3.444
 1244SOL    HW1 4731   0.268   4.523   3.491
 1244SOL    HW2 4732   0.125   4.560   3.421
 1245SOL     OW 4733   1.362   4.837   3.257
 1245SOL    HW1 4734   1.398   4.902   3.190
 1245SOL    HW2 4735   1.400   4.859   3.347
 1246SOL     OW 4736   0.782   3.834   2.325
 1246SOL    HW1 4737   0.799   3.931   2.310
 1246SOL    HW2 4738   0.693   3.822   2.369
 1247SOL     OW 4739   0.224   4.695   3.044
 1247SOL    HW1 4740   0.288   4.633   3.089
 1247SOL    HW2 4741   0.147   4.644   3.007
 1248SOL     OW 4742   1.598   4.672   2.151
 1248SOL    HW1 4743   1.508   4.631   2.169
 1248SOL    HW2 4744   1.617   4.741   2.221
 1249SOL     OW 4745   0.317   3.931   3.572
 1249SOL    HW1 4746   0.300   3.962   3.479
 1249SOL    HW2 4747   0.235   3.947   3.628
 1250SOL     OW 4748   1.355   4.177   3.584
 1250SOL    HW1 4749   1.404   4.246   3.638
 1250SOL    HW2 4750   1.386   4.086   3.611
 1251SOL     OW 4751   0.908   4.557   3.498
 1251SOL    HW1 4752   0.966   4.478   3.477
 1251SOL    HW2 4753   0.877   4.600   3.413
 1252SOL     OW 4754   0.992   4.331   2.224
 1252SOL    HW1 4755   1.028   4.374   2.306
 1252SOL    HW2 4756   0.932   4.255   2.249
 1253SOL     OW 4757   0.146   4.462   2.616
 1253SOL    HW1 4758   0.211   4.418   2.679
 1253SOL    HW2 4759   0.136   4.558   2.641
 1254SOL     OW 4760   1.771   4.341   3.679
 1254SOL    HW1 4761   1.755   4.434   3.645
 1254SOL    HW2 4762   1.824   4.289   3.611
 1255SOL     OW 4763   1.427   4.888   2.403
 1255SOL    HW1 4764   1.522   4.875   2.375
 1255SOL    HW2 4765   1.387   4.964   2.351
 1256SOL     OW 4766   0.434   3.991   2.657
 1256SOL    HW1 4767   0.438   3.955   2.750
 1256SOL    HW2 4768   0.485   4.077   2.653
 1257SOL     OW 4769   1.793   4.853   2.709
 1257SOL    HW1 4770   1.774   4.768   2.659
 1257SOL    HW2 4771   1.726   4.863   2.783
 1258SOL     OW 4772   1.495   4.553   2.548
 1258SOL    HW1 4773   1.459   4.574   2.639
 1258SOL    HW2 4774   1.589   4.586   2.541
 1259SOL     OW 4775   0.255   4.006   3.310
 1259SOL    HW1 4776   0.221   4.100   3.305
 1259SOL    HW2 4777   0.184   3.943   3.277
 1260SOL     OW 4778   1.423   3.931   3.676
 1260SOL    HW1 4779   1.480   3.930   3.758
 1260SOL    HW2 4780   1.385   3.840   3.660
 1261SOL     OW 4781   0.619   3.887   1.876
 1261SOL    HW1 4782   0.658   3.818   1.937
 1261SOL    HW2 4783   0.535   3.851   1.834
 1262SOL     OW 4784   0.743   3.952   3.609
 1262SOL    HW1 4785   0.836   3.915   3.614
 1262SOL    HW2 4786   0.685   3.906   3.676
 1263SOL     OW 4787   1.309   4.328   3.356
 1263SOL    HW1 4788   1.338   4.275   3.436
 1263SOL    HW2 4789   1.345   4.420   3.361
 1264SOL     OW 4790   0.534   3.824   2.438
 1264SOL    HW1 4791   0.502   3.871   2.521
 1264SOL    HW2 4792   0.471   3.844   2.363
 1265SOL     OW 4793   1.043   4.334   3.405
 1265SOL    HW1 4794   1.034   4.249   3.457
 1265SOL    HW2 4795   1.138   4.344   3.375
 1266SOL     OW 4796   0.167   4.263   3.282
 1266SOL    HW1 4797   0.210   4.273   3.193
 1266SOL    HW2 4798   0.176   4.349   3.333
 1267SOL     OW 4799   0.467   3.908   2.933
 1267SOL    HW1 4800   0.488   3.959   3.016
 1267SOL    HW2 4801   0.463   3.810   2.954
 1268SOL     OW 4802   0.860   4.109   2.337
 1268SOL    HW1 4803   0.828   4.166   2.412
 1268SOL    HW2 4804   0.955   4.084   2.352
 1269SOL     OW 4805   1.029   3.801   2.444
 1269SOL    HW1 4806   0.936   3.809   2.408
 1269SOL    HW2 4807   1.065   3.710   2.426
 1270SOL     OW 4808   1.430   4.887   2.681
 1270SOL    HW1 4809   1.404   4.796   2.715
 1270SOL    HW2 4810   1.429   4.886   2.581
 1271SOL     OW 4811   1.481   4.444   2.926
 1271SOL    HW1 4812   1.471   4.352   2.889
 1271SOL    HW2 4813   1.552   4.445   2.996
 1272SOL     OW 4814   1.902   4.498   2.319
 1272SOL    HW1 4815   1.997   4.474   2.337
 1272SOL    HW2 4816   1.865   4.439   2.247
 1273SOL     OW 4817   1.381   4.317   1.933
 1273SOL    HW1 4818   1.323   4.281   2.007
 1273SOL    HW2 4819   1.450   4.249   1.910
 1274SOL     OW 4820   1.738   4.861   3.329
 1274SOL    HW1 4821   1.834   4.834   3.334
 1274SOL    HW2 4822   1.732   4.959   3.307
 1275SOL     OW 4823   1.600   4.927   2.896
 1275SOL    HW1 4824   1.556   4.960   2.980
 1275SOL    HW2 4825   1.532   4.918   2.824
 1276SOL     OW 4826   0.961   3.804   3.275
 1276SOL    HW1 4827   0.999   3.768   3.190
 1276SOL    HW2 4828   1.034   3.848   3.328
 1277SOL     OW 4829   0.775   4.754   3.639
 1277SOL    HW1 4830   0.683   4.758   3.599
 1277SOL    HW2 4831   0.830   4.687   3.590
 1278SOL     OW 4832   0.408   4.519   3.142
 1278SOL    HW1 4833   0.463   4.530   3.225
 1278SOL    HW2 4834   0.387   4.422   3.128
 1279SOL     OW 4835   0.557   4.236   2.651
 1279SOL    HW1 4836   0.621   4.259   2.577
 1279SOL    HW2 4837   0.599   4.259   2.739
 1280SOL     OW 4838   1.486   4.374   2.341
 1280SOL    HW1 4839   1.498   4.432   2.421
 1280SOL    HW2 4840   1.440   4.426   2.269
 1281SOL     OW 4841   1.700   4.585   3.585
 1281SOL    HW1 4842   1.609   4.614   3.614
 1281SOL    HW2 4843   1.704   4.583   3.485
 1282SOL     OW 4844   0.994   3.859   3.638
 1282SOL    HW1 4845   1.038   3.946   3.616
 1282SOL    HW2 4846   1.062   3.786   3.632
 1283SOL     OW 4847   0.494   3.725   3.567
 1283SOL    HW1 4848   0.501   3.695   3.472
 1283SOL    HW2 4849   0.425   3.797   3.574
 1284SOL     OW 4850   0.502   4.561   2.889
 1284SOL    HW1 4851   0.499   4.655   2.856
 1284SOL    HW2 4852   0.471   4.558   2.984
 1285SOL     OW 4853   1.363   4.637   2.774
 1285SOL    HW1 4854   1.264   4.638   2.783
 1285SOL    HW2 4855   1.402   4.575   2.842
 1286SOL     OW 4856   1.227   4.214   2.134
 1286SOL    HW1 4857   1.227   4.138   2.199
 1286SOL    HW2 4858   1.148   4.273   2.152
 1287SOL     OW 4859   0.662   4.338   2.878
 1287SOL    HW1 4860   0.761   4.351   2.881
 1287SOL    HW2 4861   0.617   4.427   2.880
 1288SOL     OW 4862   1.823   4.716   3.789
 1288SOL    HW1 4863   1.787   4.663   3.713
 1288SOL    HW2 4864   1.756   4.786   3.816
 1289SOL     OW 4865   1.674   4.186   2.273
 1289SOL    HW1 4866   1.629   4.097   2.281
 1289SOL    HW2 4867   1.611   4.259   2.299
 1290SOL     OW 4868   0.935   4.355   2.909
 1290SOL    HW1 4869   0.932   4.378   3.006
 1290SOL    HW2 4870   0.986   4.269   2.897
 1291SOL     OW 4871   1.290   4.573   1.917
 1291SOL    HW1 4872   1.314   4.476   1.916
 1291SOL    HW2 4873   1.313   4.613   1.828
 1292SOL     OW 4874   0.344   4.362   2.784
 1292SOL    HW1 4875   0.396   4.440   2.818
 1292SOL    HW2 4876   0.402   4.304   2.727
 1293SOL     OW 4877   1.093   4.111   3.572
 1293SOL    HW1 4878   1.033   4.141   3.646
 1293SOL    HW2 4879   1.186   4.144   3.589
 1294SOL     OW 4880   1.186   3.916   3.394
 1294SOL    HW1 4881   1.159   3.994   3.450
 1294SOL    HW2 4882   1.249   3.946   3.322
 1295SOL     OW 4883   4.944   0.018   2.006
 1295SOL    HW1 4884   4.874   0.054   1.945
 1295SOL    HW2 4885   4.924   4.922   2.027
 1296SOL     OW 4886   0.891   4.390   3.180
 1296SOL    HW1 4887   0.947   4.361   3.257
 1296SOL    HW2 4888   0.811   4.330   3.173
 1297SOL     OW 4889   0.084   4.228   3.550
 1297SOL    HW1 4890   0.092   4.217   3.451
 1297SOL    HW2 4891   0.112   4.321   3.576
 1298SOL     OW 4892   1.455   4.692   3.641
 1298SOL    HW1 4893   1.466   4.775   3.585
 1298SOL    HW2 4894   1.396   4.627   3.592
 1299SOL     OW 4895   1.681   4.396   3.115
 1299SOL    HW1 4896   1.650   4.313   3.161
 1299SOL    HW2 4897   1.768   4.377   3.069
 1300SOL     OW 4898   0.671   4.239   3.134
 1300SOL    HW1 4899   0.612   4.163   3.159
 1300SOL    HW2 4900   0.656   4.263   3.038
 1301SOL     OW 4901   1.349   4.564   2.187
 1301SOL    HW1 4902   1.276   4.605   2.242
 1301SOL    HW2 4903   1.324   4.567   2.090
 1302SOL     OW 4904   0.077   4.945   2.867
 1302SOL    HW1 4905   0.123   4.955   2.956
 1302SOL    HW2 4906   0.003   0.013   2.860
 1303SOL     OW 4907   1.265   4.669   2.453
 1303SOL    HW1 4908   1.342   4.613   2.483
 1303SOL    HW2 4909   1.298   4.758   2.421
 1304SOL     OW 4910   1.840   3.832   2.894
 1304SOL    HW1 4911   1.877   3.767   2.827
 1304SOL    HW2 4912   1.906   3.847   2.967
 1305SOL     OW 4913   0.252   4.044   2.448
 1305SOL    HW1 4914   0.228   4.141   2.437
 1305SOL    HW2 4915   0.307   4.033   2.531
 1306SOL     OW 4916   0.818   4.639   3.253
 1306SOL    HW1 4917   0.847   4.552   3.214
 1306SOL    HW2 4918   0.837   4.713   3.188
 1307SOL     OW 4919   0.934   4.477   2.001
 1307SOL    HW1 4920   0.980   4.564   2.016
 1307SOL    HW2 4921   0.952   4.415   2.078
 1308SOL     OW 4922   0.234   4.961   3.099
 1308SOL    HW1 4923   0.324   4.984   3.137
 1308SOL    HW2 4924   0.227   4.861   3.091
 1309SOL     OW 4925   1.487   0.052   3.126
 1309SOL    HW1 4926   1.558   0.070   3.195
 1309SOL    HW2 4927   1.438   0.137   3.106
 1310SOL     OW 4928   1.094   4.703   2.671
 1310SOL    HW1 4929   1.075   4.798   2.697
 1310SOL    HW2 4930   1.152   4.702   2.589
 1311SOL     OW 4931   0.703   3.891   3.336
 1311SOL    HW1 4932   0.794   3.868   3.302
 1311SOL    HW2 4933   0.709   3.920   3.431
 1312SOL     OW 4934   1.401   4.584   3.368
 1312SOL    HW1 4935   1.363   4.662   3.318
 1312SOL    HW2 4936   1.499   4.578   3.352
 1313SOL     OW 4937   0.578   4.544   3.358
 1313SOL    HW1 4938   0.662   4.584   3.322
 1313SOL    HW2 4939   0.600   4.461   3.408
 1314SOL     OW 4940   0.885   4.171   3.743
 1314SOL    HW1 4941   0.873   4.270   3.750
 1314SOL    HW2 4942   0.818   4.134   3.679
 1315SOL     OW 4943   1.512   4.907   3.481
 1315SOL    HW1 4944   1.497   0.005   3.475
 1315SOL    HW2 4945   1.596   4.883   3.432
 1316SOL     OW 4946   1.126   4.039   2.342
 1316SOL    HW1 4947   1.112   3.949   2.383
 1316SOL    HW2 4948   1.188   4.093   2.399
 1317SOL     OW 4949   0.766   4.337   2.489
 1317SOL    HW1 4950   0.821   4.387   2.557
 1317SOL    HW2 4951   0.741   4.399   2.415
 1318SOL     OW 4952   1.669   4.590   3.314
 1318SOL    HW1 4953   1.694   4.685   3.293
 1318SOL    HW2 4954   1.682   4.533   3.233
 1319SOL     OW 4955   0.932   4.481   2.665
 1319SOL    HW1 4956   0.932   4.436   2.754
 1319SOL    HW2 4957   0.977   4.570   2.673
 1320SOL     OW 4958   1.074   4.709   2.023
 1320SOL    HW1 4959   1.030   4.766   1.954
 1320SOL    HW2 4960   1.157   4.668   1.984
 1321SOL     OW 4961   0.354   3.898   2.247
 1321SOL    HW1 4962   0.315   3.923   2.158
 1321SOL    HW2 4963   0.310   3.952   2.319
 1322SOL     OW 4964   0.332   4.266   3.055
 1322SOL    HW1 4965   0.378   4.178   3.068
 1322SOL    HW2 4966   0.321   4.284   2.958
 1323SOL     OW 4967   1.105   3.732   3.053
 1323SOL    HW1 4968   1.085   3.802   2.984
 1323SOL    HW2 4969   1.191   3.687   3.030
 1324SOL     OW 4970   1.279   3.825   2.009
 1324SOL    HW1 4971   1.360   3.798   2.061
 1324SOL    HW2 4972   1.202   3.765   2.033
 1325SOL     OW 4973   1.280   4.230   2.458
 1325SOL    HW1 4974   1.212   4.303   2.464
 1325SOL    HW2 4975   1.364   4.266   2.417
 1326SOL     OW 4976   4.945   4.744   2.075
 1326SOL    HW1 4977   4.997   4.747   2.160
 1326SOL    HW2 4978   4.985   4.676   2.014
 1327SOL     OW 4979   0.129   3.940   4.711
 1327SOL    HW1 4980   0.104   3.968   4.804
 1327SOL    HW2 4981   0.117   3.841   4.702
 1328SOL     OW 4982   0.021   4.131   4.324
 1328SOL    HW1 4983   4.961   4.209   4.339
 1328SOL    HW2 4984   4.982   4.071   4.254
 1329SOL     OW 4985   1.715   4.340   3.947
 1329SOL    HW1 4986   1.746   4.334   3.852
 1329SOL    HW2 4987   1.710   4.249   3.986
 1330SOL     OW 4988   0.795   4.666   3.899
 1330SOL    HW1 4989   0.785   4.708   3.808
 1330SOL    HW2 4990   0.818   4.737   3.966
 1331SOL     OW 4991   1.763   4.530   4.311
 1331SOL    HW1 4992   1.829   4.463   4.347
 1331SOL    HW2 4993   1.791   4.558   4.219
 1332SOL     OW 4994   1.606   4.779   4.114
 1332SOL    HW1 4995   1.673   4.706   4.105
 1332SOL    HW2 4996   1.652   4.863   4.145
 1333SOL     OW 4997   0.743   3.752   4.270
 1333SOL    HW1 4998   0.799   3.828   4.236
 1333SOL    HW2 4999   0.649   3.762   4.237
 1334SOL     OW 5000   1.569   4.835   3.847
 1334SOL    HW1 5001   1.519   4.771   3.789
 1334SOL    HW2 5002   1.567   4.804   3.942
 1335SOL     OW 5003   0.548   4.588   4.001
 1335SOL    HW1 5004   0.638   4.609   3.962
 1335SOL    HW2 5005   0.549   4.494   4.037
 1336SOL     OW 5006   4.952   4.561   4.437
 1336SOL    HW1 5007   0.027   4.520   4.490
 1336SOL    HW2 5008   4.915   4.639   4.486
 1337SOL     OW 5009   0.789   3.994   3.937
 1337SOL    HW1 5010   0.825   4.058   3.868
 1337SOL    HW2 5011   0.722   3.934   3.894
 1338SOL     OW 5012   1.401   4.860   4.288
 1338SOL    HW1 5013   1.461   4.810   4.225
 1338SOL    HW2 5014   1.398   4.956   4.261
 1339SOL     OW 5015   0.532   3.848   4.781
 1339SOL    HW1 5016   0.569   3.913   4.847
 1339SOL    HW2 5017   0.511   3.896   4.696
 1340SOL     OW 5018   1.735   4.720   4.516
 1340SOL    HW1 5019   1.742   4.652   4.443
 1340SOL    HW2 5020   1.639   4.742   4.532
 1341SOL     OW 5021   0.617   3.811   3.811
 1341SOL    HW1 5022   0.637   3.730   3.866
 1341SOL    HW2 5023   0.549   3.787   3.741
 1342SOL     OW 5024   0.490   3.754   4.181
 1342SOL    HW1 5025   0.423   3.743   4.254
 1342SOL    HW2 5026   0.444   3.788   4.099
 1343SOL     OW 5027   0.919   3.932   4.161
 1343SOL    HW1 5028   0.868   3.960   4.080
 1343SOL    HW2 5029   0.999   3.878   4.134
 1344SOL     OW 5030   0.449   4.747   4.416
 1344SOL    HW1 5031   0.545   4.775   4.423
 1344SOL    HW2 5032   0.421   4.749   4.320
 1345SOL     OW 5033   0.988   4.111   4.355
 1345SOL    HW1 5034   0.934   4.195   4.354
 1345SOL    HW2 5035   0.951   4.047   4.288
 1346SOL     OW 5036   0.935   3.707   4.472
 1346SOL    HW1 5037   0.861   3.730   4.409
 1346SOL    HW2 5038   0.902   3.641   4.540
 1347SOL     OW 5039   1.473   4.804   4.551
 1347SOL    HW1 5040   1.394   4.744   4.562
 1347SOL    HW2 5041   1.468   4.848   4.461
 1348SOL     OW 5042   1.795   4.585   4.038
 1348SOL    HW1 5043   1.829   4.638   3.960
 1348SOL    HW2 5044   1.773   4.492   4.009
 1349SOL     OW 5045   1.498   4.354   3.725
 1349SOL    HW1 5046   1.488   4.386   3.820
 1349SOL    HW2 5047   1.595   4.340   3.705
 1350SOL     OW 5048   1.466   4.884   4.814
 1350SOL    HW1 5049   1.551   4.920   4.852
 1350SOL    HW2 5050   1.478   4.867   4.716
 1351SOL     OW 5051   0.473   4.455   4.964
 1351SOL    HW1 5052   0.494   4.541   0.010
 1351SOL    HW2 5053   0.406   4.403   0.017
 1352SOL     OW 5054   0.401   4.764   4.146
 1352SOL    HW1 5055   0.364   4.829   4.079
 1352SOL    HW2 5056   0.455   4.694   4.099
 1353SOL     OW 5057   0.490   4.273   4.636
 1353SOL    HW1 5058   0.465   4.364   4.603
 1353SOL    HW2 5059   0.562   4.281   4.705
 1354SOL     OW 5060   1.564   4.374   4.183
 1354SOL    HW1 5061   1.615   4.431   4.248
 1354SOL    HW2 5062   1.602   4.386   4.092
 1355SOL     OW 5063   1.311   4.660   4.850
 1355SOL    HW1 5064   1.229   4.677   4.794
 1355SOL    HW2 5065   1.373   4.738   4.844
 1356SOL     OW 5066   0.122   3.789   0.085
 1356SOL    HW1 5067   0.099   3.881   0.053
 1356SOL    HW2 5068   0.068   3.722   0.033
 1357SOL     OW 5069   0.668   4.309   4.846
 1357SOL    HW1 5070   0.756   4.349   4.872
 1357SOL    HW2 5071   0.594   4.361   4.889
 1358SOL     OW 5072   0.301   3.736   4.379
 1358SOL    HW1 5073   0.264   3.829   4.389
 1358SOL    HW2 5074   0.335   3.704   4.467
 1359SOL     OW 5075   1.639   4.118   4.100
 1359SOL    HW1 5076   1.711   4.099   4.167
 1359SOL    HW2 5077   1.583   4.193   4.134
 1360SOL     OW 5078   1.583   3.929   3.904
 1360SOL    HW1 5079   1.650   3.857   3.919
 1360SOL    HW2 5080   1.594   4.001   3.972
 1361SOL     OW 5081   0.150   4.442   4.584
 1361SOL    HW1 5082   0.240   4.484   4.577
 1361SOL    HW2 5083   0.159   4.351   4.624
 1362SOL     OW 5084   0.230   4.208   4.718
 1362SOL    HW1 5085   0.206   4.113   4.702
 1362SOL    HW2 5086   0.325   4.224   4.692
 1363SOL     OW 5087   4.818   0.004   3.907
 1363SOL    HW1 5088   4.759   0.048   3.974
 1363SOL    HW2 5089   4.909   4.990   3.946
 1364SOL     OW 5090   0.905   4.429   4.941
 1364SOL    HW1 5091   0.976   4.455   4.876
 1364SOL    HW2 5092   0.943   4.365   0.008
 1365SOL     OW 5093   0.110   4.296   4.946
 1365SOL    HW1 5094   0.158   4.272   4.862
 1365SOL    HW2 5095   0.046   4.371   4.928
 1366SOL     OW 5096   0.620   4.049   4.948
 1366SOL    HW1 5097   0.584   4.079   0.036
 1366SOL    HW2 5098   0.646   4.129   4.894
 1367SOL     OW 5099   1.258   0.022   4.936
 1367SOL    HW1 5100   1.333   4.977   4.887
 1367SOL    HW2 5101   1.190   4.953   4.963
 1368SOL     OW 5102   1.218   4.719   4.448
 1368SOL    HW1 5103   1.210   4.628   4.408
 1368SOL    HW2 5104   1.268   4.778   4.384
 1369SOL     OW 5105   0.216   3.989   4.454
 1369SOL    HW1 5106   0.155   4.048   4.401
 1369SOL    HW2 5107   0.176   3.972   4.544
 1370SOL     OW 5108   0.843   4.693   0.015
 1370SOL    HW1 5109   0.849   4.595   4.994
 1370SOL    HW2 5110   0.853   4.706   0.114
 1371SOL     OW 5111   1.100   4.742   4.694
 1371SOL    HW1 5112   1.064   4.834   4.705
 1371SOL    HW2 5113   1.134   4.731   4.600
 1372SOL     OW 5114   1.876   4.118   0.063
 1372SOL    HW1 5115   1.807   4.104   0.135
 1372SOL    HW2 5116   1.858   4.054   4.988
 1373SOL     OW 5117   0.075   4.001   3.697
 1373SOL    HW1 5118   4.981   3.981   3.722
 1373SOL    HW2 5119   0.079   4.088   3.648
 1374SOL     OW 5120   1.228   3.985   4.321
 1374SOL    HW1 5121   1.277   4.029   4.246
 1374SOL    HW2 5122   1.145   4.037   4.341
 1375SOL     OW 5123   0.411   4.536   4.589
 1375SOL    HW1 5124   0.435   4.573   4.679
 1375SOL    HW2 5125   0.420   4.608   4.520
 1376SOL     OW 5126   1.940   4.510   0.204
 1376SOL    HW1 5127   1.961   4.506   0.302
 1376SOL    HW2 5128   1.946   4.605   0.173
 1377SOL     OW 5129   0.468   4.006   4.566
 1377SOL    HW1 5130   0.487   4.103   4.584
 1377SOL    HW2 5131   0.384   3.998   4.513
 1378SOL     OW 5132   1.003   3.616   4.823
 1378SOL    HW1 5133   0.935   3.571   4.766
 1378SOL    HW2 5134   1.044   3.692   4.772
 1379SOL     OW 5135   0.046   4.926   4.049
 1379SOL    HW1 5136   0.030   4.829   4.065
 1379SOL    HW2 5137   0.064   4.972   4.137
 1380SOL     OW 5138   1.898   0.633   0.163
 1380SOL    HW1 5139   1.803   0.644   0.193
 1380SOL    HW2 5140   1.901   0.630   0.063
 1381SOL     OW 5141   2.152   0.348   1.079
 1381SOL    HW1 5142   2.205   0.293   1.144
 1381SOL    HW2 5143   2.077   0.294   1.043
 1382SOL     OW 5144   2.903   0.629   0.661
 1382SOL    HW1 5145   2.977   0.694   0.682
 1382SOL    HW2 5146   2.885   0.572   0.742
 1383SOL     OW 5147   3.504   0.628   0.319
 1383SOL    HW1 5148   3.547   0.716   0.303
 1383SOL    HW2 5149   3.470   0.591   0.233
 1384SOL     OW 5150   2.767   0.734   1.821
 1384SOL    HW1 5151   2.826   0.803   1.863
 1384SOL    HW2 5152   2.707   0.695   1.891
 1385SOL     OW 5153   3.514   0.417   0.782
 1385SOL    HW1 5154   3.469   0.459   0.704
 1385SOL    HW2 5155   3.483   0.459   0.866
 1386SOL     OW 5156   3.036   1.367   1.750
 1386SOL    HW1 5157   3.120   1.327   1.714
 1386SOL    HW2 5158   2.964   1.298   1.753
 1387SOL     OW 5159   1.876   1.466   0.531
 1387SOL    HW1 5160   1.846   1.504   0.618
 1387SOL    HW2 5161   1.905   1.371   0.545
 1388SOL     OW 5162   2.113   1.102   0.783
 1388SOL    HW1 5163   2.138   1.016   0.829
 1388SOL    HW2 5164   2.057   1.158   0.844
 1389SOL     OW 5165   2.380   1.902   1.660
 1389SOL    HW1 5166   2.286   1.921   1.635
 1389SOL    HW2 5167   2.438   1.980   1.636
 1390SOL     OW 5168   3.348   0.291   1.362
 1390SOL    HW1 5169   3.298   0.333   1.286
 1390SOL    HW2 5170   3.331   0.344   1.445
 1391SOL     OW 5171   1.948   0.607   0.652
 1391SOL    HW1 5172   1.947   0.514   0.689
 1391SOL    HW2 5173   1.933   0.672   0.726
 1392SOL     OW 5174   3.688   1.791   0.368
 1392SOL    HW1 5175   3.772   1.760   0.412
 1392SOL    HW2 5176   3.709   1.827   0.277
 1393SOL     OW 5177   1.948   1.584   0.037
 1393SOL    HW1 5178   1.926   1.610   0.131
 1393SOL    HW2 5179   2.019   1.644   0.001
 1394SOL     OW 5180   3.499   0.946   0.738
 1394SOL    HW1 5181   3.556   0.912   0.662
 1394SOL    HW2 5182   3.434   1.013   0.703
 1395SOL     OW 5183   2.447   1.294   0.424
 1395SOL    HW1 5184   2.401   1.226   0.482
 1395SOL    HW2 5185   2.381   1.337   0.363
 1396SOL     OW 5186   2.525   4.930   0.740
 1396SOL    HW1 5187   2.481   4.998   0.682
 1396SOL    HW2 5188   2.490   4.839   0.719
 1397SOL     OW 5189   3.137   1.881   1.633
 1397SOL    HW1 5190   3.072   1.936   1.581
 1397SOL    HW2 5191   3.104   1.787   1.639
 1398SOL     OW 5192   2.112   0.254   1.769
 1398SOL    HW1 5193   2.172   0.275   1.846
 1398SOL    HW2 5194   2.024   0.221   1.804
 1399SOL     OW 5195   3.432   1.708   0.301
 1399SOL    HW1 5196   3.520   1.745   0.330
 1399SOL    HW2 5197   3.423   1.717   0.202
 1400SOL     OW 5198   3.292   0.458   1.585
 1400SOL    HW1 5199   3.333   0.540   1.626
 1400SOL    HW2 5200   3.325   0.377   1.633
 1401SOL     OW 5201   2.761   0.948   1.633
 1401SOL    HW1 5202   2.757   0.866   1.691
 1401SOL    HW2 5203   2.708   0.932   1.550
 1402SOL     OW 5204   2.929   0.370   1.133
 1402SOL    HW1 5205   2.916   0.432   1.210
 1402SOL    HW2 5206   2.880   0.284   1.150
 1403SOL     OW 5207   2.860   0.696   0.398
 1403SOL    HW1 5208   2.867   0.679   0.496
 1403SOL    HW2 5209   2.804   0.625   0.355
 1404SOL     OW 5210   1.915   0.789   0.848
 1404SOL    HW1 5211   2.010   0.814   0.868
 1404SOL    HW2 5212   1.856   0.867   0.867
 1405SOL     OW 5213   1.932   1.649   1.446
 1405SOL    HW1 5214   1.893   1.624   1.535
 1405SOL    HW2 5215   1.909   1.744   1.426
 1406SOL     OW 5216   3.559   0.696   1.923
 1406SOL    HW1 5217   3.490   0.682   1.852
 1406SOL    HW2 5218   3.642   0.646   1.899
 1407SOL     OW 5219   2.587   0.353   0.873
 1407SOL    HW1 5220   2.557   0.299   0.952
 1407SOL    HW2 5221   2.516   0.420   0.851
 1408SOL     OW 5222   2.844   1.524   0.485
 1408SOL    HW1 5223   2.890   1.609   0.462
 1408SOL    HW2 5224   2.780   1.540   0.561
 1409SOL     OW 5225   3.669   0.970   0.948
 1409SOL    HW1 5226   3.605   0.960   0.873
 1409SOL    HW2 5227   3.619   0.984   1.033
 1410SOL     OW 5228   3.088   1.476   1.335
 1410SOL    HW1 5229   3.171   1.486   1.390
 1410SOL    HW2 5230   3.025   1.552   1.354
 1411SOL     OW 5231   2.014   0.834   0.315
 1411SOL    HW1 5232   2.001   0.769   0.241
 1411SOL    HW2 5233   1.937   0.828   0.379
 1412SOL     OW 5234   3.356   0.715   0.782
 1412SOL    HW1 5235   3.375   0.666   0.868
 1412SOL    HW2 5236   3.414   0.796   0.777
 1413SOL     OW 5237   2.243   1.180   1.687
 1413SOL    HW1 5238   2.246   1.227   1.599
 1413SOL    HW2 5239   2.217   1.244   1.759
 1414SOL     OW 5240   2.121   0.188   1.493
 1414SOL    HW1 5241   2.095   0.276   1.452
 1414SOL    HW2 5242   2.121   0.197   1.593
 1415SOL     OW 5243   3.234   0.024   0.437
 1415SOL    HW1 5244   3.230   4.955   0.365
 1415SOL    HW2 5245   3.311   0.004   0.498
 1416SOL     OW 5246   2.945   1.775   0.831
 1416SOL    HW1 5247   3.020   1.753   0.893
 1416SOL    HW2 5248   2.981   1.827   0.753
 1417SOL     OW 5249   2.163   0.679   0.494
 1417SOL    HW1 5250   2.127   0.740   0.423
 1417SOL    HW2 5251   2.089   0.650   0.554
 1418SOL     OW 5252   3.395   0.230   1.690
 1418SOL    HW1 5253   3.396   0.225   1.790
 1418SOL    HW2 5254   3.400   0.138   1.652
 1419SOL     OW 5255   2.662   0.106   1.919
 1419SOL    HW1 5256   2.726   0.081   1.846
 1419SOL    HW2 5257   2.575   0.136   1.878
 1420SOL     OW 5258   2.884   1.658   1.128
 1420SOL    HW1 5259   2.970   1.684   1.084
 1420SOL    HW2 5260   2.809   1.666   1.062
 1421SOL     OW 5261   3.184   0.611   1.375
 1421SOL    HW1 5262   3.224   0.560   1.451
 1421SOL    HW2 5263   3.193   0.709   1.393
 1422SOL     OW 5264   2.829   0.472   0.889
 1422SOL    HW1 5265   2.746   0.418   0.878
 1422SOL    HW2 5266   2.884   0.434   0.964
 1423SOL     OW 5267   3.251   1.184   4.989
 1423SOL    HW1 5268   3.270   1.110   0.054
 1423SOL    HW2 5269   3.183   1.246   0.029
 1424SOL     OW 5270   2.919   0.529   1.354
 1424SOL    HW1 5271   2.909   0.475   1.437
 1424SOL    HW2 5272   3.007   0.577   1.355
 1425SOL     OW 5273   2.291   1.090   0.567
 1425SOL    HW1 5274   2.240   1.106   0.651
 1425SOL    HW2 5275   2.229   1.084   0.490
 1426SOL     OW 5276   2.977   0.480   0.092
 1426SOL    HW1 5277   2.973   0.564   0.038
 1426SOL    HW2 5278   3.053   0.487   0.158
 1427SOL     OW 5279   2.081   0.450   1.412
 1427SOL    HW1 5280   2.149   0.500   1.358
 1427SOL    HW2 5281   2.082   0.484   1.506
 1428SOL     OW 5282   2.530   0.208   1.111
 1428SOL    HW1 5283   2.614   0.207   1.165
 1428SOL    HW2 5284   2.451   0.217   1.172
 1429SOL     OW 5285   3.417   0.556   1.016
 1429SOL    HW1 5286   3.338   0.508   1.053
 1429SOL    HW2 5287   3.475   0.588   1.091
 1430SOL     OW 5288   3.639   0.857   0.529
 1430SOL    HW1 5289   3.709   0.787   0.542
 1430SOL    HW2 5290   3.625   0.873   0.431
 1431SOL     OW 5291   2.297   1.410   0.218
 1431SOL    HW1 5292   2.199   1.399   0.233
 1431SOL    HW2 5293   2.315   1.501   0.180
 1432SOL     OW 5294   3.372   0.511   0.098
 1432SOL    HW1 5295   3.298   0.499   0.164
 1432SOL    HW2 5296   3.397   0.422   0.060
 1433SOL     OW 5297   2.226   0.444   0.358
 1433SOL    HW1 5298   2.315   0.455   0.313
 1433SOL    HW2 5299   2.204   0.527   0.408
 1434SOL     OW 5300   2.914   1.263   1.328
 1434SOL    HW1 5301   2.832   1.287   1.380
 1434SOL    HW2 5302   2.980   1.338   1.333
 1435SOL     OW 5303   2.921   1.167   1.074
 1435SOL    HW1 5304   2.914   1.198   1.169
 1435SOL    HW2 5305   2.956   1.242   1.017
 1436SOL     OW 5306   3.526   1.056   1.168
 1436SOL    HW1 5307   3.573   1.144   1.179
 1436SOL    HW2 5308   3.433   1.071   1.135
 1437SOL     OW 5309   2.774   0.157   1.242
 1437SOL    HW1 5310   2.767   0.060   1.218
 1437SOL    HW2 5311   2.816   0.166   1.332
 1438SOL     OW 5312   2.860   1.157   1.778
 1438SOL    HW1 5313   2.782   1.177   1.837
 1438SOL    HW2 5314   2.834   1.087   1.711
 1439SOL     OW 5315   3.201   0.426   1.169
 1439SOL    HW1 5316   3.198   0.503   1.233
 1439SOL    HW2 5317   3.109   0.403   1.139
 1440SOL     OW 5318   2.092   1.571   1.235
 1440SOL    HW1 5319   2.032   1.608   1.305
 1440SOL    HW2 5320   2.185   1.564   1.271
 1441SOL     OW 5321   2.096   1.091   0.372
 1441SOL    HW1 5322   2.089   1.157   0.298
 1441SOL    HW2 5323   2.073   1.000   0.338
 1442SOL     OW 5324   2.439   0.602   0.837
 1442SOL    HW1 5325   2.418   0.669   0.766
 1442SOL    HW2 5326   2.519   0.633   0.888
 1443SOL     OW 5327   3.060   1.374   0.383
 1443SOL    HW1 5328   3.141   1.431   0.400
 1443SOL    HW2 5329   2.979   1.418   0.423
 1444SOL     OW 5330   3.198   1.448   1.073
 1444SOL    HW1 5331   3.152   1.445   1.161
 1444SOL    HW2 5332   3.146   1.395   1.006
 1445SOL     OW 5333   3.397   0.545   0.563
 1445SOL    HW1 5334   3.376   0.618   0.628
 1445SOL    HW2 5335   3.439   0.585   0.482
 1446SOL     OW 5336   2.347   1.547   1.343
 1446SOL    HW1 5337   2.405   1.524   1.265
 1446SOL    HW2 5338   2.394   1.614   1.400
 1447SOL     OW 5339   2.251   0.716   1.713
 1447SOL    HW1 5340   2.314   0.735   1.637
 1447SOL    HW2 5341   2.194   0.637   1.689
 1448SOL     OW 5342   3.404   0.686   1.688
 1448SOL    HW1 5343   3.343   0.764   1.700
 1448SOL    HW2 5344   3.491   0.717   1.649
 1449SOL     OW 5345   2.833   0.048   1.720
 1449SOL    HW1 5346   2.853   0.087   1.630
 1449SOL    HW2 5347   2.886   4.964   1.732
 1450SOL     OW 5348   3.178   0.483   0.284
 1450SOL    HW1 5349   3.153   0.398   0.330
 1450SOL    HW2 5350   3.170   0.559   0.347
 1451SOL     OW 5351   2.286   0.178   1.259
 1451SOL    HW1 5352   2.238   0.188   1.347
 1451SOL    HW2 5353   2.288   0.082   1.233
 1452SOL     OW 5354   1.913   1.367   1.172
 1452SOL    HW1 5355   1.909   1.331   1.264
 1452SOL    HW2 5356   1.983   1.438   1.166
 1453SOL     OW 5357   2.666   0.669   0.977
 1453SOL    HW1 5358   2.730   0.600   0.943
 1453SOL    HW2 5359   2.699   0.760   0.954
 1454SOL     OW 5360   3.578   0.968   1.856
 1454SOL    HW1 5361   3.597   0.874   1.884
 1454SOL    HW2 5362   3.502   1.004   1.910
 1455SOL     OW 5363   3.447   0.311   0.345
 1455SOL    HW1 5364   3.488   0.265   0.423
 1455SOL    HW2 5365   3.412   0.400   0.374
 1456SOL     OW 5366   3.002   1.636   1.648
 1456SOL    HW1 5367   2.959   1.647   1.558
 1456SOL    HW2 5368   3.003   1.539   1.673
 1457SOL     OW 5369   3.726   1.462   1.376
 1457SOL    HW1 5370   3.694   1.556   1.388
 1457SOL    HW2 5371   3.785   1.437   1.453
 1458SOL     OW 5372   2.133   0.952   1.782
 1458SOL    HW1 5373   2.181   1.027   1.737
 1458SOL    HW2 5374   2.177   0.865   1.758
 1459SOL     OW 5375   3.398   0.227   0.088
 1459SOL    HW1 5376   3.316   0.169   0.080
 1459SOL    HW2 5377   3.411   0.254   0.183
 1460SOL     OW 5378   3.244   0.770   0.121
 1460SOL    HW1 5379   3.288   0.683   0.101
 1460SOL    HW2 5380   3.305   0.845   0.096
 1461SOL     OW 5381   3.042   1.319   0.875
 1461SOL    HW1 5382   3.053   1.236   0.820
 1461SOL    HW2 5383   2.996   1.389   0.821
 1462SOL     OW 5384   2.181   0.845   0.885
 1462SOL    HW1 5385   2.243   0.834   0.808
 1462SOL    HW2 5386   2.197   0.772   0.952
 1463SOL     OW 5387   2.237   0.601   1.021
 1463SOL    HW1 5388   2.195   0.512   1.034
 1463SOL    HW2 5389   2.309   0.594   0.952
 1464SOL     OW 5390   3.020   0.385   1.587
 1464SOL    HW1 5391   2.977   0.422   1.670
 1464SOL    HW2 5392   3.116   0.410   1.585
 1465SOL     OW 5393   2.921   0.151   1.477
 1465SOL    HW1 5394   2.963   0.234   1.515
 1465SOL    HW2 5395   2.992   0.089   1.445
 1466SOL     OW 5396   1.777   1.314   0.190
 1466SOL    HW1 5397   1.718   1.394   0.198
 1466SOL    HW2 5398   1.748   1.245   0.256
 1467SOL     OW 5399   1.970   1.717   0.849
 1467SOL    HW1 5400   1.923   1.630   0.829
 1467SOL    HW2 5401   2.065   1.711   0.820
 1468SOL     OW 5402   2.713   0.694   1.253
 1468SOL    HW1 5403   2.785   0.632   1.285
 1468SOL    HW2 5404   2.693   0.674   1.157
 1469SOL     OW 5405   2.070   0.508   1.678
 1469SOL    HW1 5406   2.090   0.416   1.712
 1469SOL    HW2 5407   1.984   0.540   1.718
 1470SOL     OW 5408   3.248   0.912   1.708
 1470SOL    HW1 5409   3.250   1.009   1.734
 1470SOL    HW2 5410   3.223   0.904   1.612
 1471SOL     OW 5411   3.570   0.622   1.252
 1471SOL    HW1 5412   3.577   0.535   1.302
 1471SOL    HW2 5413   3.660   0.651   1.222
 1472SOL     OW 5414   1.823   1.550   1.673
 1472SOL    HW1 5415   1.762   1.581   1.745
 1472SOL    HW2 5416   1.867   1.464   1.701
 1473SOL     OW 5417   2.894   1.673   1.395
 1473SOL    HW1 5418   2.889   1.663   1.296
 1473SOL    HW2 5419   2.826   1.740   1.426
 1474SOL     OW 5420   1.785   1.034   1.483
 1474SOL    HW1 5421   1.816   1.032   1.578
 1474SOL    HW2 5422   1.862   1.013   1.423
 1475SOL     OW 5423   3.132   0.738   0.391
 1475SOL    HW1 5424   3.033   0.731   0.382
 1475SOL    HW2 5425   3.172   0.766   0.304
 1476SOL     OW 5426   3.562   1.700   1.132
 1476SOL    HW1 5427   3.631   1.734   1.069
 1476SOL    HW2 5428   3.526   1.613   1.099
 1477SOL     OW 5429   3.137   1.712   1.012
 1477SOL    HW1 5430   3.210   1.778   1.027
 1477SOL    HW2 5431   3.171   1.620   1.032
 1478SOL     OW 5432   1.913   1.233   0.921
 1478SOL    HW1 5433   1.914   1.266   1.016
 1478SOL    HW2 5434   1.852   1.155   0.914
 1479SOL     OW 5435   2.501   1.713   1.499
 1479SOL    HW1 5436   2.586   1.760   1.478
 1479SOL    HW2 5437   2.449   1.766   1.566
 1480SOL     OW 5438   3.554   0.209   0.576
 1480SOL    HW1 5439   3.529   0.113   0.578
 1480SOL    HW2 5440   3.528   0.253   0.662
 1481SOL     OW 5441   3.275   1.530   0.439
 1481SOL    HW1 5442   3.326   1.590   0.377
 1481SOL    HW2 5443   3.290   1.559   0.533
 1482SOL     OW 5444   3.123   0.810   0.664
 1482SOL    HW1 5445   3.202   0.774   0.715
 1482SOL    HW2 5446   3.134   0.790   0.567
 1483SOL     OW 5447   2.631   1.596   0.139
 1483SOL    HW1 5448   2.690   1.574   0.061
 1483SOL    HW2 5449   2.639   1.523   0.208
 1484SOL     OW 5450   3.619   1.738   1.398
 1484SOL    HW1 5451   3.597   1.716   1.303
 1484SOL    HW2 5452   3.556   1.809   1.431
 1485SOL     OW 5453   3.754   0.222   1.151
 1485SOL    HW1 5454   3.780   0.126   1.151
 1485SOL    HW2 5455   3.698   0.242   1.071
 1486SOL     OW 5456   3.200   1.533   4.931
 1486SOL    HW1 5457   3.165   1.468   4.999
 1486SOL    HW2 5458   3.124   1.590   4.898
 1487SOL     OW 5459   2.619   0.899   1.397
 1487SOL    HW1 5460   2.657   0.823   1.345
 1487SOL    HW2 5461   2.622   0.982   1.341
 1488SOL     OW 5462   2.831   0.849   0.169
 1488SOL    HW1 5463   2.796   0.942   0.183
 1488SOL    HW2 5464   2.840   0.804   0.258
 1489SOL     OW 5465   3.397   1.715   0.026
 1489SOL    HW1 5466   3.342   1.641   4.988
 1489SOL    HW2 5467   3.487   1.716   4.981
 1490SOL     OW 5468   2.230   1.324   1.455
 1490SOL    HW1 5469   2.273   1.406   1.416
 1490SOL    HW2 5470   2.131   1.331   1.444
 1491SOL     OW 5471   3.043   1.084   0.713
 1491SOL    HW1 5472   2.991   1.104   0.629
 1491SOL    HW2 5473   3.074   0.989   0.711
 1492SOL     OW 5474   3.615   0.365   1.355
 1492SOL    HW1 5475   3.678   0.316   1.295
 1492SOL    HW2 5476   3.525   0.322   1.353
 1493SOL     OW 5477   2.034   1.371   0.282
 1493SOL    HW1 5478   1.954   1.358   0.224
 1493SOL    HW2 5479   2.006   1.404   0.372
 1494SOL     OW 5480   1.874   1.046   1.741
 1494SOL    HW1 5481   1.801   1.006   1.796
 1494SOL    HW2 5482   1.961   1.000   1.763
 1495SOL     OW 5483   3.223   0.881   1.433
 1495SOL    HW1 5484   3.174   0.947   1.376
 1495SOL    HW2 5485   3.320   0.881   1.407
 1496SOL     OW 5486   3.070   1.355   0.105
 1496SOL    HW1 5487   2.974   1.352   0.076
 1496SOL    HW2 5488   3.074   1.358   0.205
 1497SOL     OW 5489   2.401   0.752   1.489
 1497SOL    HW1 5490   2.475   0.813   1.461
 1497SOL    HW2 5491   2.366   0.704   1.409
 1498SOL     OW 5492   3.353   1.880   1.029
 1498SOL    HW1 5493   3.379   1.975   1.011
 1498SOL    HW2 5494   3.426   1.835   1.081
 1499SOL     OW 5495   3.485   0.865   1.358
 1499SOL    HW1 5496   3.510   0.775   1.323
 1499SOL    HW2 5497   3.510   0.935   1.291
 1500SOL     OW 5498   3.093   0.247   0.394
 1500SOL    HW1 5499   3.153   0.169   0.406
 1500SOL    HW2 5500   3.025   0.249   0.468
 1501SOL     OW 5501   2.340   0.811   0.662
 1501SOL    HW1 5502   2.353   0.903   0.626
 1501SOL    HW2 5503   2.287   0.757   0.597
 1502SOL     OW 5504   3.623   0.394   1.642
 1502SOL    HW1 5505   3.643   0.396   1.544
 1502SOL    HW2 5506   3.546   0.332   1.659
 1503SOL     OW 5507   3.618   0.844   1.602
 1503SOL    HW1 5508   3.600   0.912   1.673
 1503SOL    HW2 5509   3.574   0.871   1.517
 1504SOL     OW 5510   2.799   1.357   0.057
 1504SOL    HW1 5511   2.750   1.350   0.144
 1504SOL    HW2 5512   2.734   1.359   4.981
 1505SOL     OW 5513   2.699   1.721   0.922
 1505SOL    HW1 5514   2.646   1.801   0.950
 1505SOL    HW2 5515   2.787   1.751   0.884
 1506SOL     OW 5516   3.680   1.528   0.853
 1506SOL    HW1 5517   3.703   1.450   0.795
 1506SOL    HW2 5518   3.598   1.506   0.907
 1507SOL     OW 5519   1.956   1.312   1.725
 1507SOL    HW1 5520   1.919   1.220   1.737
 1507SOL    HW2 5521   2.021   1.331   1.798
 1508SOL     OW 5522   1.947   1.207   0.568
 1508SOL    HW1 5523   1.985   1.177   0.656
 1508SOL    HW2 5524   1.997   1.163   0.494
 1509SOL     OW 5525   3.475   1.462   1.030
 1509SOL    HW1 5526   3.377   1.449   1.043
 1509SOL    HW2 5527   3.525   1.393   1.084
 1510SOL     OW 5528   2.294   0.592   1.288
 1510SOL    HW1 5529   2.370   0.528   1.293
 1510SOL    HW2 5530   2.270   0.608   1.192
 1511SOL     OW 5531   2.662   1.579   0.685
 1511SOL    HW1 5532   2.602   1.501   0.697
 1511SOL    HW2 5533   2.673   1.627   0.772
 1512SOL     OW 5534   3.230   0.145   1.072
 1512SOL    HW1 5535   3.271   0.106   1.155
 1512SOL    HW2 5536   3.226   0.245   1.081
 1513SOL     OW 5537   2.728   4.887   1.192
 1513SOL    HW1 5538   2.657   4.902   1.124
 1513SOL    HW2 5539   2.788   4.812   1.162
 1514SOL     OW 5540   2.676   1.385   0.309
 1514SOL    HW1 5541   2.597   1.349   0.358
 1514SOL    HW2 5542   2.741   1.423   0.374
 1515SOL     OW 5543   3.186   0.051   0.059
 1515SOL    HW1 5544   3.202   4.978   0.126
 1515SOL    HW2 5545   3.102   0.100   0.083
 1516SOL     OW 5546   1.868   0.411   2.370
 1516SOL    HW1 5547   1.777   0.424   2.409
 1516SOL    HW2 5548   1.862   0.358   2.286
 1517SOL     OW 5549   2.421   1.179   2.889
 1517SOL    HW1 5550   2.374   1.267   2.898
 1517SOL    HW2 5551   2.433   1.138   2.979
 1518SOL     OW 5552   2.914   0.672   2.444
 1518SOL    HW1 5553   2.984   0.743   2.440
 1518SOL    HW2 5554   2.839   0.703   2.503
 1519SOL     OW 5555   3.456   0.644   2.178
 1519SOL    HW1 5556   3.487   0.667   2.086
 1519SOL    HW2 5557   3.378   0.582   2.173
 1520SOL     OW 5558   2.297   1.437   2.857
 1520SOL    HW1 5559   2.203   1.423   2.825
 1520SOL    HW2 5560   2.344   1.501   2.797
 1521SOL     OW 5561   3.321   1.636   3.110
 1521SOL    HW1 5562   3.404   1.679   3.146
 1521SOL    HW2 5563   3.280   1.578   3.181
 1522SOL     OW 5564   2.125   1.854   2.321
 1522SOL    HW1 5565   2.151   1.910   2.400
 1522SOL    HW2 5566   2.204   1.842   2.261
 1523SOL     OW 5567   2.976   1.319   3.547
 1523SOL    HW1 5568   3.018   1.309   3.637
 1523SOL    HW2 5569   3.035   1.275   3.478
 1524SOL     OW 5570   2.102   1.588   2.387
 1524SOL    HW1 5571   2.099   1.684   2.360
 1524SOL    HW2 5572   2.030   1.570   2.454
 1525SOL     OW 5573   3.430   0.214   3.303
 1525SOL    HW1 5574   3.473   0.286   3.359
 1525SOL    HW2 5575   3.344   0.249   3.265
 1526SOL     OW 5576   1.991   0.662   2.370
 1526SOL    HW1 5577   1.945   0.575   2.388
 1526SOL    HW2 5578   1.986   0.720   2.451
 1527SOL     OW 5579   3.820   1.747   2.285
 1527SOL    HW1 5580   3.777   1.658   2.301
 1527SOL    HW2 5581   3.748   1.815   2.270
 1528SOL     OW 5582   1.651   1.594   1.888
 1528SOL    HW1 5583   1.683   1.619   1.980
 1528SOL    HW2 5584   1.565   1.641   1.868
 1529SOL     OW 5585   3.552   0.886   2.471
 1529SOL    HW1 5586   3.612   0.813   2.438
 1529SOL    HW2 5587   3.528   0.946   2.394
 1530SOL     OW 5588   3.538   1.058   2.249
 1530SOL    HW1 5589   3.621   1.013   2.217
 1530SOL    HW2 5590   3.562   1.143   2.296
 1531SOL     OW 5591   3.130   1.221   3.350
 1531SOL    HW1 5592   3.165   1.138   3.307
 1531SOL    HW2 5593   3.184   1.300   3.320
 1532SOL     OW 5594   2.700   4.998   2.490
 1532SOL    HW1 5595   2.682   0.082   2.439
 1532SOL    HW2 5596   2.692   4.919   2.428
 1533SOL     OW 5597   3.377   1.038   2.029
 1533SOL    HW1 5598   3.315   0.960   2.035
 1533SOL    HW2 5599   3.427   1.048   2.115
 1534SOL     OW 5600   2.185   0.164   3.576
 1534SOL    HW1 5601   2.201   0.241   3.514
 1534SOL    HW2 5602   2.135   0.196   3.657
 1535SOL     OW 5603   3.373   1.523   2.871
 1535SOL    HW1 5604   3.350   1.562   2.960
 1535SOL    HW2 5605   3.296   1.467   2.839
 1536SOL     OW 5606   3.710   1.497   2.308
 1536SOL    HW1 5607   3.630   1.534   2.262
 1536SOL    HW2 5608   3.686   1.411   2.353
 1537SOL     OW 5609   2.357   0.606   2.014
 1537SOL    HW1 5610   2.346   0.693   1.965
 1537SOL    HW2 5611   2.319   0.616   2.107
 1538SOL     OW 5612   3.142   0.403   2.754
 1538SOL    HW1 5613   3.050   0.365   2.761
 1538SOL    HW2 5614   3.205   0.349   2.809
 1539SOL     OW 5615   3.504   1.625   2.190
 1539SOL    HW1 5616   3.436   1.668   2.249
 1539SOL    HW2 5617   3.461   1.599   2.103
 1540SOL     OW 5618   2.692   0.589   3.529
 1540SOL    HW1 5619   2.657   0.583   3.623
 1540SOL    HW2 5620   2.617   0.574   3.465
 1541SOL     OW 5621   3.391   0.483   3.567
 1541SOL    HW1 5622   3.443   0.568   3.576
 1541SOL    HW2 5623   3.407   0.426   3.648
 1542SOL     OW 5624   2.941   0.897   3.350
 1542SOL    HW1 5625   2.926   0.799   3.358
 1542SOL    HW2 5626   2.855   0.942   3.328
 1543SOL     OW 5627   2.943   0.384   3.194
 1543SOL    HW1 5628   2.926   0.446   3.271
 1543SOL    HW2 5629   2.893   0.416   3.114
 1544SOL     OW 5630   2.872   0.632   2.172
 1544SOL    HW1 5631   2.873   0.648   2.271
 1544SOL    HW2 5632   2.779   0.646   2.137
 1545SOL     OW 5633   1.977   0.859   2.565
 1545SOL    HW1 5634   2.059   0.910   2.540
 1545SOL    HW2 5635   1.914   0.918   2.615
 1546SOL     OW 5636   1.811   1.988   3.578
 1546SOL    HW1 5637   1.826   1.893   3.606
 1546SOL    HW2 5638   1.739   1.991   3.509
 1547SOL     OW 5639   2.751   0.365   1.981
 1547SOL    HW1 5640   2.823   0.394   1.917
 1547SOL    HW2 5641   2.731   0.268   1.967
 1548SOL     OW 5642   2.901   1.628   2.436
 1548SOL    HW1 5643   2.934   1.630   2.341
 1548SOL    HW2 5644   2.805   1.656   2.438
 1549SOL     OW 5645   2.246   1.846   2.746
 1549SOL    HW1 5646   2.306   1.770   2.721
 1549SOL    HW2 5647   2.266   1.875   2.840
 1550SOL     OW 5648   3.599   1.104   2.633
 1550SOL    HW1 5649   3.588   1.017   2.584
 1550SOL    HW2 5650   3.555   1.097   2.722
 1551SOL     OW 5651   3.235   1.483   3.322
 1551SOL    HW1 5652   3.325   1.496   3.365
 1551SOL    HW2 5653   3.165   1.525   3.380
 1552SOL     OW 5654   2.109   1.091   2.016
 1552SOL    HW1 5655   2.133   1.182   1.983
 1552SOL    HW2 5656   2.119   1.024   1.942
 1553SOL     OW 5657   3.326   0.770   2.586
 1553SOL    HW1 5658   3.326   0.734   2.679
 1553SOL    HW2 5659   3.412   0.817   2.568
 1554SOL     OW 5660   2.275   1.342   3.661
 1554SOL    HW1 5661   2.228   1.395   3.590
 1554SOL    HW2 5662   2.224   1.258   3.678
 1555SOL     OW 5663   2.972   1.644   2.160
 1555SOL    HW1 5664   2.881   1.679   2.136
 1555SOL    HW2 5665   3.022   1.622   2.077
 1556SOL     OW 5666   3.465   1.351   1.830
 1556SOL    HW1 5667   3.438   1.433   1.880
 1556SOL    HW2 5668   3.388   1.287   1.825
 1557SOL     OW 5669   2.371   1.834   2.188
 1557SOL    HW1 5670   2.398   1.912   2.245
 1557SOL    HW2 5671   2.372   1.862   2.092
 1558SOL     OW 5672   3.307   0.198   2.225
 1558SOL    HW1 5673   3.246   0.147   2.165
 1558SOL    HW2 5674   3.392   0.148   2.237
 1559SOL     OW 5675   2.241   1.865   3.026
 1559SOL    HW1 5676   2.307   1.833   3.094
 1559SOL    HW2 5677   2.174   1.793   3.009
 1560SOL     OW 5678   2.843   1.794   2.666
 1560SOL    HW1 5679   2.911   1.732   2.627
 1560SOL    HW2 5680   2.764   1.799   2.606
 1561SOL     OW 5681   2.241   0.593   2.266
 1561SOL    HW1 5682   2.244   0.493   2.267
 1561SOL    HW2 5683   2.150   0.624   2.292
 1562SOL     OW 5684   2.572   0.272   3.817
 1562SOL    HW1 5685   2.637   0.303   3.747
 1562SOL    HW2 5686   2.619   0.214   3.883
 1563SOL     OW 5687   3.376   0.540   3.291
 1563SOL    HW1 5688   3.379   0.513   3.387
 1563SOL    HW2 5689   3.384   0.640   3.284
 1564SOL     OW 5690   2.845   0.491   2.949
 1564SOL    HW1 5691   2.833   0.557   2.876
 1564SOL    HW2 5692   2.864   0.401   2.910
 1565SOL     OW 5693   3.242   1.174   1.842
 1565SOL    HW1 5694   3.296   1.128   1.912
 1565SOL    HW2 5695   3.150   1.192   1.878
 1566SOL     OW 5696   2.033   0.043   2.178
 1566SOL    HW1 5697   2.127   0.050   2.145
 1566SOL    HW2 5698   2.033   0.035   2.277
 1567SOL     OW 5699   2.920   0.609   3.376
 1567SOL    HW1 5700   2.837   0.601   3.430
 1567SOL    HW2 5701   2.999   0.579   3.430
 1568SOL     OW 5702   2.210   0.993   2.490
 1568SOL    HW1 5703   2.274   1.039   2.552
 1568SOL    HW2 5704   2.197   1.049   2.408
 1569SOL     OW 5705   2.934   0.512   1.816
 1569SOL    HW1 5706   2.872   0.589   1.803
 1569SOL    HW2 5707   3.001   0.534   1.886
 1570SOL     OW 5708   2.787   0.013   2.749
 1570SOL    HW1 5709   2.747   0.020   2.658
 1570SOL    HW2 5710   2.856   4.940   2.750
 1571SOL     OW 5711   3.301   0.636   2.828
 1571SOL    HW1 5712   3.239   0.564   2.796
 1571SOL    HW2 5713   3.366   0.597   2.893
 1572SOL     OW 5714   3.690   0.689   2.312
 1572SOL    HW1 5715   3.715   0.608   2.365
 1572SOL    HW2 5716   3.607   0.671   2.259
 1573SOL     OW 5717   2.179   1.343   1.914
 1573SOL    HW1 5718   2.138   1.378   1.998
 1573SOL    HW2 5719   2.273   1.374   1.907
 1574SOL     OW 5720   2.296   0.085   2.110
 1574SOL    HW1 5721   2.376   0.025   2.113
 1574SOL    HW2 5722   2.311   0.156   2.041
 1575SOL     OW 5723   2.840   1.487   3.264
 1575SOL    HW1 5724   2.788   1.419   3.316
 1575SOL    HW2 5725   2.908   1.440   3.208
 1576SOL     OW 5726   3.484   1.544   3.418
 1576SOL    HW1 5727   3.506   1.620   3.357
 1576SOL    HW2 5728   3.560   1.479   3.419
 1577SOL     OW 5729   3.216   0.342   3.176
 1577SOL    HW1 5730   3.258   0.426   3.208
 1577SOL    HW2 5731   3.117   0.348   3.188
 1578SOL     OW 5732   2.064   1.687   3.224
 1578SOL    HW1 5733   1.981   1.674   3.171
 1578SOL    HW2 5734   2.139   1.637   3.181
 1579SOL     OW 5735   2.166   1.168   2.278
 1579SOL    HW1 5736   2.160   1.265   2.251
 1579SOL    HW2 5737   2.153   1.110   2.198
 1580SOL     OW 5738   2.200   0.518   2.659
 1580SOL    HW1 5739   2.236   0.595   2.607
 1580SOL    HW2 5740   2.220   0.531   2.756
 1581SOL     OW 5741   3.445   0.562   2.444
 1581SOL    HW1 5742   3.391   0.624   2.500
 1581SOL    HW2 5743   3.445   0.594   2.349
 1582SOL     OW 5744   2.277   1.572   3.099
 1582SOL    HW1 5745   2.285   1.518   3.015
 1582SOL    HW2 5746   2.355   1.552   3.159
 1583SOL     OW 5747   2.464   1.036   3.136
 1583SOL    HW1 5748   2.546   1.055   3.190
 1583SOL    HW2 5749   2.456   0.937   3.121
 1584SOL     OW 5750   3.536   0.721   3.537
 1584SOL    HW1 5751   3.487   0.759   3.459
 1584SOL    HW2 5752   3.628   0.694   3.508
 1585SOL     OW 5753   3.210   0.816   3.025
 1585SOL    HW1 5754   3.127   0.767   3.054
 1585SOL    HW2 5755   3.252   0.766   2.949
 1586SOL     OW 5756   3.094   0.593   2.029
 1586SOL    HW1 5757   3.155   0.540   2.088
 1586SOL    HW2 5758   3.009   0.612   2.078
 1587SOL     OW 5759   3.580   0.931   3.715
 1587SOL    HW1 5760   3.557   0.853   3.657
 1587SOL    HW2 5761   3.527   0.925   3.800
 1588SOL     OW 5762   2.044   0.064   2.452
 1588SOL    HW1 5763   2.068   0.158   2.473
 1588SOL    HW2 5764   2.096   0.002   2.511
 1589SOL     OW 5765   3.417   0.295   2.468
 1589SOL    HW1 5766   3.349   0.269   2.400
 1589SOL    HW2 5767   3.432   0.394   2.464
 1590SOL     OW 5768   3.036   1.582   3.488
 1590SOL    HW1 5769   2.969   1.645   3.449
 1590SOL    HW2 5770   2.994   1.492   3.501
 1591SOL     OW 5771   3.192   0.843   1.972
 1591SOL    HW1 5772   3.161   0.750   1.994
 1591SOL    HW2 5773   3.211   0.850   1.875
 1592SOL     OW 5774   3.115   0.514   3.541
 1592SOL    HW1 5775   3.084   0.523   3.636
 1592SOL    HW2 5776   3.214   0.501   3.539
 1593SOL     OW 5777   1.861   1.319   2.058
 1593SOL    HW1 5778   1.797   1.325   1.982
 1593SOL    HW2 5779   1.857   1.228   2.099
 1594SOL     OW 5780   2.057   1.693   2.880
 1594SOL    HW1 5781   2.056   1.597   2.850
 1594SOL    HW2 5782   2.111   1.747   2.816
 1595SOL     OW 5783   2.406   1.629   2.692
 1595SOL    HW1 5784   2.491   1.661   2.734
 1595SOL    HW2 5785   2.417   1.629   2.592
 1596SOL     OW 5786   2.993   0.675   3.108
 1596SOL    HW1 5787   2.972   0.658   3.204
 1596SOL    HW2 5788   2.945   0.609   3.051
 1597SOL     OW 5789   2.633   0.605   2.025
 1597SOL    HW1 5790   2.670   0.513   2.013
 1597SOL    HW2 5791   2.533   0.601   2.028
 1598SOL     OW 5792   3.459   0.518   3.018
 1598SOL    HW1 5793   3.440   0.527   3.116
 1598SOL    HW2 5794   3.532   0.451   3.004
 1599SOL     OW 5795   2.837   1.739   3.364
 1599SOL    HW1 5796   2.831   1.650   3.319
 1599SOL    HW2 5797   2.845   1.811   3.295
 1600SOL     OW 5798   2.265   0.343   1.984
 1600SOL    HW1 5799   2.313   0.429   1.970
 1600SOL    HW2 5800   2.233   0.337   2.079
 1601SOL     OW 5801   3.188   0.963   3.252
 1601SOL    HW1 5802   3.195   0.915   3.164
 1601SOL    HW2 5803   3.100   0.941   3.294
 1602SOL     OW 5804   3.173   1.813   2.949
 1602SOL    HW1 5805   3.239   1.815   2.875
 1602SOL    HW2 5806   3.209   1.759   3.025
 1603SOL     OW 5807   1.858   1.268   2.907
 1603SOL    HW1 5808   1.924   1.200   2.941
 1603SOL    HW2 5809   1.770   1.224   2.891
 1604SOL     OW 5810   3.541   0.081   2.343
 1604SOL    HW1 5811   3.513   0.158   2.400
 1604SOL    HW2 5812   3.626   0.042   2.379
 1605SOL     OW 5813   3.120   0.848   2.425
 1605SOL    HW1 5814   3.192   0.818   2.488
 1605SOL    HW2 5815   3.158   0.858   2.334
 1606SOL     OW 5816   2.731   1.294   3.430
 1606SOL    HW1 5817   2.818   1.297   3.479
 1606SOL    HW2 5818   2.655   1.296   3.495
 1607SOL     OW 5819   3.560   1.728   3.220
 1607SOL    HW1 5820   3.631   1.665   3.188
 1607SOL    HW2 5821   3.597   1.820   3.225
 1608SOL     OW 5822   2.092   0.326   2.504
 1608SOL    HW1 5823   2.009   0.365   2.464
 1608SOL    HW2 5824   2.136   0.395   2.561
 1609SOL     OW 5825   3.091   1.580   1.918
 1609SOL    HW1 5826   3.071   1.490   1.878
 1609SOL    HW2 5827   3.069   1.652   1.852
 1610SOL     OW 5828   2.715   1.071   3.265
 1610SOL    HW1 5829   2.763   1.095   3.180
 1610SOL    HW2 5830   2.719   1.148   3.328
 1611SOL     OW 5831   3.367   1.585   1.949
 1611SOL    HW1 5832   3.267   1.581   1.949
 1611SOL    HW2 5833   3.397   1.664   1.895
 1612SOL     OW 5834   2.915   0.246   2.848
 1612SOL    HW1 5835   2.865   0.173   2.802
 1612SOL    HW2 5836   2.965   0.208   2.926
 1613SOL     OW 5837   2.389   1.656   2.405
 1613SOL    HW1 5838   2.302   1.606   2.410
 1613SOL    HW2 5839   2.391   1.710   2.320
 1614SOL     OW 5840   2.093   1.414   2.168
 1614SOL    HW1 5841   2.000   1.394   2.140
 1614SOL    HW2 5842   2.093   1.480   2.243
 1615SOL     OW 5843   1.860   0.180   1.851
 1615SOL    HW1 5844   1.858   0.091   1.895
 1615SOL    HW2 5845   1.785   0.186   1.785
 1616SOL     OW 5846   3.420   0.813   3.308
 1616SOL    HW1 5847   3.341   0.873   3.299
 1616SOL    HW2 5848   3.502   0.859   3.275
 1617SOL     OW 5849   1.844   0.238   2.143
 1617SOL    HW1 5850   1.832   0.248   2.045
 1617SOL    HW2 5851   1.915   0.170   2.161
 1618SOL     OW 5852   3.376   1.777   2.768
 1618SOL    HW1 5853   3.466   1.816   2.748
 1618SOL    HW2 5854   3.386   1.681   2.795
 1619SOL     OW 5855   2.572   0.566   3.777
 1619SOL    HW1 5856   2.528   0.638   3.830
 1619SOL    HW2 5857   2.547   0.477   3.815
 1620SOL     OW 5858   2.065   1.802   3.470
 1620SOL    HW1 5859   2.072   1.900   3.449
 1620SOL    HW2 5860   2.070   1.749   3.385
 1621SOL     OW 5861   3.245   0.466   2.219
 1621SOL    HW1 5862   3.272   0.370   2.210
 1621SOL    HW2 5863   3.201   0.480   2.307
 1622SOL     OW 5864   2.290   0.726   2.509
 1622SOL    HW1 5865   2.262   0.821   2.501
 1622SOL    HW2 5866   2.296   0.684   2.418
 1623SOL     OW 5867   3.659   0.932   3.255
 1623SOL    HW1 5868   3.679   0.968   3.347
 1623SOL    HW2 5869   3.734   0.957   3.193
 1624SOL     OW 5870   2.621   1.729   2.825
 1624SOL    HW1 5871   2.634   1.758   2.920
 1624SOL    HW2 5872   2.706   1.744   2.774
 1625SOL     OW 5873   2.930   0.922   1.922
 1625SOL    HW1 5874   2.926   1.012   1.878
 1625SOL    HW2 5875   3.022   0.906   1.956
 1626SOL     OW 5876   2.127   1.115   3.718
 1626SOL    HW1 5877   2.092   1.039   3.663
 1626SOL    HW2 5878   2.051   1.159   3.766
 1627SOL     OW 5879   2.010   1.264   2.491
 1627SOL    HW1 5880   2.076   1.290   2.562
 1627SOL    HW2 5881   2.058   1.222   2.415
 1628SOL     OW 5882   3.632   0.300   2.958
 1628SOL    HW1 5883   3.593   0.223   3.008
 1628SOL    HW2 5884   3.596   0.302   2.865
 1629SOL     OW 5885   2.226   0.316   2.261
 1629SOL    HW1 5886   2.262   0.225   2.239
 1629SOL    HW2 5887   2.186   0.314   2.353
 1630SOL     OW 5888   3.584   1.396   2.995
 1630SOL    HW1 5889   3.520   1.444   2.936
 1630SOL    HW2 5890   3.546   1.307   3.020
 1631SOL     OW 5891   2.647   1.751   2.475
 1631SOL    HW1 5892   2.645   1.849   2.455
 1631SOL    HW2 5893   2.560   1.709   2.450
 1632SOL     OW 5894   3.290   0.239   2.928
 1632SOL    HW1 5895   3.359   0.172   2.956
 1632SOL    HW2 5896   3.257   0.288   3.009
 1633SOL     OW 5897   3.123   0.485   2.465
 1633SOL    HW1 5898   3.042   0.543   2.459
 1633SOL    HW2 5899   3.140   0.460   2.561
 1634SOL     OW 5900   3.491   0.277   2.730
 1634SOL    HW1 5901   3.407   0.274   2.784
 1634SOL    HW2 5902   3.468   0.282   2.633
 1635SOL     OW 5903   1.868   1.059   2.150
 1635SOL    HW1 5904   1.955   1.058   2.101
 1635SOL    HW2 5905   1.845   0.966   2.179
 1636SOL     OW 5906   2.171   0.346   4.674
 1636SOL    HW1 5907   2.243   0.344   4.743
 1636SOL    HW2 5908   2.109   0.269   4.688
 1637SOL     OW 5909   3.007   0.763   4.432
 1637SOL    HW1 5910   3.067   0.841   4.414
 1637SOL    HW2 5911   2.997   0.752   4.531
 1638SOL     OW 5912   3.697   0.487   4.011
 1638SOL    HW1 5913   3.718   0.411   3.950
 1638SOL    HW2 5914   3.601   0.483   4.038
 1639SOL     OW 5915   2.625   1.404   4.836
 1639SOL    HW1 5916   2.538   1.453   4.834
 1639SOL    HW2 5917   2.680   1.431   4.757
 1640SOL     OW 5918   2.456   1.041   4.524
 1640SOL    HW1 5919   2.527   1.081   4.583
 1640SOL    HW2 5920   2.399   1.115   4.487
 1641SOL     OW 5921   3.598   0.405   4.353
 1641SOL    HW1 5922   3.572   0.494   4.316
 1641SOL    HW2 5923   3.545   0.386   4.436
 1642SOL     OW 5924   2.086   1.180   4.617
 1642SOL    HW1 5925   2.134   1.172   4.704
 1642SOL    HW2 5926   1.999   1.228   4.631
 1643SOL     OW 5927   2.341   1.004   3.857
 1643SOL    HW1 5928   2.265   1.042   3.804
 1643SOL    HW2 5929   2.427   1.044   3.825
 1644SOL     OW 5930   2.094   0.702   4.406
 1644SOL    HW1 5931   2.007   0.667   4.372
 1644SOL    HW2 5932   2.085   0.799   4.426
 1645SOL     OW 5933   1.886   1.582   3.890
 1645SOL    HW1 5934   1.819   1.508   3.881
 1645SOL    HW2 5935   1.858   1.643   3.964
 1646SOL     OW 5936   2.478   1.457   4.470
 1646SOL    HW1 5937   2.410   1.384   4.462
 1646SOL    HW2 5938   2.486   1.505   4.383
 1647SOL     OW 5939   2.602   0.197   4.429
 1647SOL    HW1 5940   2.641   0.276   4.381
 1647SOL    HW2 5941   2.517   0.170   4.384
 1648SOL     OW 5942   3.459   0.889   3.956
 1648SOL    HW1 5943   3.377   0.884   4.013
 1648SOL    HW2 5944   3.534   0.841   4.001
 1649SOL     OW 5945   3.328   1.438   4.700
 1649SOL    HW1 5946   3.281   1.462   4.785
 1649SOL    HW2 5947   3.314   1.341   4.681
 1650SOL     OW 5948   2.430   0.747   3.935
 1650SOL    HW1 5949   2.398   0.834   3.897
 1650SOL    HW2 5950   2.399   0.738   4.029
 1651SOL     OW 5951   3.030   0.687   4.175
 1651SOL    HW1 5952   3.024   0.708   4.272
 1651SOL    HW2 5953   2.944   0.711   4.130
 1652SOL     OW 5954   2.030   0.961   4.446
 1652SOL    HW1 5955   2.058   1.036   4.506
 1652SOL    HW2 5956   1.930   0.964   4.434
 1653SOL     OW 5957   3.212   1.227   4.349
 1653SOL    HW1 5958   3.215   1.322   4.380
 1653SOL    HW2 5959   3.202   1.224   4.250
 1654SOL     OW 5960   2.341   0.055   4.581
 1654SOL    HW1 5961   2.426   0.060   4.632
 1654SOL    HW2 5962   2.361   0.059   4.483
 1655SOL     OW 5963   2.908   1.385   4.157
 1655SOL    HW1 5964   2.894   1.473   4.111
 1655SOL    HW2 5965   2.916   1.400   4.255
 1656SOL     OW 5966   2.236   1.789   4.678
 1656SOL    HW1 5967   2.298   1.711   4.675
 1656SOL    HW2 5968   2.287   1.873   4.660
 1657SOL     OW 5969   2.207   0.983   4.097
 1657SOL    HW1 5970   2.257   0.994   4.011
 1657SOL    HW2 5971   2.234   0.897   4.140
 1658SOL     OW 5972   3.052   1.759   3.905
 1658SOL    HW1 5973   2.981   1.708   3.952
 1658SOL    HW2 5974   3.095   1.701   3.836
 1659SOL     OW 5975   3.498   1.410   3.918
 1659SOL    HW1 5976   3.475   1.456   3.832
 1659SOL    HW2 5977   3.454   1.320   3.920
 1660SOL     OW 5978   3.287   0.250   4.155
 1660SOL    HW1 5979   3.290   0.184   4.081
 1660SOL    HW2 5980   3.304   0.204   4.242
 1661SOL     OW 5981   2.160   1.736   4.938
 1661SOL    HW1 5982   2.237   1.698   4.990
 1661SOL    HW2 5983   2.184   1.737   4.841
 1662SOL     OW 5984   2.287   0.723   4.200
 1662SOL    HW1 5985   2.291   0.630   4.166
 1662SOL    HW2 5986   2.223   0.728   4.277
 1663SOL     OW 5987   2.728   1.466   4.587
 1663SOL    HW1 5988   2.804   1.429   4.534
 1663SOL    HW2 5989   2.642   1.441   4.542
 1664SOL     OW 5990   2.369   0.120   4.308
 1664SOL    HW1 5991   2.272   0.130   4.329
 1664SOL    HW2 5992   2.386   0.150   4.214
 1665SOL     OW 5993   3.199   1.481   4.452
 1665SOL    HW1 5994   3.211   1.563   4.396
 1665SOL    HW2 5995   3.253   1.489   4.535
 1666SOL     OW 5996   2.288   1.251   4.439
 1666SOL    HW1 5997   2.219   1.231   4.509
 1666SOL    HW2 5998   2.244   1.253   4.349
 1667SOL     OW 5999   3.196   1.699   4.276
 1667SOL    HW1 6000   3.242   1.787   4.264
 1667SOL    HW2 6001   3.097   1.710   4.264
 1668SOL     OW 6002   2.690   4.995   4.585
 1668SOL    HW1 6003   2.663   0.075   4.531
 1668SOL    HW2 6004   2.780   4.964   4.557
 1669SOL     OW 6005   3.303   1.173   4.612
 1669SOL    HW1 6006   3.275   1.079   4.630
 1669SOL    HW2 6007   3.288   1.193   4.515
 1670SOL     OW 6008   3.669   0.755   4.074
 1670SOL    HW1 6009   3.749   0.816   4.076
 1670SOL    HW2 6010   3.696   0.666   4.039
 1671SOL     OW 6011   2.377   1.450   3.896
 1671SOL    HW1 6012   2.294   1.444   3.952
 1671SOL    HW2 6013   2.358   1.416   3.804
 1672SOL     OW 6014   2.430   0.221   4.062
 1672SOL    HW1 6015   2.518   0.174   4.065
 1672SOL    HW2 6016   2.419   0.263   3.972
 1673SOL     OW 6017   3.470   1.149   4.832
 1673SOL    HW1 6018   3.396   1.177   4.894
 1673SOL    HW2 6019   3.437   1.152   4.738
 1674SOL     OW 6020   2.130   1.236   4.205
 1674SOL    HW1 6021   2.132   1.303   4.131
 1674SOL    HW2 6022   2.168   1.149   4.173
 1675SOL     OW 6023   3.139   1.265   4.076
 1675SOL    HW1 6024   3.202   1.342   4.087
 1675SOL    HW2 6025   3.047   1.293   4.103
 1676SOL     OW 6026   3.505   0.651   4.265
 1676SOL    HW1 6027   3.484   0.712   4.341
 1676SOL    HW2 6028   3.565   0.698   4.200
 1677SOL     OW 6029   3.219   0.914   4.643
 1677SOL    HW1 6030   3.219   0.909   4.543
 1677SOL    HW2 6031   3.145   0.857   4.679
 1678SOL     OW 6032   1.938   0.374   0.032
 1678SOL    HW1 6033   1.910   0.436   4.958
 1678SOL    HW2 6034   1.956   0.427   0.115
 1679SOL     OW 6035   1.833   1.367   4.917
 1679SOL    HW1 6036   1.812   1.316   0.000
 1679SOL    HW2 6037   1.879   1.452   4.940
 1680SOL     OW 6038   2.125   0.172   4.419
 1680SOL    HW1 6039   2.134   0.271   4.413
 1680SOL    HW2 6040   2.162   0.140   4.506
 1681SOL     OW 6041   3.428   0.468   4.068
 1681SOL    HW1 6042   3.377   0.391   4.106
 1681SOL    HW2 6043   3.434   0.541   4.136
 1682SOL     OW 6044   2.977   0.763   4.712
 1682SOL    HW1 6045   2.996   0.750   4.809
 1682SOL    HW2 6046   2.878   0.773   4.698
 1683SOL     OW 6047   3.424   0.335   3.818
 1683SOL    HW1 6048   3.380   0.250   3.845
 1683SOL    HW2 6049   3.421   0.400   3.893
 1684SOL     OW 6050   2.943   1.383   4.433
 1684SOL    HW1 6051   2.956   1.284   4.445
 1684SOL    HW2 6052   3.030   1.430   4.447
 1685SOL     OW 6053   2.041   0.589   4.680
 1685SOL    HW1 6054   2.088   0.501   4.680
 1685SOL    HW2 6055   2.077   0.647   4.608
 1686SOL     OW 6056   2.979   0.210   0.147
 1686SOL    HW1 6057   3.016   0.220   0.239
 1686SOL    HW2 6058   2.964   0.300   0.107
 1687SOL     OW 6059   1.921   1.226   3.862
 1687SOL    HW1 6060   1.835   1.273   3.838
 1687SOL    HW2 6061   1.903   1.159   3.933
 1688SOL     OW 6062   1.958   1.817   4.633
 1688SOL    HW1 6063   1.922   1.726   4.614
 1688SOL    HW2 6064   2.057   1.813   4.643
 1689SOL     OW 6065   2.442   1.604   4.707
 1689SOL    HW1 6066   2.511   1.675   4.722
 1689SOL    HW2 6067   2.461   1.557   4.621
 1690SOL     OW 6068   3.003   0.741   4.986
 1690SOL    HW1 6069   3.092   0.757   0.028
 1690SOL    HW2 6070   2.931   0.783   0.042
 1691SOL     OW 6071   1.877   0.617   4.891
 1691SOL    HW1 6072   1.940   0.605   4.815
 1691SOL    HW2 6073   1.819   0.697   4.874
 1692SOL     OW 6074   3.533   0.702   4.961
 1692SOL    HW1 6075   3.486   0.618   4.990
 1692SOL    HW2 6076   3.627   0.680   4.936
 1693SOL     OW 6077   3.220   0.879   4.102
 1693SOL    HW1 6078   3.161   0.799   4.114
 1693SOL    HW2 6079   3.177   0.943   4.039
 1694SOL     OW 6080   3.653   1.716   4.908
 1694SOL    HW1 6081   3.715   1.772   4.853
 1694SOL    HW2 6082   3.639   1.628   4.863
 1695SOL     OW 6083   1.840   1.304   4.649
 1695SOL    HW1 6084   1.839   1.329   4.746
 1695SOL    HW2 6085   1.767   1.239   4.631
 1696SOL     OW 6086   3.294   1.479   4.118
 1696SOL    HW1 6087   3.382   1.488   4.072
 1696SOL    HW2 6088   3.273   1.563   4.168
 1697SOL     OW 6089   3.192   0.954   4.367
 1697SOL    HW1 6090   3.219   0.920   4.277
 1697SOL    HW2 6091   3.196   1.054   4.369
 1698SOL     OW 6092   2.579   1.638   3.949
 1698SOL    HW1 6093   2.582   1.708   3.877
 1698SOL    HW2 6094   2.506   1.573   3.929
 1699SOL     OW 6095   3.728   1.885   0.118
 1699SOL    HW1 6096   3.712   1.818   0.045
 1699SOL    HW2 6097   3.657   1.956   0.113
 1700SOL     OW 6098   3.862   0.236   4.593
 1700SOL    HW1 6099   3.811   0.174   4.653
 1700SOL    HW2 6100   3.801   0.271   4.522
 1701SOL     OW 6101   2.197   0.442   4.421
 1701SOL    HW1 6102   2.172   0.539   4.418
 1701SOL    HW2 6103   2.203   0.412   4.516
 1702SOL     OW 6104   3.161   1.583   3.727
 1702SOL    HW1 6105   3.131   1.496   3.765
 1702SOL    HW2 6106   3.120   1.596   3.637
 1703SOL     OW 6107   3.429   1.551   3.693
 1703SOL    HW1 6108   3.331   1.569   3.706
 1703SOL    HW2 6109   3.450   1.552   3.596
 1704SOL     OW 6110   2.567   1.580   4.229
 1704SOL    HW1 6111   2.589   1.486   4.206
 1704SOL    HW2 6112   2.547   1.631   4.145
 1705SOL     OW 6113   2.098   1.402   3.980
 1705SOL    HW1 6114   2.047   1.332   3.930
 1705SOL    HW2 6115   2.059   1.492   3.959
 1706SOL     OW 6116   3.058   1.346   3.817
 1706SOL    HW1 6117   2.961   1.353   3.838
 1706SOL    HW2 6118   3.106   1.300   3.892
 1707SOL     OW 6119   3.595   1.737   4.598
 1707SOL    HW1 6120   3.513   1.790   4.620
 1707SOL    HW2 6121   3.595   1.652   4.650
 1708SOL     OW 6122   3.446   0.944   0.030
 1708SOL    HW1 6123   3.482   0.856   4.999
 1708SOL    HW2 6124   3.467   1.015   4.963
 1709SOL     OW 6125   3.054   0.404   4.192
 1709SOL    HW1 6126   3.138   0.351   4.180
 1709SOL    HW2 6127   3.077   0.501   4.200
 1710SOL     OW 6128   2.508   0.809   4.378
 1710SOL    HW1 6129   2.483   0.890   4.430
 1710SOL    HW2 6130   2.434   0.785   4.315
 1711SOL     OW 6131   3.608   0.888   0.257
 1711SOL    HW1 6132   3.695   0.932   0.238
 1711SOL    HW2 6133   3.541   0.916   0.187
 1712SOL     OW 6134   2.592   1.837   4.770
 1712SOL    HW1 6135   2.524   1.897   4.727
 1712SOL    HW2 6136   2.624   1.878   4.855
 1713SOL     OW 6137   2.644   1.154   4.697
 1713SOL    HW1 6138   2.740   1.129   4.711
 1713SOL    HW2 6139   2.622   1.234   4.753
 1714SOL     OW 6140   1.896   1.330   4.352
 1714SOL    HW1 6141   1.892   1.314   4.451
 1714SOL    HW2 6142   1.984   1.297   4.317
 1715SOL     OW 6143   3.879   0.064   0.002
 1715SOL    HW1 6144   3.796   0.041   0.053
 1715SOL    HW2 6145   3.922   0.145   0.043
 1716SOL     OW 6146   2.273   0.445   4.158
 1716SOL    HW1 6147   2.334   0.371   4.130
 1716SOL    HW2 6148   2.250   0.434   4.255
 1717SOL     OW 6149   3.593   1.502   4.745
 1717SOL    HW1 6150   3.498   1.474   4.726
 1717SOL    HW2 6151   3.651   1.421   4.750
 1718SOL     OW 6152   2.728   1.689   4.423
 1718SOL    HW1 6153   2.661   1.659   4.355
 1718SOL    HW2 6154   2.733   1.621   4.496
 1719SOL     OW 6155   3.483   0.066   4.867
 1719SOL    HW1 6156   3.405   0.011   4.836
 1719SOL    HW2 6157   3.450   0.142   4.923
 1720SOL     OW 6158   2.638   1.332   4.157
 1720SOL    HW1 6159   2.611   1.238   4.178
 1720SOL    HW2 6160   2.738   1.338   4.148
 1721SOL     OW 6161   3.299   0.064   3.951
 1721SOL    HW1 6162   3.344   4.976   3.966
 1721SOL    HW2 6163   3.223   0.052   3.887
 1722SOL     OW 6164   1.933   1.065   4.090
 1722SOL    HW1 6165   1.964   1.138   4.150
 1722SOL    HW2 6166   2.007   1.000   4.074
 1723SOL     OW 6167   2.846   1.624   4.034
 1723SOL    HW1 6168   2.751   1.628   4.006
 1723SOL    HW2 6169   2.860   1.682   4.114
 1724SOL     OW 6170   1.886   2.255   0.579
 1724SOL    HW1 6171   1.822   2.295   0.644
 1724SOL    HW2 6172   1.839   2.190   0.520
 1725SOL     OW 6173   2.430   3.192   1.103
 1725SOL    HW1 6174   2.346   3.183   1.050
 1725SOL    HW2 6175   2.507   3.207   1.040
 1726SOL     OW 6176   3.454   3.311   0.716
 1726SOL    HW1 6177   3.406   3.309   0.804
 1726SOL    HW2 6178   3.395   3.350   0.646
 1727SOL     OW 6179   3.115   2.653   0.838
 1727SOL    HW1 6180   3.122   2.668   0.739
 1727SOL    HW2 6181   3.020   2.638   0.863
 1728SOL     OW 6182   3.383   2.423   0.218
 1728SOL    HW1 6183   3.326   2.412   0.137
 1728SOL    HW2 6184   3.446   2.345   0.224
 1729SOL     OW 6185   2.717   3.025   1.097
 1729SOL    HW1 6186   2.658   3.020   1.178
 1729SOL    HW2 6187   2.682   3.095   1.034
 1730SOL     OW 6188   2.787   2.564   1.799
 1730SOL    HW1 6189   2.745   2.629   1.862
 1730SOL    HW2 6190   2.805   2.609   1.711
 1731SOL     OW 6191   2.536   2.861   0.811
 1731SOL    HW1 6192   2.634   2.873   0.826
 1731SOL    HW2 6193   2.512   2.892   0.719
 1732SOL     OW 6194   2.626   2.999   1.819
 1732SOL    HW1 6195   2.667   3.077   1.865
 1732SOL    HW2 6196   2.534   3.023   1.789
 1733SOL     OW 6197   2.208   3.238   0.934
 1733SOL    HW1 6198   2.114   3.223   0.966
 1733SOL    HW2 6199   2.234   3.333   0.952
 1734SOL     OW 6200   3.249   3.396   1.396
 1734SOL    HW1 6201   3.320   3.467   1.408
 1734SOL    HW2 6202   3.292   3.306   1.400
 1735SOL     OW 6203   2.342   2.270   1.531
 1735SOL    HW1 6204   2.421   2.212   1.552
 1735SOL    HW2 6205   2.323   2.267   1.433
 1736SOL     OW 6206   3.482   2.317   0.751
 1736SOL    HW1 6207   3.464   2.335   0.655
 1736SOL    HW2 6208   3.439   2.388   0.807
 1737SOL     OW 6209   2.068   3.346   0.526
 1737SOL    HW1 6210   2.165   3.368   0.534
 1737SOL    HW2 6211   2.025   3.353   0.616
 1738SOL     OW 6212   3.482   1.959   1.473
 1738SOL    HW1 6213   3.520   2.039   1.427
 1738SOL    HW2 6214   3.418   1.988   1.544
 1739SOL     OW 6215   1.978   2.505   0.495
 1739SOL    HW1 6216   1.959   2.410   0.519
 1739SOL    HW2 6217   1.985   2.560   0.578
 1740SOL     OW 6218   2.049   3.405   0.020
 1740SOL    HW1 6219   2.048   3.360   0.109
 1740SOL    HW2 6220   1.957   3.438   4.998
 1741SOL     OW 6221   3.686   2.703   0.703
 1741SOL    HW1 6222   3.735   2.617   0.693
 1741SOL    HW2 6223   3.716   2.768   0.634
 1742SOL     OW 6224   2.428   3.302   0.760
 1742SOL    HW1 6225   2.351   3.250   0.796
 1742SOL    HW2 6226   2.406   3.335   0.668
 1743SOL     OW 6227   3.329   3.133   1.390
 1743SOL    HW1 6228   3.263   3.075   1.342
 1743SOL    HW2 6229   3.332   3.107   1.487
 1744SOL     OW 6230   2.888   3.834   1.649
 1744SOL    HW1 6231   2.858   3.867   1.560
 1744SOL    HW2 6232   2.909   3.737   1.644
 1745SOL     OW 6233   2.198   2.129   1.905
 1745SOL    HW1 6234   2.203   2.206   1.841
 1745SOL    HW2 6235   2.106   2.125   1.945
 1746SOL     OW 6236   3.276   3.303   0.936
 1746SOL    HW1 6237   3.227   3.319   1.022
 1746SOL    HW2 6238   3.277   3.205   0.916
 1747SOL     OW 6239   2.459   2.554   0.258
 1747SOL    HW1 6240   2.477   2.651   0.244
 1747SOL    HW2 6241   2.378   2.543   0.316
 1748SOL     OW 6242   2.720   2.355   1.465
 1748SOL    HW1 6243   2.714   2.336   1.563
 1748SOL    HW2 6244   2.652   2.424   1.440
 1749SOL     OW 6245   3.210   2.334   1.606
 1749SOL    HW1 6246   3.230   2.388   1.687
 1749SOL    HW2 6247   3.257   2.246   1.613
 1750SOL     OW 6248   2.829   2.693   1.553
 1750SOL    HW1 6249   2.883   2.636   1.491
 1750SOL    HW2 6250   2.758   2.740   1.501
 1751SOL     OW 6251   2.783   2.133   1.317
 1751SOL    HW1 6252   2.753   2.216   1.363
 1751SOL    HW2 6253   2.791   2.151   1.219
 1752SOL     OW 6254   1.980   2.661   0.719
 1752SOL    HW1 6255   2.046   2.614   0.778
 1752SOL    HW2 6256   2.001   2.758   0.717
 1753SOL     OW 6257   1.861   3.598   1.625
 1753SOL    HW1 6258   1.861   3.615   1.724
 1753SOL    HW2 6259   1.772   3.626   1.587
 1754SOL     OW 6260   3.542   2.458   1.809
 1754SOL    HW1 6261   3.544   2.547   1.764
 1754SOL    HW2 6262   3.550   2.386   1.740
 1755SOL     OW 6263   3.194   2.971   0.558
 1755SOL    HW1 6264   3.292   2.987   0.575
 1755SOL    HW2 6265   3.157   3.049   0.507
 1756SOL     OW 6266   2.556   1.944   1.005
 1756SOL    HW1 6267   2.478   1.919   1.064
 1756SOL    HW2 6268   2.541   2.035   0.968
 1757SOL     OW 6269   2.177   3.671   0.978
 1757SOL    HW1 6270   2.251   3.605   0.967
 1757SOL    HW2 6271   2.199   3.754   0.926
 1758SOL     OW 6272   3.679   2.914   0.887
 1758SOL    HW1 6273   3.673   2.827   0.838
 1758SOL    HW2 6274   3.601   2.922   0.949
 1759SOL     OW 6275   3.425   2.634   0.662
 1759SOL    HW1 6276   3.397   2.594   0.750
 1759SOL    HW2 6277   3.518   2.669   0.668
 1760SOL     OW 6278   2.375   3.101   1.749
 1760SOL    HW1 6279   2.304   3.129   1.684
 1760SOL    HW2 6280   2.332   3.058   1.828
 1761SOL     OW 6281   2.376   3.663   0.465
 1761SOL    HW1 6282   2.306   3.716   0.513
 1761SOL    HW2 6283   2.407   3.714   0.385
 1762SOL     OW 6284   3.248   1.917   0.357
 1762SOL    HW1 6285   3.242   1.946   0.261
 1762SOL    HW2 6286   3.310   1.839   0.364
 1763SOL     OW 6287   2.112   3.641   1.240
 1763SOL    HW1 6288   2.195   3.617   1.291
 1763SOL    HW2 6289   2.136   3.657   1.144
 1764SOL     OW 6290   2.250   2.506   0.418
 1764SOL    HW1 6291   2.271   2.418   0.461
 1764SOL    HW2 6292   2.153   2.527   0.432
 1765SOL     OW 6293   3.322   2.080   1.671
 1765SOL    HW1 6294   3.324   2.104   1.768
 1765SOL    HW2 6295   3.256   2.006   1.656
 1766SOL     OW 6296   2.406   1.949   0.095
 1766SOL    HW1 6297   2.496   1.969   0.056
 1766SOL    HW2 6298   2.335   1.979   0.031
 1767SOL     OW 6299   2.599   2.139   1.937
 1767SOL    HW1 6300   2.672   2.088   1.892
 1767SOL    HW2 6301   2.521   2.079   1.953
 1768SOL     OW 6302   3.199   2.495   1.380
 1768SOL    HW1 6303   3.208   2.435   1.459
 1768SOL    HW2 6304   3.205   2.590   1.410
 1769SOL     OW 6305   2.640   3.234   0.930
 1769SOL    HW1 6306   2.735   3.251   0.904
 1769SOL    HW2 6307   2.579   3.257   0.853
 1770SOL     OW 6308   2.771   2.357   0.866
 1770SOL    HW1 6309   2.720   2.328   0.785
 1770SOL    HW2 6310   2.852   2.300   0.877
 1771SOL     OW 6311   3.313   3.105   0.070
 1771SOL    HW1 6312   3.388   3.083   0.133
 1771SOL    HW2 6313   3.229   3.118   0.122
 1772SOL     OW 6314   2.370   1.671   0.115
 1772SOL    HW1 6315   2.369   1.771   0.124
 1772SOL    HW2 6316   2.464   1.637   0.120
 1773SOL     OW 6317   2.923   2.512   1.356
 1773SOL    HW1 6318   2.873   2.437   1.400
 1773SOL    HW2 6319   3.021   2.491   1.355
 1774SOL     OW 6320   3.095   3.461   0.806
 1774SOL    HW1 6321   3.068   3.534   0.870
 1774SOL    HW2 6322   3.165   3.404   0.849
 1775SOL     OW 6323   2.861   2.401   4.838
 1775SOL    HW1 6324   2.862   2.498   4.863
 1775SOL    HW2 6325   2.773   2.361   4.866
 1776SOL     OW 6326   2.610   2.250   0.668
 1776SOL    HW1 6327   2.592   2.306   0.587
 1776SOL    HW2 6328   2.612   2.153   0.642
 1777SOL     OW 6329   3.281   3.042   0.862
 1777SOL    HW1 6330   3.185   3.023   0.841
 1777SOL    HW2 6331   3.337   3.024   0.781
 1778SOL     OW 6332   3.348   2.518   0.897
 1778SOL    HW1 6333   3.258   2.557   0.879
 1778SOL    HW2 6334   3.366   2.517   0.995
 1779SOL     OW 6335   2.326   3.311   0.250
 1779SOL    HW1 6336   2.227   3.296   0.252
 1779SOL    HW2 6337   2.366   3.257   0.176
 1780SOL     OW 6338   3.448   3.046   0.635
 1780SOL    HW1 6339   3.537   3.006   0.612
 1780SOL    HW2 6340   3.460   3.143   0.655
 1781SOL     OW 6341   2.398   2.165   0.274
 1781SOL    HW1 6342   2.400   2.073   0.233
 1781SOL    HW2 6343   2.398   2.233   0.201
 1782SOL     OW 6344   3.629   3.096   1.647
 1782SOL    HW1 6345   3.692   3.028   1.684
 1782SOL    HW2 6346   3.677   3.182   1.631
 1783SOL     OW 6347   3.493   3.433   1.657
 1783SOL    HW1 6348   3.470   3.482   1.573
 1783SOL    HW2 6349   3.587   3.399   1.652
 1784SOL     OW 6350   2.957   3.156   1.123
 1784SOL    HW1 6351   2.878   3.100   1.143
 1784SOL    HW2 6352   2.948   3.196   1.032
 1785SOL     OW 6353   3.465   2.972   1.054
 1785SOL    HW1 6354   3.486   3.057   1.103
 1785SOL    HW2 6355   3.389   2.986   0.992
 1786SOL     OW 6356   2.722   1.888   1.459
 1786SOL    HW1 6357   2.707   1.940   1.374
 1786SOL    HW2 6358   2.803   1.924   1.506
 1787SOL     OW 6359   2.869   2.905   1.729
 1787SOL    HW1 6360   2.777   2.934   1.752
 1787SOL    HW2 6361   2.865   2.830   1.662
 1788SOL     OW 6362   1.949   3.416   1.236
 1788SOL    HW1 6363   1.856   3.433   1.268
 1788SOL    HW2 6364   2.000   3.502   1.233
 1789SOL     OW 6365   2.497   2.204   0.920
 1789SOL    HW1 6366   2.530   2.221   0.827
 1789SOL    HW2 6367   2.522   2.281   0.979
 1790SOL     OW 6368   3.096   3.203   0.456
 1790SOL    HW1 6369   3.154   3.274   0.495
 1790SOL    HW2 6370   3.001   3.219   0.483
 1791SOL     OW 6371   3.130   3.366   1.156
 1791SOL    HW1 6372   3.170   3.381   1.246
 1791SOL    HW2 6373   3.063   3.292   1.161
 1792SOL     OW 6374   3.441   2.421   0.490
 1792SOL    HW1 6375   3.438   2.505   0.543
 1792SOL    HW2 6376   3.404   2.437   0.399
 1793SOL     OW 6377   3.533   2.713   1.709
 1793SOL    HW1 6378   3.438   2.745   1.709
 1793SOL    HW2 6379   3.580   2.750   1.629
 1794SOL     OW 6380   2.800   2.022   1.796
 1794SOL    HW1 6381   2.860   2.097   1.769
 1794SOL    HW2 6382   2.850   1.936   1.793
 1795SOL     OW 6383   2.390   1.939   1.933
 1795SOL    HW1 6384   2.399   1.902   1.841
 1795SOL    HW2 6385   2.320   2.010   1.934
 1796SOL     OW 6386   2.419   2.666   0.963
 1796SOL    HW1 6387   2.461   2.732   0.900
 1796SOL    HW2 6388   2.389   2.714   1.045
 1797SOL     OW 6389   3.151   2.763   1.093
 1797SOL    HW1 6390   3.146   2.679   1.147
 1797SOL    HW2 6391   3.144   2.740   0.996
 1798SOL     OW 6392   2.577   2.447   1.038
 1798SOL    HW1 6393   2.648   2.426   0.970
 1798SOL    HW2 6394   2.518   2.520   1.003
 1799SOL     OW 6395   3.664   2.772   1.943
 1799SOL    HW1 6396   3.614   2.747   1.860
 1799SOL    HW2 6397   3.604   2.763   2.022
 1800SOL     OW 6398   3.543   2.219   0.333
 1800SOL    HW1 6399   3.614   2.162   0.375
 1800SOL    HW2 6400   3.510   2.285   0.401
 1801SOL     OW 6401   2.860   2.617   0.929
 1801SOL    HW1 6402   2.825   2.626   1.022
 1801SOL    HW2 6403   2.828   2.531   0.890
 1802SOL     OW 6404   3.747   3.344   1.619
 1802SOL    HW1 6405   3.776   3.354   1.524
 1802SOL    HW2 6406   3.821   3.372   1.680
 1803SOL     OW 6407   3.518   2.055   0.116
 1803SOL    HW1 6408   3.422   2.030   0.102
 1803SOL    HW2 6409   3.524   2.119   0.192
 1804SOL     OW 6410   2.915   3.255   0.872
 1804SOL    HW1 6411   2.948   3.172   0.828
 1804SOL    HW2 6412   2.963   3.334   0.835
 1805SOL     OW 6413   2.181   2.547   0.868
 1805SOL    HW1 6414   2.266   2.593   0.892
 1805SOL    HW2 6415   2.194   2.448   0.877
 1806SOL     OW 6416   2.231   2.274   0.906
 1806SOL    HW1 6417   2.187   2.230   0.829
 1806SOL    HW2 6418   2.326   2.242   0.913
 1807SOL     OW 6419   2.979   2.223   1.715
 1807SOL    HW1 6420   2.956   2.273   1.799
 1807SOL    HW2 6421   3.057   2.267   1.671
 1808SOL     OW 6422   2.946   2.038   1.518
 1808SOL    HW1 6423   2.957   2.111   1.586
 1808SOL    HW2 6424   2.908   2.075   1.434
 1809SOL     OW 6425   1.919   3.586   0.929
 1809SOL    HW1 6426   1.929   3.515   0.859
 1809SOL    HW2 6427   2.009   3.621   0.954
 1810SOL     OW 6428   2.362   3.469   0.977
 1810SOL    HW1 6429   2.410   3.434   1.058
 1810SOL    HW2 6430   2.406   3.434   0.895
 1811SOL     OW 6431   2.745   2.620   1.178
 1811SOL    HW1 6432   2.811   2.582   1.242
 1811SOL    HW2 6433   2.679   2.550   1.151
 1812SOL     OW 6434   1.842   2.272   1.131
 1812SOL    HW1 6435   1.821   2.211   1.055
 1812SOL    HW2 6436   1.941   2.277   1.144
 1813SOL     OW 6437   2.175   2.348   1.731
 1813SOL    HW1 6438   2.244   2.324   1.662
 1813SOL    HW2 6439   2.087   2.363   1.686
 1814SOL     OW 6440   3.286   2.829   1.680
 1814SOL    HW1 6441   3.306   2.927   1.675
 1814SOL    HW2 6442   3.249   2.798   1.592
 1815SOL     OW 6443   2.567   2.351   0.412
 1815SOL    HW1 6444   2.520   2.270   0.379
 1815SOL    HW2 6445   2.538   2.431   0.359
 1816SOL     OW 6446   3.387   2.510   1.171
 1816SOL    HW1 6447   3.318   2.493   1.241
 1816SOL    HW2 6448   3.462   2.445   1.181
 1817SOL     OW 6449   2.406   2.359   0.072
 1817SOL    HW1 6450   2.434   2.432   0.134
 1817SOL    HW2 6451   2.316   2.380   0.035
 1818SOL     OW 6452   3.143   2.989   1.246
 1818SOL    HW1 6453   3.153   2.911   1.186
 1818SOL    HW2 6454   3.075   3.052   1.208
 1819SOL     OW 6455   3.010   2.652   0.345
 1819SOL    HW1 6456   3.064   2.658   0.429
 1819SOL    HW2 6457   3.037   2.726   0.283
 1820SOL     OW 6458   3.649   3.568   1.243
 1820SOL    HW1 6459   3.730   3.604   1.195
 1820SOL    HW2 6460   3.586   3.528   1.177
 1821SOL     OW 6461   3.083   3.612   1.048
 1821SOL    HW1 6462   3.172   3.651   1.026
 1821SOL    HW2 6463   3.096   3.523   1.093
 1822SOL     OW 6464   1.943   3.236   1.020
 1822SOL    HW1 6465   1.944   3.296   1.101
 1822SOL    HW2 6466   1.882   3.159   1.037
 1823SOL     OW 6467   2.646   2.027   4.982
 1823SOL    HW1 6468   2.632   2.116   4.939
 1823SOL    HW2 6469   2.722   2.032   0.047
 1824SOL     OW 6470   3.723   2.056   0.459
 1824SOL    HW1 6471   3.807   2.064   0.406
 1824SOL    HW2 6472   3.686   1.964   0.448
 1825SOL     OW 6473   3.234   3.409   0.574
 1825SOL    HW1 6474   3.241   3.484   0.507
 1825SOL    HW2 6475   3.174   3.438   0.649
 1826SOL     OW 6476   1.889   3.643   1.899
 1826SOL    HW1 6477   1.850   3.574   1.961
 1826SOL    HW2 6478   1.965   3.689   1.945
 1827SOL     OW 6479   3.174   2.702   0.569
 1827SOL    HW1 6480   3.267   2.670   0.589
 1827SOL    HW2 6481   3.175   2.801   0.557
 1828SOL     OW 6482   2.541   3.047   1.308
 1828SOL    HW1 6483   2.544   3.093   1.396
 1828SOL    HW2 6484   2.485   3.100   1.244
 1829SOL     OW 6485   2.447   3.529   0.139
 1829SOL    HW1 6486   2.378   3.566   0.076
 1829SOL    HW2 6487   2.406   3.457   0.195
 1830SOL     OW 6488   3.449   3.584   1.435
 1830SOL    HW1 6489   3.524   3.589   1.369
 1830SOL    HW2 6490   3.441   3.671   1.484
 1831SOL     OW 6491   3.640   1.995   1.081
 1831SOL    HW1 6492   3.679   1.926   1.019
 1831SOL    HW2 6493   3.572   2.049   1.033
 1832SOL     OW 6494   2.104   2.141   0.702
 1832SOL    HW1 6495   2.032   2.189   0.651
 1832SOL    HW2 6496   2.062   2.079   0.768
 1833SOL     OW 6497   3.044   3.475   4.965
 1833SOL    HW1 6498   2.969   3.434   0.016
 1833SOL    HW2 6499   3.100   3.403   4.924
 1834SOL     OW 6500   2.660   2.805   1.373
 1834SOL    HW1 6501   2.684   2.757   1.288
 1834SOL    HW2 6502   2.609   2.888   1.351
 1835SOL     OW 6503   2.785   2.796   0.220
 1835SOL    HW1 6504   2.872   2.842   0.200
 1835SOL    HW2 6505   2.803   2.711   0.270
 1836SOL     OW 6506   3.226   3.664   0.047
 1836SOL    HW1 6507   3.149   3.605   0.023
 1836SOL    HW2 6508   3.311   3.624   0.013
 1837SOL     OW 6509   2.179   3.172   1.579
 1837SOL    HW1 6510   2.166   3.110   1.502
 1837SOL    HW2 6511   2.121   3.253   1.567
 1838SOL     OW 6512   3.517   3.200   1.205
 1838SOL    HW1 6513   3.611   3.176   1.231
 1838SOL    HW2 6514   3.454   3.177   1.279
 1839SOL     OW 6515   3.018   3.022   0.771
 1839SOL    HW1 6516   2.942   2.963   0.800
 1839SOL    HW2 6517   3.058   2.985   0.688
 1840SOL     OW 6518   2.343   3.395   0.513
 1840SOL    HW1 6519   2.347   3.353   0.423
 1840SOL    HW2 6520   2.353   3.494   0.504
 1841SOL     OW 6521   3.624   2.186   1.376
 1841SOL    HW1 6522   3.610   2.237   1.291
 1841SOL    HW2 6523   3.692   2.114   1.360
 1842SOL     OW 6524   2.049   3.277   0.262
 1842SOL    HW1 6525   2.072   3.180   0.262
 1842SOL    HW2 6526   2.039   3.309   0.356
 1843SOL     OW 6527   2.554   2.102   1.591
 1843SOL    HW1 6528   2.621   2.037   1.555
 1843SOL    HW2 6529   2.600   2.172   1.646
 1844SOL     OW 6530   3.217   2.770   1.420
 1844SOL    HW1 6531   3.151   2.838   1.387
 1844SOL    HW2 6532   3.301   2.777   1.367
 1845SOL     OW 6533   3.073   3.152   0.189
 1845SOL    HW1 6534   3.001   3.209   0.150
 1845SOL    HW2 6535   3.083   3.175   0.286
 1846SOL     OW 6536   3.345   3.676   0.968
 1846SOL    HW1 6537   3.397   3.688   0.883
 1846SOL    HW2 6538   3.394   3.614   1.029
 1847SOL     OW 6539   2.667   2.318   1.734
 1847SOL    HW1 6540   2.705   2.407   1.761
 1847SOL    HW2 6541   2.635   2.270   1.816
 1848SOL     OW 6542   3.358   3.090   1.661
 1848SOL    HW1 6543   3.323   3.152   1.731
 1848SOL    HW2 6544   3.458   3.094   1.660
 1849SOL     OW 6545   2.123   3.649   1.557
 1849SOL    HW1 6546   2.025   3.654   1.575
 1849SOL    HW2 6547   2.149   3.554   1.537
 1850SOL     OW 6548   3.434   2.786   1.258
 1850SOL    HW1 6549   3.433   2.693   1.221
 1850SOL    HW2 6550   3.442   2.852   1.183
 1851SOL     OW 6551   3.558   2.238   1.641
 1851SOL    HW1 6552   3.587   2.230   1.545
 1851SOL    HW2 6553   3.481   2.177   1.658
 1852SOL     OW 6554   3.598   2.857   1.479
 1852SOL    HW1 6555   3.589   2.953   1.506
 1852SOL    HW2 6556   3.541   2.840   1.399
 1853SOL     OW 6557   2.858   3.306   0.089
 1853SOL    HW1 6558   2.805   3.364   0.152
 1853SOL    HW2 6559   2.796   3.252   0.033
 1854SOL     OW 6560   2.807   2.881   0.878
 1854SOL    HW1 6561   2.828   2.784   0.891
 1854SOL    HW2 6562   2.782   2.922   0.966
 1855SOL     OW 6563   3.040   2.879   0.169
 1855SOL    HW1 6564   3.054   2.977   0.184
 1855SOL    HW2 6565   3.067   2.856   0.076
 1856SOL     OW 6566   3.732   3.327   0.776
 1856SOL    HW1 6567   3.636   3.323   0.749
 1856SOL    HW2 6568   3.747   3.265   0.853
 1857SOL     OW 6569   2.566   3.170   1.554
 1857SOL    HW1 6570   2.493   3.151   1.620
 1857SOL    HW2 6571   2.654   3.142   1.593
 1858SOL     OW 6572   3.773   1.960   1.311
 1858SOL    HW1 6573   3.733   1.878   1.353
 1858SOL    HW2 6574   3.731   1.974   1.221
 1859SOL     OW 6575   2.280   2.255   0.515
 1859SOL    HW1 6576   2.314   2.200   0.438
 1859SOL    HW2 6577   2.232   2.196   0.579
 1860SOL     OW 6578   3.469   3.440   1.079
 1860SOL    HW1 6579   3.403   3.409   1.010
 1860SOL    HW2 6580   3.499   3.361   1.134
 1861SOL     OW 6581   2.112   2.293   1.152
 1861SOL    HW1 6582   2.131   2.384   1.189
 1861SOL    HW2 6583   2.156   2.283   1.063
 1862SOL     OW 6584   3.263   1.948   0.081
 1862SOL    HW1 6585   3.309   1.863   0.057
 1862SOL    HW2 6586   3.176   1.953   0.033
 1863SOL     OW 6587   3.442   2.149   0.975
 1863SOL    HW1 6588   3.481   2.217   1.037
 1863SOL    HW2 6589   3.442   2.186   0.882
 1864SOL     OW 6590   2.693   3.459   0.243
 1864SOL    HW1 6591   2.612   3.489   0.192
 1864SOL    HW2 6592   2.690   3.496   0.336
 1865SOL     OW 6593   2.056   2.384   1.994
 1865SOL    HW1 6594   2.017   2.467   2.034
 1865SOL    HW2 6595   2.111   2.409   1.914
 1866SOL     OW 6596   1.891   2.261   2.431
 1866SOL    HW1 6597   1.803   2.302   2.408
 1866SOL    HW2 6598   1.906   2.181   2.373
 1867SOL     OW 6599   2.490   3.163   3.037
 1867SOL    HW1 6600   2.403   3.149   2.989
 1867SOL    HW2 6601   2.494   3.257   3.071
 1868SOL     OW 6602   3.050   2.724   2.603
 1868SOL    HW1 6603   3.143   2.692   2.619
 1868SOL    HW2 6604   2.996   2.712   2.686
 1869SOL     OW 6605   3.656   2.350   2.038
 1869SOL    HW1 6606   3.613   2.399   1.963
 1869SOL    HW2 6607   3.712   2.275   2.002
 1870SOL     OW 6608   2.645   2.963   2.924
 1870SOL    HW1 6609   2.599   3.042   2.964
 1870SOL    HW2 6610   2.741   2.964   2.949
 1871SOL     OW 6611   2.560   2.950   2.504
 1871SOL    HW1 6612   2.624   2.906   2.567
 1871SOL    HW2 6613   2.480   2.981   2.556
 1872SOL     OW 6614   2.709   3.113   3.616
 1872SOL    HW1 6615   2.741   3.207   3.621
 1872SOL    HW2 6616   2.609   3.113   3.603
 1873SOL     OW 6617   2.260   3.160   2.891
 1873SOL    HW1 6618   2.168   3.127   2.911
 1873SOL    HW2 6619   2.296   3.112   2.810
 1874SOL     OW 6620   3.386   2.272   2.425
 1874SOL    HW1 6621   3.310   2.299   2.484
 1874SOL    HW2 6622   3.473   2.286   2.474
 1875SOL     OW 6623   2.125   3.676   2.282
 1875SOL    HW1 6624   2.079   3.754   2.326
 1875SOL    HW2 6625   2.116   3.684   2.183
 1876SOL     OW 6626   3.013   3.203   3.583
 1876SOL    HW1 6627   3.024   3.220   3.681
 1876SOL    HW2 6628   2.990   3.106   3.569
 1877SOL     OW 6629   2.687   2.762   1.960
 1877SOL    HW1 6630   2.652   2.841   1.909
 1877SOL    HW2 6631   2.731   2.794   2.044
 1878SOL     OW 6632   3.814   3.680   2.222
 1878SOL    HW1 6633   3.864   3.654   2.304
 1878SOL    HW2 6634   3.814   3.780   2.213
 1879SOL     OW 6635   1.803   3.452   2.080
 1879SOL    HW1 6636   1.875   3.385   2.093
 1879SOL    HW2 6637   1.713   3.409   2.092
 1880SOL     OW 6638   1.967   2.542   3.420
 1880SOL    HW1 6639   2.021   2.595   3.355
 1880SOL    HW2 6640   1.884   2.593   3.443
 1881SOL     OW 6641   3.112   2.979   3.304
 1881SOL    HW1 6642   3.124   2.901   3.243
 1881SOL    HW2 6643   3.145   2.955   3.395
 1882SOL     OW 6644   2.657   2.019   2.439
 1882SOL    HW1 6645   2.725   2.066   2.382
 1882SOL    HW2 6646   2.565   2.040   2.406
 1883SOL     OW 6647   2.089   2.685   3.215
 1883SOL    HW1 6648   2.183   2.702   3.187
 1883SOL    HW2 6649   2.042   2.631   3.145
 1884SOL     OW 6650   3.260   3.177   2.942
 1884SOL    HW1 6651   3.246   3.194   3.039
 1884SOL    HW2 6652   3.339   3.117   2.929
 1885SOL     OW 6653   2.787   2.301   3.391
 1885SOL    HW1 6654   2.808   2.326   3.485
 1885SOL    HW2 6655   2.731   2.218   3.390
 1886SOL     OW 6656   3.216   2.255   3.498
 1886SOL    HW1 6657   3.218   2.288   3.592
 1886SOL    HW2 6658   3.309   2.234   3.468
 1887SOL     OW 6659   2.826   2.752   3.385
 1887SOL    HW1 6660   2.858   2.668   3.342
 1887SOL    HW2 6661   2.733   2.771   3.354
 1888SOL     OW 6662   2.966   2.694   2.344
 1888SOL    HW1 6663   2.994   2.703   2.439
 1888SOL    HW2 6664   2.907   2.614   2.334
 1889SOL     OW 6665   2.734   2.312   2.112
 1889SOL    HW1 6666   2.807   2.337   2.049
 1889SOL    HW2 6667   2.665   2.257   2.064
 1890SOL     OW 6668   3.516   2.369   3.645
 1890SOL    HW1 6669   3.504   2.461   3.609
 1890SOL    HW2 6670   3.509   2.303   3.570
 1891SOL     OW 6671   3.031   3.320   2.195
 1891SOL    HW1 6672   3.015   3.419   2.203
 1891SOL    HW2 6673   3.087   3.289   2.272
 1892SOL     OW 6674   3.028   3.338   3.345
 1892SOL    HW1 6675   3.030   3.306   3.440
 1892SOL    HW2 6676   2.966   3.280   3.291
 1893SOL     OW 6677   3.298   2.615   2.648
 1893SOL    HW1 6678   3.264   2.521   2.641
 1893SOL    HW2 6679   3.366   2.631   2.577
 1894SOL     OW 6680   2.444   3.105   3.546
 1894SOL    HW1 6681   2.455   3.028   3.484
 1894SOL    HW2 6682   2.352   3.104   3.585
 1895SOL     OW 6683   2.971   3.711   2.030
 1895SOL    HW1 6684   2.924   3.656   2.100
 1895SOL    HW2 6685   2.909   3.780   1.994
 1896SOL     OW 6686   1.983   2.062   3.376
 1896SOL    HW1 6687   1.943   2.019   3.295
 1896SOL    HW2 6688   1.926   2.043   3.456
 1897SOL     OW 6689   2.017   3.571   3.004
 1897SOL    HW1 6690   2.092   3.506   3.016
 1897SOL    HW2 6691   2.009   3.595   2.907
 1898SOL     OW 6692   2.834   3.508   2.662
 1898SOL    HW1 6693   2.901   3.465   2.723
 1898SOL    HW2 6694   2.753   3.450   2.655
 1899SOL     OW 6695   3.140   2.404   3.275
 1899SOL    HW1 6696   3.166   2.357   3.359
 1899SOL    HW2 6697   3.182   2.495   3.273
 1900SOL     OW 6698   2.784   2.430   2.753
 1900SOL    HW1 6699   2.839   2.410   2.672
 1900SOL    HW2 6700   2.760   2.344   2.799
 1901SOL     OW 6701   2.406   2.050   2.345
 1901SOL    HW1 6702   2.338   2.043   2.418
 1901SOL    HW2 6703   2.375   2.116   2.277
 1902SOL     OW 6704   2.845   2.154   2.302
 1902SOL    HW1 6705   2.801   2.212   2.234
 1902SOL    HW2 6706   2.944   2.163   2.294
 1903SOL     OW 6707   2.881   2.512   3.247
 1903SOL    HW1 6708   2.830   2.441   3.295
 1903SOL    HW2 6709   2.977   2.485   3.240
 1904SOL     OW 6710   2.355   2.999   2.690
 1904SOL    HW1 6711   2.368   2.918   2.747
 1904SOL    HW2 6712   2.270   2.991   2.638
 1905SOL     OW 6713   2.937   2.375   1.940
 1905SOL    HW1 6714   2.901   2.458   1.898
 1905SOL    HW2 6715   3.018   2.397   1.994
 1906SOL     OW 6716   1.978   2.314   3.271
 1906SOL    HW1 6717   1.994   2.228   3.320
 1906SOL    HW2 6718   1.976   2.390   3.336
 1907SOL     OW 6719   2.933   2.348   2.537
 1907SOL    HW1 6720   2.886   2.385   2.457
 1907SOL    HW2 6721   2.901   2.254   2.553
 1908SOL     OW 6722   2.840   2.102   2.628
 1908SOL    HW1 6723   2.763   2.079   2.568
 1908SOL    HW2 6724   2.889   2.018   2.652
 1909SOL     OW 6725   3.471   3.002   2.912
 1909SOL    HW1 6726   3.440   2.909   2.889
 1909SOL    HW2 6727   3.518   3.042   2.834
 1910SOL     OW 6728   3.793   2.516   2.211
 1910SOL    HW1 6729   3.727   2.562   2.270
 1910SOL    HW2 6730   3.745   2.450   2.152
 1911SOL     OW 6731   3.578   3.147   2.694
 1911SOL    HW1 6732   3.668   3.131   2.653
 1911SOL    HW2 6733   3.513   3.170   2.622
 1912SOL     OW 6734   3.269   2.462   1.840
 1912SOL    HW1 6735   3.234   2.426   1.926
 1912SOL    HW2 6736   3.369   2.459   1.840
 1913SOL     OW 6737   2.308   2.209   2.152
 1913SOL    HW1 6738   2.267   2.193   2.062
 1913SOL    HW2 6739   2.300   2.306   2.175
 1914SOL     OW 6740   2.893   3.127   3.224
 1914SOL    HW1 6741   2.800   3.105   3.254
 1914SOL    HW2 6742   2.958   3.067   3.270
 1915SOL     OW 6743   2.914   2.988   2.987
 1915SOL    HW1 6744   2.911   3.045   3.069
 1915SOL    HW2 6745   2.953   3.040   2.911
 1916SOL     OW 6746   3.554   2.955   3.174
 1916SOL    HW1 6747   3.528   3.034   3.230
 1916SOL    HW2 6748   3.529   2.973   3.079
 1917SOL     OW 6749   2.846   1.946   3.180
 1917SOL    HW1 6750   2.863   1.918   3.085
 1917SOL    HW2 6751   2.903   2.025   3.202
 1918SOL     OW 6752   2.908   2.937   3.574
 1918SOL    HW1 6753   2.827   2.993   3.589
 1918SOL    HW2 6754   2.887   2.864   3.508
 1919SOL     OW 6755   2.666   3.059   2.275
 1919SOL    HW1 6756   2.623   3.024   2.358
 1919SOL    HW2 6757   2.725   2.988   2.235
 1920SOL     OW 6758   2.359   2.698   3.135
 1920SOL    HW1 6759   2.432   2.747   3.182
 1920SOL    HW2 6760   2.381   2.600   3.131
 1921SOL     OW 6761   2.985   2.175   3.242
 1921SOL    HW1 6762   3.053   2.245   3.224
 1921SOL    HW2 6763   2.911   2.213   3.298
 1922SOL     OW 6764   1.961   3.325   3.194
 1922SOL    HW1 6765   1.903   3.405   3.179
 1922SOL    HW2 6766   2.050   3.340   3.152
 1923SOL     OW 6767   2.131   3.022   2.527
 1923SOL    HW1 6768   2.136   3.118   2.499
 1923SOL    HW2 6769   2.131   2.964   2.445
 1924SOL     OW 6770   2.335   2.407   2.782
 1924SOL    HW1 6771   2.368   2.355   2.703
 1924SOL    HW2 6772   2.412   2.455   2.824
 1925SOL     OW 6773   3.229   3.207   3.213
 1925SOL    HW1 6774   3.173   3.279   3.255
 1925SOL    HW2 6775   3.191   3.117   3.237
 1926SOL     OW 6776   2.211   3.385   3.043
 1926SOL    HW1 6777   2.224   3.308   2.980
 1926SOL    HW2 6778   2.296   3.402   3.092
 1927SOL     OW 6779   2.256   2.623   3.610
 1927SOL    HW1 6780   2.335   2.595   3.556
 1927SOL    HW2 6781   2.198   2.544   3.629
 1928SOL     OW 6782   3.480   2.615   3.531
 1928SOL    HW1 6783   3.386   2.644   3.547
 1928SOL    HW2 6784   3.508   2.642   3.438
 1929SOL     OW 6785   2.786   1.918   3.570
 1929SOL    HW1 6786   2.858   1.986   3.582
 1929SOL    HW2 6787   2.816   1.847   3.507
 1930SOL     OW 6788   2.427   2.804   2.878
 1930SOL    HW1 6789   2.506   2.860   2.904
 1930SOL    HW2 6790   2.382   2.771   2.961
 1931SOL     OW 6791   3.365   2.740   2.890
 1931SOL    HW1 6792   3.337   2.698   2.803
 1931SOL    HW2 6793   3.420   2.675   2.942
 1932SOL     OW 6794   3.174   2.409   2.089
 1932SOL    HW1 6795   3.249   2.350   2.119
 1932SOL    HW2 6796   3.178   2.496   2.137
 1933SOL     OW 6797   2.117   2.109   3.039
 1933SOL    HW1 6798   2.143   2.155   3.125
 1933SOL    HW2 6799   2.171   2.026   3.029
 1934SOL     OW 6800   1.876   3.065   3.181
 1934SOL    HW1 6801   1.913   3.007   3.254
 1934SOL    HW2 6802   1.909   3.159   3.194
 1935SOL     OW 6803   2.557   2.550   2.870
 1935SOL    HW1 6804   2.634   2.525   2.811
 1935SOL    HW2 6805   2.523   2.641   2.844
 1936SOL     OW 6806   2.209   2.011   2.530
 1936SOL    HW1 6807   2.175   2.101   2.556
 1936SOL    HW2 6808   2.221   1.955   2.612
 1937SOL     OW 6809   3.410   2.279   2.151
 1937SOL    HW1 6810   3.403   2.269   2.250
 1937SOL    HW2 6811   3.504   2.303   2.127
 1938SOL     OW 6812   2.896   2.669   2.824
 1938SOL    HW1 6813   2.869   2.693   2.917
 1938SOL    HW2 6814   2.867   2.575   2.803
 1939SOL     OW 6815   3.903   3.180   3.522
 1939SOL    HW1 6816   3.849   3.172   3.438
 1939SOL    HW2 6817   3.919   3.277   3.542
 1940SOL     OW 6818   3.314   2.142   1.932
 1940SOL    HW1 6819   3.247   2.080   1.973
 1940SOL    HW2 6820   3.361   2.194   2.003
 1941SOL     OW 6821   3.203   2.725   1.916
 1941SOL    HW1 6822   3.213   2.627   1.898
 1941SOL    HW2 6823   3.230   2.776   1.835
 1942SOL     OW 6824   3.036   3.135   2.795
 1942SOL    HW1 6825   3.058   3.116   2.699
 1942SOL    HW2 6826   3.119   3.157   2.846
 1943SOL     OW 6827   2.093   2.327   2.866
 1943SOL    HW1 6828   2.098   2.244   2.921
 1943SOL    HW2 6829   2.185   2.359   2.845
 1944SOL     OW 6830   2.970   2.127   3.583
 1944SOL    HW1 6831   2.925   2.207   3.622
 1944SOL    HW2 6832   3.059   2.152   3.546
 1945SOL     OW 6833   1.809   3.154   2.109
 1945SOL    HW1 6834   1.723   3.204   2.115
 1945SOL    HW2 6835   1.797   3.062   2.146
 1946SOL     OW 6836   1.984   3.646   2.743
 1946SOL    HW1 6837   1.939   3.593   2.670
 1946SOL    HW2 6838   2.072   3.680   2.710
 1947SOL     OW 6839   2.739   2.657   3.062
 1947SOL    HW1 6840   2.791   2.600   3.126
 1947SOL    HW2 6841   2.673   2.601   3.013
 1948SOL     OW 6842   1.968   2.484   3.057
 1948SOL    HW1 6843   2.006   2.445   2.973
 1948SOL    HW2 6844   1.978   2.419   3.132
 1949SOL     OW 6845   2.060   2.431   3.648
 1949SOL    HW1 6846   2.028   2.337   3.663
 1949SOL    HW2 6847   2.021   2.467   3.564
 1950SOL     OW 6848   3.219   2.707   3.539
 1950SOL    HW1 6849   3.233   2.805   3.553
 1950SOL    HW2 6850   3.206   2.688   3.442
 1951SOL     OW 6851   2.789   2.480   2.335
 1951SOL    HW1 6852   2.754   2.429   2.256
 1951SOL    HW2 6853   2.717   2.540   2.370
 1952SOL     OW 6854   3.502   2.534   3.039
 1952SOL    HW1 6855   3.435   2.464   3.060
 1952SOL    HW2 6856   3.591   2.492   3.021
 1953SOL     OW 6857   1.970   2.884   3.373
 1953SOL    HW1 6858   2.013   2.877   3.464
 1953SOL    HW2 6859   2.016   2.822   3.310
 1954SOL     OW 6860   3.142   2.818   3.066
 1954SOL    HW1 6861   3.210   2.804   2.994
 1954SOL    HW2 6862   3.062   2.863   3.028
 1955SOL     OW 6863   3.195   2.657   2.192
 1955SOL    HW1 6864   3.114   2.683   2.244
 1955SOL    HW2 6865   3.196   2.707   2.105
 1956SOL     OW 6866   2.013   3.068   2.934
 1956SOL    HW1 6867   1.957   3.059   3.017
 1956SOL    HW2 6868   1.966   3.025   2.857
 1957SOL     OW 6869   2.552   3.575   3.530
 1957SOL    HW1 6870   2.465   3.619   3.553
 1957SOL    HW2 6871   2.624   3.643   3.525
 1958SOL     OW 6872   2.620   3.093   3.267
 1958SOL    HW1 6873   2.608   3.170   3.330
 1958SOL    HW2 6874   2.570   3.111   3.182
 1959SOL     OW 6875   2.107   2.253   2.598
 1959SOL    HW1 6876   2.032   2.274   2.535
 1959SOL    HW2 6877   2.083   2.287   2.689
 1960SOL     OW 6878   2.590   2.818   3.234
 1960SOL    HW1 6879   2.651   2.782   3.163
 1960SOL    HW2 6880   2.607   2.916   3.245
 1961SOL     OW 6881   2.839   2.870   2.170
 1961SOL    HW1 6882   2.904   2.895   2.099
 1961SOL    HW2 6883   2.884   2.809   2.236
 1962SOL     OW 6884   3.295   3.574   1.785
 1962SOL    HW1 6885   3.210   3.522   1.785
 1962SOL    HW2 6886   3.370   3.516   1.752
 1963SOL     OW 6887   3.480   3.190   3.317
 1963SOL    HW1 6888   3.493   3.268   3.378
 1963SOL    HW2 6889   3.392   3.198   3.270
 1964SOL     OW 6890   3.618   2.212   3.201
 1964SOL    HW1 6891   3.657   2.268   3.129
 1964SOL    HW2 6892   3.660   2.121   3.199
 1965SOL     OW 6893   2.071   2.823   3.628
 1965SOL    HW1 6894   2.014   2.799   3.706
 1965SOL    HW2 6895   2.144   2.755   3.618
 1966SOL     OW 6896   2.662   2.061   3.364
 1966SOL    HW1 6897   2.706   2.018   3.285
 1966SOL    HW2 6898   2.685   2.009   3.446
 1967SOL     OW 6899   1.946   2.141   2.015
 1967SOL    HW1 6900   1.854   2.139   1.977
 1967SOL    HW2 6901   1.978   2.236   2.020
 1968SOL     OW 6902   3.236   2.661   3.268
 1968SOL    HW1 6903   3.194   2.709   3.191
 1968SOL    HW2 6904   3.335   2.676   3.267
 1969SOL     OW 6905   1.925   2.042   2.272
 1969SOL    HW1 6906   1.935   2.074   2.178
 1969SOL    HW2 6907   1.987   1.965   2.288
 1970SOL     OW 6908   3.021   3.197   1.946
 1970SOL    HW1 6909   3.028   3.098   1.954
 1970SOL    HW2 6910   3.035   3.239   2.036
 1971SOL     OW 6911   3.281   2.975   3.546
 1971SOL    HW1 6912   3.271   3.015   3.637
 1971SOL    HW2 6913   3.348   3.028   3.494
 1972SOL     OW 6914   3.506   2.701   3.262
 1972SOL    HW1 6915   3.523   2.642   3.183
 1972SOL    HW2 6916   3.527   2.796   3.237
 1973SOL     OW 6917   2.627   2.675   2.451
 1973SOL    HW1 6918   2.599   2.762   2.411
 1973SOL    HW2 6919   2.656   2.689   2.546
 1974SOL     OW 6920   3.479   2.196   3.435
 1974SOL    HW1 6921   3.526   2.218   3.350
 1974SOL    HW2 6922   3.479   2.097   3.449
 1975SOL     OW 6923   2.744   3.216   1.930
 1975SOL    HW1 6924   2.727   3.250   2.022
 1975SOL    HW2 6925   2.843   3.212   1.914
 1976SOL     OW 6926   2.701   2.813   2.696
 1976SOL    HW1 6927   2.783   2.764   2.726
 1976SOL    HW2 6928   2.670   2.873   2.770
 1977SOL     OW 6929   3.012   2.919   1.959
 1977SOL    HW1 6930   2.958   2.918   1.875
 1977SOL    HW2 6931   3.084   2.850   1.953
 1978SOL     OW 6932   3.690   3.403   2.748
 1978SOL    HW1 6933   3.634   3.467   2.800
 1978SOL    HW2 6934   3.647   3.313   2.748
 1979SOL     OW 6935   2.186   3.073   3.627
 1979SOL    HW1 6936   2.113   3.138   3.606
 1979SOL    HW2 6937   2.148   2.981   3.635
 1980SOL     OW 6938   1.919   2.955   2.695
 1980SOL    HW1 6939   1.993   2.988   2.636
 1980SOL    HW2 6940   1.912   2.856   2.687
 1981SOL     OW 6941   2.544   3.327   3.410
 1981SOL    HW1 6942   2.493   3.263   3.467
 1981SOL    HW2 6943   2.551   3.415   3.458
 1982SOL     OW 6944   3.737   1.957   3.235
 1982SOL    HW1 6945   3.777   1.961   3.327
 1982SOL    HW2 6946   3.806   1.925   3.170
 1983SOL     OW 6947   2.911   1.882   2.919
 1983SOL    HW1 6948   2.888   1.860   2.824
 1983SOL    HW2 6949   3.009   1.865   2.934
 1984SOL     OW 6950   2.755   3.300   2.194
 1984SOL    HW1 6951   2.709   3.219   2.230
 1984SOL    HW2 6952   2.854   3.286   2.197
 1985SOL     OW 6953   2.476   3.410   3.154
 1985SOL    HW1 6954   2.491   3.382   3.249
 1985SOL    HW2 6955   2.534   3.488   3.132
 1986SOL     OW 6956   3.197   2.360   2.616
 1986SOL    HW1 6957   3.104   2.364   2.580
 1986SOL    HW2 6958   3.200   2.299   2.695
 1987SOL     OW 6959   2.846   3.558   2.229
 1987SOL    HW1 6960   2.798   3.473   2.211
 1987SOL    HW2 6961   2.792   3.615   2.291
 1988SOL     OW 6962   2.009   2.595   3.863
 1988SOL    HW1 6963   1.917   2.577   3.898
 1988SOL    HW2 6964   2.024   2.543   3.779
 1989SOL     OW 6965   1.940   2.172   4.308
 1989SOL    HW1 6966   1.902   2.114   4.380
 1989SOL    HW2 6967   1.937   2.124   4.221
 1990SOL     OW 6968   2.434   3.248   4.993
 1990SOL    HW1 6969   2.355   3.227   4.936
 1990SOL    HW2 6970   2.452   3.347   4.989
 1991SOL     OW 6971   3.150   2.604   4.419
 1991SOL    HW1 6972   3.207   2.684   4.434
 1991SOL    HW2 6973   3.071   2.608   4.480
 1992SOL     OW 6974   2.685   3.151   4.923
 1992SOL    HW1 6975   2.597   3.172   4.965
 1992SOL    HW2 6976   2.686   3.184   4.829
 1993SOL     OW 6977   2.430   2.778   4.434
 1993SOL    HW1 6978   2.500   2.776   4.505
 1993SOL    HW2 6979   2.366   2.853   4.453
 1994SOL     OW 6980   2.201   3.265   4.828
 1994SOL    HW1 6981   2.141   3.313   4.892
 1994SOL    HW2 6982   2.254   3.331   4.776
 1995SOL     OW 6983   3.484   2.404   4.553
 1995SOL    HW1 6984   3.396   2.377   4.515
 1995SOL    HW2 6985   3.501   2.353   4.637
 1996SOL     OW 6986   2.111   3.521   4.317
 1996SOL    HW1 6987   2.081   3.557   4.406
 1996SOL    HW2 6988   2.088   3.424   4.311
 1997SOL     OW 6989   2.009   2.435   4.315
 1997SOL    HW1 6990   1.983   2.339   4.316
 1997SOL    HW2 6991   2.003   2.472   4.408
 1998SOL     OW 6992   3.771   3.622   3.962
 1998SOL    HW1 6993   3.831   3.576   4.027
 1998SOL    HW2 6994   3.774   3.721   3.978
 1999SOL     OW 6995   1.820   3.288   3.794
 1999SOL    HW1 6996   1.724   3.265   3.776
 1999SOL    HW2 6997   1.844   3.259   3.886
 2000SOL     OW 6998   3.686   2.796   4.352
 2000SOL    HW1 6999   3.748   2.746   4.291
 2000SOL    HW2 7000   3.647   2.874   4.304
 2001SOL     OW 7001   3.615   3.040   4.230
 2001SOL    HW1 7002   3.612   3.092   4.144
 2001SOL    HW2 7003   3.695   3.069   4.283
 2002SOL     OW 7004   2.455   3.216   4.518
 2002SOL    HW1 7005   2.396   3.136   4.509
 2002SOL    HW2 7006   2.469   3.258   4.429
 2003SOL     OW 7007   2.923   1.769   4.254
 2003SOL    HW1 7008   2.923   1.869   4.249
 2003SOL    HW2 7009   2.857   1.739   4.324
 2004SOL     OW 7010   2.024   2.810   0.190
 2004SOL    HW1 7011   2.003   2.786   0.095
 2004SOL    HW2 7012   1.954   2.772   0.250
 2005SOL     OW 7013   3.281   2.876   3.989
 2005SOL    HW1 7014   3.197   2.825   3.974
 2005SOL    HW2 7015   3.359   2.813   3.991
 2006SOL     OW 7016   3.413   3.336   4.790
 2006SOL    HW1 7017   3.320   3.312   4.816
 2006SOL    HW2 7018   3.444   3.273   4.718
 2007SOL     OW 7019   3.507   3.690   4.190
 2007SOL    HW1 7020   3.506   3.636   4.106
 2007SOL    HW2 7021   3.413   3.700   4.224
 2008SOL     OW 7022   2.375   2.664   4.069
 2008SOL    HW1 7023   2.431   2.738   4.107
 2008SOL    HW2 7024   2.345   2.604   4.142
 2009SOL     OW 7025   3.023   2.277   4.663
 2009SOL    HW1 7026   2.968   2.323   4.733
 2009SOL    HW2 7027   3.025   2.179   4.681
 2010SOL     OW 7028   3.499   3.565   3.940
 2010SOL    HW1 7029   3.598   3.570   3.936
 2010SOL    HW2 7030   3.470   3.470   3.924
 2011SOL     OW 7031   3.075   2.532   4.161
 2011SOL    HW1 7032   3.115   2.570   4.244
 2011SOL    HW2 7033   3.004   2.466   4.184
 2012SOL     OW 7034   1.989   2.564   4.558
 2012SOL    HW1 7035   2.058   2.611   4.613
 2012SOL    HW2 7036   1.924   2.631   4.523
 2013SOL     OW 7037   3.347   2.976   4.253
 2013SOL    HW1 7038   3.442   3.007   4.246
 2013SOL    HW2 7039   3.311   2.959   4.161
 2014SOL     OW 7040   2.402   2.020   4.696
 2014SOL    HW1 7041   2.343   2.037   4.775
 2014SOL    HW2 7042   2.425   2.106   4.652
 2015SOL     OW 7043   2.232   3.663   4.724
 2015SOL    HW1 7044   2.285   3.581   4.703
 2015SOL    HW2 7045   2.291   3.743   4.718
 2016SOL     OW 7046   3.774   2.934   4.582
 2016SOL    HW1 7047   3.758   2.875   4.502
 2016SOL    HW2 7048   3.710   2.909   4.655
 2017SOL     OW 7049   2.136   2.796   4.024
 2017SOL    HW1 7050   2.225   2.751   4.036
 2017SOL    HW2 7051   2.075   2.737   3.972
 2018SOL     OW 7052   3.508   2.677   4.529
 2018SOL    HW1 7053   3.505   2.577   4.534
 2018SOL    HW2 7054   3.578   2.705   4.462
 2019SOL     OW 7055   3.437   3.298   3.889
 2019SOL    HW1 7056   3.529   3.262   3.877
 2019SOL    HW2 7057   3.371   3.230   3.857
 2020SOL     OW 7058   2.369   3.564   4.232
 2020SOL    HW1 7059   2.399   3.658   4.250
 2020SOL    HW2 7060   2.274   3.553   4.260
 2021SOL     OW 7061   3.305   1.949   4.214
 2021SOL    HW1 7062   3.292   1.937   4.115
 2021SOL    HW2 7063   3.401   1.968   4.232
 2022SOL     OW 7064   2.237   3.600   4.989
 2022SOL    HW1 7065   2.165   3.533   0.005
 2022SOL    HW2 7066   2.230   3.635   4.896
 2023SOL     OW 7067   2.809   3.604   4.639
 2023SOL    HW1 7068   2.869   3.547   4.696
 2023SOL    HW2 7069   2.777   3.551   4.561
 2024SOL     OW 7070   2.260   2.456   4.211
 2024SOL    HW1 7071   2.258   2.412   4.121
 2024SOL    HW2 7072   2.169   2.451   4.253
 2025SOL     OW 7073   2.598   1.843   3.760
 2025SOL    HW1 7074   2.666   1.859   3.688
 2025SOL    HW2 7075   2.561   1.930   3.791
 2026SOL     OW 7076   2.688   3.228   4.661
 2026SOL    HW1 7077   2.764   3.181   4.614
 2026SOL    HW2 7078   2.602   3.207   4.614
 2027SOL     OW 7079   2.819   2.388   4.502
 2027SOL    HW1 7080   2.838   2.372   4.406
 2027SOL    HW2 7081   2.884   2.337   4.558
 2028SOL     OW 7082   3.275   3.084   3.806
 2028SOL    HW1 7083   3.283   3.009   3.872
 2028SOL    HW2 7084   3.188   3.132   3.820
 2029SOL     OW 7085   2.282   3.005   4.469
 2029SOL    HW1 7086   2.212   3.030   4.535
 2029SOL    HW2 7087   2.241   3.003   4.377
 2030SOL     OW 7088   3.249   3.723   4.260
 2030SOL    HW1 7089   3.241   3.804   4.202
 2030SOL    HW2 7090   3.158   3.685   4.278
 2031SOL     OW 7091   2.858   2.377   3.648
 2031SOL    HW1 7092   2.934   2.440   3.662
 2031SOL    HW2 7093   2.782   2.403   3.708
 2032SOL     OW 7094   2.918   2.321   4.250
 2032SOL    HW1 7095   2.852   2.284   4.184
 2032SOL    HW2 7096   2.997   2.259   4.256
 2033SOL     OW 7097   3.358   3.092   4.597
 2033SOL    HW1 7098   3.337   3.002   4.560
 2033SOL    HW2 7099   3.355   3.160   4.523
 2034SOL     OW 7100   3.857   2.678   4.177
 2034SOL    HW1 7101   3.916   2.601   4.200
 2034SOL    HW2 7102   3.912   2.751   4.138
 2035SOL     OW 7103   3.254   2.346   3.754
 2035SOL    HW1 7104   3.232   2.323   3.849
 2035SOL    HW2 7105   3.353   2.348   3.743
 2036SOL     OW 7106   2.951   3.085   4.830
 2036SOL    HW1 7107   2.864   3.104   4.877
 2036SOL    HW2 7108   2.940   3.100   4.732
 2037SOL     OW 7109   3.346   2.958   4.839
 2037SOL    HW1 7110   3.343   3.012   4.922
 2037SOL    HW2 7111   3.350   3.018   4.759
 2038SOL     OW 7112   2.524   2.863   4.191
 2038SOL    HW1 7113   2.490   2.833   4.281
 2038SOL    HW2 7114   2.623   2.854   4.189
 2039SOL     OW 7115   2.178   2.997   4.212
 2039SOL    HW1 7116   2.252   3.053   4.173
 2039SOL    HW2 7117   2.151   2.928   4.146
 2040SOL     OW 7118   2.554   2.344   4.620
 2040SOL    HW1 7119   2.488   2.395   4.565
 2040SOL    HW2 7120   2.645   2.354   4.579
 2041SOL     OW 7121   3.171   3.246   4.881
 2041SOL    HW1 7122   3.226   3.200   4.951
 2041SOL    HW2 7123   3.092   3.189   4.858
 2042SOL     OW 7124   3.199   2.315   4.026
 2042SOL    HW1 7125   3.181   2.252   4.101
 2042SOL    HW2 7126   3.173   2.407   4.053
 2043SOL     OW 7127   2.213   2.012   4.909
 2043SOL    HW1 7128   2.144   2.070   4.866
 2043SOL    HW2 7129   2.176   1.919   4.919
 2044SOL     OW 7130   2.939   2.620   4.596
 2044SOL    HW1 7131   2.917   2.634   4.692
 2044SOL    HW2 7132   2.882   2.546   4.559
 2045SOL     OW 7133   3.418   2.153   3.950
 2045SOL    HW1 7134   3.369   2.067   3.938
 2045SOL    HW2 7135   3.356   2.223   3.985
 2046SOL     OW 7136   3.074   2.543   3.707
 2046SOL    HW1 7137   3.140   2.470   3.725
 2046SOL    HW2 7138   3.115   2.610   3.644
 2047SOL     OW 7139   2.916   3.119   4.557
 2047SOL    HW1 7140   2.957   3.028   4.552
 2047SOL    HW2 7141   2.958   3.178   4.488
 2048SOL     OW 7142   2.023   3.597   4.562
 2048SOL    HW1 7143   1.941   3.579   4.617
 2048SOL    HW2 7144   2.096   3.630   4.621
 2049SOL     OW 7145   2.375   3.425   4.689
 2049SOL    HW1 7146   2.448   3.493   4.696
 2049SOL    HW2 7147   2.405   3.352   4.626
 2050SOL     OW 7148   2.886   2.680   4.861
 2050SOL    HW1 7149   2.972   2.729   4.879
 2050SOL    HW2 7150   2.810   2.731   4.901
 2051SOL     OW 7151   2.604   2.286   4.886
 2051SOL    HW1 7152   2.533   2.316   4.949
 2051SOL    HW2 7153   2.578   2.307   4.793
 2052SOL     OW 7154   2.256   2.464   3.922
 2052SOL    HW1 7155   2.310   2.539   3.959
 2052SOL    HW2 7156   2.164   2.496   3.902
 2053SOL     OW 7157   2.154   3.029   0.277
 2053SOL    HW1 7158   2.239   2.997   0.318
 2053SOL    HW2 7159   2.102   2.951   0.242
 2054SOL     OW 7160   3.093   2.857   4.899
 2054SOL    HW1 7161   3.189   2.868   4.873
 2054SOL    HW2 7162   3.042   2.938   4.869
 2055SOL     OW 7163   3.073   2.698   3.939
 2055SOL    HW1 7164   3.067   2.641   4.021
 2055SOL    HW2 7165   3.066   2.641   3.858
 2056SOL     OW 7166   2.084   3.094   4.635
 2056SOL    HW1 7167   2.129   3.149   4.705
 2056SOL    HW2 7168   1.990   3.075   4.663
 2057SOL     OW 7169   3.295   2.840   4.479
 2057SOL    HW1 7170   3.374   2.783   4.502
 2057SOL    HW2 7171   3.312   2.886   4.392
 2058SOL     OW 7172   2.703   2.861   4.965
 2058SOL    HW1 7173   2.688   2.960   4.958
 2058SOL    HW2 7174   2.718   2.837   0.061
 2059SOL     OW 7175   3.034   2.879   4.561
 2059SOL    HW1 7176   2.994   2.788   4.571
 2059SOL    HW2 7177   3.131   2.870   4.538
 2060SOL     OW 7178   2.504   3.332   4.277
 2060SOL    HW1 7179   2.477   3.260   4.213
 2060SOL    HW2 7180   2.457   3.417   4.253
 2061SOL     OW 7181   1.774   2.067   3.845
 2061SOL    HW1 7182   1.678   2.089   3.860
 2061SOL    HW2 7183   1.789   2.047   3.748
 2062SOL     OW 7184   1.902   2.013   4.075
 2062SOL    HW1 7185   1.858   2.037   3.988
 2062SOL    HW2 7186   1.999   1.995   4.059
 2063SOL     OW 7187   3.031   3.192   3.862
 2063SOL    HW1 7188   2.995   3.099   3.866
 2063SOL    HW2 7189   2.994   3.246   3.937
 2064SOL     OW 7190   3.577   2.839   4.742
 2064SOL    HW1 7191   3.548   2.768   4.677
 2064SOL    HW2 7192   3.498   2.872   4.792
 2065SOL     OW 7193   3.156   2.179   4.266
 2065SOL    HW1 7194   3.205   2.092   4.260
 2065SOL    HW2 7195   3.191   2.231   4.343
 2066SOL     OW 7196   2.398   2.499   4.450
 2066SOL    HW1 7197   2.404   2.599   4.446
 2066SOL    HW2 7198   2.352   2.465   4.368
 2067SOL     OW 7199   2.541   3.637   4.706
 2067SOL    HW1 7200   2.507   3.731   4.708
 2067SOL    HW2 7201   2.639   3.637   4.688
 2068SOL     OW 7202   2.959   2.933   3.848
 2068SOL    HW1 7203   2.939   2.922   3.750
 2068SOL    HW2 7204   2.991   2.846   3.885
 2069SOL     OW 7205   1.967   2.994   4.389
 2069SOL    HW1 7206   2.001   3.033   4.475
 2069SOL    HW2 7207   2.041   2.993   4.322
 2070SOL     OW 7208   3.459   3.546   4.961
 2070SOL    HW1 7209   3.443   3.474   4.893
 2070SOL    HW2 7210   3.540   3.522   0.015
 2071SOL     OW 7211   2.700   3.425   4.458
 2071SOL    HW1 7212   2.632   3.401   4.389
 2071SOL    HW2 7213   2.692   3.363   4.536
 2072SOL     OW 7214   2.420   3.111   4.117
 2072SOL    HW1 7215   2.461   3.023   4.143
 2072SOL    HW2 7216   2.430   3.126   4.019
 2073SOL     OW 7217   3.280   1.909   3.943
 2073SOL    HW1 7218   3.345   1.856   3.888
 2073SOL    HW2 7219   3.188   1.871   3.932
 2074SOL     OW 7220   3.220   2.344   4.479
 2074SOL    HW1 7221   3.201   2.438   4.449
 2074SOL    HW2 7222   3.154   2.319   4.550
 2075SOL     OW 7223   2.073   4.309   0.068
 2075SOL    HW1 7224   2.028   4.385   0.115
 2075SOL    HW2 7225   2.008   4.234   0.056
 2076SOL     OW 7226   2.037   3.996   1.063
 2076SOL    HW1 7227   2.076   3.970   1.152
 2076SOL    HW2 7228   1.952   3.945   1.049
 2077SOL     OW 7229   3.582   4.390   0.306
 2077SOL    HW1 7230   3.592   4.389   0.207
 2077SOL    HW2 7231   3.565   4.297   0.339
 2078SOL     OW 7232   2.533   4.951   1.010
 2078SOL    HW1 7233   2.526   0.046   1.040
 2078SOL    HW2 7234   2.535   4.947   0.910
 2079SOL     OW 7235   2.410   4.670   0.732
 2079SOL    HW1 7236   2.412   4.674   0.832
 2079SOL    HW2 7237   2.327   4.715   0.699
 2080SOL     OW 7238   2.331   4.161   1.452
 2080SOL    HW1 7239   2.408   4.102   1.475
 2080SOL    HW2 7240   2.246   4.120   1.483
 2081SOL     OW 7241   3.557   4.198   0.647
 2081SOL    HW1 7242   3.507   4.282   0.628
 2081SOL    HW2 7243   3.648   4.220   0.683
 2082SOL     OW 7244   2.021   4.784   0.894
 2082SOL    HW1 7245   2.073   4.706   0.927
 2082SOL    HW2 7246   1.986   4.836   0.972
 2083SOL     OW 7247   2.474   4.675   0.294
 2083SOL    HW1 7248   2.525   4.746   0.246
 2083SOL    HW2 7249   2.516   4.658   0.383
 2084SOL     OW 7250   1.957   4.467   0.475
 2084SOL    HW1 7251   1.871   4.417   0.461
 2084SOL    HW2 7252   1.964   4.495   0.571
 2085SOL     OW 7253   3.565   4.700   0.645
 2085SOL    HW1 7254   3.625   4.695   0.565
 2085SOL    HW2 7255   3.515   4.614   0.656
 2086SOL     OW 7256   3.476   4.946   0.553
 2086SOL    HW1 7257   3.496   4.925   0.457
 2086SOL    HW2 7258   3.498   4.867   0.610
 2087SOL     OW 7259   3.082   4.936   1.388
 2087SOL    HW1 7260   3.073   4.896   1.297
 2087SOL    HW2 7261   3.046   4.873   1.456
 2088SOL     OW 7262   2.631   3.564   0.492
 2088SOL    HW1 7263   2.680   3.611   0.567
 2088SOL    HW2 7264   2.538   3.600   0.486
 2089SOL     OW 7265   3.263   4.847   0.228
 2089SOL    HW1 7266   3.240   4.764   0.177
 2089SOL    HW2 7267   3.360   4.845   0.252
 2090SOL     OW 7268   2.197   4.064   1.796
 2090SOL    HW1 7269   2.258   4.121   1.851
 2090SOL    HW2 7270   2.107   4.060   1.839
 2091SOL     OW 7271   2.402   4.414   0.262
 2091SOL    HW1 7272   2.435   4.507   0.274
 2091SOL    HW2 7273   2.328   4.396   0.326
 2092SOL     OW 7274   3.050   4.081   0.867
 2092SOL    HW1 7275   2.982   4.033   0.923
 2092SOL    HW2 7276   3.141   4.049   0.892
 2093SOL     OW 7277   2.725   4.333   1.436
 2093SOL    HW1 7278   2.702   4.303   1.528
 2093SOL    HW2 7279   2.683   4.272   1.369
 2094SOL     OW 7280   3.343   4.025   1.554
 2094SOL    HW1 7281   3.245   4.046   1.560
 2094SOL    HW2 7282   3.359   3.932   1.587
 2095SOL     OW 7283   2.944   4.734   1.518
 2095SOL    HW1 7284   2.960   4.643   1.480
 2095SOL    HW2 7285   2.851   4.763   1.499
 2096SOL     OW 7286   2.831   4.097   1.206
 2096SOL    HW1 7287   2.740   4.138   1.206
 2096SOL    HW2 7288   2.845   4.047   1.121
 2097SOL     OW 7289   2.848   4.330   0.466
 2097SOL    HW1 7290   2.867   4.315   0.564
 2097SOL    HW2 7291   2.758   4.293   0.444
 2098SOL     OW 7292   1.988   4.549   0.732
 2098SOL    HW1 7293   2.069   4.528   0.786
 2098SOL    HW2 7294   1.948   4.635   0.763
 2099SOL     OW 7295   2.687   3.933   0.133
 2099SOL    HW1 7296   2.680   4.028   0.104
 2099SOL    HW2 7297   2.782   3.910   0.150
 2100SOL     OW 7298   3.637   4.807   0.957
 2100SOL    HW1 7299   3.625   4.784   0.860
 2100SOL    HW2 7300   3.548   4.825   0.998
 2101SOL     OW 7301   2.210   4.690   0.214
 2101SOL    HW1 7302   2.302   4.693   0.253
 2101SOL    HW2 7303   2.213   4.643   0.126
 2102SOL     OW 7304   2.092   4.057   1.544
 2102SOL    HW1 7305   2.001   4.097   1.550
 2102SOL    HW2 7306   2.135   4.058   1.635
 2103SOL     OW 7307   2.203   4.358   0.436
 2103SOL    HW1 7308   2.197   4.260   0.455
 2103SOL    HW2 7309   2.112   4.398   0.441
 2104SOL     OW 7310   3.419   3.779   1.645
 2104SOL    HW1 7311   3.502   3.799   1.698
 2104SOL    HW2 7312   3.363   3.713   1.695
 2105SOL     OW 7313   2.486   3.783   0.241
 2105SOL    HW1 7314   2.562   3.833   0.199
 2105SOL    HW2 7315   2.478   3.693   0.198
 2106SOL     OW 7316   2.603   3.996   1.780
 2106SOL    HW1 7317   2.694   3.988   1.822
 2106SOL    HW2 7318   2.541   3.932   1.825
 2107SOL     OW 7319   3.236   4.407   1.387
 2107SOL    HW1 7320   3.249   4.333   1.321
 2107SOL    HW2 7321   3.256   4.495   1.343
 2108SOL     OW 7322   2.195   3.824   0.591
 2108SOL    HW1 7323   2.186   3.840   0.690
 2108SOL    HW2 7324   2.173   3.909   0.542
 2109SOL     OW 7325   2.965   4.484   1.399
 2109SOL    HW1 7326   2.894   4.416   1.417
 2109SOL    HW2 7327   3.055   4.443   1.410
 2110SOL     OW 7328   2.187   4.799   0.665
 2110SOL    HW1 7329   2.118   4.811   0.736
 2110SOL    HW2 7330   2.145   4.812   0.575
 2111SOL     OW 7331   2.734   4.206   0.094
 2111SOL    HW1 7332   2.752   4.293   0.048
 2111SOL    HW2 7333   2.699   4.223   0.186
 2112SOL     OW 7334   2.428   3.944   1.257
 2112SOL    HW1 7335   2.465   3.933   1.349
 2112SOL    HW2 7336   2.328   3.936   1.260
 2113SOL     OW 7337   3.173   4.913   0.946
 2113SOL    HW1 7338   3.125   4.916   0.859
 2113SOL    HW2 7339   3.188   0.006   0.980
 2114SOL     OW 7340   3.678   4.641   0.381
 2114SOL    HW1 7341   3.771   4.653   0.346
 2114SOL    HW2 7342   3.645   4.549   0.357
 2115SOL     OW 7343   3.199   4.362   0.132
 2115SOL    HW1 7344   3.129   4.326   0.194
 2115SOL    HW2 7345   3.272   4.294   0.121
 2116SOL     OW 7346   2.412   4.036   0.320
 2116SOL    HW1 7347   2.438   3.942   0.299
 2116SOL    HW2 7348   2.374   4.079   0.238
 2117SOL     OW 7349   3.401   4.845   1.092
 2117SOL    HW1 7350   3.394   4.909   1.169
 2117SOL    HW2 7351   3.324   4.859   1.029
 2118SOL     OW 7352   2.805   3.897   1.392
 2118SOL    HW1 7353   2.822   3.820   1.330
 2118SOL    HW2 7354   2.822   3.983   1.343
 2119SOL     OW 7355   2.971   4.818   1.774
 2119SOL    HW1 7356   2.924   4.753   1.834
 2119SOL    HW2 7357   2.973   4.783   1.681
 2120SOL     OW 7358   2.588   4.620   0.529
 2120SOL    HW1 7359   2.530   4.632   0.610
 2120SOL    HW2 7360   2.676   4.581   0.557
 2121SOL     OW 7361   2.384   4.573   1.230
 2121SOL    HW1 7362   2.473   4.578   1.276
 2121SOL    HW2 7363   2.352   4.478   1.231
 2122SOL     OW 7364   2.082   4.828   0.412
 2122SOL    HW1 7365   2.060   4.917   0.374
 2122SOL    HW2 7366   2.126   4.772   0.341
 2123SOL     OW 7367   2.315   4.165   0.784
 2123SOL    HW1 7368   2.303   4.258   0.747
 2123SOL    HW2 7369   2.409   4.154   0.815
 2124SOL     OW 7370   3.448   4.442   0.552
 2124SOL    HW1 7371   3.353   4.472   0.537
 2124SOL    HW2 7372   3.495   4.436   0.464
 2125SOL     OW 7373   3.520   4.389   1.438
 2125SOL    HW1 7374   3.423   4.404   1.461
 2125SOL    HW2 7375   3.571   4.473   1.456
 2126SOL     OW 7376   2.863   3.964   1.886
 2126SOL    HW1 7377   2.929   4.039   1.885
 2126SOL    HW2 7378   2.872   3.911   1.802
 2127SOL     OW 7379   2.223   3.789   1.765
 2127SOL    HW1 7380   2.191   3.742   1.683
 2127SOL    HW2 7381   2.210   3.888   1.754
 2128SOL     OW 7382   2.400   4.705   1.000
 2128SOL    HW1 7383   2.440   4.795   1.011
 2128SOL    HW2 7384   2.396   4.659   1.089
 2129SOL     OW 7385   3.045   4.223   0.315
 2129SOL    HW1 7386   3.099   4.174   0.383
 2129SOL    HW2 7387   2.971   4.272   0.360
 2130SOL     OW 7388   2.142   3.915   1.306
 2130SOL    HW1 7389   2.121   3.957   1.394
 2130SOL    HW2 7390   2.117   3.819   1.308
 2131SOL     OW 7391   3.532   4.128   0.379
 2131SOL    HW1 7392   3.602   4.070   0.338
 2131SOL    HW2 7393   3.542   4.127   0.478
 2132SOL     OW 7394   2.828   4.466   0.928
 2132SOL    HW1 7395   2.855   4.505   1.016
 2132SOL    HW2 7396   2.743   4.510   0.897
 2133SOL     OW 7397   3.370   4.146   0.154
 2133SOL    HW1 7398   3.316   4.067   0.126
 2133SOL    HW2 7399   3.411   4.128   0.244
 2134SOL     OW 7400   3.193   4.629   0.086
 2134SOL    HW1 7401   3.197   4.532   0.106
 2134SOL    HW2 7402   3.180   4.643   4.988
 2135SOL     OW 7403   2.160   4.547   0.962
 2135SOL    HW1 7404   2.251   4.588   0.978
 2135SOL    HW2 7405   2.162   4.450   0.986
 2136SOL     OW 7406   2.157   4.249   1.005
 2136SOL    HW1 7407   2.096   4.174   1.031
 2136SOL    HW2 7408   2.212   4.221   0.925
 2137SOL     OW 7409   2.851   4.603   1.175
 2137SOL    HW1 7410   2.912   4.559   1.242
 2137SOL    HW2 7411   2.757   4.596   1.207
 2138SOL     OW 7412   2.606   4.239   0.343
 2138SOL    HW1 7413   2.556   4.153   0.351
 2138SOL    HW2 7414   2.543   4.314   0.322
 2139SOL     OW 7415   3.537   4.417   1.164
 2139SOL    HW1 7416   3.529   4.399   1.263
 2139SOL    HW2 7417   3.592   4.345   1.122
 2140SOL     OW 7418   2.574   4.184   1.238
 2140SOL    HW1 7419   2.531   4.093   1.240
 2140SOL    HW2 7420   2.503   4.253   1.223
 2141SOL     OW 7421   2.324   4.194   0.109
 2141SOL    HW1 7422   2.365   4.269   0.161
 2141SOL    HW2 7423   2.228   4.217   0.090
 2142SOL     OW 7424   1.967   4.730   1.545
 2142SOL    HW1 7425   1.980   4.725   1.644
 2142SOL    HW2 7426   2.027   4.665   1.500
 2143SOL     OW 7427   3.066   4.783   1.163
 2143SOL    HW1 7428   3.097   4.824   1.077
 2143SOL    HW2 7429   2.991   4.719   1.144
 2144SOL     OW 7430   1.924   4.927   1.115
 2144SOL    HW1 7431   1.962   4.935   1.207
 2144SOL    HW2 7432   1.824   4.927   1.120
 2145SOL     OW 7433   3.747   3.844   0.786
 2145SOL    HW1 7434   3.745   3.751   0.823
 2145SOL    HW2 7435   3.654   3.879   0.778
 2146SOL     OW 7436   2.197   3.921   0.854
 2146SOL    HW1 7437   2.244   4.004   0.822
 2146SOL    HW2 7438   2.133   3.945   0.927
 2147SOL     OW 7439   2.693   4.815   1.455
 2147SOL    HW1 7440   2.702   4.853   1.363
 2147SOL    HW2 7441   2.627   4.870   1.507
 2148SOL     OW 7442   3.329   0.022   1.300
 2148SOL    HW1 7443   3.352   0.112   1.338
 2148SOL    HW2 7444   3.246   4.989   1.344
 2149SOL     OW 7445   2.870   3.913   0.997
 2149SOL    HW1 7446   2.866   3.865   0.909
 2149SOL    HW2 7447   2.868   3.846   1.071
 2150SOL     OW 7448   1.989   4.694   1.813
 2150SOL    HW1 7449   1.897   4.692   1.852
 2150SOL    HW2 7450   2.056   4.703   1.887
 2151SOL     OW 7451   2.552   3.969   1.505
 2151SOL    HW1 7452   2.639   3.942   1.465
 2151SOL    HW2 7453   2.561   3.976   1.604
 2152SOL     OW 7454   3.286   4.642   1.258
 2152SOL    HW1 7455   3.199   4.688   1.237
 2152SOL    HW2 7456   3.360   4.687   1.207
 2153SOL     OW 7457   2.631   4.573   1.340
 2153SOL    HW1 7458   2.649   4.651   1.400
 2153SOL    HW2 7459   2.663   4.489   1.384
 2154SOL     OW 7460   2.651   4.252   1.685
 2154SOL    HW1 7461   2.649   4.315   1.763
 2154SOL    HW2 7462   2.626   4.160   1.716
 2155SOL     OW 7463   3.700   4.635   1.161
 2155SOL    HW1 7464   3.640   4.555   1.152
 2155SOL    HW2 7465   3.684   4.698   1.086
 2156SOL     OW 7466   2.299   4.415   0.687
 2156SOL    HW1 7467   2.341   4.504   0.702
 2156SOL    HW2 7468   2.267   4.408   0.592
 2157SOL     OW 7469   3.591   4.126   1.510
 2157SOL    HW1 7470   3.585   4.223   1.487
 2157SOL    HW2 7471   3.500   4.093   1.537
 2158SOL     OW 7472   3.679   4.616   1.437
 2158SOL    HW1 7473   3.717   4.701   1.474
 2158SOL    HW2 7474   3.685   4.619   1.337
 2159SOL     OW 7475   2.233   4.097   0.517
 2159SOL    HW1 7476   2.304   4.070   0.451
 2159SOL    HW2 7477   2.273   4.107   0.608
 2160SOL     OW 7478   2.321   4.311   1.223
 2160SOL    HW1 7479   2.314   4.253   1.304
 2160SOL    HW2 7480   2.256   4.280   1.154
 2161SOL     OW 7481   3.285   3.952   0.952
 2161SOL    HW1 7482   3.293   3.853   0.963
 2161SOL    HW2 7483   3.314   3.997   1.036
 2162SOL     OW 7484   2.862   3.709   1.183
 2162SOL    HW1 7485   2.801   3.632   1.203
 2162SOL    HW2 7486   2.946   3.675   1.141
 2163SOL     OW 7487   3.212   3.936   0.065
 2163SOL    HW1 7488   3.210   3.836   0.063
 2163SOL    HW2 7489   3.119   3.971   0.079
 2164SOL     OW 7490   2.935   4.303   0.735
 2164SOL    HW1 7491   2.908   4.365   0.808
 2164SOL    HW2 7492   2.985   4.225   0.775
 2165SOL     OW 7493   3.493   3.953   0.767
 2165SOL    HW1 7494   3.417   3.964   0.831
 2165SOL    HW2 7495   3.511   4.039   0.720
 2166SOL     OW 7496   2.095   4.406   2.007
 2166SOL    HW1 7497   2.013   4.372   2.053
 2166SOL    HW2 7498   2.076   4.415   1.909
 2167SOL     OW 7499   2.015   4.078   2.904
 2167SOL    HW1 7500   2.047   4.007   2.966
 2167SOL    HW2 7501   1.940   4.042   2.848
 2168SOL     OW 7502   2.992   4.459   2.510
 2168SOL    HW1 7503   3.054   4.535   2.529
 2168SOL    HW2 7504   2.938   4.438   2.592
 2169SOL     OW 7505   2.687   4.891   2.986
 2169SOL    HW1 7506   2.650   4.965   3.042
 2169SOL    HW2 7507   2.720   4.929   2.899
 2170SOL     OW 7508   2.787   4.459   3.569
 2170SOL    HW1 7509   2.812   4.505   3.654
 2170SOL    HW2 7510   2.833   4.504   3.493
 2171SOL     OW 7511   2.516   4.722   2.540
 2171SOL    HW1 7512   2.598   4.703   2.595
 2171SOL    HW2 7513   2.442   4.753   2.599
 2172SOL     OW 7514   2.267   3.970   3.201
 2172SOL    HW1 7515   2.362   3.945   3.179
 2172SOL    HW2 7516   2.252   3.956   3.299
 2173SOL     OW 7517   3.580   4.883   2.157
 2173SOL    HW1 7518   3.679   4.867   2.153
 2173SOL    HW2 7519   3.561   4.960   2.218
 2174SOL     OW 7520   2.120   4.437   3.501
 2174SOL    HW1 7521   2.220   4.435   3.509
 2174SOL    HW2 7522   2.085   4.517   3.549
 2175SOL     OW 7523   3.383   4.727   2.067
 2175SOL    HW1 7524   3.354   4.686   2.153
 2175SOL    HW2 7525   3.458   4.791   2.084
 2176SOL     OW 7526   2.231   3.939   3.472
 2176SOL    HW1 7527   2.282   4.005   3.525
 2176SOL    HW2 7528   2.133   3.947   3.492
 2177SOL     OW 7529   3.110   4.108   2.715
 2177SOL    HW1 7530   3.039   4.051   2.757
 2177SOL    HW2 7531   3.180   4.130   2.783
 2178SOL     OW 7532   2.801   4.328   3.255
 2178SOL    HW1 7533   2.787   4.261   3.329
 2178SOL    HW2 7534   2.753   4.297   3.173
 2179SOL     OW 7535   2.932   4.634   3.375
 2179SOL    HW1 7536   3.025   4.604   3.358
 2179SOL    HW2 7537   2.887   4.657   3.289
 2180SOL     OW 7538   2.761   4.483   2.347
 2180SOL    HW1 7539   2.849   4.481   2.395
 2180SOL    HW2 7540   2.743   4.393   2.308
 2181SOL     OW 7541   2.829   4.023   2.160
 2181SOL    HW1 7542   2.920   4.015   2.201
 2181SOL    HW2 7543   2.834   3.999   2.063
 2182SOL     OW 7544   2.142   4.679   2.048
 2182SOL    HW1 7545   2.236   4.709   2.065
 2182SOL    HW2 7546   2.140   4.579   2.043
 2183SOL     OW 7547   3.295   3.854   2.251
 2183SOL    HW1 7548   3.276   3.801   2.169
 2183SOL    HW2 7549   3.388   3.835   2.282
 2184SOL     OW 7550   3.382   3.890   3.630
 2184SOL    HW1 7551   3.387   3.988   3.648
 2184SOL    HW2 7552   3.367   3.841   3.715
 2185SOL     OW 7553   2.453   3.800   1.902
 2185SOL    HW1 7554   2.500   3.712   1.906
 2185SOL    HW2 7555   2.369   3.790   1.848
 2186SOL     OW 7556   3.197   4.324   3.440
 2186SOL    HW1 7557   3.176   4.285   3.530
 2186SOL    HW2 7558   3.227   4.419   3.451
 2187SOL     OW 7559   2.752   4.162   2.784
 2187SOL    HW1 7560   2.713   4.143   2.694
 2187SOL    HW2 7561   2.817   4.090   2.808
 2188SOL     OW 7562   2.117   3.766   2.016
 2188SOL    HW1 7563   2.170   3.837   2.063
 2188SOL    HW2 7564   2.148   3.757   1.922
 2189SOL     OW 7565   2.826   3.886   2.415
 2189SOL    HW1 7566   2.772   3.900   2.331
 2189SOL    HW2 7567   2.921   3.914   2.398
 2190SOL     OW 7568   3.061   4.392   3.213
 2190SOL    HW1 7569   2.966   4.369   3.237
 2190SOL    HW2 7570   3.121   4.362   3.288
 2191SOL     OW 7571   2.344   4.782   2.739
 2191SOL    HW1 7572   2.403   4.742   2.810
 2191SOL    HW2 7573   2.256   4.736   2.739
 2192SOL     OW 7574   2.075   4.379   3.229
 2192SOL    HW1 7575   2.156   4.335   3.189
 2192SOL    HW2 7576   2.096   4.407   3.323
 2193SOL     OW 7577   2.676   4.098   2.531
 2193SOL    HW1 7578   2.682   4.160   2.453
 2193SOL    HW2 7579   2.724   4.013   2.510
 2194SOL     OW 7580   2.816   3.780   2.666
 2194SOL    HW1 7581   2.816   3.813   2.572
 2194SOL    HW2 7582   2.819   3.680   2.667
 2195SOL     OW 7583   3.200   4.887   2.789
 2195SOL    HW1 7584   3.104   4.863   2.785
 2195SOL    HW2 7585   3.212   4.983   2.761
 2196SOL     OW 7586   2.316   3.943   2.099
 2196SOL    HW1 7587   2.379   3.894   2.038
 2196SOL    HW2 7588   2.299   4.034   2.063
 2197SOL     OW 7589   3.517   4.957   3.375
 2197SOL    HW1 7590   3.612   4.955   3.407
 2197SOL    HW2 7591   3.489   0.052   3.361
 2198SOL     OW 7592   3.321   4.844   3.034
 2198SOL    HW1 7593   3.365   4.932   3.054
 2198SOL    HW2 7594   3.282   4.847   2.943
 2199SOL     OW 7595   2.833   4.791   3.573
 2199SOL    HW1 7596   2.740   4.818   3.551
 2199SOL    HW2 7597   2.872   4.738   3.498
 2200SOL     OW 7598   2.643   4.772   2.306
 2200SOL    HW1 7599   2.581   4.757   2.383
 2200SOL    HW2 7600   2.696   4.689   2.289
 2201SOL     OW 7601   2.462   4.454   3.078
 2201SOL    HW1 7602   2.504   4.484   3.164
 2201SOL    HW2 7603   2.392   4.386   3.097
 2202SOL     OW 7604   2.413   4.206   2.561
 2202SOL    HW1 7605   2.439   4.301   2.543
 2202SOL    HW2 7606   2.496   4.150   2.571
 2203SOL     OW 7607   3.392   4.253   2.407
 2203SOL    HW1 7608   3.297   4.234   2.434
 2203SOL    HW2 7609   3.392   4.312   2.326
 2204SOL     OW 7610   2.315   3.707   3.594
 2204SOL    HW1 7611   2.242   3.639   3.592
 2204SOL    HW2 7612   2.286   3.789   3.545
 2205SOL     OW 7613   2.519   4.669   2.915
 2205SOL    HW1 7614   2.569   4.739   2.968
 2205SOL    HW2 7615   2.494   4.594   2.975
 2206SOL     OW 7616   2.062   3.852   3.059
 2206SOL    HW1 7617   2.135   3.888   3.116
 2206SOL    HW2 7618   2.061   3.752   3.064
 2207SOL     OW 7619   2.687   4.305   3.008
 2207SOL    HW1 7620   2.693   4.252   2.924
 2207SOL    HW2 7621   2.598   4.350   3.014
 2208SOL     OW 7622   3.565   4.765   3.777
 2208SOL    HW1 7623   3.511   4.768   3.693
 2208SOL    HW2 7624   3.504   4.766   3.856
 2209SOL     OW 7625   2.854   4.415   2.738
 2209SOL    HW1 7626   2.891   4.444   2.826
 2209SOL    HW2 7627   2.817   4.322   2.746
 2210SOL     OW 7628   3.149   4.669   1.939
 2210SOL    HW1 7629   3.241   4.689   1.971
 2210SOL    HW2 7630   3.125   4.733   1.866
 2211SOL     OW 7631   2.260   4.210   2.833
 2211SOL    HW1 7632   2.172   4.162   2.832
 2211SOL    HW2 7633   2.298   4.209   2.740
 2212SOL     OW 7634   2.770   4.163   3.460
 2212SOL    HW1 7635   2.756   4.227   3.536
 2212SOL    HW2 7636   2.787   4.072   3.497
 2213SOL     OW 7637   1.852   4.947   1.983
 2213SOL    HW1 7638   1.915   4.963   2.059
 2213SOL    HW2 7639   1.823   4.851   1.984
 2214SOL     OW 7640   2.908   4.473   2.999
 2214SOL    HW1 7641   2.979   4.444   3.063
 2214SOL    HW2 7642   2.828   4.414   3.011
 2215SOL     OW 7643   1.920   4.315   3.012
 2215SOL    HW1 7644   1.960   4.230   2.978
 2215SOL    HW2 7645   1.976   4.351   3.087
 2216SOL     OW 7646   1.927   4.245   3.470
 2216SOL    HW1 7647   1.908   4.246   3.372
 2216SOL    HW2 7648   2.000   4.310   3.491
 2217SOL     OW 7649   3.274   4.583   3.440
 2217SOL    HW1 7650   3.326   4.651   3.491
 2217SOL    HW2 7651   3.249   4.620   3.350
 2218SOL     OW 7652   2.684   4.223   2.284
 2218SOL    HW1 7653   2.736   4.156   2.231
 2218SOL    HW2 7654   2.586   4.209   2.267
 2219SOL     OW 7655   2.293   4.209   2.026
 2219SOL    HW1 7656   2.346   4.218   2.111
 2219SOL    HW2 7657   2.226   4.283   2.020
 2220SOL     OW 7658   1.990   4.762   3.349
 2220SOL    HW1 7659   2.003   4.707   3.431
 2220SOL    HW2 7660   2.025   4.712   3.270
 2221SOL     OW 7661   3.187   4.668   3.197
 2221SOL    HW1 7662   3.237   4.732   3.140
 2221SOL    HW2 7663   3.169   4.584   3.146
 2222SOL     OW 7664   3.566   3.795   2.325
 2222SOL    HW1 7665   3.612   3.880   2.298
 2222SOL    HW2 7666   3.621   3.716   2.295
 2223SOL     OW 7667   3.148   4.681   2.580
 2223SOL    HW1 7668   3.214   4.720   2.645
 2223SOL    HW2 7669   3.165   4.720   2.489
 2224SOL     OW 7670   3.712   3.818   2.775
 2224SOL    HW1 7671   3.796   3.829   2.722
 2224SOL    HW2 7672   3.633   3.821   2.713
 2225SOL     OW 7673   2.822   4.700   3.131
 2225SOL    HW1 7674   2.858   4.630   3.069
 2225SOL    HW2 7675   2.783   4.775   3.077
 2226SOL     OW 7676   2.161   4.897   3.533
 2226SOL    HW1 7677   2.178   4.994   3.551
 2226SOL    HW2 7678   2.111   4.888   3.447
 2227SOL     OW 7679   3.484   0.086   3.067
 2227SOL    HW1 7680   3.548   0.010   3.080
 2227SOL    HW2 7681   3.466   0.129   3.155
 2228SOL     OW 7682   2.945   4.791   2.730
 2228SOL    HW1 7683   2.857   4.742   2.730
 2228SOL    HW2 7684   3.009   4.743   2.670
 2229SOL     OW 7685   2.917   3.952   2.845
 2229SOL    HW1 7686   2.877   3.888   2.779
 2229SOL    HW2 7687   2.959   3.901   2.920
 2230SOL     OW 7688   3.691   4.011   3.255
 2230SOL    HW1 7689   3.635   4.088   3.226
 2230SOL    HW2 7690   3.703   3.948   3.178
 2231SOL     OW 7691   2.044   4.670   3.619
 2231SOL    HW1 7692   1.977   4.689   3.691
 2231SOL    HW2 7693   2.100   4.751   3.604
 2232SOL     OW 7694   1.955   4.058   1.906
 2232SOL    HW1 7695   1.903   3.984   1.950
 2232SOL    HW2 7696   1.896   4.138   1.897
 2233SOL     OW 7697   2.639   4.547   3.269
 2233SOL    HW1 7698   2.692   4.619   3.223
 2233SOL    HW2 7699   2.696   4.467   3.283
 2234SOL     OW 7700   3.395   4.802   3.559
 2234SOL    HW1 7701   3.321   4.860   3.593
 2234SOL    HW2 7702   3.444   4.850   3.487
 2235SOL     OW 7703   3.063   3.992   2.314
 2235SOL    HW1 7704   3.146   3.940   2.293
 2235SOL    HW2 7705   3.088   4.076   2.363
 2236SOL     OW 7706   2.524   4.447   2.491
 2236SOL    HW1 7707   2.494   4.541   2.510
 2236SOL    HW2 7708   2.609   4.450   2.438
 2237SOL     OW 7709   3.601   3.842   3.461
 2237SOL    HW1 7710   3.618   3.909   3.388
 2237SOL    HW2 7711   3.518   3.867   3.511
 2238SOL     OW 7712   3.619   4.857   3.137
 2238SOL    HW1 7713   3.584   4.871   3.229
 2238SOL    HW2 7714   3.569   4.782   3.093
 2239SOL     OW 7715   2.711   4.649   2.720
 2239SOL    HW1 7716   2.752   4.558   2.715
 2239SOL    HW2 7717   2.640   4.650   2.791
 2240SOL     OW 7718   1.774   0.048   2.503
 2240SOL    HW1 7719   1.767   0.002   2.592
 2240SOL    HW2 7720   1.870   0.069   2.484
 2241SOL     OW 7721   3.733   3.841   3.050
 2241SOL    HW1 7722   3.784   3.767   3.096
 2241SOL    HW2 7723   3.725   3.819   2.952
 2242SOL     OW 7724   2.413   4.156   2.276
 2242SOL    HW1 7725   2.383   4.064   2.252
 2242SOL    HW2 7726   2.394   4.174   2.373
 2243SOL     OW 7727   2.280   4.241   3.104
 2243SOL    HW1 7728   2.273   4.148   3.141
 2243SOL    HW2 7729   2.277   4.237   3.004
 2244SOL     OW 7730   2.525   4.936   2.106
 2244SOL    HW1 7731   2.571   4.877   2.173
 2244SOL    HW2 7732   2.593   4.984   2.052
 2245SOL     OW 7733   3.242   3.726   2.015
 2245SOL    HW1 7734   3.272   3.673   1.936
 2245SOL    HW2 7735   3.142   3.721   2.022
 2246SOL     OW 7736   3.124   4.217   2.467
 2246SOL    HW1 7737   3.074   4.304   2.469
 2246SOL    HW2 7738   3.119   4.174   2.557
 2247SOL     OW 7739   3.503   3.836   2.588
 2247SOL    HW1 7740   3.411   3.804   2.610
 2247SOL    HW2 7741   3.525   3.810   2.494
 2248SOL     OW 7742   1.915   4.747   2.203
 2248SOL    HW1 7743   1.998   4.746   2.147
 2248SOL    HW2 7744   1.902   4.657   2.244
 2249SOL     OW 7745   1.811   4.123   4.311
 2249SOL    HW1 7746   1.866   4.204   4.332
 2249SOL    HW2 7747   1.793   4.072   4.395
 2250SOL     OW 7748   2.996   4.468   4.417
 2250SOL    HW1 7749   3.029   4.561   4.401
 2250SOL    HW2 7750   3.056   4.421   4.481
 2251SOL     OW 7751   3.396   4.391   4.064
 2251SOL    HW1 7752   3.463   4.422   3.996
 2251SOL    HW2 7753   3.394   4.291   4.066
 2252SOL     OW 7754   2.647   4.837   4.810
 2252SOL    HW1 7755   2.665   4.887   4.895
 2252SOL    HW2 7756   2.653   4.900   4.732
 2253SOL     OW 7757   2.619   4.773   4.424
 2253SOL    HW1 7758   2.676   4.713   4.481
 2253SOL    HW2 7759   2.615   4.864   4.467
 2254SOL     OW 7760   3.492   4.179   4.540
 2254SOL    HW1 7761   3.482   4.250   4.470
 2254SOL    HW2 7762   3.402   4.145   4.566
 2255SOL     OW 7763   3.663   4.553   4.354
 2255SOL    HW1 7764   3.732   4.594   4.414
 2255SOL    HW2 7765   3.619   4.624   4.299
 2256SOL     OW 7766   3.528   4.773   4.239
 2256SOL    HW1 7767   3.605   4.835   4.225
 2256SOL    HW2 7768   3.479   4.800   4.322
 2257SOL     OW 7769   3.385   4.786   4.001
 2257SOL    HW1 7770   3.307   4.725   4.016
 2257SOL    HW2 7771   3.446   4.783   4.080
 2258SOL     OW 7772   2.558   4.499   4.093
 2258SOL    HW1 7773   2.629   4.565   4.065
 2258SOL    HW2 7774   2.526   4.522   4.185
 2259SOL     OW 7775   2.959   4.469   4.144
 2259SOL    HW1 7776   2.966   4.456   4.242
 2259SOL    HW2 7777   2.893   4.403   4.106
 2260SOL     OW 7778   1.950   4.349   4.403
 2260SOL    HW1 7779   2.037   4.369   4.359
 2260SOL    HW2 7780   1.962   4.346   4.502
 2261SOL     OW 7781   2.407   3.885   4.711
 2261SOL    HW1 7782   2.429   3.945   4.788
 2261SOL    HW2 7783   2.363   3.938   4.638
 2262SOL     OW 7784   2.287   4.484   4.046
 2262SOL    HW1 7785   2.262   4.540   3.967
 2262SOL    HW2 7786   2.386   4.479   4.053
 2263SOL     OW 7787   3.263   3.929   4.079
 2263SOL    HW1 7788   3.299   3.881   3.999
 2263SOL    HW2 7789   3.325   4.004   4.103
 2264SOL     OW 7790   2.194   4.412   4.303
 2264SOL    HW1 7791   2.227   4.415   4.208
 2264SOL    HW2 7792   2.266   4.376   4.362
 2265SOL     OW 7793   2.454   3.764   3.824
 2265SOL    HW1 7794   2.414   3.718   3.903
 2265SOL    HW2 7795   2.399   3.744   3.743
 2266SOL     OW 7796   2.799   4.338   4.582
 2266SOL    HW1 7797   2.844   4.383   4.504
 2266SOL    HW2 7798   2.786   4.241   4.562
 2267SOL     OW 7799   2.666   4.867   4.155
 2267SOL    HW1 7800   2.646   4.839   4.250
 2267SOL    HW2 7801   2.710   4.791   4.107
 2268SOL     OW 7802   2.295   4.498   0.017
 2268SOL    HW1 7803   2.338   4.465   0.101
 2268SOL    HW2 7804   2.217   4.440   4.994
 2269SOL     OW 7805   2.404   4.360   4.493
 2269SOL    HW1 7806   2.436   4.436   4.437
 2269SOL    HW2 7807   2.456   4.357   4.578
 2270SOL     OW 7808   3.475   4.354   4.328
 2270SOL    HW1 7809   3.544   4.422   4.352
 2270SOL    HW2 7810   3.431   4.380   4.242
 2271SOL     OW 7811   2.543   4.574   4.901
 2271SOL    HW1 7812   2.553   4.668   4.867
 2271SOL    HW2 7813   2.450   4.559   4.933
 2272SOL     OW 7814   3.163   4.652   4.811
 2272SOL    HW1 7815   3.080   4.599   4.793
 2272SOL    HW2 7816   3.242   4.604   4.772
 2273SOL     OW 7817   2.559   4.356   4.725
 2273SOL    HW1 7818   2.648   4.351   4.681
 2273SOL    HW2 7819   2.557   4.435   4.786
 2274SOL     OW 7820   3.448   4.124   4.158
 2274SOL    HW1 7821   3.519   4.054   4.160
 2274SOL    HW2 7822   3.461   4.187   4.235
 2275SOL     OW 7823   2.935   4.491   4.770
 2275SOL    HW1 7824   2.895   4.477   4.861
 2275SOL    HW2 7825   2.902   4.420   4.708
 2276SOL     OW 7826   2.295   4.127   4.607
 2276SOL    HW1 7827   2.331   4.135   4.700
 2276SOL    HW2 7828   2.326   4.205   4.552
 2277SOL     OW 7829   2.966   4.048   0.121
 2277SOL    HW1 7830   3.004   4.105   0.195
 2277SOL    HW2 7831   2.887   4.093   0.082
 2278SOL     OW 7832   2.777   4.466   4.999
 2278SOL    HW1 7833   2.812   4.521   0.075
 2278SOL    HW2 7834   2.691   4.505   4.967
 2279SOL     OW 7835   2.761   4.319   4.035
 2279SOL    HW1 7836   2.739   4.222   4.031
 2279SOL    HW2 7837   2.678   4.372   4.049
 2280SOL     OW 7838   3.599   4.241   0.046
 2280SOL    HW1 7839   3.512   4.215   0.088
 2280SOL    HW2 7840   3.606   4.201   4.955
 2281SOL     OW 7841   2.425   4.137   4.851
 2281SOL    HW1 7842   2.395   4.152   4.945
 2281SOL    HW2 7843   2.483   4.213   4.822
 2282SOL     OW 7844   3.247   4.928   4.819
 2282SOL    HW1 7845   3.211   4.834   4.814
 2282SOL    HW2 7846   3.213   4.972   4.902
 2283SOL     OW 7847   3.201   4.588   4.095
 2283SOL    HW1 7848   3.111   4.545   4.100
 2283SOL    HW2 7849   3.271   4.518   4.085
 2284SOL     OW 7850   1.916   4.886   4.627
 2284SOL    HW1 7851   1.986   4.828   4.669
 2284SOL    HW2 7852   1.844   4.828   4.589
 2285SOL     OW 7853   3.640   3.927   4.191
 2285SOL    HW1 7854   3.716   3.916   4.127
 2285SOL    HW2 7855   3.592   3.840   4.202
 2286SOL     OW 7856   3.109   4.710   4.338
 2286SOL    HW1 7857   3.172   4.779   4.374
 2286SOL    HW2 7858   3.142   4.678   4.249
 2287SOL     OW 7859   2.783   4.651   4.033
 2287SOL    HW1 7860   2.807   4.648   3.935
 2287SOL    HW2 7861   2.850   4.598   4.085
 2288SOL     OW 7862   3.624   0.030   0.105
 2288SOL    HW1 7863   3.590   0.114   0.147
 2288SOL    HW2 7864   3.579   0.016   0.017
 2289SOL     OW 7865   2.914   4.855   4.494
 2289SOL    HW1 7866   2.872   4.782   4.549
 2289SOL    HW2 7867   2.973   4.814   4.425
 2290SOL     OW 7868   2.745   4.076   4.532
 2290SOL    HW1 7869   2.649   4.050   4.529
 2290SOL    HW2 7870   2.797   4.005   4.579
 2291SOL     OW 7871   3.716   4.021   0.198
 2291SOL    HW1 7872   3.711   4.115   0.162
 2291SOL    HW2 7873   3.693   3.957   0.125
 2292SOL     OW 7874   1.974   3.983   3.539
 2292SOL    HW1 7875   1.896   3.935   3.579
 2292SOL    HW2 7876   1.949   4.077   3.518
 2293SOL     OW 7877   2.452   4.582   4.333
 2293SOL    HW1 7878   2.511   4.655   4.367
 2293SOL    HW2 7879   2.358   4.614   4.327
 2294SOL     OW 7880   3.529   4.857   0.299
 2294SOL    HW1 7881   3.584   4.777   0.323
 2294SOL    HW2 7882   3.575   4.910   0.228
 2295SOL     OW 7883   2.774   4.669   4.634
 2295SOL    HW1 7884   2.833   4.600   4.677
 2295SOL    HW2 7885   2.724   4.719   4.705
 2296SOL     OW 7886   2.889   4.626   3.779
 2296SOL    HW1 7887   2.865   4.696   3.712
 2296SOL    HW2 7888   2.989   4.623   3.790
 2297SOL     OW 7889   1.884   0.045   4.400
 2297SOL    HW1 7890   1.888   4.979   4.475
 2297SOL    HW2 7891   1.972   0.092   4.392
 2298SOL     OW 7892   3.662   3.892   4.963
 2298SOL    HW1 7893   3.741   3.837   4.934
 2298SOL    HW2 7894   3.648   3.968   4.899
 2299SOL     OW 7895   3.361   3.944   4.833
 2299SOL    HW1 7896   3.373   3.848   4.807
 2299SOL    HW2 7897   3.312   3.949   4.920
 2300SOL     OW 7898   2.858   3.872   4.673
 2300SOL    HW1 7899   2.843   3.775   4.651
 2300SOL    HW2 7900   2.878   3.881   4.770
 2301SOL     OW 7901   2.678   0.103   4.022
 2301SOL    HW1 7902   2.667   0.014   4.065
 2301SOL    HW2 7903   2.763   0.145   4.055
 2302SOL     OW 7904   3.324   3.758   3.865
 2302SOL    HW1 7905   3.396   3.693   3.891
 2302SOL    HW2 7906   3.236   3.712   3.865
 2303SOL     OW 7907   3.573   4.111   4.804
 2303SOL    HW1 7908   3.492   4.055   4.819
 2303SOL    HW2 7909   3.572   4.146   4.710
 2304SOL     OW 7910   3.997   0.326   1.041
 2304SOL    HW1 7911   4.036   0.242   1.002
 2304SOL    HW2 7912   3.917   0.304   1.095
 2305SOL     OW 7913   3.757   0.401   0.649
 2305SOL    HW1 7914   3.685   0.417   0.717
 2305SOL    HW2 7915   3.726   0.331   0.584
 2306SOL     OW 7916   4.312   1.160   1.035
 2306SOL    HW1 7917   4.227   1.139   0.987
 2306SOL    HW2 7918   4.340   1.254   1.012
 2307SOL     OW 7919   4.930   0.789   0.663
 2307SOL    HW1 7920   0.026   0.809   0.645
 2307SOL    HW2 7921   4.915   0.784   0.761
 2308SOL     OW 7922   4.556   1.051   1.101
 2308SOL    HW1 7923   4.473   1.093   1.064
 2308SOL    HW2 7924   4.635   1.110   1.082
 2309SOL     OW 7925   4.457   1.137   1.756
 2309SOL    HW1 7926   4.466   1.237   1.758
 2309SOL    HW2 7927   4.380   1.111   1.697
 2310SOL     OW 7928   4.848   1.356   1.761
 2310SOL    HW1 7929   4.938   1.330   1.796
 2310SOL    HW2 7930   4.787   1.277   1.764
 2311SOL     OW 7931   4.079   1.096   0.908
 2311SOL    HW1 7932   4.073   0.997   0.917
 2311SOL    HW2 7933   3.991   1.137   0.933
 2312SOL     OW 7934   4.313   0.958   0.268
 2312SOL    HW1 7935   4.378   1.025   0.232
 2312SOL    HW2 7936   4.364   0.879   0.303
 2313SOL     OW 7937   3.828   0.663   0.596
 2313SOL    HW1 7938   3.804   0.568   0.614
 2313SOL    HW2 7939   3.837   0.712   0.683
 2314SOL     OW 7940   3.873   0.748   1.651
 2314SOL    HW1 7941   3.952   0.790   1.606
 2314SOL    HW2 7942   3.789   0.791   1.618
 2315SOL     OW 7943   4.299   1.431   0.573
 2315SOL    HW1 7944   4.278   1.353   0.631
 2315SOL    HW2 7945   4.253   1.422   0.486
 2316SOL     OW 7946   4.447   0.723   0.337
 2316SOL    HW1 7947   4.529   0.752   0.288
 2316SOL    HW2 7948   4.472   0.681   0.423
 2317SOL     OW 7949   4.529   0.643   1.365
 2317SOL    HW1 7950   4.515   0.548   1.394
 2317SOL    HW2 7951   4.498   0.654   1.271
 2318SOL     OW 7952   4.771   1.011   1.501
 2318SOL    HW1 7953   4.789   0.917   1.472
 2318SOL    HW2 7954   4.683   1.041   1.465
 2319SOL     OW 7955   4.905   0.781   0.389
 2319SOL    HW1 7956   4.901   0.788   0.488
 2319SOL    HW2 7957   4.947   0.694   0.363
 2320SOL     OW 7958   3.859   0.810   0.823
 2320SOL    HW1 7959   3.944   0.811   0.876
 2320SOL    HW2 7960   3.790   0.864   0.871
 2321SOL     OW 7961   3.761   1.816   1.636
 2321SOL    HW1 7962   3.762   1.753   1.714
 2321SOL    HW2 7963   3.699   1.782   1.566
 2322SOL     OW 7964   4.490   0.224   0.944
 2322SOL    HW1 7965   4.421   0.161   0.979
 2322SOL    HW2 7966   4.454   0.318   0.946
 2323SOL     OW 7967   4.762   1.589   0.508
 2323SOL    HW1 7968   4.713   1.653   0.449
 2323SOL    HW2 7969   4.697   1.544   0.570
 2324SOL     OW 7970   4.822   1.528   1.539
 2324SOL    HW1 7971   4.832   1.462   1.613
 2324SOL    HW2 7972   4.827   1.480   1.451
 2325SOL     OW 7973   4.055   0.948   0.358
 2325SOL    HW1 7974   4.148   0.966   0.325
 2325SOL    HW2 7975   4.053   0.860   0.405
 2326SOL     OW 7976   4.210   1.247   1.633
 2326SOL    HW1 7977   4.165   1.265   1.545
 2326SOL    HW2 7978   4.156   1.179   1.683
 2327SOL     OW 7979   4.593   1.745   0.843
 2327SOL    HW1 7980   4.678   1.694   0.854
 2327SOL    HW2 7981   4.537   1.702   0.772
 2328SOL     OW 7982   4.072   0.701   0.484
 2328SOL    HW1 7983   4.131   0.691   0.565
 2328SOL    HW2 7984   3.977   0.685   0.509
 2329SOL     OW 7985   4.319   4.990   4.948
 2329SOL    HW1 7986   4.366   4.986   0.037
 2329SOL    HW2 7987   4.366   0.055   4.889
 2330SOL     OW 7988   4.471   0.146   1.883
 2330SOL    HW1 7989   4.556   0.146   1.831
 2330SOL    HW2 7990   4.476   0.213   1.957
 2331SOL     OW 7991   4.068   4.905   4.877
 2331SOL    HW1 7992   4.004   4.965   4.924
 2331SOL    HW2 7993   4.162   4.931   4.900
 2332SOL     OW 7994   4.777   0.769   1.376
 2332SOL    HW1 7995   4.686   0.726   1.376
 2332SOL    HW2 7996   4.847   0.698   1.373
 2333SOL     OW 7997   4.823   1.604   0.886
 2333SOL    HW1 7998   4.887   1.657   0.829
 2333SOL    HW2 7999   4.847   1.616   0.982
 2334SOL     OW 8000   4.227   1.196   0.695
 2334SOL    HW1 8001   4.173   1.167   0.774
 2334SOL    HW2 8002   4.223   1.125   0.624
 2335SOL     OW 8003   4.927   1.746   0.658
 2335SOL    HW1 8004   4.878   1.678   0.603
 2335SOL    HW2 8005   4.871   1.828   0.668
 2336SOL     OW 8006   4.308   0.052   1.059
 2336SOL    HW1 8007   4.317   4.958   1.027
 2336SOL    HW2 8008   4.260   0.053   1.147
 2337SOL     OW 8009   4.799   4.967   0.709
 2337SOL    HW1 8010   4.827   4.974   0.613
 2337SOL    HW2 8011   4.810   4.873   0.741
 2338SOL     OW 8012   4.788   1.372   1.304
 2338SOL    HW1 8013   4.702   1.357   1.353
 2338SOL    HW2 8014   4.854   1.303   1.333
 2339SOL     OW 8015   4.785   1.197   1.084
 2339SOL    HW1 8016   4.788   1.267   1.156
 2339SOL    HW2 8017   4.826   1.233   1.000
 2340SOL     OW 8018   4.728   4.919   1.415
 2340SOL    HW1 8019   4.716   4.974   1.332
 2340SOL    HW2 8020   4.794   4.964   1.475
 2341SOL     OW 8021   4.726   1.098   1.762
 2341SOL    HW1 8022   4.627   1.106   1.765
 2341SOL    HW2 8023   4.754   1.062   1.672
 2342SOL     OW 8024   4.403   0.488   0.944
 2342SOL    HW1 8025   4.454   0.520   0.864
 2342SOL    HW2 8026   4.414   0.554   1.018
 2343SOL     OW 8027   4.990   1.465   0.423
 2343SOL    HW1 8028   0.063   1.531   0.444
 2343SOL    HW2 8029   4.901   1.506   0.444
 2344SOL     OW 8030   4.143   0.812   1.579
 2344SOL    HW1 8031   4.219   0.835   1.518
 2344SOL    HW2 8032   4.157   0.721   1.617
 2345SOL     OW 8033   4.747   0.099   1.808
 2345SOL    HW1 8034   4.784   0.066   1.721
 2345SOL    HW2 8035   4.709   0.023   1.859
 2346SOL     OW 8036   4.261   0.910   1.165
 2346SOL    HW1 8037   4.285   1.002   1.135
 2346SOL    HW2 8038   4.281   0.901   1.263
 2347SOL     OW 8039   0.167   0.938   0.955
 2347SOL    HW1 8040   0.082   0.888   0.936
 2347SOL    HW2 8041   0.244   0.889   0.914
 2348SOL     OW 8042   0.025   0.542   0.313
 2348SOL    HW1 8043   0.005   0.448   0.342
 2348SOL    HW2 8044   0.036   0.545   0.214
 2349SOL     OW 8045   3.652   1.298   1.168
 2349SOL    HW1 8046   3.730   1.278   1.108
 2349SOL    HW2 8047   3.682   1.355   1.244
 2350SOL     OW 8048   4.436   0.698   1.114
 2350SOL    HW1 8049   4.509   0.737   1.058
 2350SOL    HW2 8050   4.365   0.767   1.128
 2351SOL     OW 8051   4.927   0.772   0.941
 2351SOL    HW1 8052   4.905   0.830   1.020
 2351SOL    HW2 8053   4.944   0.679   0.973
 2352SOL     OW 8054   4.720   1.748   1.663
 2352SOL    HW1 8055   4.747   1.679   1.597
 2352SOL    HW2 8056   4.773   1.736   1.747
 2353SOL     OW 8057   4.112   1.014   1.762
 2353SOL    HW1 8058   4.183   1.000   1.831
 2353SOL    HW2 8059   4.118   0.942   1.693
 2354SOL     OW 8060   4.896   1.336   0.874
 2354SOL    HW1 8061   4.922   1.303   0.783
 2354SOL    HW2 8062   4.861   1.429   0.867
 2355SOL     OW 8063   4.094   0.821   0.968
 2355SOL    HW1 8064   4.152   0.854   1.042
 2355SOL    HW2 8065   4.109   0.723   0.955
 2356SOL     OW 8066   4.134   0.552   0.968
 2356SOL    HW1 8067   4.075   0.475   0.993
 2356SOL    HW2 8068   4.227   0.520   0.954
 2357SOL     OW 8069   4.905   0.306   1.681
 2357SOL    HW1 8070   4.848   0.252   1.743
 2357SOL    HW2 8071   4.888   0.403   1.697
 2358SOL     OW 8072   4.904   0.036   1.594
 2358SOL    HW1 8073   4.922   0.134   1.602
 2358SOL    HW2 8074   4.980   4.985   1.634
 2359SOL     OW 8075   3.738   1.788   0.935
 2359SOL    HW1 8076   3.728   1.705   0.880
 2359SOL    HW2 8077   3.804   1.849   0.891
 2360SOL     OW 8078   4.853   0.924   1.146
 2360SOL    HW1 8079   4.820   0.889   1.234
 2360SOL    HW2 8080   4.836   1.022   1.140
 2361SOL     OW 8081   3.767   0.560   1.809
 2361SOL    HW1 8082   3.721   0.493   1.750
 2361SOL    HW2 8083   3.815   0.627   1.752
 2362SOL     OW 8084   4.205   0.624   0.251
 2362SOL    HW1 8085   4.299   0.650   0.275
 2362SOL    HW2 8086   4.144   0.646   0.327
 2363SOL     OW 8087   4.851   1.618   1.161
 2363SOL    HW1 8088   4.929   1.658   1.209
 2363SOL    HW2 8089   4.824   1.532   1.206
 2364SOL     OW 8090   3.822   1.196   0.961
 2364SOL    HW1 8091   3.803   1.246   0.877
 2364SOL    HW2 8092   3.773   1.109   0.961
 2365SOL     OW 8093   4.446   1.677   1.680
 2365SOL    HW1 8094   4.385   1.755   1.694
 2365SOL    HW2 8095   4.541   1.708   1.676
 2366SOL     OW 8096   4.723   0.001   0.219
 2366SOL    HW1 8097   4.766   4.992   0.129
 2366SOL    HW2 8098   4.624   0.003   0.208
 2367SOL     OW 8099   4.549   1.338   1.439
 2367SOL    HW1 8100   4.527   1.351   1.536
 2367SOL    HW2 8101   4.498   1.405   1.385
 2368SOL     OW 8102   4.536   1.073   1.376
 2368SOL    HW1 8103   4.543   1.061   1.276
 2368SOL    HW2 8104   4.530   1.170   1.398
 2369SOL     OW 8105   4.679   0.808   0.232
 2369SOL    HW1 8106   4.697   0.890   0.177
 2369SOL    HW2 8107   4.756   0.791   0.292
 2370SOL     OW 8108   4.090   1.293   1.389
 2370SOL    HW1 8109   4.096   1.372   1.330
 2370SOL    HW2 8110   4.019   1.231   1.354
 2371SOL     OW 8111   4.750   0.142   0.927
 2371SOL    HW1 8112   4.771   0.082   0.850
 2371SOL    HW2 8113   4.655   0.173   0.921
 2372SOL     OW 8114   4.365   0.863   1.422
 2372SOL    HW1 8115   4.423   0.944   1.421
 2372SOL    HW2 8116   4.423   0.781   1.416
 2373SOL     OW 8117   4.625   0.818   0.966
 2373SOL    HW1 8118   4.723   0.811   0.947
 2373SOL    HW2 8119   4.606   0.905   1.011
 2374SOL     OW 8120   4.759   1.034   0.100
 2374SOL    HW1 8121   4.765   1.099   0.024
 2374SOL    HW2 8122   4.844   1.036   0.152
 2375SOL     OW 8123   3.756   1.300   0.711
 2375SOL    HW1 8124   3.695   1.240   0.659
 2375SOL    HW2 8125   3.839   1.318   0.657
 2376SOL     OW 8126   4.436   1.402   1.683
 2376SOL    HW1 8127   4.343   1.367   1.671
 2376SOL    HW2 8128   4.434   1.501   1.689
 2377SOL     OW 8129   4.497   1.614   0.622
 2377SOL    HW1 8130   4.507   1.668   0.539
 2377SOL    HW2 8131   4.426   1.544   0.608
 2378SOL     OW 8132   4.687   0.077   1.191
 2378SOL    HW1 8133   4.594   0.112   1.196
 2378SOL    HW2 8134   4.720   0.083   1.096
 2379SOL     OW 8135   4.579   1.763   0.394
 2379SOL    HW1 8136   4.538   1.745   0.305
 2379SOL    HW2 8137   4.592   1.861   0.406
 2380SOL     OW 8138   3.977   0.692   1.975
 2380SOL    HW1 8139   3.953   0.789   1.972
 2380SOL    HW2 8140   3.907   0.638   1.928
 2381SOL     OW 8141   3.900   0.326   2.913
 2381SOL    HW1 8142   3.946   0.244   2.948
 2381SOL    HW2 8143   3.803   0.322   2.936
 2382SOL     OW 8144   4.315   1.237   2.933
 2382SOL    HW1 8145   4.265   1.300   2.992
 2382SOL    HW2 8146   4.363   1.288   2.862
 2383SOL     OW 8147   4.359   1.172   3.798
 2383SOL    HW1 8148   4.456   1.179   3.774
 2383SOL    HW2 8149   4.303   1.197   3.718
 2384SOL     OW 8150   3.970   1.498   2.977
 2384SOL    HW1 8151   3.920   1.441   2.912
 2384SOL    HW2 8152   4.028   1.562   2.927
 2385SOL     OW 8153   4.079   1.682   2.328
 2385SOL    HW1 8154   3.983   1.713   2.324
 2385SOL    HW2 8155   4.136   1.743   2.273
 2386SOL     OW 8156   4.861   1.396   3.538
 2386SOL    HW1 8157   4.860   1.395   3.638
 2386SOL    HW2 8158   4.844   1.304   3.504
 2387SOL     OW 8159   3.967   1.449   2.227
 2387SOL    HW1 8160   4.024   1.520   2.267
 2387SOL    HW2 8161   3.873   1.459   2.261
 2388SOL     OW 8162   4.329   1.799   3.347
 2388SOL    HW1 8163   4.231   1.818   3.357
 2388SOL    HW2 8164   4.377   1.885   3.331
 2389SOL     OW 8165   4.317   0.972   1.938
 2389SOL    HW1 8166   4.385   1.030   1.894
 2389SOL    HW2 8167   4.329   0.976   2.037
 2390SOL     OW 8168   4.174   1.589   2.567
 2390SOL    HW1 8169   4.139   1.495   2.573
 2390SOL    HW2 8170   4.141   1.631   2.482
 2391SOL     OW 8171   3.869   1.050   3.101
 2391SOL    HW1 8172   3.969   1.047   3.089
 2391SOL    HW2 8173   3.826   1.066   3.012
 2392SOL     OW 8174   4.252   0.702   1.961
 2392SOL    HW1 8175   4.278   0.798   1.951
 2392SOL    HW2 8176   4.153   0.694   1.963
 2393SOL     OW 8177   4.575   0.372   3.221
 2393SOL    HW1 8178   4.552   0.405   3.312
 2393SOL    HW2 8179   4.506   0.404   3.156
 2394SOL     OW 8180   4.647   1.001   3.288
 2394SOL    HW1 8181   4.687   0.926   3.237
 2394SOL    HW2 8182   4.575   1.044   3.233
 2395SOL     OW 8183   4.811   0.327   3.065
 2395SOL    HW1 8184   4.732   0.358   3.117
 2395SOL    HW2 8185   4.881   0.399   3.064
 2396SOL     OW 8186   4.542   0.307   2.094
 2396SOL    HW1 8187   4.628   0.358   2.101
 2396SOL    HW2 8188   4.540   0.236   2.163
 2397SOL     OW 8189   4.480   0.203   2.808
 2397SOL    HW1 8190   4.413   0.177   2.878
 2397SOL    HW2 8191   4.463   0.298   2.780
 2398SOL     OW 8192   4.958   1.572   3.351
 2398SOL    HW1 8193   4.942   1.504   3.423
 2398SOL    HW2 8194   4.871   1.608   3.319
 2399SOL     OW 8195   3.931   0.969   1.968
 2399SOL    HW1 8196   3.930   1.056   2.018
 2399SOL    HW2 8197   3.987   0.980   1.885
 2400SOL     OW 8198   4.207   1.277   3.590
 2400SOL    HW1 8199   4.173   1.270   3.496
 2400SOL    HW2 8200   4.130   1.288   3.653
 2401SOL     OW 8201   4.206   1.874   2.183
 2401SOL    HW1 8202   4.233   1.931   2.260
 2401SOL    HW2 8203   4.233   1.918   2.098
 2402SOL     OW 8204   4.592   1.726   2.816
 2402SOL    HW1 8205   4.597   1.648   2.879
 2402SOL    HW2 8206   4.548   1.698   2.731
 2403SOL     OW 8207   4.439   0.134   3.547
 2403SOL    HW1 8208   4.517   0.124   3.609
 2403SOL    HW2 8209   4.358   0.091   3.587
 2404SOL     OW 8210   4.577   1.517   2.990
 2404SOL    HW1 8211   4.531   1.471   2.914
 2404SOL    HW2 8212   4.640   1.453   3.034
 2405SOL     OW 8213   4.483   1.404   2.760
 2405SOL    HW1 8214   4.568   1.368   2.722
 2405SOL    HW2 8215   4.451   1.480   2.703
 2406SOL     OW 8216   4.703   0.157   2.519
 2406SOL    HW1 8217   4.655   0.211   2.588
 2406SOL    HW2 8218   4.784   0.208   2.488
 2407SOL     OW 8219   4.979   1.505   2.642
 2407SOL    HW1 8220   0.019   1.546   2.560
 2407SOL    HW2 8221   0.047   1.445   2.685
 2408SOL     OW 8222   4.317   0.137   3.017
 2408SOL    HW1 8223   4.351   0.115   3.109
 2408SOL    HW2 8224   4.220   0.115   3.011
 2409SOL     OW 8225   4.739   4.953   2.707
 2409SOL    HW1 8226   4.726   0.013   2.628
 2409SOL    HW2 8227   4.758   4.861   2.675
 2410SOL     OW 8228   4.729   1.319   3.102
 2410SOL    HW1 8229   4.667   1.313   3.181
 2410SOL    HW2 8230   4.821   1.294   3.130
 2411SOL     OW 8231   4.777   1.190   2.856
 2411SOL    HW1 8232   4.749   1.232   2.943
 2411SOL    HW2 8233   4.758   1.253   2.781
 2412SOL     OW 8234   4.770   1.135   3.495
 2412SOL    HW1 8235   4.696   1.160   3.559
 2412SOL    HW2 8236   4.731   1.087   3.417
 2413SOL     OW 8237   4.365   0.954   2.205
 2413SOL    HW1 8238   4.312   0.926   2.285
 2413SOL    HW2 8239   4.451   0.903   2.203
 2414SOL     OW 8240   3.750   1.552   3.140
 2414SOL    HW1 8241   3.688   1.490   3.092
 2414SOL    HW2 8242   3.841   1.547   3.097
 2415SOL     OW 8243   3.887   1.115   2.341
 2415SOL    HW1 8244   3.925   1.163   2.262
 2415SOL    HW2 8245   3.850   1.027   2.312
 2416SOL     OW 8246   4.403   0.469   2.761
 2416SOL    HW1 8247   4.322   0.455   2.703
 2416SOL    HW2 8248   4.453   0.549   2.729
 2417SOL     OW 8249   4.181   1.391   3.120
 2417SOL    HW1 8250   4.101   1.432   3.075
 2417SOL    HW2 8251   4.244   1.464   3.148
 2418SOL     OW 8252   4.657   0.142   3.718
 2418SOL    HW1 8253   4.710   0.195   3.652
 2418SOL    HW2 8254   4.718   0.085   3.772
 2419SOL     OW 8255   4.139   1.040   3.043
 2419SOL    HW1 8256   4.185   1.100   2.978
 2419SOL    HW2 8257   4.202   1.017   3.118
 2420SOL     OW 8258   0.082   0.782   2.982
 2420SOL    HW1 8259   0.049   0.797   2.889
 2420SOL    HW2 8260   0.042   0.698   3.018
 2421SOL     OW 8261   4.040   0.112   3.028
 2421SOL    HW1 8262   4.054   0.186   3.094
 2421SOL    HW2 8263   3.987   0.039   3.071
 2422SOL     OW 8264   4.699   1.625   3.539
 2422SOL    HW1 8265   4.702   1.656   3.444
 2422SOL    HW2 8266   4.751   1.540   3.549
 2423SOL     OW 8267   3.994   1.064   3.560
 2423SOL    HW1 8268   3.995   1.140   3.625
 2423SOL    HW2 8269   4.041   1.091   3.476
 2424SOL     OW 8270   4.738   1.358   2.643
 2424SOL    HW1 8271   4.735   1.313   2.554
 2424SOL    HW2 8272   4.816   1.420   2.647
 2425SOL     OW 8273   4.762   0.299   3.519
 2425SOL    HW1 8274   4.677   0.350   3.511
 2425SOL    HW2 8275   4.800   0.282   3.428
 2426SOL     OW 8276   3.693   1.215   1.921
 2426SOL    HW1 8277   3.621   1.277   1.888
 2426SOL    HW2 8278   3.665   1.121   1.905
 2427SOL     OW 8279   4.137   1.652   2.834
 2427SOL    HW1 8280   4.211   1.709   2.870
 2427SOL    HW2 8281   4.149   1.640   2.735
 2428SOL     OW 8282   4.488   0.585   2.039
 2428SOL    HW1 8283   4.479   0.486   2.052
 2428SOL    HW2 8284   4.401   0.622   2.007
 2429SOL     OW 8285   4.372   0.408   3.035
 2429SOL    HW1 8286   4.353   0.310   3.025
 2429SOL    HW2 8287   4.381   0.449   2.944
 2430SOL     OW 8288   4.719   1.692   3.276
 2430SOL    HW1 8289   4.688   1.657   3.188
 2430SOL    HW2 8290   4.715   1.792   3.276
 2431SOL     OW 8291   3.821   1.224   3.314
 2431SOL    HW1 8292   3.771   1.173   3.383
 2431SOL    HW2 8293   3.828   1.169   3.231
 2432SOL     OW 8294   4.996   1.726   3.017
 2432SOL    HW1 8295   0.017   1.743   2.921
 2432SOL    HW2 8296   0.038   1.639   3.045
 2433SOL     OW 8297   4.430   1.670   3.572
 2433SOL    HW1 8298   4.392   1.718   3.493
 2433SOL    HW2 8299   4.529   1.666   3.564
 2434SOL     OW 8300   3.968   1.873   3.629
 2434SOL    HW1 8301   3.942   1.779   3.604
 2434SOL    HW2 8302   3.948   1.888   3.726
 2435SOL     OW 8303   4.514   1.357   3.285
 2435SOL    HW1 8304   4.503   1.359   3.384
 2435SOL    HW2 8305   4.464   1.433   3.244
 2436SOL     OW 8306   3.934   0.414   2.661
 2436SOL    HW1 8307   3.847   0.402   2.614
 2436SOL    HW2 8308   3.927   0.383   2.755
 2437SOL     OW 8309   4.449   1.127   3.150
 2437SOL    HW1 8310   4.409   1.152   3.061
 2437SOL    HW2 8311   4.465   1.211   3.203
 2438SOL     OW 8312   4.593   0.802   2.168
 2438SOL    HW1 8313   4.651   0.851   2.103
 2438SOL    HW2 8314   4.556   0.719   2.125
 2439SOL     OW 8315   4.089   1.253   3.346
 2439SOL    HW1 8316   4.131   1.293   3.265
 2439SOL    HW2 8317   3.990   1.251   3.335
 2440SOL     OW 8318   4.880   0.143   2.857
 2440SOL    HW1 8319   4.813   0.083   2.813
 2440SOL    HW2 8320   4.833   0.200   2.925
 2441SOL     OW 8321   3.914   1.222   2.082
 2441SOL    HW1 8322   3.834   1.231   2.024
 2441SOL    HW2 8323   3.937   1.311   2.122
 2442SOL     OW 8324   3.725   1.036   3.499
 2442SOL    HW1 8325   3.665   1.011   3.575
 2442SOL    HW2 8326   3.820   1.034   3.529
 2443SOL     OW 8327   4.442   0.131   3.269
 2443SOL    HW1 8328   4.497   0.212   3.246
 2443SOL    HW2 8329   4.436   0.121   3.368
 2444SOL     OW 8330   4.504   0.398   3.492
 2444SOL    HW1 8331   4.454   0.464   3.548
 2444SOL    HW2 8332   4.471   0.306   3.513
 2445SOL     OW 8333   4.347   1.800   2.925
 2445SOL    HW1 8334   4.347   1.891   2.967
 2445SOL    HW2 8335   4.435   1.783   2.882
 2446SOL     OW 8336   4.758   0.936   1.989
 2446SOL    HW1 8337   4.745   0.991   1.906
 2446SOL    HW2 8338   4.821   0.983   2.050
 2447SOL     OW 8339   3.991   1.268   3.755
 2447SOL    HW1 8340   3.905   1.220   3.773
 2447SOL    HW2 8341   4.008   1.334   3.828
 2448SOL     OW 8342   3.664   1.250   2.413
 2448SOL    HW1 8343   3.631   1.214   2.500
 2448SOL    HW2 8344   3.750   1.205   2.388
 2449SOL     OW 8345   4.443   1.397   3.548
 2449SOL    HW1 8346   4.354   1.355   3.562
 2449SOL    HW2 8347   4.434   1.497   3.559
 2450SOL     OW 8348   4.194   0.441   2.587
 2450SOL    HW1 8349   4.203   0.408   2.493
 2450SOL    HW2 8350   4.099   0.432   2.617
 2451SOL     OW 8351   4.113   0.360   3.135
 2451SOL    HW1 8352   4.202   0.399   3.112
 2451SOL    HW2 8353   4.041   0.416   3.094
 2452SOL     OW 8354   4.444   1.630   2.601
 2452SOL    HW1 8355   4.483   1.648   2.511
 2452SOL    HW2 8356   4.344   1.624   2.594
 2453SOL     OW 8357   4.374   1.574   3.187
 2453SOL    HW1 8358   4.363   1.658   3.240
 2453SOL    HW2 8359   4.432   1.593   3.107
 2454SOL     OW 8360   3.764   0.920   2.189
 2454SOL    HW1 8361   3.820   0.917   2.106
 2454SOL    HW2 8362   3.752   0.827   2.224
 2455SOL     OW 8363   4.515   1.679   2.339
 2455SOL    HW1 8364   4.449   1.638   2.276
 2455SOL    HW2 8365   4.529   1.775   2.314
 2456SOL     OW 8366   4.091   0.363   4.666
 2456SOL    HW1 8367   4.165   0.296   4.654
 2456SOL    HW2 8368   4.003   0.316   4.657
 2457SOL     OW 8369   3.846   0.322   4.268
 2457SOL    HW1 8370   3.752   0.350   4.283
 2457SOL    HW2 8371   3.853   0.276   4.179
 2458SOL     OW 8372   4.332   1.388   4.899
 2458SOL    HW1 8373   4.237   1.377   4.868
 2458SOL    HW2 8374   4.356   1.485   4.901
 2459SOL     OW 8375   4.480   1.162   4.873
 2459SOL    HW1 8376   4.425   1.245   4.875
 2459SOL    HW2 8377   4.577   1.186   4.871
 2460SOL     OW 8378   4.073   1.379   4.811
 2460SOL    HW1 8379   4.048   1.302   4.753
 2460SOL    HW2 8380   4.004   1.392   4.882
 2461SOL     OW 8381   4.079   1.639   4.160
 2461SOL    HW1 8382   4.068   1.691   4.244
 2461SOL    HW2 8383   4.100   1.701   4.084
 2462SOL     OW 8384   3.971   1.156   4.684
 2462SOL    HW1 8385   3.976   1.056   4.688
 2462SOL    HW2 8386   3.876   1.185   4.697
 2463SOL     OW 8387   4.260   0.957   3.936
 2463SOL    HW1 8388   4.301   1.032   3.885
 2463SOL    HW2 8389   4.258   0.980   4.033
 2464SOL     OW 8390   3.950   0.880   4.982
 2464SOL    HW1 8391   4.040   0.857   0.018
 2464SOL    HW2 8392   3.958   0.898   4.884
 2465SOL     OW 8393   4.289   0.685   3.892
 2465SOL    HW1 8394   4.289   0.784   3.902
 2465SOL    HW2 8395   4.205   0.647   3.929
 2466SOL     OW 8396   4.728   0.538   4.129
 2466SOL    HW1 8397   4.658   0.539   4.201
 2466SOL    HW2 8398   4.683   0.532   4.040
 2467SOL     OW 8399   4.467   0.251   3.896
 2467SOL    HW1 8400   4.483   0.347   3.915
 2467SOL    HW2 8401   4.535   0.217   3.831
 2468SOL     OW 8402   4.301   0.204   4.598
 2468SOL    HW1 8403   4.369   0.189   4.670
 2468SOL    HW2 8404   4.347   0.215   4.510
 2469SOL     OW 8405   4.719   1.563   4.105
 2469SOL    HW1 8406   4.687   1.632   4.040
 2469SOL    HW2 8407   4.670   1.572   4.191
 2470SOL     OW 8408   4.063   1.879   4.618
 2470SOL    HW1 8409   4.088   1.789   4.654
 2470SOL    HW2 8410   4.137   1.943   4.635
 2471SOL     OW 8411   4.007   0.952   3.819
 2471SOL    HW1 8412   4.097   0.951   3.863
 2471SOL    HW2 8413   4.018   0.964   3.720
 2472SOL     OW 8414   4.697   1.843   3.712
 2472SOL    HW1 8415   4.670   1.814   3.804
 2472SOL    HW2 8416   4.709   1.762   3.654
 2473SOL     OW 8417   4.185   1.821   3.980
 2473SOL    HW1 8418   4.238   1.861   4.054
 2473SOL    HW2 8419   4.244   1.765   3.922
 2474SOL     OW 8420   4.656   1.734   4.542
 2474SOL    HW1 8421   4.735   1.675   4.559
 2474SOL    HW2 8422   4.605   1.701   4.463
 2475SOL     OW 8423   4.140   4.956   4.155
 2475SOL    HW1 8424   4.104   4.972   4.247
 2475SOL    HW2 8425   4.195   0.034   4.126
 2476SOL     OW 8426   3.980   4.926   3.930
 2476SOL    HW1 8427   4.019   4.863   3.863
 2476SOL    HW2 8428   4.036   4.924   4.013
 2477SOL     OW 8429   4.886   1.587   4.562
 2477SOL    HW1 8430   4.922   1.559   4.473
 2477SOL    HW2 8431   4.961   1.624   4.618
 2478SOL     OW 8432   4.235   1.113   4.595
 2478SOL    HW1 8433   4.140   1.140   4.607
 2478SOL    HW2 8434   4.262   1.051   4.670
 2479SOL     OW 8435   0.049   1.809   4.410
 2479SOL    HW1 8436   0.033   1.728   4.354
 2479SOL    HW2 8437   0.079   1.782   4.502
 2480SOL     OW 8438   4.491   0.502   4.273
 2480SOL    HW1 8439   4.474   0.567   4.347
 2480SOL    HW2 8440   4.444   0.416   4.292
 2481SOL     OW 8441   4.895   4.976   4.705
 2481SOL    HW1 8442   4.843   0.055   4.673
 2481SOL    HW2 8443   4.869   4.896   4.651
 2482SOL     OW 8444   4.286   1.415   3.922
 2482SOL    HW1 8445   4.188   1.412   3.944
 2482SOL    HW2 8446   4.315   1.325   3.889
 2483SOL     OW 8447   4.270   0.182   4.069
 2483SOL    HW1 8448   4.345   0.194   4.004
 2483SOL    HW2 8449   4.191   0.236   4.040
 2484SOL     OW 8450   4.755   1.242   4.916
 2484SOL    HW1 8451   4.787   1.303   4.988
 2484SOL    HW2 8452   4.793   1.271   4.828
 2485SOL     OW 8453   4.209   0.818   0.055
 2485SOL    HW1 8454   4.243   0.887   0.119
 2485SOL    HW2 8455   4.200   0.730   0.102
 2486SOL     OW 8456   4.873   1.346   4.052
 2486SOL    HW1 8457   4.920   1.312   4.134
 2486SOL    HW2 8458   4.817   1.425   4.076
 2487SOL     OW 8459   4.291   0.956   4.820
 2487SOL    HW1 8460   4.365   1.020   4.840
 2487SOL    HW2 8461   4.272   0.901   4.901
 2488SOL     OW 8462   3.835   1.253   0.050
 2488SOL    HW1 8463   3.842   1.165   0.097
 2488SOL    HW2 8464   3.768   1.311   0.098
 2489SOL     OW 8465   4.049   0.023   4.407
 2489SOL    HW1 8466   4.062   0.121   4.421
 2489SOL    HW2 8467   4.006   4.983   4.488
 2490SOL     OW 8468   4.864   1.334   4.679
 2490SOL    HW1 8469   4.865   1.262   4.610
 2490SOL    HW2 8470   4.848   1.422   4.635
 2491SOL     OW 8471   4.037   0.886   4.721
 2491SOL    HW1 8472   4.133   0.907   4.742
 2491SOL    HW2 8473   4.026   0.788   4.710
 2492SOL     OW 8474   4.052   0.607   4.787
 2492SOL    HW1 8475   4.061   0.521   4.737
 2492SOL    HW2 8476   4.116   0.609   4.863
 2493SOL     OW 8477   3.763   1.330   3.959
 2493SOL    HW1 8478   3.672   1.372   3.954
 2493SOL    HW2 8479   3.760   1.240   3.917
 2494SOL     OW 8480   3.807   1.856   4.730
 2494SOL    HW1 8481   3.745   1.822   4.660
 2494SOL    HW2 8482   3.897   1.875   4.689
 2495SOL     OW 8483   4.144   1.643   4.720
 2495SOL    HW1 8484   4.240   1.659   4.695
 2495SOL    HW2 8485   4.130   1.545   4.733
 2496SOL     OW 8486   3.798   0.658   4.911
 2496SOL    HW1 8487   3.866   0.617   4.850
 2496SOL    HW2 8488   3.837   0.739   4.955
 2497SOL     OW 8489   4.483   0.512   3.987
 2497SOL    HW1 8490   4.477   0.509   4.087
 2497SOL    HW2 8491   4.417   0.579   3.952
 2498SOL     OW 8492   4.462   0.192   4.819
 2498SOL    HW1 8493   4.430   0.273   4.867
 2498SOL    HW2 8494   4.561   0.184   4.829
 2499SOL     OW 8495   4.335   0.549   3.653
 2499SOL    HW1 8496   4.324   0.595   3.742
 2499SOL    HW2 8497   4.246   0.544   3.607
 2500SOL     OW 8498   3.848   1.015   0.192
 2500SOL    HW1 8499   3.916   1.001   0.264
 2500SOL    HW2 8500   3.876   0.964   0.110
 2501SOL     OW 8501   3.725   1.255   4.798
 2501SOL    HW1 8502   3.773   1.252   4.885
 2501SOL    HW2 8503   3.637   1.207   4.806
 2502SOL     OW 8504   4.361   1.667   3.838
 2502SOL    HW1 8505   4.379   1.668   3.740
 2502SOL    HW2 8506   4.336   1.574   3.866
 2503SOL     OW 8507   4.084   0.307   4.392
 2503SOL    HW1 8508   3.997   0.314   4.344
 2503SOL    HW2 8509   4.076   0.347   4.483
 2504SOL     OW 8510   4.495   1.113   0.142
 2504SOL    HW1 8511   4.475   1.127   0.045
 2504SOL    HW2 8512   4.591   1.088   0.153
 2505SOL     OW 8513   4.861   1.136   4.488
 2505SOL    HW1 8514   4.918   1.058   4.514
 2505SOL    HW2 8515   4.770   1.104   4.462
 2506SOL     OW 8516   4.728   0.188   4.869
 2506SOL    HW1 8517   4.787   0.265   4.890
 2506SOL    HW2 8518   4.762   0.105   4.915
 2507SOL     OW 8519   4.343   1.545   4.163
 2507SOL    HW1 8520   4.346   1.486   4.083
 2507SOL    HW2 8521   4.248   1.569   4.183
 2508SOL     OW 8522   4.017   1.427   3.986
 2508SOL    HW1 8523   3.922   1.398   3.985
 2508SOL    HW2 8524   4.030   1.497   4.056
 2509SOL     OW 8525   3.688   0.249   3.870
 2509SOL    HW1 8526   3.694   0.150   3.855
 2509SOL    HW2 8527   3.602   0.282   3.831
 2510SOL     OW 8528   3.901   0.192   4.032
 2510SOL    HW1 8529   3.826   0.218   3.971
 2510SOL    HW2 8530   3.937   0.103   4.003
 2511SOL     OW 8531   4.608   1.240   3.692
 2511SOL    HW1 8532   4.674   1.294   3.743
 2511SOL    HW2 8533   4.550   1.301   3.637
 2512SOL     OW 8534   4.385   1.768   4.651
 2512SOL    HW1 8535   4.360   1.864   4.643
 2512SOL    HW2 8536   4.476   1.754   4.612
 2513SOL     OW 8537   4.935   1.044   3.692
 2513SOL    HW1 8538   4.882   1.075   3.613
 2513SOL    HW2 8539   4.879   1.050   3.775
 2514SOL     OW 8540   4.344   0.276   4.322
 2514SOL    HW1 8541   4.343   0.228   4.234
 2514SOL    HW2 8542   4.249   0.292   4.351
 2515SOL     OW 8543   4.546   1.659   4.305
 2515SOL    HW1 8544   4.546   1.748   4.260
 2515SOL    HW2 8545   4.470   1.604   4.271
 2516SOL     OW 8546   4.834   4.947   4.968
 2516SOL    HW1 8547   4.869   4.955   4.875
 2516SOL    HW2 8548   4.821   4.850   4.990
 2517SOL     OW 8549   3.777   1.096   3.819
 2517SOL    HW1 8550   3.855   1.035   3.834
 2517SOL    HW2 8551   3.699   1.042   3.786
 2518SOL     OW 8552   4.593   1.761   3.955
 2518SOL    HW1 8553   4.506   1.725   3.922
 2518SOL    HW2 8554   4.577   1.817   4.037
 2519SOL     OW 8555   3.864   2.193   1.074
 2519SOL    HW1 8556   3.924   2.159   1.147
 2519SOL    HW2 8557   3.860   2.125   1.001
 2520SOL     OW 8558   3.727   2.185   0.701
 2520SOL    HW1 8559   3.637   2.223   0.722
 2520SOL    HW2 8560   3.725   2.140   0.612
 2521SOL     OW 8561   4.888   2.549   0.748
 2521SOL    HW1 8562   4.944   2.630   0.730
 2521SOL    HW2 8563   4.808   2.575   0.802
 2522SOL     OW 8564   4.015   3.307   1.018
 2522SOL    HW1 8565   3.934   3.251   1.003
 2522SOL    HW2 8566   4.080   3.292   0.944
 2523SOL     OW 8567   4.078   2.221   1.517
 2523SOL    HW1 8568   4.170   2.183   1.519
 2523SOL    HW2 8569   4.017   2.164   1.572
 2524SOL     OW 8570   4.008   3.492   0.464
 2524SOL    HW1 8571   3.979   3.579   0.504
 2524SOL    HW2 8572   4.080   3.509   0.396
 2525SOL     OW 8573   3.917   3.260   0.574
 2525SOL    HW1 8574   3.956   3.343   0.533
 2525SOL    HW2 8575   3.852   3.285   0.645
 2526SOL     OW 8576   4.340   3.707   1.488
 2526SOL    HW1 8577   4.256   3.661   1.517
 2526SOL    HW2 8578   4.320   3.802   1.466
 2527SOL     OW 8579   4.283   2.908   0.138
 2527SOL    HW1 8580   4.243   2.906   0.046
 2527SOL    HW2 8581   4.382   2.894   0.132
 2528SOL     OW 8582   3.804   2.455   0.714
 2528SOL    HW1 8583   3.793   2.359   0.688
 2528SOL    HW2 8584   3.782   2.467   0.811
 2529SOL     OW 8585   3.903   3.542   0.076
 2529SOL    HW1 8586   3.880   3.466   0.138
 2529SOL    HW2 8587   3.960   3.608   0.124
 2530SOL     OW 8588   3.857   2.900   1.370
 2530SOL    HW1 8589   3.924   2.826   1.363
 2530SOL    HW2 8590   3.775   2.866   1.417
 2531SOL     OW 8591   4.199   2.636   0.343
 2531SOL    HW1 8592   4.285   2.668   0.301
 2531SOL    HW2 8593   4.133   2.711   0.344
 2532SOL     OW 8594   4.491   2.498   1.409
 2532SOL    HW1 8595   4.526   2.450   1.489
 2532SOL    HW2 8596   4.442   2.432   1.351
 2533SOL     OW 8597   4.485   2.120   0.203
 2533SOL    HW1 8598   4.469   2.208   0.159
 2533SOL    HW2 8599   4.537   2.061   0.141
 2534SOL     OW 8600   4.134   2.139   0.916
 2534SOL    HW1 8601   4.186   2.114   0.998
 2534SOL    HW2 8602   4.187   2.204   0.862
 2535SOL     OW 8603   4.071   2.885   0.312
 2535SOL    HW1 8604   4.152   2.904   0.255
 2535SOL    HW2 8605   3.989   2.888   0.255
 2536SOL     OW 8606   3.919   2.043   1.655
 2536SOL    HW1 8607   3.877   2.104   1.722
 2536SOL    HW2 8608   3.863   1.961   1.645
 2537SOL     OW 8609   4.224   3.504   0.252
 2537SOL    HW1 8610   4.293   3.460   0.307
 2537SOL    HW2 8611   4.246   3.493   0.155
 2538SOL     OW 8612   3.881   3.629   1.111
 2538SOL    HW1 8613   3.957   3.577   1.151
 2538SOL    HW2 8614   3.875   3.609   1.013
 2539SOL     OW 8615   4.478   2.145   1.745
 2539SOL    HW1 8616   4.542   2.082   1.699
 2539SOL    HW2 8617   4.443   2.102   1.828
 2540SOL     OW 8618   4.561   3.409   1.154
 2540SOL    HW1 8619   4.583   3.449   1.065
 2540SOL    HW2 8620   4.618   3.328   1.168
 2541SOL     OW 8621   4.621   2.039   0.430
 2541SOL    HW1 8622   4.559   2.069   0.357
 2541SOL    HW2 8623   4.709   2.086   0.420
 2542SOL     OW 8624   4.953   3.836   0.564
 2542SOL    HW1 8625   4.993   3.790   0.485
 2542SOL    HW2 8626   4.872   3.785   0.594
 2543SOL     OW 8627   4.260   2.092   1.166
 2543SOL    HW1 8628   4.327   2.034   1.213
 2543SOL    HW2 8629   4.170   2.080   1.208
 2544SOL     OW 8630   4.717   1.927   0.672
 2544SOL    HW1 8631   4.673   1.970   0.593
 2544SOL    HW2 8632   4.649   1.875   0.724
 2545SOL     OW 8633   4.243   3.199   4.980
 2545SOL    HW1 8634   4.157   3.177   0.026
 2545SOL    HW2 8635   4.234   3.184   4.882
 2546SOL     OW 8636   4.194   2.120   0.242
 2546SOL    HW1 8637   4.288   2.087   0.236
 2546SOL    HW2 8638   4.194   2.220   0.245
 2547SOL     OW 8639   4.726   3.180   1.204
 2547SOL    HW1 8640   4.663   3.141   1.270
 2547SOL    HW2 8641   4.811   3.206   1.250
 2548SOL     OW 8642   4.860   2.995   1.038
 2548SOL    HW1 8643   4.797   3.056   1.086
 2548SOL    HW2 8644   4.814   2.957   0.958
 2549SOL     OW 8645   4.497   1.982   1.336
 2549SOL    HW1 8646   4.546   1.943   1.258
 2549SOL    HW2 8647   4.558   1.987   1.415
 2550SOL     OW 8648   4.055   2.700   1.364
 2550SOL    HW1 8649   4.137   2.693   1.421
 2550SOL    HW2 8650   4.017   2.609   1.348
 2551SOL     OW 8651   3.830   3.388   1.363
 2551SOL    HW1 8652   3.762   3.451   1.326
 2551SOL    HW2 8653   3.920   3.412   1.328
 2552SOL     OW 8654   3.985   2.994   0.557
 2552SOL    HW1 8655   3.976   3.094   0.555
 2552SOL    HW2 8656   4.020   2.961   0.470
 2553SOL     OW 8657   4.220   2.458   0.851
 2553SOL    HW1 8658   4.227   2.513   0.769
 2553SOL    HW2 8659   4.292   2.484   0.915
 2554SOL     OW 8660   0.024   3.054   0.392
 2554SOL    HW1 8661   0.010   2.968   0.342
 2554SOL    HW2 8662   4.944   3.112   0.379
 2555SOL     OW 8663   4.066   3.456   1.239
 2555SOL    HW1 8664   4.055   3.395   1.161
 2555SOL    HW2 8665   4.163   3.472   1.256
 2556SOL     OW 8666   4.094   2.486   1.619
 2556SOL    HW1 8667   4.171   2.536   1.580
 2556SOL    HW2 8668   4.088   2.395   1.577
 2557SOL     OW 8669   4.643   1.997   1.578
 2557SOL    HW1 8670   4.713   2.066   1.592
 2557SOL    HW2 8671   4.678   1.907   1.605
 2558SOL     OW 8672   4.265   1.891   1.712
 2558SOL    HW1 8673   4.172   1.855   1.710
 2558SOL    HW2 8674   4.275   1.961   1.641
 2559SOL     OW 8675   4.201   2.711   1.132
 2559SOL    HW1 8676   4.148   2.747   1.056
 2559SOL    HW2 8677   4.144   2.708   1.214
 2560SOL     OW 8678   0.083   2.831   1.044
 2560SOL    HW1 8679   4.995   2.878   1.052
 2560SOL    HW2 8680   0.067   2.733   1.032
 2561SOL     OW 8681   4.008   2.097   1.284
 2561SOL    HW1 8682   4.030   2.142   1.371
 2561SOL    HW2 8683   3.931   2.034   1.297
 2562SOL     OW 8684   3.775   3.135   1.258
 2562SOL    HW1 8685   3.813   3.052   1.298
 2562SOL    HW2 8686   3.811   3.215   1.306
 2563SOL     OW 8687   4.401   2.551   1.047
 2563SOL    HW1 8688   4.486   2.575   1.095
 2563SOL    HW2 8689   4.327   2.611   1.077
 2564SOL     OW 8690   4.028   2.756   1.702
 2564SOL    HW1 8691   4.091   2.763   1.779
 2564SOL    HW2 8692   4.040   2.668   1.657
 2565SOL     OW 8693   3.755   2.517   0.976
 2565SOL    HW1 8694   3.748   2.617   0.978
 2565SOL    HW2 8695   3.847   2.490   1.003
 2566SOL     OW 8696   4.008   2.424   1.029
 2566SOL    HW1 8697   3.971   2.331   1.025
 2566SOL    HW2 8698   4.082   2.434   0.962
 2567SOL     OW 8699   4.794   2.220   1.644
 2567SOL    HW1 8700   4.722   2.290   1.635
 2567SOL    HW2 8701   4.865   2.254   1.706
 2568SOL     OW 8702   3.835   3.579   0.833
 2568SOL    HW1 8703   3.798   3.487   0.819
 2568SOL    HW2 8704   3.885   3.608   0.751
 2569SOL     OW 8705   4.630   2.619   1.201
 2569SOL    HW1 8706   4.673   2.703   1.233
 2569SOL    HW2 8707   4.588   2.571   1.278
 2570SOL     OW 8708   3.622   2.320   1.121
 2570SOL    HW1 8709   3.697   2.255   1.110
 2570SOL    HW2 8710   3.643   2.404   1.071
 2571SOL     OW 8711   3.885   2.475   1.794
 2571SOL    HW1 8712   3.965   2.474   1.734
 2571SOL    HW2 8713   3.819   2.543   1.761
 2572SOL     OW 8714   3.956   3.443   1.768
 2572SOL    HW1 8715   3.916   3.483   1.850
 2572SOL    HW2 8716   4.031   3.382   1.793
 2573SOL     OW 8717   4.359   2.342   1.231
 2573SOL    HW1 8718   4.325   2.253   1.202
 2573SOL    HW2 8719   4.365   2.403   1.152
 2574SOL     OW 8720   4.194   2.402   0.185
 2574SOL    HW1 8721   4.192   2.476   0.253
 2574SOL    HW2 8722   4.101   2.384   0.153
 2575SOL     OW 8723   3.785   3.151   0.983
 2575SOL    HW1 8724   3.780   3.147   1.083
 2575SOL    HW2 8725   3.757   3.062   0.945
 2576SOL     OW 8726   4.462   3.718   1.746
 2576SOL    HW1 8727   4.373   3.693   1.785
 2576SOL    HW2 8728   4.460   3.704   1.647
 2577SOL     OW 8729   4.659   1.987   0.041
 2577SOL    HW1 8730   4.674   1.942   4.953
 2577SOL    HW2 8731   4.745   2.029   0.071
 2578SOL     OW 8732   4.344   3.456   5.000
 2578SOL    HW1 8733   4.398   3.473   4.917
 2578SOL    HW2 8734   4.304   3.364   4.995
 2579SOL     OW 8735   3.885   2.017   0.860
 2579SOL    HW1 8736   3.835   2.075   0.795
 2579SOL    HW2 8737   3.981   2.046   0.862
 2580SOL     OW 8738   4.748   2.869   0.825
 2580SOL    HW1 8739   4.717   2.779   0.857
 2580SOL    HW2 8740   4.699   2.894   0.742
 2581SOL     OW 8741   4.851   1.956   0.915
 2581SOL    HW1 8742   4.801   1.969   0.829
 2581SOL    HW2 8743   4.788   1.927   0.987
 2582SOL     OW 8744   4.445   3.364   0.350
 2582SOL    HW1 8745   4.462   3.305   0.272
 2582SOL    HW2 8746   4.446   3.310   0.434
 2583SOL     OW 8747   3.802   2.913   1.751
 2583SOL    HW1 8748   3.760   2.865   1.829
 2583SOL    HW2 8749   3.886   2.866   1.725
 2584SOL     OW 8750   4.320   2.096   1.525
 2584SOL    HW1 8751   4.376   2.067   1.448
 2584SOL    HW2 8752   4.379   2.132   1.598
 2585SOL     OW 8753   3.929   2.037   0.284
 2585SOL    HW1 8754   3.896   1.990   0.202
 2585SOL    HW2 8755   4.026   2.060   0.273
 2586SOL     OW 8756   4.286   2.655   1.510
 2586SOL    HW1 8757   4.323   2.735   1.557
 2586SOL    HW2 8758   4.361   2.605   1.466
 2587SOL     OW 8759   4.566   2.386   1.656
 2587SOL    HW1 8760   4.549   2.462   1.720
 2587SOL    HW2 8761   4.526   2.302   1.692
 2588SOL     OW 8762   4.130   3.539   1.572
 2588SOL    HW1 8763   4.144   3.485   1.489
 2588SOL    HW2 8764   4.055   3.499   1.625
 2589SOL     OW 8765   4.264   2.608   0.619
 2589SOL    HW1 8766   4.363   2.616   0.604
 2589SOL    HW2 8767   4.218   2.604   0.530
 2590SOL     OW 8768   4.671   3.227   4.944
 2590SOL    HW1 8769   4.603   3.218   0.017
 2590SOL    HW2 8770   4.625   3.246   4.857
 2591SOL     OW 8771   4.677   2.620   0.919
 2591SOL    HW1 8772   4.685   2.619   1.018
 2591SOL    HW2 8773   4.595   2.568   0.892
 2592SOL     OW 8774   4.816   2.935   0.076
 2592SOL    HW1 8775   4.859   2.992   0.006
 2592SOL    HW2 8776   4.887   2.892   0.133
 2593SOL     OW 8777   3.717   2.974   0.618
 2593SOL    HW1 8778   3.713   2.971   0.718
 2593SOL    HW2 8779   3.812   2.984   0.589
 2594SOL     OW 8780   4.174   3.297   1.830
 2594SOL    HW1 8781   4.236   3.337   1.898
 2594SOL    HW2 8782   4.219   3.220   1.785
 2595SOL     OW 8783   3.998   2.440   1.305
 2595SOL    HW1 8784   4.041   2.359   1.346
 2595SOL    HW2 8785   4.006   2.435   1.205
 2596SOL     OW 8786   4.667   1.854   1.099
 2596SOL    HW1 8787   4.611   1.824   1.021
 2596SOL    HW2 8788   4.716   1.776   1.137
 2597SOL     OW 8789   4.474   3.175   0.137
 2597SOL    HW1 8790   4.388   3.178   0.086
 2597SOL    HW2 8791   4.501   3.080   0.153
 2598SOL     OW 8792   4.331   3.495   1.296
 2598SOL    HW1 8793   4.360   3.569   1.357
 2598SOL    HW2 8794   4.411   3.460   1.248
 2599SOL     OW 8795   4.521   3.622   0.133
 2599SOL    HW1 8796   4.446   3.570   0.092
 2599SOL    HW2 8797   4.598   3.561   0.152
 2600SOL     OW 8798   3.981   2.583   2.022
 2600SOL    HW1 8799   3.913   2.575   2.095
 2600SOL    HW2 8800   3.943   2.544   1.938
 2601SOL     OW 8801   4.275   3.230   3.042
 2601SOL    HW1 8802   4.178   3.246   3.022
 2601SOL    HW2 8803   4.322   3.318   3.052
 2602SOL     OW 8804   4.516   2.590   3.743
 2602SOL    HW1 8805   4.526   2.621   3.837
 2602SOL    HW2 8806   4.533   2.666   3.680
 2603SOL     OW 8807   4.401   3.029   3.744
 2603SOL    HW1 8808   4.446   3.114   3.771
 2603SOL    HW2 8809   4.309   3.049   3.708
 2604SOL     OW 8810   4.060   2.341   3.310
 2604SOL    HW1 8811   4.120   2.415   3.340
 2604SOL    HW2 8812   3.998   2.316   3.384
 2605SOL     OW 8813   3.957   3.650   2.459
 2605SOL    HW1 8814   3.939   3.728   2.519
 2605SOL    HW2 8815   4.055   3.638   2.448
 2606SOL     OW 8816   4.767   3.127   3.506
 2606SOL    HW1 8817   4.865   3.112   3.499
 2606SOL    HW2 8818   4.726   3.053   3.559
 2607SOL     OW 8819   3.878   3.401   2.553
 2607SOL    HW1 8820   3.902   3.490   2.514
 2607SOL    HW2 8821   3.806   3.413   2.621
 2608SOL     OW 8822   4.357   3.698   3.227
 2608SOL    HW1 8823   4.260   3.722   3.220
 2608SOL    HW2 8824   4.411   3.779   3.248
 2609SOL     OW 8825   4.184   2.742   1.926
 2609SOL    HW1 8826   4.219   2.813   1.988
 2609SOL    HW2 8827   4.110   2.693   1.971
 2610SOL     OW 8828   3.821   3.561   1.974
 2610SOL    HW1 8829   3.746   3.495   1.980
 2610SOL    HW2 8830   3.830   3.610   2.061
 2611SOL     OW 8831   4.530   1.949   2.266
 2611SOL    HW1 8832   4.581   2.032   2.246
 2611SOL    HW2 8833   4.446   1.972   2.316
 2612SOL     OW 8834   3.807   2.776   3.086
 2612SOL    HW1 8835   3.879   2.730   3.138
 2612SOL    HW2 8836   3.743   2.820   3.149
 2613SOL     OW 8837   3.944   2.228   3.882
 2613SOL    HW1 8838   3.971   2.324   3.889
 2613SOL    HW2 8839   3.844   2.222   3.873
 2614SOL     OW 8840   4.543   2.720   3.485
 2614SOL    HW1 8841   4.506   2.628   3.468
 2614SOL    HW2 8842   4.536   2.774   3.401
 2615SOL     OW 8843   3.860   3.766   3.475
 2615SOL    HW1 8844   3.883   3.725   3.563
 2615SOL    HW2 8845   3.763   3.789   3.474
 2616SOL     OW 8846   4.744   3.251   2.416
 2616SOL    HW1 8847   4.751   3.234   2.318
 2616SOL    HW2 8848   4.678   3.324   2.433
 2617SOL     OW 8849   3.876   3.662   3.219
 2617SOL    HW1 8850   3.868   3.696   3.312
 2617SOL    HW2 8851   3.861   3.563   3.218
 2618SOL     OW 8852   4.716   3.416   2.866
 2618SOL    HW1 8853   4.802   3.432   2.818
 2618SOL    HW2 8854   4.656   3.360   2.809
 2619SOL     OW 8855   4.046   2.468   2.324
 2619SOL    HW1 8856   4.102   2.441   2.245
 2619SOL    HW2 8857   3.951   2.480   2.295
 2620SOL     OW 8858   4.363   1.985   1.952
 2620SOL    HW1 8859   4.426   1.920   1.994
 2620SOL    HW2 8860   4.322   1.944   1.871
 2621SOL     OW 8861   4.464   2.196   3.541
 2621SOL    HW1 8862   4.557   2.161   3.551
 2621SOL    HW2 8863   4.407   2.164   3.616
 2622SOL     OW 8864   4.671   3.430   3.133
 2622SOL    HW1 8865   4.698   3.432   3.037
 2622SOL    HW2 8866   4.686   3.339   3.171
 2623SOL     OW 8867   4.489   2.201   2.869
 2623SOL    HW1 8868   4.425   2.247   2.808
 2623SOL    HW2 8869   4.564   2.162   2.816
 2624SOL     OW 8870   4.297   2.047   2.375
 2624SOL    HW1 8871   4.259   2.089   2.458
 2624SOL    HW2 8872   4.295   2.114   2.301
 2625SOL     OW 8873   4.934   3.473   2.711
 2625SOL    HW1 8874   4.875   3.531   2.655
 2625SOL    HW2 8875   0.002   3.530   2.757
 2626SOL     OW 8876   4.060   3.034   2.485
 2626SOL    HW1 8877   4.145   3.018   2.535
 2626SOL    HW2 8878   4.069   2.998   2.392
 2627SOL     OW 8879   4.358   2.038   3.049
 2627SOL    HW1 8880   4.388   2.051   3.143
 2627SOL    HW2 8881   4.405   2.104   2.990
 2628SOL     OW 8882   4.299   3.459   2.015
 2628SOL    HW1 8883   4.248   3.456   2.101
 2628SOL    HW2 8884   4.259   3.527   1.954
 2629SOL     OW 8885   4.299   2.186   2.145
 2629SOL    HW1 8886   4.319   2.133   2.063
 2629SOL    HW2 8887   4.255   2.272   2.119
 2630SOL     OW 8888   4.669   3.184   3.255
 2630SOL    HW1 8889   4.570   3.168   3.259
 2630SOL    HW2 8890   4.709   3.164   3.345
 2631SOL     OW 8891   4.717   2.965   3.094
 2631SOL    HW1 8892   4.714   3.051   3.144
 2631SOL    HW2 8893   4.756   2.981   3.003
 2632SOL     OW 8894   4.712   1.968   3.254
 2632SOL    HW1 8895   4.731   1.945   3.158
 2632SOL    HW2 8896   4.786   2.025   3.289
 2633SOL     OW 8897   4.638   2.915   3.651
 2633SOL    HW1 8898   4.555   2.956   3.688
 2633SOL    HW2 8899   4.613   2.848   3.581
 2634SOL     OW 8900   4.026   2.629   3.174
 2634SOL    HW1 8901   4.085   2.612   3.252
 2634SOL    HW2 8902   3.997   2.542   3.134
 2635SOL     OW 8903   4.306   2.328   2.713
 2635SOL    HW1 8904   4.293   2.379   2.628
 2635SOL    HW2 8905   4.271   2.382   2.790
 2636SOL     OW 8906   4.199   2.571   3.383
 2636SOL    HW1 8907   4.184   2.660   3.426
 2636SOL    HW2 8908   4.282   2.529   3.421
 2637SOL     OW 8909   4.702   2.077   3.574
 2637SOL    HW1 8910   4.777   2.074   3.507
 2637SOL    HW2 8911   4.704   1.994   3.629
 2638SOL     OW 8912   4.105   2.106   3.676
 2638SOL    HW1 8913   4.061   2.024   3.640
 2638SOL    HW2 8914   4.039   2.161   3.726
 2639SOL     OW 8915   4.184   2.734   2.977
 2639SOL    HW1 8916   4.236   2.817   2.994
 2639SOL    HW2 8917   4.126   2.713   3.056
 2640SOL     OW 8918   0.172   2.765   2.827
 2640SOL    HW1 8919   0.086   2.764   2.879
 2640SOL    HW2 8920   0.228   2.687   2.854
 2641SOL     OW 8921   3.758   3.170   3.292
 2641SOL    HW1 8922   3.658   3.177   3.299
 2641SOL    HW2 8923   3.782   3.129   3.204
 2642SOL     OW 8924   4.231   2.468   2.937
 2642SOL    HW1 8925   4.306   2.447   3.000
 2642SOL    HW2 8926   4.215   2.566   2.935
 2643SOL     OW 8927   4.622   3.361   3.567
 2643SOL    HW1 8928   4.614   3.433   3.499
 2643SOL    HW2 8929   4.685   3.290   3.534
 2644SOL     OW 8930   4.984   3.257   2.547
 2644SOL    HW1 8931   4.898   3.244   2.499
 2644SOL    HW2 8932   4.976   3.332   2.612
 2645SOL     OW 8933   4.879   2.352   3.529
 2645SOL    HW1 8934   4.809   2.345   3.600
 2645SOL    HW2 8935   4.848   2.416   3.458
 2646SOL     OW 8936   4.907   2.118   3.380
 2646SOL    HW1 8937   4.905   2.204   3.432
 2646SOL    HW2 8938   4.999   2.105   3.343
 2647SOL     OW 8939   3.724   2.367   2.992
 2647SOL    HW1 8940   3.720   2.339   2.896
 2647SOL    HW2 8941   3.819   2.378   3.020
 2648SOL     OW 8942   3.965   3.438   3.574
 2648SOL    HW1 8943   3.941   3.519   3.629
 2648SOL    HW2 8944   4.063   3.442   3.552
 2649SOL     OW 8945   4.560   3.538   3.360
 2649SOL    HW1 8946   4.611   3.506   3.280
 2649SOL    HW2 8947   4.482   3.593   3.330
 2650SOL     OW 8948   4.197   2.435   2.090
 2650SOL    HW1 8949   4.278   2.492   2.075
 2650SOL    HW2 8950   4.116   2.481   2.053
 2651SOL     OW 8951   0.120   3.622   2.840
 2651SOL    HW1 8952   0.197   3.656   2.785
 2651SOL    HW2 8953   0.153   3.596   2.931
 2652SOL     OW 8954   3.913   3.664   3.726
 2652SOL    HW1 8955   3.847   3.634   3.795
 2652SOL    HW2 8956   3.980   3.725   3.768
 2653SOL     OW 8957   4.399   3.131   3.262
 2653SOL    HW1 8958   4.335   3.153   3.336
 2653SOL    HW2 8959   4.360   3.159   3.174
 2654SOL     OW 8960   4.537   3.591   1.985
 2654SOL    HW1 8961   4.530   3.637   1.896
 2654SOL    HW2 8962   4.458   3.532   1.998
 2655SOL     OW 8963   4.523   2.880   3.268
 2655SOL    HW1 8964   4.596   2.887   3.200
 2655SOL    HW2 8965   4.468   2.963   3.268
 2656SOL     OW 8966   4.865   2.869   2.141
 2656SOL    HW1 8967   4.859   2.837   2.046
 2656SOL    HW2 8968   4.781   2.845   2.189
 2657SOL     OW 8969   4.455   2.038   3.309
 2657SOL    HW1 8970   4.551   2.016   3.293
 2657SOL    HW2 8971   4.448   2.105   3.383
 2658SOL     OW 8972   3.779   2.224   1.805
 2658SOL    HW1 8973   3.697   2.225   1.748
 2658SOL    HW2 8974   3.821   2.315   1.806
 2659SOL     OW 8975   4.417   2.468   3.515
 2659SOL    HW1 8976   4.441   2.498   3.607
 2659SOL    HW2 8977   4.433   2.370   3.506
 2660SOL     OW 8978   4.252   2.494   2.500
 2660SOL    HW1 8979   4.253   2.589   2.532
 2660SOL    HW2 8980   4.171   2.479   2.443
 2661SOL     OW 8981   4.965   2.856   1.867
 2661SOL    HW1 8982   0.024   2.842   1.788
 2661SOL    HW2 8983   0.017   2.900   1.940
 2662SOL     OW 8984   4.002   3.061   3.743
 2662SOL    HW1 8985   3.964   3.112   3.666
 2662SOL    HW2 8986   3.941   2.985   3.767
 2663SOL     OW 8987   3.815   3.136   2.557
 2663SOL    HW1 8988   3.899   3.084   2.541
 2663SOL    HW2 8989   3.834   3.234   2.550
 2664SOL     OW 8990   3.990   2.382   3.052
 2664SOL    HW1 8991   4.016   2.346   3.142
 2664SOL    HW2 8992   4.072   2.395   2.997
 2665SOL     OW 8993   4.561   3.459   2.440
 2665SOL    HW1 8994   4.557   3.527   2.367
 2665SOL    HW2 8995   4.469   3.427   2.460
 2666SOL     OW 8996   4.751   1.849   3.013
 2666SOL    HW1 8997   4.695   1.814   2.938
 2666SOL    HW2 8998   4.840   1.804   3.012
 2667SOL     OW 8999   4.401   3.463   3.089
 2667SOL    HW1 9000   4.375   3.549   3.131
 2667SOL    HW2 9001   4.500   3.452   3.094
 2668SOL     OW 9002   4.547   3.655   2.255
 2668SOL    HW1 9003   4.554   3.634   2.158
 2668SOL    HW2 9004   4.540   3.754   2.267
 2669SOL     OW 9005   4.577   2.613   4.579
 2669SOL    HW1 9006   4.663   2.665   4.581
 2669SOL    HW2 9007   4.597   2.515   4.579
 2670SOL     OW 9008   4.409   2.770   4.414
 2670SOL    HW1 9009   4.471   2.723   4.475
 2670SOL    HW2 9010   4.381   2.857   4.454
 2671SOL     OW 9011   4.193   3.182   4.709
 2671SOL    HW1 9012   4.094   3.165   4.703
 2671SOL    HW2 9013   4.213   3.271   4.668
 2672SOL     OW 9014   3.980   3.536   4.134
 2672SOL    HW1 9015   3.983   3.608   4.203
 2672SOL    HW2 9016   4.058   3.546   4.072
 2673SOL     OW 9017   4.002   3.261   4.190
 2673SOL    HW1 9018   3.997   3.360   4.182
 2673SOL    HW2 9019   3.929   3.229   4.251
 2674SOL     OW 9020   4.297   2.870   3.944
 2674SOL    HW1 9021   4.336   2.928   3.872
 2674SOL    HW2 9022   4.363   2.859   4.018
 2675SOL     OW 9023   4.455   3.237   4.431
 2675SOL    HW1 9024   4.407   3.154   4.458
 2675SOL    HW2 9025   4.470   3.237   4.333
 2676SOL     OW 9026   4.553   1.908   4.188
 2676SOL    HW1 9027   4.609   1.959   4.254
 2676SOL    HW2 9028   4.458   1.935   4.197
 2677SOL     OW 9029   4.565   2.198   3.894
 2677SOL    HW1 9030   4.619   2.246   3.825
 2677SOL    HW2 9031   4.490   2.149   3.849
 2678SOL     OW 9032   4.290   2.042   4.641
 2678SOL    HW1 9033   4.314   2.083   4.729
 2678SOL    HW2 9034   4.286   2.112   4.570
 2679SOL     OW 9035   4.738   3.340   4.212
 2679SOL    HW1 9036   4.655   3.291   4.184
 2679SOL    HW2 9037   4.714   3.412   4.277
 2680SOL     OW 9038   4.207   3.647   4.508
 2680SOL    HW1 9039   4.237   3.556   4.535
 2680SOL    HW2 9040   4.286   3.710   4.511
 2681SOL     OW 9041   4.097   2.816   4.120
 2681SOL    HW1 9042   4.157   2.845   4.045
 2681SOL    HW2 9043   4.120   2.722   4.147
 2682SOL     OW 9044   4.206   3.598   3.993
 2682SOL    HW1 9045   4.257   3.661   4.051
 2682SOL    HW2 9046   4.262   3.517   3.975
 2683SOL     OW 9047   3.875   3.740   4.891
 2683SOL    HW1 9048   3.882   3.660   4.950
 2683SOL    HW2 9049   3.911   3.719   4.801
 2684SOL     OW 9050   4.792   3.551   4.570
 2684SOL    HW1 9051   4.879   3.516   4.536
 2684SOL    HW2 9052   4.720   3.534   4.503
 2685SOL     OW 9053   4.057   2.490   4.246
 2685SOL    HW1 9054   4.136   2.435   4.219
 2685SOL    HW2 9055   3.996   2.435   4.302
 2686SOL     OW 9056   4.349   2.065   3.777
 2686SOL    HW1 9057   4.376   1.970   3.766
 2686SOL    HW2 9058   4.260   2.080   3.736
 2687SOL     OW 9059   4.626   3.262   4.659
 2687SOL    HW1 9060   4.723   3.252   4.638
 2687SOL    HW2 9061   4.572   3.242   4.577
 2688SOL     OW 9062   4.634   2.336   4.604
 2688SOL    HW1 9063   4.620   2.317   4.506
 2688SOL    HW2 9064   4.693   2.266   4.643
 2689SOL     OW 9065   4.286   1.960   4.198
 2689SOL    HW1 9066   4.218   1.924   4.261
 2689SOL    HW2 9067   4.245   2.033   4.143
 2690SOL     OW 9068   3.952   1.943   3.892
 2690SOL    HW1 9069   3.955   2.042   3.903
 2690SOL    HW2 9070   4.037   1.903   3.928
 2691SOL     OW 9071   0.047   3.444   4.515
 2691SOL    HW1 9072   0.075   3.478   4.425
 2691SOL    HW2 9073   0.116   3.381   4.550
 2692SOL     OW 9074   4.300   3.019   4.500
 2692SOL    HW1 9075   4.262   3.055   4.585
 2692SOL    HW2 9076   4.228   3.016   4.431
 2693SOL     OW 9077   4.707   2.389   3.743
 2693SOL    HW1 9078   4.636   2.459   3.740
 2693SOL    HW2 9079   4.772   2.410   3.815
 2694SOL     OW 9080   4.633   2.257   4.345
 2694SOL    HW1 9081   4.608   2.302   4.260
 2694SOL    HW2 9082   4.704   2.189   4.328
 2695SOL     OW 9083   4.791   1.951   4.424
 2695SOL    HW1 9084   4.883   1.917   4.405
 2695SOL    HW2 9085   4.736   1.878   4.464
 2696SOL     OW 9086   4.123   3.212   3.938
 2696SOL    HW1 9087   4.075   3.206   4.025
 2696SOL    HW2 9088   4.079   3.154   3.870
 2697SOL     OW 9089   4.198   2.147   4.017
 2697SOL    HW1 9090   4.259   2.127   3.941
 2697SOL    HW2 9091   4.110   2.178   3.981
 2698SOL     OW 9092   4.910   3.128   4.869
 2698SOL    HW1 9093   4.831   3.168   4.914
 2698SOL    HW2 9094   4.915   3.159   4.774
 2699SOL     OW 9095   4.478   2.827   4.147
 2699SOL    HW1 9096   4.453   2.805   4.242
 2699SOL    HW2 9097   4.524   2.748   4.106
 2700SOL     OW 9098   4.109   3.024   4.300
 2700SOL    HW1 9099   4.102   3.110   4.249
 2700SOL    HW2 9100   4.107   2.947   4.236
 2701SOL     OW 9101   4.297   2.301   4.510
 2701SOL    HW1 9102   4.269   2.393   4.483
 2701SOL    HW2 9103   4.333   2.302   4.603
 2702SOL     OW 9104   4.977   3.330   4.086
 2702SOL    HW1 9105   0.035   3.289   4.156
 2702SOL    HW2 9106   4.884   3.339   4.121
 2703SOL     OW 9107   4.407   2.595   4.797
 2703SOL    HW1 9108   4.462   2.618   4.716
 2703SOL    HW2 9109   4.460   2.615   4.880
 2704SOL     OW 9110   4.905   2.419   3.933
 2704SOL    HW1 9111   4.976   2.399   3.865
 2704SOL    HW2 9112   4.900   2.345   3.999
 2705SOL     OW 9113   4.412   2.322   4.765
 2705SOL    HW1 9114   4.498   2.314   4.715
 2705SOL    HW2 9115   4.390   2.419   4.780
 2706SOL     OW 9116   4.075   1.858   4.345
 2706SOL    HW1 9117   3.986   1.892   4.314
 2706SOL    HW2 9118   4.077   1.857   4.445
 2707SOL     OW 9119   0.226   2.130   3.805
 2707SOL    HW1 9120   0.164   2.204   3.778
 2707SOL    HW2 9121   0.209   2.107   3.901
 2708SOL     OW 9122   4.897   3.219   4.608
 2708SOL    HW1 9123   4.938   3.146   4.555
 2708SOL    HW2 9124   4.936   3.307   4.580
 2709SOL     OW 9125   4.145   2.568   4.717
 2709SOL    HW1 9126   4.232   2.587   4.761
 2709SOL    HW2 9127   4.157   2.566   4.618
 2710SOL     OW 9128   4.868   2.160   0.120
 2710SOL    HW1 9129   4.818   2.235   0.076
 2710SOL    HW2 9130   4.963   2.160   0.089
 2711SOL     OW 9131   3.972   3.706   4.635
 2711SOL    HW1 9132   3.895   3.682   4.577
 2711SOL    HW2 9133   4.057   3.673   4.594
 2712SOL     OW 9134   4.315   3.412   4.596
 2712SOL    HW1 9135   4.379   3.443   4.666
 2712SOL    HW2 9136   4.362   3.350   4.533
 2713SOL     OW 9137   4.570   2.598   0.024
 2713SOL    HW1 9138   4.668   2.579   0.010
 2713SOL    HW2 9139   4.523   2.513   0.048
 2714SOL     OW 9140   4.549   2.366   4.108
 2714SOL    HW1 9141   4.554   2.304   4.030
 2714SOL    HW2 9142   4.454   2.375   4.137
 2715SOL     OW 9143   4.431   2.356   0.053
 2715SOL    HW1 9144   4.343   2.373   0.098
 2715SOL    HW2 9145   4.415   2.324   4.960
 2716SOL     OW 9146   4.986   3.605   4.927
 2716SOL    HW1 9147   0.034   3.629   4.843
 2716SOL    HW2 9148   4.999   3.508   4.947
 2717SOL     OW 9149   3.925   3.133   4.702
 2717SOL    HW1 9150   3.856   3.185   4.751
 2717SOL    HW2 9151   3.884   3.051   4.663
 2718SOL     OW 9152   4.343   3.363   3.962
 2718SOL    HW1 9153   4.411   3.336   3.894
 2718SOL    HW2 9154   4.260   3.308   3.949
 2719SOL     OW 9155   4.552   2.870   0.094
 2719SOL    HW1 9156   4.548   2.775   0.061
 2719SOL    HW2 9157   4.646   2.904   0.087
 2720SOL     OW 9158   4.608   2.633   4.008
 2720SOL    HW1 9159   4.691   2.660   3.960
 2720SOL    HW2 9160   4.617   2.539   4.042
 2721SOL     OW 9161   4.773   2.105   4.661
 2721SOL    HW1 9162   4.785   2.067   4.569
 2721SOL    HW2 9163   4.761   2.030   4.726
 2722SOL     OW 9164   4.490   3.236   4.159
 2722SOL    HW1 9165   4.528   3.158   4.110
 2722SOL    HW2 9166   4.430   3.288   4.098
 2723SOL     OW 9167   3.666   2.244   3.848
 2723SOL    HW1 9168   3.597   2.200   3.904
 2723SOL    HW2 9169   3.623   2.293   3.773
 2724SOL     OW 9170   4.225   2.565   4.452
 2724SOL    HW1 9171   4.289   2.639   4.432
 2724SOL    HW2 9172   4.160   2.556   4.376
 2725SOL     OW 9173   4.537   3.258   3.802
 2725SOL    HW1 9174   4.617   3.234   3.855
 2725SOL    HW2 9175   4.565   3.304   3.717
 2726SOL     OW 9176   4.514   3.479   4.779
 2726SOL    HW1 9177   4.580   3.552   4.798
 2726SOL    HW2 9178   4.560   3.402   4.736
 2727SOL     OW 9179   4.784   2.761   3.833
 2727SOL    HW1 9180   4.737   2.820   3.768
 2727SOL    HW2 9181   4.877   2.742   3.800
 2728SOL     OW 9182   3.849   3.096   4.367
 2728SOL    HW1 9183   3.815   3.064   4.456
 2728SOL    HW2 9184   3.941   3.060   4.352
 2729SOL     OW 9185   4.278   2.320   4.222
 2729SOL    HW1 9186   4.255   2.247   4.157
 2729SOL    HW2 9187   4.297   2.280   4.311
 2730SOL     OW 9188   4.595   3.507   4.385
 2730SOL    HW1 9189   4.561   3.575   4.320
 2730SOL    HW2 9190   4.528   3.434   4.395
 2731SOL     OW 9191   4.733   1.860   4.796
 2731SOL    HW1 9192   4.685   1.821   4.718
 2731SOL    HW2 9193   4.795   1.792   4.835
 2732SOL     OW 9194   4.614   3.030   4.027
 2732SOL    HW1 9195   4.563   2.959   4.076
 2732SOL    HW2 9196   4.690   2.988   3.977
 2733SOL     OW 9197   3.955   3.954   0.926
 2733SOL    HW1 9198   3.932   3.929   1.020
 2733SOL    HW2 9199   3.883   3.923   0.864
 2734SOL     OW 9200   4.758   4.489   1.907
 2734SOL    HW1 9201   4.724   4.532   1.990
 2734SOL    HW2 9202   4.751   4.553   1.830
 2735SOL     OW 9203   4.400   4.902   1.991
 2735SOL    HW1 9204   4.411   4.996   1.958
 2735SOL    HW2 9205   4.334   4.854   1.934
 2736SOL     OW 9206   4.053   4.104   1.432
 2736SOL    HW1 9207   4.129   4.042   1.447
 2736SOL    HW2 9208   3.967   4.053   1.431
 2737SOL     OW 9209   3.844   4.494   1.640
 2737SOL    HW1 9210   3.878   4.581   1.676
 2737SOL    HW2 9211   3.781   4.512   1.564
 2738SOL     OW 9212   4.510   3.632   0.414
 2738SOL    HW1 9213   4.511   3.666   0.320
 2738SOL    HW2 9214   4.485   3.535   0.414
 2739SOL     OW 9215   3.945   4.733   1.246
 2739SOL    HW1 9216   4.021   4.669   1.261
 2739SOL    HW2 9217   3.866   4.684   1.211
 2740SOL     OW 9218   4.510   4.297   1.405
 2740SOL    HW1 9219   4.506   4.242   1.487
 2740SOL    HW2 9220   4.470   4.246   1.328
 2741SOL     OW 9221   4.740   4.699   1.726
 2741SOL    HW1 9222   4.828   4.740   1.701
 2741SOL    HW2 9223   4.685   4.686   1.644
 2742SOL     OW 9224   4.798   4.532   0.580
 2742SOL    HW1 9225   4.727   4.465   0.604
 2742SOL    HW2 9226   4.785   4.562   0.486
 2743SOL     OW 9227   4.787   3.991   4.881
 2743SOL    HW1 9228   4.804   3.951   4.791
 2743SOL    HW2 9229   4.716   3.939   4.928
 2744SOL     OW 9230   3.808   3.968   1.438
 2744SOL    HW1 9231   3.734   4.031   1.460
 2744SOL    HW2 9232   3.815   3.898   1.510
 2745SOL     OW 9233   4.243   4.361   0.501
 2745SOL    HW1 9234   4.277   4.341   0.409
 2745SOL    HW2 9235   4.143   4.352   0.502
 2746SOL     OW 9236   4.406   4.032   4.988
 2746SOL    HW1 9237   4.471   3.957   4.972
 2746SOL    HW2 9238   4.366   4.060   4.901
 2747SOL     OW 9239   4.489   4.124   1.624
 2747SOL    HW1 9240   4.538   4.058   1.681
 2747SOL    HW2 9241   4.434   4.184   1.683
 2748SOL     OW 9242   4.070   3.723   0.199
 2748SOL    HW1 9243   4.122   3.805   0.177
 2748SOL    HW2 9244   4.132   3.649   0.226
 2749SOL     OW 9245   4.686   4.241   4.829
 2749SOL    HW1 9246   4.608   4.255   4.890
 2749SOL    HW2 9247   4.734   4.157   4.854
 2750SOL     OW 9248   4.612   4.349   0.651
 2750SOL    HW1 9249   4.522   4.355   0.695
 2750SOL    HW2 9250   4.623   4.258   0.610
 2751SOL     OW 9251   4.203   3.957   0.154
 2751SOL    HW1 9252   4.278   3.983   0.094
 2751SOL    HW2 9253   4.212   4.004   0.242
 2752SOL     OW 9254   4.668   4.876   1.930
 2752SOL    HW1 9255   4.573   4.874   1.960
 2752SOL    HW2 9256   4.684   4.800   1.867
 2753SOL     OW 9257   4.140   4.546   1.301
 2753SOL    HW1 9258   4.227   4.563   1.346
 2753SOL    HW2 9259   4.133   4.449   1.278
 2754SOL     OW 9260   4.388   4.126   0.935
 2754SOL    HW1 9261   4.430   4.044   0.896
 2754SOL    HW2 9262   4.389   4.200   0.867
 2755SOL     OW 9263   4.176   4.557   1.642
 2755SOL    HW1 9264   4.253   4.555   1.578
 2755SOL    HW2 9265   4.104   4.495   1.610
 2756SOL     OW 9266   4.600   3.949   1.806
 2756SOL    HW1 9267   4.696   3.928   1.824
 2756SOL    HW2 9268   4.550   3.864   1.789
 2757SOL     OW 9269   4.211   3.636   1.825
 2757SOL    HW1 9270   4.183   3.597   1.738
 2757SOL    HW2 9271   4.148   3.708   1.853
 2758SOL     OW 9272   3.884   3.898   1.179
 2758SOL    HW1 9273   3.853   3.923   1.271
 2758SOL    HW2 9274   3.882   3.799   1.168
 2759SOL     OW 9275   3.906   3.729   0.588
 2759SOL    HW1 9276   3.854   3.781   0.656
 2759SOL    HW2 9277   3.901   3.775   0.500
 2760SOL     OW 9278   4.744   4.581   1.024
 2760SOL    HW1 9279   4.717   4.599   1.119
 2760SOL    HW2 9280   4.768   4.484   1.015
 2761SOL     OW 9281   4.259   4.692   1.875
 2761SOL    HW1 9282   4.322   4.644   1.935
 2761SOL    HW2 9283   4.249   4.641   1.790
 2762SOL     OW 9284   4.155   4.411   0.909
 2762SOL    HW1 9285   4.154   4.476   0.985
 2762SOL    HW2 9286   4.128   4.321   0.942
 2763SOL     OW 9287   4.122   4.154   0.996
 2763SOL    HW1 9288   4.063   4.080   0.963
 2763SOL    HW2 9289   4.217   4.133   0.975
 2764SOL     OW 9290   4.698   4.483   1.303
 2764SOL    HW1 9291   4.788   4.447   1.325
 2764SOL    HW2 9292   4.628   4.418   1.331
 2765SOL     OW 9293   3.890   4.271   1.795
 2765SOL    HW1 9294   3.929   4.204   1.732
 2765SOL    HW2 9295   3.861   4.352   1.743
 2766SOL     OW 9296   4.381   4.144   1.217
 2766SOL    HW1 9297   4.296   4.197   1.230
 2766SOL    HW2 9298   4.397   4.131   1.119
 2767SOL     OW 9299   3.852   4.829   1.486
 2767SOL    HW1 9300   3.903   4.795   1.565
 2767SOL    HW2 9301   3.897   4.799   1.402
 2768SOL     OW 9302   3.818   4.956   1.119
 2768SOL    HW1 9303   3.874   4.888   1.167
 2768SOL    HW2 9304   3.758   4.910   1.054
 2769SOL     OW 9305   4.585   3.824   4.960
 2769SOL    HW1 9306   4.632   3.766   4.894
 2769SOL    HW2 9307   4.554   3.768   0.037
 2770SOL     OW 9308   4.620   4.681   1.480
 2770SOL    HW1 9309   4.653   4.615   1.412
 2770SOL    HW2 9310   4.650   4.773   1.456
 2771SOL     OW 9311   4.824   4.709   0.789
 2771SOL    HW1 9312   4.785   4.670   0.872
 2771SOL    HW2 9313   4.815   4.643   0.714
 2772SOL     OW 9314   3.974   4.732   1.708
 2772SOL    HW1 9315   3.968   4.742   1.807
 2772SOL    HW2 9316   4.060   4.686   1.685
 2773SOL     OW 9317   4.313   3.984   1.444
 2773SOL    HW1 9318   4.336   4.023   1.355
 2773SOL    HW2 9319   4.373   4.024   1.514
 2774SOL     OW 9320   3.884   3.859   0.351
 2774SOL    HW1 9321   3.825   3.920   0.299
 2774SOL    HW2 9322   3.945   3.810   0.289
 2775SOL     OW 9323   4.379   4.539   1.462
 2775SOL    HW1 9324   4.452   4.607   1.473
 2775SOL    HW2 9325   4.419   4.451   1.439
 2776SOL     OW 9326   4.357   4.333   0.747
 2776SOL    HW1 9327   4.290   4.373   0.810
 2776SOL    HW2 9328   4.322   4.338   0.654
 2777SOL     OW 9329   4.138   4.275   1.242
 2777SOL    HW1 9330   4.097   4.223   1.316
 2777SOL    HW2 9331   4.114   4.233   1.154
 2778SOL     OW 9332   4.443   4.999   0.200
 2778SOL    HW1 9333   4.411   4.917   0.249
 2778SOL    HW2 9334   4.410   0.081   0.247
 2779SOL     OW 9335   4.001   4.435   1.995
 2779SOL    HW1 9336   4.030   4.388   2.078
 2779SOL    HW2 9337   3.957   4.370   1.933
 2780SOL     OW 9338   3.592   4.078   2.479
 2780SOL    HW1 9339   3.520   4.143   2.456
 2780SOL    HW2 9340   3.554   4.003   2.532
 2781SOL     OW 9341   4.869   4.441   2.576
 2781SOL    HW1 9342   4.968   4.438   2.591
 2781SOL    HW2 9343   4.826   4.364   2.622
 2782SOL     OW 9344   4.561   4.927   2.911
 2782SOL    HW1 9345   4.500   0.006   2.899
 2782SOL    HW2 9346   4.634   4.930   2.843
 2783SOL     OW 9347   4.524   4.416   3.709
 2783SOL    HW1 9348   4.565   4.470   3.782
 2783SOL    HW2 9349   4.431   4.447   3.693
 2784SOL     OW 9350   4.319   4.635   2.730
 2784SOL    HW1 9351   4.413   4.638   2.763
 2784SOL    HW2 9352   4.302   4.715   2.671
 2785SOL     OW 9353   4.186   4.153   3.387
 2785SOL    HW1 9354   4.235   4.145   3.300
 2785SOL    HW2 9355   4.101   4.102   3.382
 2786SOL     OW 9356   4.422   4.645   2.103
 2786SOL    HW1 9357   4.406   4.743   2.091
 2786SOL    HW2 9358   4.520   4.629   2.117
 2787SOL     OW 9359   3.830   4.347   2.358
 2787SOL    HW1 9360   3.751   4.319   2.304
 2787SOL    HW2 9361   3.806   4.425   2.415
 2788SOL     OW 9362   3.934   4.532   3.466
 2788SOL    HW1 9363   4.028   4.547   3.494
 2788SOL    HW2 9364   3.873   4.590   3.520
 2789SOL     OW 9365   4.513   3.930   2.276
 2789SOL    HW1 9366   4.551   3.982   2.200
 2789SOL    HW2 9367   4.417   3.954   2.288
 2790SOL     OW 9368   3.894   4.906   3.138
 2790SOL    HW1 9369   3.939   4.826   3.177
 2790SOL    HW2 9370   3.795   4.892   3.136
 2791SOL     OW 9371   4.325   4.450   2.279
 2791SOL    HW1 9372   4.350   4.525   2.218
 2791SOL    HW2 9373   4.234   4.416   2.255
 2792SOL     OW 9374   4.651   4.301   3.098
 2792SOL    HW1 9375   4.665   4.320   3.195
 2792SOL    HW2 9376   4.556   4.317   3.074
 2793SOL     OW 9377   4.772   4.444   2.320
 2793SOL    HW1 9378   4.800   4.447   2.416
 2793SOL    HW2 9379   4.693   4.382   2.311
 2794SOL     OW 9380   4.592   4.086   2.062
 2794SOL    HW1 9381   4.675   4.140   2.050
 2794SOL    HW2 9382   4.571   4.037   1.977
 2795SOL     OW 9383   4.167   3.956   2.719
 2795SOL    HW1 9384   4.200   3.943   2.813
 2795SOL    HW2 9385   4.225   4.022   2.672
 2796SOL     OW 9386   4.007   4.707   1.984
 2796SOL    HW1 9387   4.103   4.724   1.959
 2796SOL    HW2 9388   3.992   4.609   1.993
 2797SOL     OW 9389   3.951   4.004   3.363
 2797SOL    HW1 9390   3.866   4.026   3.315
 2797SOL    HW2 9391   3.938   3.921   3.418
 2798SOL     OW 9392   4.077   4.324   2.237
 2798SOL    HW1 9393   4.113   4.237   2.272
 2798SOL    HW2 9394   3.989   4.344   2.281
 2799SOL     OW 9395   4.721   4.248   2.703
 2799SOL    HW1 9396   4.673   4.207   2.626
 2799SOL    HW2 9397   4.718   4.186   2.781
 2800SOL     OW 9398   0.214   0.013   1.956
 2800SOL    HW1 9399   0.260   0.040   2.041
 2800SOL    HW2 9400   0.115   0.017   1.969
 2801SOL     OW 9401   4.804   4.244   2.017
 2801SOL    HW1 9402   4.782   4.326   1.965
 2801SOL    HW2 9403   4.880   4.263   2.080
 2802SOL     OW 9404   4.266   3.899   2.977
 2802SOL    HW1 9405   4.330   3.826   2.951
 2802SOL    HW2 9406   4.200   3.863   3.043
 2803SOL     OW 9407   4.582   4.126   2.493
 2803SOL    HW1 9408   4.573   4.191   2.418
 2803SOL    HW2 9409   4.602   4.035   2.457
 2804SOL     OW 9410   4.751   3.612   2.566
 2804SOL    HW1 9411   4.762   3.694   2.511
 2804SOL    HW2 9412   4.683   3.552   2.524
 2805SOL     OW 9413   4.012   4.683   3.238
 2805SOL    HW1 9414   4.111   4.683   3.251
 2805SOL    HW2 9415   3.971   4.621   3.305
 2806SOL     OW 9416   4.317   4.140   2.573
 2806SOL    HW1 9417   4.300   4.239   2.577
 2806SOL    HW2 9418   4.414   4.124   2.556
 2807SOL     OW 9419   4.197   4.585   3.526
 2807SOL    HW1 9420   4.242   4.617   3.442
 2807SOL    HW2 9421   4.227   4.491   3.545
 2808SOL     OW 9422   4.688   3.794   3.921
 2808SOL    HW1 9423   4.739   3.854   3.860
 2808SOL    HW2 9424   4.705   3.699   3.895
 2809SOL     OW 9425   4.242   4.562   2.994
 2809SOL    HW1 9426   4.265   4.595   2.902
 2809SOL    HW2 9427   4.142   4.556   3.003
 2810SOL     OW 9428   0.027   4.527   2.924
 2810SOL    HW1 9429   4.927   4.518   2.919
 2810SOL    HW2 9430   0.068   4.436   2.924
 2811SOL     OW 9431   4.993   4.347   2.190
 2811SOL    HW1 9432   0.064   4.321   2.255
 2811SOL    HW2 9433   4.916   4.387   2.239
 2812SOL     OW 9434   4.104   3.815   3.186
 2812SOL    HW1 9435   4.074   3.895   3.238
 2812SOL    HW2 9436   4.028   3.749   3.180
 2813SOL     OW 9437   4.399   4.336   3.002
 2813SOL    HW1 9438   4.403   4.310   2.905
 2813SOL    HW2 9439   4.344   4.419   3.012
 2814SOL     OW 9440   3.931   3.876   2.613
 2814SOL    HW1 9441   3.903   3.955   2.559
 2814SOL    HW2 9442   4.017   3.897   2.660
 2815SOL     OW 9443   4.757   4.454   2.898
 2815SOL    HW1 9444   4.728   4.404   2.980
 2815SOL    HW2 9445   4.746   4.396   2.817
 2816SOL     OW 9446   4.072   4.713   3.757
 2816SOL    HW1 9447   4.079   4.639   3.824
 2816SOL    HW2 9448   4.123   4.688   3.674
 2817SOL     OW 9449   4.794   3.981   3.740
 2817SOL    HW1 9450   4.758   4.068   3.773
 2817SOL    HW2 9451   4.772   3.970   3.643
 2818SOL     OW 9452   3.875   4.260   3.553
 2818SOL    HW1 9453   3.905   4.191   3.488
 2818SOL    HW2 9454   3.890   4.351   3.514
 2819SOL     OW 9455   4.549   4.285   2.274
 2819SOL    HW1 9456   4.552   4.228   2.192
 2819SOL    HW2 9457   4.467   4.342   2.273
 2820SOL     OW 9458   4.327   4.111   3.147
 2820SOL    HW1 9459   4.298   4.042   3.080
 2820SOL    HW2 9460   4.347   4.197   3.101
 2821SOL     OW 9461   3.773   4.913   3.444
 2821SOL    HW1 9462   3.791   4.843   3.514
 2821SOL    HW2 9463   3.858   4.935   3.397
 2822SOL     OW 9464   3.859   4.090   2.453
 2822SOL    HW1 9465   3.762   4.078   2.473
 2822SOL    HW2 9466   3.877   4.187   2.433
 2823SOL     OW 9467   4.455   4.870   3.171
 2823SOL    HW1 9468   4.498   4.878   3.081
 2823SOL    HW2 9469   4.457   4.960   3.216
 2824SOL     OW 9470   4.694   4.627   2.135
 2824SOL    HW1 9471   4.767   4.692   2.116
 2824SOL    HW2 9472   4.722   4.566   2.209
 2825SOL     OW 9473   4.759   4.688   2.635
 2825SOL    HW1 9474   4.680   4.671   2.694
 2825SOL    HW2 9475   4.801   4.601   2.609
 2826SOL     OW 9476   4.694   4.092   2.924
 2826SOL    HW1 9477   4.647   4.008   2.952
 2826SOL    HW2 9478   4.686   4.160   2.997
 2827SOL     OW 9479   3.814   4.718   3.638
 2827SOL    HW1 9480   3.732   4.720   3.696
 2827SOL    HW2 9481   3.896   4.724   3.695
 2828SOL     OW 9482   4.475   3.933   3.297
 2828SOL    HW1 9483   4.430   4.004   3.242
 2828SOL    HW2 9484   4.455   3.948   3.394
 2829SOL     OW 9485   3.787   4.117   2.003
 2829SOL    HW1 9486   3.691   4.097   1.980
 2829SOL    HW2 9487   3.827   4.175   1.932
 2830SOL     OW 9488   3.800   3.951   2.222
 2830SOL    HW1 9489   3.803   4.010   2.141
 2830SOL    HW2 9490   3.829   4.003   2.302
 2831SOL     OW 9491   4.289   4.665   3.255
 2831SOL    HW1 9492   4.351   4.742   3.243
 2831SOL    HW2 9493   4.283   4.613   3.170
 2832SOL     OW 9494   4.277   4.323   3.585
 2832SOL    HW1 9495   4.373   4.297   3.588
 2832SOL    HW2 9496   4.229   4.266   3.518
 2833SOL     OW 9497   4.294   4.410   2.560
 2833SOL    HW1 9498   4.299   4.491   2.619
 2833SOL    HW2 9499   4.311   4.438   2.465
 2834SOL     OW 9500   4.569   4.654   2.834
 2834SOL    HW1 9501   4.636   4.593   2.876
 2834SOL    HW2 9502   4.569   4.742   2.883
 2835SOL     OW 9503   3.775   4.956   2.414
 2835SOL    HW1 9504   3.848   4.983   2.477
 2835SOL    HW2 9505   3.815   4.917   2.331
 2836SOL     OW 9506   4.138   4.087   2.367
 2836SOL    HW1 9507   4.206   4.100   2.440
 2836SOL    HW2 9508   4.050   4.063   2.407
 2837SOL     OW 9509   4.580   0.102   2.277
 2837SOL    HW1 9510   4.623   0.022   2.235
 2837SOL    HW2 9511   4.621   0.118   2.367
 2838SOL     OW 9512   3.851   4.811   2.189
 2838SOL    HW1 9513   3.909   4.799   2.108
 2838SOL    HW2 9514   3.841   4.723   2.236
 2839SOL     OW 9515   4.066   3.963   4.681
 2839SOL    HW1 9516   4.045   3.987   4.776
 2839SOL    HW2 9517   4.037   3.869   4.663
 2840SOL     OW 9518   3.714   4.094   4.396
 2840SOL    HW1 9519   3.638   4.112   4.458
 2840SOL    HW2 9520   3.685   4.029   4.326
 2841SOL     OW 9521   4.829   4.338   4.340
 2841SOL    HW1 9522   4.879   4.422   4.363
 2841SOL    HW2 9523   4.770   4.313   4.416
 2842SOL     OW 9524   3.932   4.900   4.637
 2842SOL    HW1 9525   3.994   4.889   4.715
 2842SOL    HW2 9526   3.853   4.953   4.665
 2843SOL     OW 9527   3.814   4.327   4.283
 2843SOL    HW1 9528   3.772   4.247   4.326
 2843SOL    HW2 9529   3.761   4.409   4.306
 2844SOL     OW 9530   4.519   3.697   4.205
 2844SOL    HW1 9531   4.584   3.730   4.137
 2844SOL    HW2 9532   4.431   3.744   4.194
 2845SOL     OW 9533   4.340   4.547   3.941
 2845SOL    HW1 9534   4.439   4.550   3.936
 2845SOL    HW2 9535   4.308   4.604   4.016
 2846SOL     OW 9536   4.691   4.348   4.099
 2846SOL    HW1 9537   4.737   4.344   4.187
 2846SOL    HW2 9538   4.598   4.312   4.108
 2847SOL     OW 9539   3.852   4.660   4.519
 2847SOL    HW1 9540   3.937   4.608   4.509
 2847SOL    HW2 9541   3.872   4.749   4.558
 2848SOL     OW 9542   4.522   4.008   3.958
 2848SOL    HW1 9543   4.572   4.078   3.907
 2848SOL    HW2 9544   4.572   3.922   3.956
 2849SOL     OW 9545   4.274   3.814   4.154
 2849SOL    HW1 9546   4.191   3.799   4.207
 2849SOL    HW2 9547   4.265   3.899   4.102
 2850SOL     OW 9548   4.075   3.817   3.893
 2850SOL    HW1 9549   4.134   3.895   3.914
 2850SOL    HW2 9550   4.121   3.733   3.920
 2851SOL     OW 9551   4.664   4.209   3.837
 2851SOL    HW1 9552   4.614   4.275   3.781
 2851SOL    HW2 9553   4.702   4.256   3.917
 2852SOL     OW 9554   4.250   4.019   3.954
 2852SOL    HW1 9555   4.349   4.007   3.948
 2852SOL    HW2 9556   4.227   4.115   3.941
 2853SOL     OW 9557   4.192   4.362   4.827
 2853SOL    HW1 9558   4.095   4.363   4.851
 2853SOL    HW2 9559   4.223   4.267   4.821
 2854SOL     OW 9560   4.284   4.724   4.137
 2854SOL    HW1 9561   4.229   4.808   4.140
 2854SOL    HW2 9562   4.320   4.705   4.229
 2855SOL     OW 9563   4.295   4.110   4.748
 2855SOL    HW1 9564   4.218   4.057   4.713
 2855SOL    HW2 9565   4.327   4.173   4.677
 2856SOL     OW 9566   4.367   4.534   4.712
 2856SOL    HW1 9567   4.333   4.627   4.708
 2856SOL    HW2 9568   4.304   4.477   4.765
 2857SOL     OW 9569   4.016   3.974   4.946
 2857SOL    HW1 9570   4.075   3.973   0.027
 2857SOL    HW2 9571   3.961   3.890   4.944
 2858SOL     OW 9572   4.396   4.292   4.572
 2858SOL    HW1 9573   4.362   4.293   4.478
 2858SOL    HW2 9574   4.382   4.382   4.613
 2859SOL     OW 9575   4.051   3.749   4.306
 2859SOL    HW1 9576   4.012   3.835   4.340
 2859SOL    HW2 9577   4.105   3.707   4.379
 2860SOL     OW 9578   4.670   4.304   4.564
 2860SOL    HW1 9579   4.695   4.278   4.657
 2860SOL    HW2 9580   4.572   4.291   4.550
 2861SOL     OW 9581   3.720   4.982   3.853
 2861SOL    HW1 9582   3.812   4.955   3.880
 2861SOL    HW2 9583   3.669   4.902   3.822
 2862SOL     OW 9584   4.440   4.239   4.087
 2862SOL    HW1 9585   4.470   4.145   4.065
 2862SOL    HW2 9586   4.374   4.269   4.018
 2863SOL     OW 9587   4.259   4.294   3.875
 2863SOL    HW1 9588   4.274   4.389   3.904
 2863SOL    HW2 9589   4.240   4.292   3.777
 2864SOL     OW 9590   3.740   0.062   4.762
 2864SOL    HW1 9591   3.794   0.064   4.846
 2864SOL    HW2 9592   3.642   0.061   4.786
 2865SOL     OW 9593   3.968   3.987   4.423
 2865SOL    HW1 9594   3.875   4.025   4.420
 2865SOL    HW2 9595   4.004   3.994   4.516
 2866SOL     OW 9596   4.617   4.548   3.925
 2866SOL    HW1 9597   4.682   4.620   3.905
 2866SOL    HW2 9598   4.654   4.488   3.995
 2867SOL     OW 9599   4.790   4.766   4.559
 2867SOL    HW1 9600   4.740   4.695   4.608
 2867SOL    HW2 9601   4.738   4.795   4.479
 2868SOL     OW 9602   3.827   3.891   3.991
 2868SOL    HW1 9603   3.795   3.965   3.933
 2868SOL    HW2 9604   3.921   3.867   3.965
 2869SOL     OW 9605   4.308   4.296   4.320
 2869SOL    HW1 9606   4.363   4.280   4.238
 2869SOL    HW2 9607   4.213   4.268   4.302
 2870SOL     OW 9608   4.639   4.563   4.661
 2870SOL    HW1 9609   4.666   4.478   4.617
 2870SOL    HW2 9610   4.542   4.560   4.685
 2871SOL     OW 9611   4.804   4.732   3.855
 2871SOL    HW1 9612   4.795   4.831   3.869
 2871SOL    HW2 9613   4.874   4.715   3.785
 2872SOL     OW 9614   4.058   4.204   4.272
 2872SOL    HW1 9615   3.975   4.260   4.269
 2872SOL    HW2 9616   4.038   4.117   4.317
 2873SOL     OW 9617   4.735   3.653   4.812
 2873SOL    HW1 9618   4.754   3.624   4.719
 2873SOL    HW2 9619   4.818   3.642   4.868
   5.00000   5.00000   5.00000
