; PLEASE READ AND CITE:
; C. Camilloni, A. Guerini Rocco, I. Eberini, E. Gianazza, R. A. Broglia, and G. Tiana
; Urea and guanidinium chloride denature Protein L in different ways in molecular dynamics simulations
; Biophys. J., 98 (2008)
; DOI: 10.1529/biophysj.107.125799

[ moleculetype ]
; name  nrexcl
Gnd         3

[ atoms ]
;   nr    type   resnr  residu    atom    cgnr  charge	MASS
     1      C        1    GND       C1       1	 1.027	13.019
     2     NT        1    GND       N2       2	 -0.845	14.0067
     3      H        1    GND       H3       2	 0.418	1.008
     4      H        1    GND       H4       2	 0.418	1.008
     5     NT        1    GND       N5       3	 -0.845	14.0067
     6      H        1    GND       H6       3   0.418	1.008
     7      H        1    GND       H7       3	 0.418	1.008
     8     NT        1    GND       N8       4	 -0.845	14.0067
     9      H        1    GND       H9       4	 0.418	1.008
     10     H        1    GND       H10      4	 0.418	1.008


 [ bonds ]
    1     2  2  0.1340  1.0500e+07
    1     5  2  0.1340  1.0500e+07
    1     8  2  0.1340  1.0500e+07
    2     3  2  0.1000  1.8700e+07
    2     4  2  0.1000  1.8700e+07
    5     6  2  0.1000  1.8700e+07
    5     7  2  0.1000  1.8700e+07
    8     9  2  0.1000  1.8700e+07
    8    10  2  0.1000  1.8700e+07


 [ angles ]
    1     2     3    2  120.00      390.00
    1     2     4    2  120.00      390.00
    1     5     6    2  120.00      390.00
    1     5     7    2  120.00      390.00
    1     8     9    2  120.00      390.00
    1     8    10    2  120.00      390.00
    3     2     4    2  120.00      445.00
    6     5     7    2  120.00      445.00
    9     8    10    2  120.00      445.00
    2     1     5    2  120.00      670.00
    5     1     8    2  120.00      670.00
    8     1     2    2  120.00      670.00


;[ pairs ]
;;  ai    aj funct           c0           c1
;    2     6     2 0.000000e+00 0.000000e+00
;    2     7     2 0.000000e+00 0.000000e+00
;    2     9     2 0.000000e+00 0.000000e+00
;    2    10     2 0.000000e+00 0.000000e+00
;    5     3     2 0.000000e+00 0.000000e+00
;    5     4     2 0.000000e+00 0.000000e+00
;    5     9     2 0.000000e+00 0.000000e+00
;    5    10     2 0.000000e+00 0.000000e+00
;    8     3     2 0.000000e+00 0.000000e+00    
;    8     4     2 0.000000e+00 0.000000e+00
;    8     6     2 0.000000e+00 0.000000e+00
;    8     7     2 0.000000e+00 0.000000e+00

 [ dihedrals ]
;  ai    aj    ak    al   gromos type
    2     1     5     6  1 180.000       33.5          2
    2     1     5     7  1 180.000       33.5          2
    2     1     8     9  1 180.000       33.5          2
    2     1     8    10  1 180.000       33.5          2
    5     1     2     3  1 180.000       33.5          2
    5     1     2     4  1 180.000       33.5          2
    5     1     8     9  1 180.000       33.5          2
    5     1     8    10  1 180.000       33.5          2
    8     1     2     3  1 180.000       33.5          2
    8     1     2     4  1 180.000       33.5          2
