Include forcefield parameters
#include "gromos54a7_atb.ff/forcefield.itp"

[ moleculetype ]
; Name   nrexcl
DCME     3
[ atoms ]
;  nr  type  resnr  resid  atom  cgnr  charge    mass
    1 CLOpt    1    DCME    Cl1    1   -0.104  35.4530
    2  CPos    1    DCME     C1    2   -0.284  12.0110
    3 CLOpt    1    DCME     Cl    3   -0.104  35.4530
    4    HC    1    DCME     H1    4    0.246   1.0080
    5    HC    1    DCME     H2    5    0.246   1.0080
; total charge of the molecule:   0.000
[ bonds ]
;  ai   aj  funct   c0         c1
    1    2    2   0.1800   1.8519e+06
    2    3    2   0.1800   1.8519e+06
    2    4    2   0.1090   1.2300e+07
    2    5    2   0.1090   1.2300e+07
[ pairs ]
;  ai   aj  funct  ;  all 1-4 pairs but the ones excluded in GROMOS itp
[ angles ]
;  ai   aj   ak  funct   angle     fc
    1    2    3    2    113.00   545.00
    1    2    4    2    108.00   465.00
    1    2    5    2    108.00   465.00
    3    2    4    2    108.00   465.00
    3    2    5    2    108.00   465.00
    4    2    5    2    111.40   532.00
[ dihedrals ]
; GROMOS improper dihedrals
;  ai   aj   ak   al  funct   angle     fc
[ dihedrals ]
;  ai   aj   ak   al  funct    ph0      cp     mult
[ exclusions ]
;  ai   aj  funct  ;  GROMOS 1-4 exclusions

[ system ]
; Name
CH2CL2

[ molecules ]
; Compound        #mols
DCME              512
