SXQJ in water
 2645
    1SXQJ    O4    1   1.680   1.460   1.429
    1SXQJ    C3    2   1.590   1.534   1.461
    1SXQJ    H4    3   1.606   1.641   1.477
    1SXQJ    C2    4   1.451   1.476   1.482
    1SXQJ    H2    5   1.459   1.417   1.573
    1SXQJ    H3    6   1.438   1.405   1.401
    1SXQJ    O1    7   1.344   1.571   1.489
    1SXQJ    H1    8   1.333   1.604   1.582
    2SOL     OW    9   0.229   0.655   0.102
    2SOL    HW1   10   0.163   0.607   0.160
    2SOL    HW2   11   0.251   0.599   0.022
    3SOL     OW   12   0.209   0.271   0.999
    3SOL    HW1   13   0.250   0.250   1.087
    3SOL    HW2   14   0.112   0.247   1.000
    4SOL     OW   15   0.009   0.385   0.657
    4SOL    HW1   16   2.924   0.426   0.689
    4SOL    HW2   17   2.988   0.309   0.595
    5SOL     OW   18   0.567   1.279   1.170
    5SOL    HW1   19   0.474   1.273   1.133
    5SOL    HW2   20   0.582   1.370   1.209
    6SOL     OW   21   1.553   1.510   0.704
    6SOL    HW1   22   1.509   1.496   0.792
    6SOL    HW2   23   1.484   1.520   0.633
    7SOL     OW   24   1.130   0.702   0.705
    7SOL    HW1   25   1.185   0.784   0.687
    7SOL    HW2   26   1.079   0.714   0.790
    8SOL     OW   27   1.760   0.598   0.231
    8SOL    HW1   28   1.748   0.583   0.133
    8SOL    HW2   29   1.724   0.519   0.281
    9SOL     OW   30   0.760   1.147   1.031
    9SOL    HW1   31   0.686   1.175   1.093
    9SOL    HW2   32   0.798   1.227   0.985
   10SOL     OW   33   0.855   0.788   1.818
   10SOL    HW1   34   0.848   0.859   1.888
   10SOL    HW2   35   0.883   0.829   1.731
   11SOL     OW   36   0.685   1.010   0.655
   11SOL    HW1   37   0.754   0.991   0.726
   11SOL    HW2   38   0.609   1.060   0.695
   12SOL     OW   39   0.703   1.156   1.808
   12SOL    HW1   40   0.756   1.237   1.831
   12SOL    HW2   41   0.613   1.184   1.772
   13SOL     OW   42   0.328   1.436   1.068
   13SOL    HW1   43   0.260   1.384   1.017
   13SOL    HW2   44   0.388   1.484   1.004
   14SOL     OW   45   0.447   0.399   1.495
   14SOL    HW1   46   0.527   0.340   1.497
   14SOL    HW2   47   0.364   0.344   1.505
   15SOL     OW   48   1.612   0.456   0.735
   15SOL    HW1   49   1.531   0.483   0.683
   15SOL    HW2   50   1.639   0.530   0.796
   16SOL     OW   51   0.222   1.715   0.481
   16SOL    HW1   52   0.245   1.799   0.531
   16SOL    HW2   53   0.286   1.702   0.406
   17SOL     OW   54   1.130   1.339   1.696
   17SOL    HW1   55   1.176   1.338   1.784
   17SOL    HW2   56   1.076   1.255   1.686
   18SOL     OW   57   0.244   1.449   0.533
   18SOL    HW1   58   0.211   1.543   0.528
   18SOL    HW2   59   0.180   1.394   0.587
   19SOL     OW   60   0.253   1.084   0.892
   19SOL    HW1   61   0.255   0.993   0.932
   19SOL    HW2   62   0.192   1.143   0.947
   20SOL     OW   63   0.617   1.791   1.435
   20SOL    HW1   64   0.529   1.769   1.477
   20SOL    HW2   65   0.643   1.885   1.458
   21SOL     OW   66   0.594   0.974   0.146
   21SOL    HW1   67   0.606   1.047   0.080
   21SOL    HW2   68   0.639   0.999   0.232
   22SOL     OW   69   1.548   0.140   1.468
   22SOL    HW1   70   1.583   0.208   1.404
   22SOL    HW2   71   1.615   0.123   1.540
   23SOL     OW   72   0.123   0.631   0.572
   23SOL    HW1   73   0.079   0.547   0.603
   23SOL    HW2   74   0.117   0.701   0.643
   24SOL     OW   75   1.844   1.763   0.339
   24SOL    HW1   76   1.895   1.725   0.415
   24SOL    HW2   77   1.871   1.859   0.325
   25SOL     OW   78   0.016   1.596   0.113
   25SOL    HW1   79   0.020   1.498   0.135
   25SOL    HW2   80   2.994   1.647   0.196
   26SOL     OW   81   1.691   0.921   0.635
   26SOL    HW1   82   1.781   0.879   0.623
   26SOL    HW2   83   1.669   0.975   0.553
   27SOL     OW   84   1.647   1.109   0.434
   27SOL    HW1   85   1.734   1.115   0.384
   27SOL    HW2   86   1.650   1.171   0.512
   28SOL     OW   87   0.122   0.746   1.593
   28SOL    HW1   88   0.221   0.747   1.608
   28SOL    HW2   89   0.088   0.840   1.586
   29SOL     OW   90   0.609   1.379   0.734
   29SOL    HW1   91   0.562   1.291   0.745
   29SOL    HW2   92   0.594   1.413   0.641
   30SOL     OW   93   1.284   1.222   1.429
   30SOL    HW1   94   1.319   1.154   1.364
   30SOL    HW2   95   1.336   1.217   1.514
   31SOL     OW   96   0.818   0.012   0.500
   31SOL    HW1   97   0.850   0.106   0.493
   31SOL    HW2   98   0.718   0.010   0.502
   32SOL     OW   99   0.192   0.964   1.269
   32SOL    HW1  100   0.280   0.920   1.250
   32SOL    HW2  101   0.119   0.913   1.224
   33SOL     OW  102   1.509   1.007   0.208
   33SOL    HW1  103   1.443   0.938   0.236
   33SOL    HW2  104   1.565   1.034   0.286
   34SOL     OW  105   1.200   1.794   1.614
   34SOL    HW1  106   1.206   1.865   1.544
   34SOL    HW2  107   1.166   1.709   1.573
   35SOL     OW  108   0.326   0.253   1.796
   35SOL    HW1  109   0.387   0.330   1.816
   35SOL    HW2  110   0.240   0.266   1.844
   36SOL     OW  111   1.465   1.416   0.958
   36SOL    HW1  112   1.396   1.433   1.028
   36SOL    HW2  113   1.455   1.324   0.921
   37SOL     OW  114   1.662   1.726   0.577
   37SOL    HW1  115   1.634   1.703   0.483
   37SOL    HW2  116   1.635   1.652   0.639
   38SOL     OW  117   0.592   0.723   0.266
   38SOL    HW1  118   0.608   0.805   0.211
   38SOL    HW2  119   0.526   0.743   0.337
   39SOL     OW  120   1.285   0.340   0.931
   39SOL    HW1  121   1.189   0.312   0.935
   39SOL    HW2  122   1.337   0.291   1.001
   40SOL     OW  123   1.585   1.666   0.308
   40SOL    HW1  124   1.676   1.705   0.306
   40SOL    HW2  125   1.556   1.644   0.215
   41SOL     OW  126   0.795   0.613   1.457
   41SOL    HW1  127   0.765   0.595   1.551
   41SOL    HW2  128   0.750   0.549   1.395
   42SOL     OW  129   1.397   0.475   1.677
   42SOL    HW1  130   1.389   0.521   1.766
   42SOL    HW2  131   1.460   0.398   1.685
   43SOL     OW  132   0.961   0.888   1.577
   43SOL    HW1  133   1.018   0.812   1.545
   43SOL    HW2  134   0.910   0.926   1.501
   44SOL     OW  135   0.994   0.417   1.230
   44SOL    HW1  136   0.919   0.439   1.292
   44SOL    HW2  137   0.960   0.363   1.153
   45SOL     OW  138   1.045   0.704   0.426
   45SOL    HW1  139   1.066   0.697   0.523
   45SOL    HW2  140   0.963   0.650   0.406
   46SOL     OW  141   0.102   0.820   0.763
   46SOL    HW1  142   0.184   0.808   0.819
   46SOL    HW2  143   0.039   0.881   0.811
   47SOL     OW  144   0.139   1.835   1.575
   47SOL    HW1  145   0.126   1.810   1.671
   47SOL    HW2  146   0.051   1.862   1.536
   48SOL     OW  147   0.922   0.339   0.220
   48SOL    HW1  148   0.935   0.405   0.147
   48SOL    HW2  149   0.883   0.255   0.183
   49SOL     OW  150   1.713   0.582   1.828
   49SOL    HW1  151   1.677   0.665   1.785
   49SOL    HW2  152   1.732   0.514   1.757
   50SOL     OW  153   1.372   1.142   0.540
   50SOL    HW1  154   1.455   1.121   0.489
   50SOL    HW2  155   1.317   1.210   0.490
   51SOL     OW  156   0.516   0.194   0.914
   51SOL    HW1  157   0.536   0.209   1.011
   51SOL    HW2  158   0.547   0.273   0.861
   52SOL     OW  159   1.008   1.449   0.473
   52SOL    HW1  160   0.963   1.521   0.421
   52SOL    HW2  161   0.999   1.467   0.571
   53SOL     OW  162   0.355   1.803   0.852
   53SOL    HW1  163   0.402   1.716   0.865
   53SOL    HW2  164   0.418   1.878   0.866
   54SOL     OW  165   1.796   1.063   0.867
   54SOL    HW1  166   1.739   1.047   0.786
   54SOL    HW2  167   1.738   1.066   0.948
   55SOL     OW  168   0.322   0.952   0.229
   55SOL    HW1  169   0.419   0.962   0.207
   55SOL    HW2  170   0.292   0.860   0.202
   56SOL     OW  171   1.472   0.737   0.727
   56SOL    HW1  172   1.458   0.685   0.811
   56SOL    HW2  173   1.551   0.798   0.739
   57SOL     OW  174   0.462   1.257   1.732
   57SOL    HW1  175   0.432   1.267   1.637
   57SOL    HW2  176   0.383   1.263   1.793
   58SOL     OW  177   1.110   1.775   0.226
   58SOL    HW1  178   1.048   1.727   0.287
   58SOL    HW2  179   1.144   1.712   0.156
   59SOL     OW  180   0.200   0.296   1.499
   59SOL    HW1  181   0.114   0.344   1.484
   59SOL    HW2  182   0.187   0.223   1.565
   60SOL     OW  183   1.626   1.366   0.083
   60SOL    HW1  184   1.599   1.462   0.076
   60SOL    HW2  185   1.544   1.308   0.076
   61SOL     OW  186   0.468   1.728   0.330
   61SOL    HW1  187   0.497   1.797   0.397
   61SOL    HW2  188   0.537   1.721   0.258
   62SOL     OW  189   1.408   0.106   0.431
   62SOL    HW1  190   1.386   0.077   0.338
   62SOL    HW2  191   1.505   0.128   0.437
   63SOL     OW  192   0.261   1.797   1.233
   63SOL    HW1  193   0.304   1.726   1.288
   63SOL    HW2  194   0.229   1.757   1.147
   64SOL     OW  195   0.937   1.698   0.901
   64SOL    HW1  196   1.019   1.646   0.926
   64SOL    HW2  197   0.888   1.651   0.828
   65SOL     OW  198   0.388   0.693   0.475
   65SOL    HW1  199   0.426   0.601   0.486
   65SOL    HW2  200   0.292   0.693   0.504
   66SOL     OW  201   1.540   0.243   1.734
   66SOL    HW1  202   1.544   0.257   1.833
   66SOL    HW2  203   1.479   0.166   1.714
   67SOL     OW  204   0.611   0.109   0.111
   67SOL    HW1  205   0.711   0.110   0.122
   67SOL    HW2  206   0.589   0.127   0.015
   68SOL     OW  207   0.768   0.269   1.750
   68SOL    HW1  208   0.844   0.206   1.768
   68SOL    HW2  209   0.713   0.280   1.832
   69SOL     OW  210   0.880   1.517   1.193
   69SOL    HW1  211   0.860   1.484   1.101
   69SOL    HW2  212   0.949   1.459   1.236
   70SOL     OW  213   1.345   0.588   1.433
   70SOL    HW1  214   1.373   0.551   1.522
   70SOL    HW2  215   1.378   0.682   1.424
   71SOL     OW  216   0.812   1.400   0.931
   71SOL    HW1  217   0.901   1.394   0.886
   71SOL    HW2  218   0.740   1.394   0.862
   72SOL     OW  219   0.925   0.508   0.902
   72SOL    HW1  220   0.900   0.501   0.805
   72SOL    HW2  221   0.963   0.422   0.933
   73SOL     OW  222   0.538   0.050   0.496
   73SOL    HW1  223   0.449   0.042   0.543
   73SOL    HW2  224   0.538   0.134   0.441
   74SOL     OW  225   1.415   1.207   0.051
   74SOL    HW1  226   1.443   1.128   0.106
   74SOL    HW2  227   1.320   1.231   0.073
   75SOL     OW  228   0.302   0.075   0.194
   75SOL    HW1  229   0.375   0.141   0.179
   75SOL    HW2  230   0.342   2.985   0.214
   76SOL     OW  231   0.942   0.250   0.474
   76SOL    HW1  232   0.908   0.290   0.389
   76SOL    HW2  233   1.042   0.255   0.475
   77SOL     OW  234   1.080   0.678   1.461
   77SOL    HW1  235   1.001   0.617   1.466
   77SOL    HW2  236   1.163   0.623   1.450
   78SOL     OW  237   1.226   1.569   0.794
   78SOL    HW1  238   1.243   1.639   0.725
   78SOL    HW2  239   1.295   1.575   0.866
   79SOL     OW  240   0.464   1.145   0.740
   79SOL    HW1  241   0.390   1.128   0.805
   79SOL    HW2  242   0.430   1.131   0.647
   80SOL     OW  243   1.271   1.796   0.600
   80SOL    HW1  244   1.318   1.859   0.538
   80SOL    HW2  245   1.206   1.847   0.656
   81SOL     OW  246   1.039   0.507   0.027
   81SOL    HW1  247   0.994   0.594   0.005
   81SOL    HW2  248   1.110   0.523   0.096
   82SOL     OW  249   0.082   0.562   1.391
   82SOL    HW1  250   0.174   0.558   1.350
   82SOL    HW2  251   0.081   0.630   1.464
   83SOL     OW  252   0.574   0.218   1.174
   83SOL    HW1  253   0.613   0.152   1.237
   83SOL    HW2  254   0.478   0.233   1.195
   84SOL     OW  255   0.876   0.466   0.638
   84SOL    HW1  256   0.821   0.523   0.576
   84SOL    HW2  257   0.887   0.375   0.599
   85SOL     OW  258   0.999   0.050   0.765
   85SOL    HW1  259   0.959   0.060   0.674
   85SOL    HW2  260   0.981   2.958   0.800
   86SOL     OW  261   1.437   1.164   0.859
   86SOL    HW1  262   1.367   1.093   0.861
   86SOL    HW2  263   1.461   1.185   0.764
   87SOL     OW  264   1.471   0.597   0.985
   87SOL    HW1  265   1.419   0.512   0.989
   87SOL    HW2  266   1.536   0.600   1.061
   88SOL     OW  267   1.847   0.822   0.382
   88SOL    HW1  268   1.904   0.762   0.440
   88SOL    HW2  269   1.817   0.771   0.301
   89SOL     OW  270   0.489   1.402   0.159
   89SOL    HW1  271   0.417   1.374   0.223
   89SOL    HW2  272   0.450   1.409   0.067
   90SOL     OW  273   1.667   1.268   0.653
   90SOL    HW1  274   1.767   1.272   0.661
   90SOL    HW2  275   1.629   1.358   0.673
   91SOL     OW  276   1.408   0.580   0.100
   91SOL    HW1  277   1.333   0.565   0.164
   91SOL    HW2  278   1.469   0.501   0.101
   92SOL     OW  279   0.530   0.265   0.326
   92SOL    HW1  280   0.566   0.204   0.255
   92SOL    HW2  281   0.509   0.354   0.286
   93SOL     OW  282   1.758   1.216   1.594
   93SOL    HW1  283   1.851   1.185   1.578
   93SOL    HW2  284   1.757   1.316   1.599
   94SOL     OW  285   1.060   1.346   1.331
   94SOL    HW1  286   0.978   1.321   1.384
   94SOL    HW2  287   1.141   1.316   1.380
   95SOL     OW  288   1.123   1.203   1.106
   95SOL    HW1  289   1.070   1.240   1.183
   95SOL    HW2  290   1.083   1.232   1.020
   96SOL     OW  291   1.633   1.098   1.079
   96SOL    HW1  292   1.638   1.172   1.146
   96SOL    HW2  293   1.549   1.108   1.025
   97SOL     OW  294   0.906   0.107   1.393
   97SOL    HW1  295   0.940   0.084   1.302
   97SOL    HW2  296   0.974   0.162   1.441
   98SOL     OW  297   0.981   1.111   1.722
   98SOL    HW1  298   0.884   1.129   1.740
   98SOL    HW2  299   0.989   1.031   1.662
   99SOL     OW  300   0.704   1.058   0.377
   99SOL    HW1  301   0.687   1.051   0.475
   99SOL    HW2  302   0.789   1.009   0.354
  100SOL     OW  303   0.418   0.811   1.250
  100SOL    HW1  304   0.491   0.826   1.316
  100SOL    HW2  305   0.376   0.722   1.266
  101SOL     OW  306   1.272   0.388   1.261
  101SOL    HW1  307   1.304   0.461   1.321
  101SOL    HW2  308   1.175   0.401   1.241
  102SOL     OW  309   0.069   1.568   1.310
  102SOL    HW1  310   0.021   1.656   1.321
  102SOL    HW2  311   0.161   1.575   1.349
  103SOL     OW  312   0.365   1.107   0.492
  103SOL    HW1  313   0.353   1.187   0.433
  103SOL    HW2  314   0.360   1.024   0.437
  104SOL     OW  315   0.557   0.545   0.864
  104SOL    HW1  316   0.576   0.601   0.783
  104SOL    HW2  317   0.619   0.570   0.938
  105SOL     OW  318   1.248   1.348   0.395
  105SOL    HW1  319   1.306   1.424   0.424
  105SOL    HW2  320   1.154   1.366   0.424
  106SOL     OW  321   1.280   1.449   1.152
  106SOL    HW1  322   1.304   1.461   1.249
  106SOL    HW2  323   1.215   1.374   1.143
  107SOL     OW  324   1.584   0.630   0.475
  107SOL    HW1  325   1.540   0.688   0.544
  107SOL    HW2  326   1.633   0.687   0.410
  108SOL     OW  327   0.354   1.522   1.323
  108SOL    HW1  328   0.329   1.480   1.236
  108SOL    HW2  329   0.453   1.537   1.325
  109SOL     OW  330   0.409   0.743   1.601
  109SOL    HW1  331   0.468   0.798   1.541
  109SOL    HW2  332   0.454   0.656   1.621
  110SOL     OW  333   1.596   0.779   1.676
  110SOL    HW1  334   1.503   0.816   1.673
  110SOL    HW2  335   1.652   0.822   1.606
  111SOL     OW  336   1.003   0.107   1.762
  111SOL    HW1  337   1.040   0.195   1.734
  111SOL    HW2  338   1.032   0.036   1.698
  112SOL     OW  339   0.500   0.053   1.749
  112SOL    HW1  340   0.473   2.990   1.676
  112SOL    HW2  341   0.428   0.121   1.762
  113SOL     OW  342   0.582   0.870   1.033
  113SOL    HW1  343   0.615   0.964   1.022
  113SOL    HW2  344   0.519   0.865   1.111
  114SOL     OW  345   1.363   0.859   1.036
  114SOL    HW1  346   1.278   0.860   0.982
  114SOL    HW2  347   1.400   0.766   1.040
  115SOL     OW  348   1.206   0.531   0.274
  115SOL    HW1  349   1.215   0.444   0.324
  115SOL    HW2  350   1.165   0.599   0.335
  116SOL     OW  351   0.322   0.208   1.244
  116SOL    HW1  352   0.287   0.253   1.326
  116SOL    HW2  353   0.275   0.120   1.233
  117SOL     OW  354   0.041   1.305   1.281
  117SOL    HW1  355   0.075   1.254   1.359
  117SOL    HW2  356   0.048   1.403   1.299
  118SOL     OW  357   0.729   0.633   1.062
  118SOL    HW1  358   0.800   0.608   0.996
  118SOL    HW2  359   0.695   0.725   1.041
  119SOL     OW  360   1.732   0.956   1.850
  119SOL    HW1  361   1.684   0.907   1.778
  119SOL    HW2  362   1.670   0.970   1.928
  120SOL     OW  363   0.309   0.065   0.640
  120SOL    HW1  364   0.305   0.159   0.673
  120SOL    HW2  365   0.286   0.003   0.715
  121SOL     OW  366   1.614   0.373   0.370
  121SOL    HW1  367   1.646   0.303   0.433
  121SOL    HW2  368   1.585   0.454   0.421
  122SOL     OW  369   1.024   0.759   0.964
  122SOL    HW1  370   1.029   0.781   1.061
  122SOL    HW2  371   0.995   0.664   0.953
  123SOL     OW  372   0.992   1.569   1.706
  123SOL    HW1  373   0.963   1.610   1.620
  123SOL    HW2  374   1.033   1.479   1.688
  124SOL     OW  375   1.881   1.529   1.628
  124SOL    HW1  376   1.878   1.535   1.528
  124SOL    HW2  377   1.974   1.547   1.660
  125SOL     OW  378   0.353   0.913   1.806
  125SOL    HW1  379   0.435   0.937   1.858
  125SOL    HW2  380   0.378   0.850   1.732
  126SOL     OW  381   1.511   0.293   0.126
  126SOL    HW1  382   1.463   0.206   0.143
  126SOL    HW2  383   1.566   0.316   0.207
  127SOL     OW  384   1.296   0.827   0.036
  127SOL    HW1  385   1.336   0.736   0.052
  127SOL    HW2  386   1.323   0.859   2.946
  128SOL     OW  387   1.066   1.334   0.850
  128SOL    HW1  388   1.067   1.255   0.789
  128SOL    HW2  389   1.130   1.403   0.816
  129SOL     OW  390   0.314   0.810   0.947
  129SOL    HW1  391   0.411   0.835   0.944
  129SOL    HW2  392   0.304   0.720   0.989
  130SOL     OW  393   0.337   0.512   1.013
  130SOL    HW1  394   0.292   0.426   0.991
  130SOL    HW2  395   0.415   0.526   0.952
  131SOL     OW  396   1.141   0.385   1.695
  131SOL    HW1  397   1.093   0.441   1.763
  131SOL    HW2  398   1.234   0.419   1.684
  132SOL     OW  399   1.103   0.253   1.474
  132SOL    HW1  400   1.126   0.305   1.556
  132SOL    HW2  401   1.185   0.242   1.417
  133SOL     OW  402   0.007   1.315   0.174
  133SOL    HW1  403   2.911   1.335   0.153
  133SOL    HW2  404   0.011   1.233   0.231
  134SOL     OW  405   0.099   1.802   0.958
  134SOL    HW1  406   0.051   1.734   0.904
  134SOL    HW2  407   0.189   1.819   0.917
  135SOL     OW  408   0.500   1.573   0.904
  135SOL    HW1  409   0.570   1.639   0.930
  135SOL    HW2  410   0.543   1.499   0.851
  136SOL     OW  411   0.993   0.798   1.231
  136SOL    HW1  412   1.044   0.768   1.312
  136SOL    HW2  413   0.900   0.761   1.235
  137SOL     OW  414   0.047   0.559   1.107
  137SOL    HW1  415   0.135   0.525   1.076
  137SOL    HW2  416   0.038   0.544   1.205
  138SOL     OW  417   0.197   0.517   1.720
  138SOL    HW1  418   0.268   0.488   1.656
  138SOL    HW2  419   0.148   0.596   1.683
  139SOL     OW  420   1.371   0.935   1.658
  139SOL    HW1  421   1.397   1.031   1.666
  139SOL    HW2  422   1.371   0.908   1.562
  140SOL     OW  423   0.818   0.576   0.346
  140SOL    HW1  424   0.826   0.493   0.291
  140SOL    HW2  425   0.733   0.623   0.322
  141SOL     OW  426   1.646   0.603   1.192
  141SOL    HW1  427   1.623   0.541   1.267
  141SOL    HW2  428   1.736   0.579   1.155
  142SOL     OW  429   0.279   1.560   1.749
  142SOL    HW1  430   0.221   1.624   1.798
  142SOL    HW2  431   0.249   1.466   1.768
  143SOL     OW  432   0.687   0.460   1.265
  143SOL    HW1  433   0.642   0.376   1.235
  143SOL    HW2  434   0.695   0.524   1.189
  144SOL     OW  435   0.935   1.684   1.466
  144SOL    HW1  436   0.908   1.643   1.379
  144SOL    HW2  437   0.932   1.783   1.459
  145SOL     OW  438   0.443   0.496   0.204
  145SOL    HW1  439   0.519   0.561   0.214
  145SOL    HW2  440   0.357   0.546   0.194
  146SOL     OW  441   0.161   1.139   1.465
  146SOL    HW1  442   0.151   1.089   1.551
  146SOL    HW2  443   0.171   1.075   1.390
  147SOL     OW  444   1.336   1.052   1.223
  147SOL    HW1  445   1.361   0.984   1.154
  147SOL    HW2  446   1.255   1.102   1.192
  148SOL     OW  447   1.305   0.848   0.309
  148SOL    HW1  448   1.222   0.826   0.361
  148SOL    HW2  449   1.286   0.841   0.211
  149SOL     OW  450   1.760   1.752   1.145
  149SOL    HW1  451   1.828   1.777   1.076
  149SOL    HW2  452   1.736   1.655   1.135
  150SOL     OW  453   1.244   1.732   1.118
  150SOL    HW1  454   1.329   1.751   1.070
  150SOL    HW2  455   1.239   1.635   1.141
  151SOL     OW  456   0.092   1.245   1.028
  151SOL    HW1  457   0.078   1.261   1.126
  151SOL    HW2  458   0.005   1.254   0.980
  152SOL     OW  459   0.683   1.664   1.721
  152SOL    HW1  460   0.624   1.745   1.726
  152SOL    HW2  461   0.741   1.671   1.640
  153SOL     OW  462   0.890   0.086   0.138
  153SOL    HW1  463   0.943   0.065   0.055
  153SOL    HW2  464   0.925   0.031   0.214
  154SOL     OW  465   1.717   0.139   0.506
  154SOL    HW1  466   1.792   0.133   0.441
  154SOL    HW2  467   1.717   0.057   0.564
  155SOL     OW  468   1.391   1.570   0.481
  155SOL    HW1  469   1.457   1.597   0.410
  155SOL    HW2  470   1.341   1.651   0.512
  156SOL     OW  471   0.129   1.796   1.845
  156SOL    HW1  472   0.081   1.723   1.894
  156SOL    HW2  473   0.189   1.844   1.909
  157SOL     OW  474   1.279   0.923   0.667
  157SOL    HW1  475   1.353   0.856   0.677
  157SOL    HW2  476   1.313   1.002   0.616
  158SOL     OW  477   0.820   1.272   1.432
  158SOL    HW1  478   0.798   1.312   1.522
  158SOL    HW2  479   0.745   1.291   1.369
  159SOL     OW  480   0.674   1.606   0.157
  159SOL    HW1  481   0.675   1.629   0.060
  159SOL    HW2  482   0.616   1.526   0.172
  160SOL     OW  483   1.847   0.160   0.965
  160SOL    HW1  484   1.859   0.074   0.915
  160SOL    HW2  485   1.760   0.201   0.940
  161SOL     OW  486   0.269   0.337   0.743
  161SOL    HW1  487   0.178   0.371   0.720
  161SOL    HW2  488   0.270   0.304   0.838
  162SOL     OW  489   1.203   1.606   0.034
  162SOL    HW1  490   1.199   1.513   0.070
  162SOL    HW2  491   1.146   1.612   2.952
  163SOL     OW  492   0.824   1.008   1.373
  163SOL    HW1  493   0.869   0.998   1.284
  163SOL    HW2  494   0.827   1.104   1.401
  164SOL     OW  495   0.919   0.925   0.303
  164SOL    HW1  496   0.983   0.959   0.235
  164SOL    HW2  497   0.961   0.849   0.354
  165SOL     OW  498   1.492   1.603   0.049
  165SOL    HW1  499   1.394   1.621   0.057
  165SOL    HW2  500   1.523   1.628   2.957
  166SOL     OW  501   0.371   1.300   1.490
  166SOL    HW1  502   0.359   1.385   1.439
  166SOL    HW2  503   0.291   1.241   1.476
  167SOL     OW  504   1.045   1.102   0.706
  167SOL    HW1  505   0.972   1.051   0.750
  167SOL    HW2  506   1.109   1.038   0.664
  168SOL     OW  507   1.016   0.240   0.966
  168SOL    HW1  508   1.009   0.191   0.879
  168SOL    HW2  509   1.017   0.173   1.041
  169SOL     OW  510   0.599   1.490   0.485
  169SOL    HW1  511   0.640   1.433   0.413
  169SOL    HW2  512   0.536   1.556   0.443
  170SOL     OW  513   1.720   0.390   1.381
  170SOL    HW1  514   1.791   0.461   1.378
  170SOL    HW2  515   1.746   0.315   1.319
  171SOL     OW  516   0.260   1.341   0.295
  171SOL    HW1  517   0.168   1.343   0.256
  171SOL    HW2  518   0.260   1.386   0.384
  172SOL     OW  519   0.123   1.014   1.713
  172SOL    HW1  520   0.040   0.979   1.756
  172SOL    HW2  521   0.204   0.976   1.759
  173SOL     OW  522   0.668   0.207   1.493
  173SOL    HW1  523   0.753   0.181   1.448
  173SOL    HW2  524   0.686   0.221   1.591
  174SOL     OW  525   0.071   0.325   0.047
  174SOL    HW1  526   2.973   0.324   0.029
  174SOL    HW2  527   0.112   0.409   0.011
  175SOL     OW  528   1.432   0.857   1.400
  175SOL    HW1  529   1.379   0.917   1.340
  175SOL    HW2  530   1.528   0.860   1.373
  176SOL     OW  531   0.041   0.190   0.293
  176SOL    HW1  532   0.048   0.257   0.219
  176SOL    HW2  533   0.128   0.142   0.302
  177SOL     OW  534   1.184   1.351   0.124
  177SOL    HW1  535   1.088   1.327   0.111
  177SOL    HW2  536   1.209   1.340   0.221
  178SOL     OW  537   0.617   0.834   1.431
  178SOL    HW1  538   0.673   0.916   1.417
  178SOL    HW2  539   0.677   0.755   1.440
  179SOL     OW  540   1.489   1.772   0.974
  179SOL    HW1  541   1.516   1.830   0.896
  179SOL    HW2  542   1.568   1.759   1.033
  180SOL     OW  543   0.716   0.565   1.710
  180SOL    HW1  544   0.749   0.636   1.772
  180SOL    HW2  545   0.764   0.479   1.728
  181SOL     OW  546   1.468   1.187   1.641
  181SOL    HW1  547   1.453   1.202   1.739
  181SOL    HW2  548   1.565   1.196   1.620
  182SOL     OW  549   0.387   1.738   1.562
  182SOL    HW1  550   0.297   1.782   1.552
  182SOL    HW2  551   0.376   1.650   1.608
  183SOL     OW  552   1.674   0.881   1.255
  183SOL    HW1  553   1.662   0.789   1.218
  183SOL    HW2  554   1.665   0.949   1.182
  184SOL     OW  555   1.227   0.316   0.454
  184SOL    HW1  556   1.292   0.240   0.449
  184SOL    HW2  557   1.247   0.371   0.535
  185SOL     OW  558   0.593   0.742   0.660
  185SOL    HW1  559   0.636   0.832   0.649
  185SOL    HW2  560   0.513   0.736   0.600
  186SOL     OW  561   1.764   0.350   1.645
  186SOL    HW1  562   1.747   0.374   1.549
  186SOL    HW2  563   1.681   0.312   1.685
  187SOL     OW  564   1.742   0.933   1.513
  187SOL    HW1  565   1.751   1.030   1.535
  187SOL    HW2  566   1.728   0.922   1.414
  188SOL     OW  567   0.901   1.383   0.059
  188SOL    HW1  568   0.824   1.383   0.123
  188SOL    HW2  569   0.873   1.429   2.974
  189SOL     OW  570   0.658   1.796   0.952
  189SOL    HW1  571   0.630   1.887   0.924
  189SOL    HW2  572   0.757   1.787   0.940
  190SOL     OW  573   0.865   0.963   0.858
  190SOL    HW1  574   0.918   0.889   0.899
  190SOL    HW2  575   0.830   1.023   0.930
  191SOL     OW  576   1.102   1.024   0.093
  191SOL    HW1  577   1.058   1.055   0.009
  191SOL    HW2  578   1.167   0.951   0.072
  192SOL     OW  579   1.857   1.560   0.847
  192SOL    HW1  580   1.781   1.549   0.784
  192SOL    HW2  581   1.854   1.488   0.917
  193SOL     OW  582   0.223   1.305   1.854
  193SOL    HW1  583   0.169   1.226   1.825
  193SOL    HW2  584   0.213   1.319   1.952
  194SOL     OW  585   0.124   1.250   0.662
  194SOL    HW1  586   0.079   1.186   0.724
  194SOL    HW2  587   0.174   1.199   0.592
  195SOL     OW  588   0.678   1.400   1.627
  195SOL    HW1  589   0.596   1.349   1.654
  195SOL    HW2  590   0.673   1.493   1.664
  196SOL     OW  591   1.796   0.179   1.233
  196SOL    HW1  592   1.839   0.100   1.277
  196SOL    HW2  593   1.825   0.183   1.137
  197SOL     OW  594   0.457   0.431   0.540
  197SOL    HW1  595   0.456   0.365   0.465
  197SOL    HW2  596   0.399   0.397   0.615
  198SOL     OW  597   1.700   1.493   1.108
  198SOL    HW1  598   1.617   1.456   1.065
  198SOL    HW2  599   1.727   1.433   1.183
  199SOL     OW  600   0.329   0.550   1.287
  199SOL    HW1  601   0.385   0.495   1.349
  199SOL    HW2  602   0.351   0.526   1.193
  200SOL     OW  603   0.822   1.579   0.683
  200SOL    HW1  604   0.829   1.618   0.591
  200SOL    HW2  605   0.739   1.524   0.689
  201SOL     OW  606   1.428   0.218   1.125
  201SOL    HW1  607   1.458   0.140   1.180
  201SOL    HW2  608   1.375   0.281   1.182
  202SOL     OW  609   1.009   0.030   1.154
  202SOL    HW1  610   0.933   2.983   1.108
  202SOL    HW2  611   1.093   2.977   1.143
  203SOL     OW  612   0.765   1.329   0.312
  203SOL    HW1  613   0.729   1.236   0.324
  203SOL    HW2  614   0.857   1.334   0.351
  204SOL     OW  615   0.623   1.563   1.285
  204SOL    HW1  616   0.622   1.647   1.339
  204SOL    HW2  617   0.713   1.551   1.242
  205SOL     OW  618   1.352   0.055   0.171
  205SOL    HW1  619   1.414   2.992   0.123
  205SOL    HW2  620   1.259   0.019   0.167
  206SOL     OW  621   1.298   0.460   0.686
  206SOL    HW1  622   1.240   0.541   0.691
  206SOL    HW2  623   1.298   0.414   0.775
  207SOL     OW  624   1.605   0.233   0.887
  207SOL    HW1  625   1.520   0.221   0.939
  207SOL    HW2  626   1.595   0.311   0.825
  208SOL     OW  627   0.066   1.088   0.339
  208SOL    HW1  628   0.150   1.054   0.297
  208SOL    HW2  629   2.997   1.014   0.339
  209SOL     OW  630   0.878   1.651   0.347
  209SOL    HW1  631   0.807   1.624   0.281
  209SOL    HW2  632   0.846   1.730   0.399
  210SOL     OW  633   0.234   0.646   1.971
  210SOL    HW1  634   0.164   0.606   2.031
  210SOL    HW2  635   0.231   0.601   1.881
  211SOL     OW  636   0.233   0.250   2.849
  211SOL    HW1  637   0.255   0.244   2.947
  211SOL    HW2  638   0.135   0.238   2.837
  212SOL     OW  639   0.008   0.383   2.520
  212SOL    HW1  640   2.922   0.425   2.550
  212SOL    HW2  641   2.989   0.309   2.457
  213SOL     OW  642   1.553   1.510   2.566
  213SOL    HW1  643   1.507   1.493   2.653
  213SOL    HW2  644   1.485   1.520   2.494
  214SOL     OW  645   1.131   0.702   2.567
  214SOL    HW1  646   1.186   0.783   2.548
  214SOL    HW2  647   1.079   0.716   2.651
  215SOL     OW  648   1.760   0.607   2.093
  215SOL    HW1  649   1.744   0.599   1.995
  215SOL    HW2  650   1.728   0.524   2.139
  216SOL     OW  651   0.755   1.147   2.888
  216SOL    HW1  652   0.685   1.182   2.951
  216SOL    HW2  653   0.806   1.224   2.850
  217SOL     OW  654   0.685   1.011   2.516
  217SOL    HW1  655   0.754   0.992   2.586
  217SOL    HW2  656   0.608   1.060   2.557
  218SOL     OW  657   0.331   1.453   2.930
  218SOL    HW1  658   0.270   1.387   2.885
  218SOL    HW2  659   0.391   1.494   2.861
  219SOL     OW  660   1.615   0.455   2.592
  219SOL    HW1  661   1.533   0.480   2.541
  219SOL    HW2  662   1.631   0.523   2.664
  220SOL     OW  663   0.224   1.712   2.347
  220SOL    HW1  664   0.246   1.798   2.393
  220SOL    HW2  665   0.279   1.703   2.264
  221SOL     OW  666   0.244   1.446   2.391
  221SOL    HW1  667   0.215   1.542   2.389
  221SOL    HW2  668   0.181   1.393   2.447
  222SOL     OW  669   0.239   1.085   2.749
  222SOL    HW1  670   0.258   0.998   2.795
  222SOL    HW2  671   0.192   1.146   2.812
  223SOL     OW  672   0.592   0.979   1.993
  223SOL    HW1  673   0.630   1.037   1.920
  223SOL    HW2  674   0.637   1.001   2.080
  224SOL     OW  675   0.127   0.629   2.436
  224SOL    HW1  676   0.079   0.547   2.465
  224SOL    HW2  677   0.119   0.700   2.506
  225SOL     OW  678   1.842   1.763   2.202
  225SOL    HW1  679   1.897   1.730   2.279
  225SOL    HW2  680   1.869   1.857   2.180
  226SOL     OW  681   0.029   1.597   1.993
  226SOL    HW1  682   0.020   1.498   2.005
  226SOL    HW2  683   2.980   1.643   2.067
  227SOL     OW  684   1.691   0.921   2.496
  227SOL    HW1  685   1.781   0.879   2.485
  227SOL    HW2  686   1.669   0.974   2.414
  228SOL     OW  687   1.646   1.109   2.294
  228SOL    HW1  688   1.732   1.116   2.243
  228SOL    HW2  689   1.649   1.171   2.373
  229SOL     OW  690   0.607   1.377   2.593
  229SOL    HW1  691   0.560   1.290   2.604
  229SOL    HW2  692   0.593   1.411   2.500
  230SOL     OW  693   0.819   0.010   2.359
  230SOL    HW1  694   0.851   0.104   2.353
  230SOL    HW2  695   0.719   0.009   2.364
  231SOL     OW  696   1.534   0.993   2.057
  231SOL    HW1  697   1.460   0.928   2.078
  231SOL    HW2  698   1.573   1.028   2.142
  232SOL     OW  699   1.439   1.422   2.804
  232SOL    HW1  700   1.415   1.427   2.901
  232SOL    HW2  701   1.448   1.327   2.776
  233SOL     OW  702   1.661   1.727   2.439
  233SOL    HW1  703   1.634   1.703   2.346
  233SOL    HW2  704   1.636   1.652   2.501
  234SOL     OW  705   0.596   0.725   2.126
  234SOL    HW1  706   0.611   0.804   2.066
  234SOL    HW2  707   0.527   0.748   2.195
  235SOL     OW  708   1.293   0.332   2.803
  235SOL    HW1  709   1.194   0.318   2.799
  235SOL    HW2  710   1.328   0.296   2.889
  236SOL     OW  711   1.584   1.666   2.171
  236SOL    HW1  712   1.676   1.706   2.170
  236SOL    HW2  713   1.556   1.645   2.078
  237SOL     OW  714   1.046   0.699   2.291
  237SOL    HW1  715   1.065   0.694   2.389
  237SOL    HW2  716   0.962   0.649   2.270
  238SOL     OW  717   0.102   0.818   2.627
  238SOL    HW1  718   0.186   0.808   2.680
  238SOL    HW2  719   0.044   0.887   2.669
  239SOL     OW  720   0.873   0.352   2.053
  239SOL    HW1  721   0.933   0.412   2.000
  239SOL    HW2  722   0.890   0.257   2.028
  240SOL     OW  723   1.372   1.144   2.403
  240SOL    HW1  724   1.455   1.121   2.351
  240SOL    HW2  725   1.317   1.210   2.351
  241SOL     OW  726   0.543   0.193   2.809
  241SOL    HW1  727   0.519   0.252   2.886
  241SOL    HW2  728   0.558   0.250   2.728
  242SOL     OW  729   1.007   1.447   2.335
  242SOL    HW1  730   0.964   1.522   2.285
  242SOL    HW2  731   1.000   1.465   2.433
  243SOL     OW  732   0.354   1.799   2.711
  243SOL    HW1  733   0.402   1.713   2.728
  243SOL    HW2  734   0.415   1.876   2.729
  244SOL     OW  735   1.801   1.063   2.722
  244SOL    HW1  736   1.741   1.046   2.644
  244SOL    HW2  737   1.746   1.064   2.806
  245SOL     OW  738   0.317   0.949   2.103
  245SOL    HW1  739   0.405   0.979   2.067
  245SOL    HW2  740   0.294   0.860   2.063
  246SOL     OW  741   1.470   0.741   2.589
  246SOL    HW1  742   1.463   0.680   2.669
  246SOL    HW2  743   1.553   0.797   2.598
  247SOL     OW  744   1.120   1.774   2.093
  247SOL    HW1  745   1.046   1.731   2.145
  247SOL    HW2  746   1.142   1.717   2.014
  248SOL     OW  747   1.629   1.377   1.950
  248SOL    HW1  748   1.590   1.468   1.939
  248SOL    HW2  749   1.559   1.308   1.932
  249SOL     OW  750   0.468   1.740   2.182
  249SOL    HW1  751   0.502   1.797   2.256
  249SOL    HW2  752   0.543   1.714   2.122
  250SOL     OW  753   1.408   0.108   2.292
  250SOL    HW1  754   1.388   0.075   2.200
  250SOL    HW2  755   1.505   0.129   2.300
  251SOL     OW  756   0.263   1.798   0.098
  251SOL    HW1  757   0.306   1.728   0.155
  251SOL    HW2  758   0.211   1.754   0.025
  252SOL     OW  759   0.941   1.693   2.760
  252SOL    HW1  760   1.024   1.639   2.770
  252SOL    HW2  761   0.883   1.652   2.689
  253SOL     OW  762   0.389   0.692   2.340
  253SOL    HW1  763   0.427   0.601   2.349
  253SOL    HW2  764   0.292   0.691   2.366
  254SOL     OW  765   0.621   0.124   1.974
  254SOL    HW1  766   0.714   0.087   1.982
  254SOL    HW2  767   0.583   0.101   1.884
  255SOL     OW  768   0.805   1.404   2.783
  255SOL    HW1  769   0.897   1.393   2.745
  255SOL    HW2  770   0.737   1.392   2.710
  256SOL     OW  771   0.920   0.515   2.758
  256SOL    HW1  772   0.900   0.497   2.662
  256SOL    HW2  773   0.957   0.433   2.801
  257SOL     OW  774   0.540   0.057   2.363
  257SOL    HW1  775   0.450   0.043   2.404
  257SOL    HW2  776   0.537   0.136   2.301
  258SOL     OW  777   1.428   1.197   1.907
  258SOL    HW1  778   1.464   1.119   1.958
  258SOL    HW2  779   1.337   1.220   1.941
  259SOL     OW  780   0.295   0.033   2.045
  259SOL    HW1  781   0.343   0.116   2.016
  259SOL    HW2  782   0.359   2.969   2.086
  260SOL     OW  783   0.939   0.250   2.331
  260SOL    HW1  784   0.900   0.294   2.251
  260SOL    HW2  785   1.038   0.258   2.329
  261SOL     OW  786   1.221   1.581   2.666
  261SOL    HW1  787   1.244   1.641   2.590
  261SOL    HW2  788   1.303   1.564   2.722
  262SOL     OW  789   0.461   1.144   2.603
  262SOL    HW1  790   0.386   1.129   2.668
  262SOL    HW2  791   0.428   1.128   2.510
  263SOL     OW  792   1.272   1.796   2.463
  263SOL    HW1  793   1.318   1.858   2.400
  263SOL    HW2  794   1.206   1.847   2.518
  264SOL     OW  795   1.024   0.549   1.882
  264SOL    HW1  796   0.983   0.637   1.856
  264SOL    HW2  797   1.093   0.564   1.952
  265SOL     OW  798   0.875   0.465   2.498
  265SOL    HW1  799   0.822   0.522   2.435
  265SOL    HW2  800   0.887   0.374   2.459
  266SOL     OW  801   0.999   0.047   2.625
  266SOL    HW1  802   0.959   0.056   2.534
  266SOL    HW2  803   0.982   2.955   2.660
  267SOL     OW  804   1.439   1.162   2.716
  267SOL    HW1  805   1.363   1.096   2.715
  267SOL    HW2  806   1.463   1.185   2.622
  268SOL     OW  807   1.489   0.583   2.822
  268SOL    HW1  808   1.421   0.510   2.834
  268SOL    HW2  809   1.519   0.614   2.912
  269SOL     OW  810   1.849   0.820   2.242
  269SOL    HW1  811   1.906   0.766   2.304
  269SOL    HW2  812   1.815   0.762   2.168
  270SOL     OW  813   0.492   1.406   2.028
  270SOL    HW1  814   0.411   1.379   2.081
  270SOL    HW2  815   0.471   1.404   1.930
  271SOL     OW  816   1.667   1.268   2.514
  271SOL    HW1  817   1.767   1.272   2.523
  271SOL    HW2  818   1.629   1.358   2.535
  272SOL     OW  819   1.391   0.573   1.935
  272SOL    HW1  820   1.330   0.553   2.011
  272SOL    HW2  821   1.482   0.538   1.955
  273SOL     OW  822   0.529   0.266   2.184
  273SOL    HW1  823   0.563   0.204   2.113
  273SOL    HW2  824   0.513   0.356   2.145
  274SOL     OW  825   1.647   1.102   2.934
  274SOL    HW1  826   1.654   1.174   0.003
  274SOL    HW2  827   1.559   1.108   2.888
  275SOL     OW  828   0.708   1.055   2.234
  275SOL    HW1  829   0.692   1.047   2.333
  275SOL    HW2  830   0.789   1.002   2.209
  276SOL     OW  831   0.358   1.105   2.355
  276SOL    HW1  832   0.358   1.186   2.296
  276SOL    HW2  833   0.361   1.023   2.299
  277SOL     OW  834   0.552   0.546   2.730
  277SOL    HW1  835   0.572   0.597   2.646
  277SOL    HW2  836   0.619   0.571   2.800
  278SOL     OW  837   1.248   1.349   2.253
  278SOL    HW1  838   1.307   1.424   2.284
  278SOL    HW2  839   1.154   1.366   2.285
  279SOL     OW  840   1.584   0.629   2.337
  279SOL    HW1  841   1.539   0.688   2.404
  279SOL    HW2  842   1.631   0.686   2.269
  280SOL     OW  843   0.576   0.869   2.881
  280SOL    HW1  844   0.622   0.955   2.857
  280SOL    HW2  845   0.538   0.876   2.973
  281SOL     OW  846   1.210   0.533   2.136
  281SOL    HW1  847   1.218   0.447   2.186
  281SOL    HW2  848   1.165   0.601   2.193
  282SOL     OW  849   0.731   0.640   2.917
  282SOL    HW1  850   0.799   0.609   2.851
  282SOL    HW2  851   0.696   0.730   2.890
  283SOL     OW  852   0.310   0.065   2.503
  283SOL    HW1  853   0.303   0.159   2.536
  283SOL    HW2  854   0.284   0.002   2.576
  284SOL     OW  855   1.609   0.373   2.233
  284SOL    HW1  856   1.647   0.304   2.295
  284SOL    HW2  857   1.585   0.455   2.284
  285SOL     OW  858   1.020   0.761   2.820
  285SOL    HW1  859   1.028   0.776   2.919
  285SOL    HW2  860   0.994   0.666   2.803
  286SOL     OW  861   1.533   0.275   1.993
  286SOL    HW1  862   1.468   0.202   2.017
  286SOL    HW2  863   1.568   0.316   2.077
  287SOL     OW  864   1.299   0.829   1.898
  287SOL    HW1  865   1.338   0.737   1.906
  287SOL    HW2  866   1.324   0.869   1.810
  288SOL     OW  867   1.056   1.345   2.699
  288SOL    HW1  868   1.065   1.258   2.651
  288SOL    HW2  869   1.133   1.404   2.676
  289SOL     OW  870   0.313   0.811   2.812
  289SOL    HW1  871   0.410   0.836   2.807
  289SOL    HW2  872   0.304   0.719   2.850
  290SOL     OW  873   0.326   0.515   2.871
  290SOL    HW1  874   0.288   0.425   2.849
  290SOL    HW2  875   0.407   0.532   2.815
  291SOL     OW  876   2.998   1.319   2.044
  291SOL    HW1  877   2.901   1.332   2.022
  291SOL    HW2  878   0.009   1.233   2.094
  292SOL     OW  879   0.095   1.812   2.806
  292SOL    HW1  880   0.052   1.731   2.766
  292SOL    HW2  881   0.190   1.819   2.773
  293SOL     OW  882   0.505   1.575   2.762
  293SOL    HW1  883   0.575   1.641   2.787
  293SOL    HW2  884   0.547   1.499   2.711
  294SOL     OW  885   0.984   0.762   0.087
  294SOL    HW1  886   1.037   0.755   0.172
  294SOL    HW2  887   0.887   0.769   0.109
  295SOL     OW  888   0.814   0.570   2.210
  295SOL    HW1  889   0.822   0.490   2.151
  295SOL    HW2  890   0.734   0.624   2.183
  296SOL     OW  891   0.700   0.449   0.099
  296SOL    HW1  892   0.610   0.405   0.092
  296SOL    HW2  893   0.706   0.525   0.035
  297SOL     OW  894   0.468   0.497   2.052
  297SOL    HW1  895   0.532   0.572   2.068
  297SOL    HW2  896   0.375   0.533   2.047
  298SOL     OW  897   1.305   0.855   2.169
  298SOL    HW1  898   1.224   0.827   2.221
  298SOL    HW2  899   1.288   0.842   2.071
  299SOL     OW  900   1.732   1.762   2.971
  299SOL    HW1  901   1.816   1.793   2.927
  299SOL    HW2  902   1.750   1.677   0.021
  300SOL     OW  903   0.076   1.249   2.899
  300SOL    HW1  904   0.052   1.272   2.993
  300SOL    HW2  905   2.998   1.267   2.839
  301SOL     OW  906   1.720   0.140   2.368
  301SOL    HW1  907   1.790   0.132   2.297
  301SOL    HW2  908   1.720   0.057   2.425
  302SOL     OW  909   1.391   1.570   2.343
  302SOL    HW1  910   1.457   1.596   2.272
  302SOL    HW2  911   1.341   1.651   2.373
  303SOL     OW  912   1.279   0.924   2.529
  303SOL    HW1  913   1.352   0.857   2.540
  303SOL    HW2  914   1.313   1.002   2.477
  304SOL     OW  915   0.673   1.612   2.016
  304SOL    HW1  916   0.682   1.627   1.918
  304SOL    HW2  917   0.619   1.529   2.033
  305SOL     OW  918   1.850   0.163   2.816
  305SOL    HW1  919   1.857   0.073   2.774
  305SOL    HW2  920   1.760   0.202   2.798
  306SOL     OW  921   0.272   0.339   2.603
  306SOL    HW1  922   0.180   0.372   2.583
  306SOL    HW2  923   0.274   0.302   2.696
  307SOL     OW  924   1.206   1.607   1.888
  307SOL    HW1  925   1.201   1.515   1.928
  307SOL    HW2  926   1.134   1.617   1.819
  308SOL     OW  927   0.917   0.910   2.149
  308SOL    HW1  928   0.981   0.945   2.080
  308SOL    HW2  929   0.959   0.834   2.198
  309SOL     OW  930   1.498   1.621   1.910
  309SOL    HW1  931   1.399   1.624   1.901
  309SOL    HW2  932   1.540   1.635   1.820
  310SOL     OW  933   1.047   1.101   2.569
  310SOL    HW1  934   0.971   1.051   2.611
  310SOL    HW2  935   1.110   1.037   2.525
  311SOL     OW  936   1.011   0.241   2.815
  311SOL    HW1  937   1.007   0.183   2.734
  311SOL    HW2  938   1.043   0.188   2.893
  312SOL     OW  939   0.599   1.489   2.345
  312SOL    HW1  940   0.640   1.433   2.273
  312SOL    HW2  941   0.534   1.553   2.305
  313SOL     OW  942   0.252   1.349   2.146
  313SOL    HW1  943   0.155   1.344   2.124
  313SOL    HW2  944   0.263   1.389   2.237
  314SOL     OW  945   0.093   0.331   1.913
  314SOL    HW1  946   0.005   0.297   1.880
  314SOL    HW2  947   0.115   0.416   1.866
  315SOL     OW  948   0.033   0.212   2.152
  315SOL    HW1  949   0.064   0.267   2.074
  315SOL    HW2  950   0.100   0.140   2.170
  316SOL     OW  951   1.182   1.345   1.982
  316SOL    HW1  952   1.087   1.315   1.977
  316SOL    HW2  953   1.213   1.342   2.077
  317SOL     OW  954   1.503   1.780   2.828
  317SOL    HW1  955   1.519   1.831   2.744
  317SOL    HW2  956   1.584   1.784   2.886
  318SOL     OW  957   1.718   0.854   0.069
  318SOL    HW1  958   1.639   0.800   0.096
  318SOL    HW2  959   1.688   0.948   0.049
  319SOL     OW  960   1.226   0.316   2.316
  319SOL    HW1  961   1.291   0.240   2.311
  319SOL    HW2  962   1.245   0.372   2.397
  320SOL     OW  963   0.592   0.743   2.523
  320SOL    HW1  964   0.637   0.831   2.510
  320SOL    HW2  965   0.514   0.736   2.461
  321SOL     OW  966   0.865   1.370   1.890
  321SOL    HW1  967   0.817   1.390   1.976
  321SOL    HW2  968   0.886   1.455   1.843
  322SOL     OW  969   0.661   1.797   2.821
  322SOL    HW1  970   0.631   1.886   2.786
  322SOL    HW2  971   0.759   1.786   2.806
  323SOL     OW  972   0.862   0.963   2.718
  323SOL    HW1  973   0.916   0.889   2.759
  323SOL    HW2  974   0.830   1.024   2.791
  324SOL     OW  975   1.081   0.988   1.949
  324SOL    HW1  976   1.054   1.040   1.867
  324SOL    HW2  977   1.160   0.932   1.927
  325SOL     OW  978   1.854   1.562   2.714
  325SOL    HW1  979   1.781   1.548   2.647
  325SOL    HW2  980   1.864   1.479   2.770
  326SOL     OW  981   0.122   1.249   2.521
  326SOL    HW1  982   0.086   1.186   2.590
  326SOL    HW2  983   0.180   1.198   2.457
  327SOL     OW  984   1.811   0.192   0.081
  327SOL    HW1  985   1.833   0.109   0.132
  327SOL    HW2  986   1.829   0.178   2.984
  328SOL     OW  987   0.459   0.431   2.400
  328SOL    HW1  988   0.458   0.365   2.325
  328SOL    HW2  989   0.401   0.398   2.474
  329SOL     OW  990   0.818   1.586   2.542
  329SOL    HW1  991   0.829   1.617   2.448
  329SOL    HW2  992   0.739   1.526   2.549
  330SOL     OW  993   0.771   1.331   2.170
  330SOL    HW1  994   0.731   1.239   2.176
  330SOL    HW2  995   0.859   1.333   2.217
  331SOL     OW  996   1.349   0.048   2.031
  331SOL    HW1  997   1.410   2.991   1.975
  331SOL    HW2  998   1.261   0.002   2.040
  332SOL     OW  999   1.298   0.458   2.550
  332SOL    HW1 1000   1.240   0.539   2.555
  332SOL    HW2 1001   1.299   0.413   2.639
  333SOL     OW 1002   1.602   0.237   2.751
  333SOL    HW1 1003   1.509   0.217   2.784
  333SOL    HW2 1004   1.598   0.313   2.686
  334SOL     OW 1005   0.061   1.083   2.168
  334SOL    HW1 1006   0.154   1.048   2.161
  334SOL    HW2 1007   0.000   1.009   2.198
  335SOL     OW 1008   0.877   1.649   2.209
  335SOL    HW1 1009   0.806   1.625   2.142
  335SOL    HW2 1010   0.848   1.730   2.260
  336SOL     OW 1011   0.230   2.512   0.098
  336SOL    HW1 1012   0.163   2.467   0.157
  336SOL    HW2 1013   0.249   2.454   0.019
  337SOL     OW 1014   0.214   2.137   0.991
  337SOL    HW1 1015   0.251   2.110   1.079
  337SOL    HW2 1016   0.124   2.095   0.978
  338SOL     OW 1017   0.017   2.248   0.641
  338SOL    HW1 1018   2.930   2.284   0.677
  338SOL    HW2 1019   0.000   2.160   0.597
  339SOL     OW 1020   1.134   2.568   0.705
  339SOL    HW1 1021   1.185   2.653   0.690
  339SOL    HW2 1022   1.077   2.577   0.787
  340SOL     OW 1023   1.757   2.461   0.228
  340SOL    HW1 1024   1.749   2.442   0.130
  340SOL    HW2 1025   1.725   2.381   0.280
  341SOL     OW 1026   0.762   0.008   1.029
  341SOL    HW1 1027   0.675   0.032   1.072
  341SOL    HW2 1028   0.792   0.083   0.971
  342SOL     OW 1029   0.861   2.647   1.819
  342SOL    HW1 1030   0.844   2.713   1.892
  342SOL    HW2 1031   0.886   2.695   1.735
  343SOL     OW 1032   0.658   2.848   0.701
  343SOL    HW1 1033   0.754   2.855   0.729
  343SOL    HW2 1034   0.624   2.939   0.678
  344SOL     OW 1035   0.467   2.267   1.491
  344SOL    HW1 1036   0.542   2.201   1.493
  344SOL    HW2 1037   0.380   2.220   1.507
  345SOL     OW 1038   1.614   2.312   0.738
  345SOL    HW1 1039   1.533   2.340   0.686
  345SOL    HW2 1040   1.643   2.388   0.797
  346SOL     OW 1041   0.214   0.307   0.472
  346SOL    HW1 1042   0.224   0.392   0.523
  346SOL    HW2 1043   0.186   0.234   0.534
  347SOL     OW 1044   0.237   2.946   0.879
  347SOL    HW1 1045   0.257   2.860   0.926
  347SOL    HW2 1046   0.195   0.010   0.944
  348SOL     OW 1047   0.616   2.830   0.145
  348SOL    HW1 1048   0.599   2.922   0.110
  348SOL    HW2 1049   0.668   2.835   0.230
  349SOL     OW 1050   1.591   1.976   1.478
  349SOL    HW1 1051   1.589   2.046   1.407
  349SOL    HW2 1052   1.591   2.019   1.568
  350SOL     OW 1053   0.121   2.499   0.568
  350SOL    HW1 1054   0.090   2.408   0.597
  350SOL    HW2 1055   0.114   2.562   0.645
  351SOL     OW 1056   1.698   2.806   0.624
  351SOL    HW1 1057   1.779   2.747   0.631
  351SOL    HW2 1058   1.682   2.829   0.528
  352SOL     OW 1059   0.122   2.608   1.590
  352SOL    HW1 1060   0.220   2.609   1.609
  352SOL    HW2 1061   0.085   2.700   1.598
  353SOL     OW 1062   0.654   0.237   0.685
  353SOL    HW1 1063   0.590   0.171   0.726
  353SOL    HW2 1064   0.604   0.296   0.622
  354SOL     OW 1065   1.300   0.053   1.435
  354SOL    HW1 1066   1.335   2.996   1.361
  354SOL    HW2 1067   1.375   0.103   1.478
  355SOL     OW 1068   0.810   1.863   0.503
  355SOL    HW1 1069   0.855   1.951   0.490
  355SOL    HW2 1070   0.712   1.877   0.514
  356SOL     OW 1071   0.193   2.836   1.257
  356SOL    HW1 1072   0.281   2.788   1.250
  356SOL    HW2 1073   0.119   2.773   1.233
  357SOL     OW 1074   1.524   2.846   0.202
  357SOL    HW1 1075   1.450   2.792   0.242
  357SOL    HW2 1076   1.589   2.871   0.274
  358SOL     OW 1077   0.331   2.112   1.805
  358SOL    HW1 1078   0.388   2.193   1.819
  358SOL    HW2 1079   0.241   2.128   1.846
  359SOL     OW 1080   0.594   2.585   0.268
  359SOL    HW1 1081   0.606   2.665   0.210
  359SOL    HW2 1082   0.524   2.604   0.337
  360SOL     OW 1083   1.281   2.206   0.933
  360SOL    HW1 1084   1.187   2.172   0.936
  360SOL    HW2 1085   1.336   2.155   0.999
  361SOL     OW 1086   0.795   2.474   1.456
  361SOL    HW1 1087   0.766   2.457   1.550
  361SOL    HW2 1088   0.749   2.410   1.394
  362SOL     OW 1089   1.393   2.333   1.678
  362SOL    HW1 1090   1.387   2.381   1.765
  362SOL    HW2 1091   1.464   2.263   1.683
  363SOL     OW 1092   0.962   2.755   1.584
  363SOL    HW1 1093   1.017   2.679   1.551
  363SOL    HW2 1094   0.907   2.793   1.509
  364SOL     OW 1095   0.993   2.274   1.237
  364SOL    HW1 1096   0.912   2.302   1.289
  364SOL    HW2 1097   0.965   2.220   1.158
  365SOL     OW 1098   1.047   2.565   0.424
  365SOL    HW1 1099   1.065   2.561   0.522
  365SOL    HW2 1100   0.963   2.514   0.404
  366SOL     OW 1101   0.101   2.673   0.768
  366SOL    HW1 1102   0.184   2.670   0.823
  366SOL    HW2 1103   0.044   2.750   0.799
  367SOL     OW 1104   0.923   2.197   0.219
  367SOL    HW1 1105   0.930   2.264   0.146
  367SOL    HW2 1106   0.892   2.110   0.181
  368SOL     OW 1107   1.711   2.441   1.827
  368SOL    HW1 1108   1.678   2.525   1.785
  368SOL    HW2 1109   1.733   2.374   1.756
  369SOL     OW 1110   0.545   2.048   0.893
  369SOL    HW1 1111   0.550   2.069   0.990
  369SOL    HW2 1112   0.552   2.133   0.840
  370SOL     OW 1113   1.796   2.911   0.868
  370SOL    HW1 1114   1.739   2.895   0.788
  370SOL    HW2 1115   1.738   2.923   0.949
  371SOL     OW 1116   1.476   2.598   0.726
  371SOL    HW1 1117   1.456   2.542   0.807
  371SOL    HW2 1118   1.552   2.660   0.747
  372SOL     OW 1119   0.228   2.169   1.512
  372SOL    HW1 1120   0.145   2.212   1.478
  372SOL    HW2 1121   0.204   2.087   1.565
  373SOL     OW 1122   1.402   1.968   0.427
  373SOL    HW1 1123   1.386   1.944   0.331
  373SOL    HW2 1124   1.500   1.981   0.443
  374SOL     OW 1125   0.386   2.555   0.477
  374SOL    HW1 1126   0.419   2.460   0.482
  374SOL    HW2 1127   0.289   2.558   0.503
  375SOL     OW 1128   1.541   2.090   1.729
  375SOL    HW1 1129   1.546   2.113   1.826
  375SOL    HW2 1130   1.470   2.022   1.714
  376SOL     OW 1131   0.626   1.986   0.116
  376SOL    HW1 1132   0.722   1.960   0.122
  376SOL    HW2 1133   0.584   1.942   0.037
  377SOL     OW 1134   0.771   2.135   1.751
  377SOL    HW1 1135   0.845   2.068   1.765
  377SOL    HW2 1136   0.711   2.135   1.831
  378SOL     OW 1137   1.343   2.451   1.434
  378SOL    HW1 1138   1.373   2.412   1.521
  378SOL    HW2 1139   1.379   2.544   1.425
  379SOL     OW 1140   0.926   2.371   0.901
  379SOL    HW1 1141   0.900   2.362   0.805
  379SOL    HW2 1142   0.963   2.284   0.934
  380SOL     OW 1143   0.545   1.924   0.507
  380SOL    HW1 1144   0.461   1.924   0.561
  380SOL    HW2 1145   0.547   2.004   0.448
  381SOL     OW 1146   0.940   2.102   0.472
  381SOL    HW1 1147   0.904   2.143   0.388
  381SOL    HW2 1148   1.039   2.111   0.475
  382SOL     OW 1149   1.079   2.542   1.458
  382SOL    HW1 1150   1.000   2.482   1.467
  382SOL    HW2 1151   1.163   2.488   1.452
  383SOL     OW 1152   1.045   2.369   0.024
  383SOL    HW1 1153   0.993   2.451   0.002
  383SOL    HW2 1154   1.109   2.389   0.099
  384SOL     OW 1155   0.085   2.419   1.396
  384SOL    HW1 1156   0.174   2.420   1.349
  384SOL    HW2 1157   0.083   2.491   1.465
  385SOL     OW 1158   0.563   2.086   1.162
  385SOL    HW1 1159   0.604   2.001   1.195
  385SOL    HW2 1160   0.467   2.090   1.191
  386SOL     OW 1161   0.871   2.321   0.639
  386SOL    HW1 1162   0.821   2.383   0.578
  386SOL    HW2 1163   0.891   2.236   0.590
  387SOL     OW 1164   1.014   1.911   0.753
  387SOL    HW1 1165   0.952   1.910   0.675
  387SOL    HW2 1166   0.994   1.834   0.814
  388SOL     OW 1167   1.429   0.000   0.871
  388SOL    HW1 1168   1.358   2.937   0.841
  388SOL    HW2 1169   1.450   0.064   0.798
  389SOL     OW 1170   1.469   2.461   0.987
  389SOL    HW1 1171   1.420   2.373   0.987
  389SOL    HW2 1172   1.536   2.462   1.061
  390SOL     OW 1173   1.837   2.671   0.389
  390SOL    HW1 1174   1.900   2.618   0.445
  390SOL    HW2 1175   1.815   2.620   0.306
  391SOL     OW 1176   1.407   2.442   0.101
  391SOL    HW1 1177   1.332   2.426   0.165
  391SOL    HW2 1178   1.470   2.364   0.102
  392SOL     OW 1179   0.526   2.125   0.326
  392SOL    HW1 1180   0.558   2.066   0.251
  392SOL    HW2 1181   0.507   2.216   0.291
  393SOL     OW 1182   1.783   0.078   1.597
  393SOL    HW1 1183   1.874   0.041   1.577
  393SOL    HW2 1184   1.792   0.172   1.630
  394SOL     OW 1185   1.629   2.958   1.079
  394SOL    HW1 1186   1.647   0.043   1.129
  394SOL    HW2 1187   1.550   2.971   1.019
  395SOL     OW 1188   0.919   1.960   1.401
  395SOL    HW1 1189   0.939   1.937   1.305
  395SOL    HW2 1190   0.999   2.006   1.441
  396SOL     OW 1191   0.415   2.677   1.254
  396SOL    HW1 1192   0.491   2.687   1.318
  396SOL    HW2 1193   0.375   2.586   1.264
  397SOL     OW 1194   1.268   2.243   1.270
  397SOL    HW1 1195   1.303   2.321   1.322
  397SOL    HW2 1196   1.176   2.262   1.239
  398SOL     OW 1197   0.559   2.404   0.863
  398SOL    HW1 1198   0.575   2.461   0.782
  398SOL    HW2 1199   0.620   2.432   0.937
  399SOL     OW 1200   1.580   2.491   0.473
  399SOL    HW1 1201   1.540   2.548   0.544
  399SOL    HW2 1202   1.637   2.548   0.413
  400SOL     OW 1203   0.411   2.604   1.601
  400SOL    HW1 1204   0.470   2.656   1.541
  400SOL    HW2 1205   0.453   2.516   1.623
  401SOL     OW 1206   1.593   2.639   1.676
  401SOL    HW1 1207   1.501   2.676   1.670
  401SOL    HW2 1208   1.651   2.683   1.607
  402SOL     OW 1209   0.998   1.976   1.758
  402SOL    HW1 1210   1.042   2.058   1.723
  402SOL    HW2 1211   1.050   1.895   1.729
  403SOL     OW 1212   0.498   1.908   1.743
  403SOL    HW1 1213   0.460   1.847   1.674
  403SOL    HW2 1214   0.433   1.982   1.762
  404SOL     OW 1215   0.589   2.728   1.039
  404SOL    HW1 1216   0.605   2.823   1.011
  404SOL    HW2 1217   0.518   2.725   1.110
  405SOL     OW 1218   1.353   2.716   1.036
  405SOL    HW1 1219   1.280   2.713   0.968
  405SOL    HW2 1220   1.399   2.627   1.039
  406SOL     OW 1221   1.206   2.394   0.275
  406SOL    HW1 1222   1.214   2.305   0.321
  406SOL    HW2 1223   1.161   2.459   0.336
  407SOL     OW 1224   0.301   2.067   1.240
  407SOL    HW1 1225   0.284   2.103   1.332
  407SOL    HW2 1226   0.284   1.968   1.240
  408SOL     OW 1227   0.055   0.169   1.274
  408SOL    HW1 1228   0.089   0.130   1.360
  408SOL    HW2 1229   0.023   0.262   1.289
  409SOL     OW 1230   0.732   2.495   1.063
  409SOL    HW1 1231   0.800   2.470   0.994
  409SOL    HW2 1232   0.694   2.586   1.041
  410SOL     OW 1233   1.733   2.818   1.845
  410SOL    HW1 1234   1.683   2.767   1.776
  410SOL    HW2 1235   1.676   2.828   1.927
  411SOL     OW 1236   0.301   1.930   0.624
  411SOL    HW1 1237   0.286   2.026   0.650
  411SOL    HW2 1238   0.308   1.874   0.707
  412SOL     OW 1239   1.617   2.234   0.371
  412SOL    HW1 1240   1.642   2.163   0.436
  412SOL    HW2 1241   1.585   2.315   0.420
  413SOL     OW 1242   1.023   2.619   0.968
  413SOL    HW1 1243   1.030   2.638   1.066
  413SOL    HW2 1244   0.995   2.524   0.953
  414SOL     OW 1245   0.354   2.784   1.797
  414SOL    HW1 1246   0.422   2.791   1.869
  414SOL    HW2 1247   0.379   2.711   1.733
  415SOL     OW 1248   1.512   2.157   0.127
  415SOL    HW1 1249   1.468   2.068   0.141
  415SOL    HW2 1250   1.565   2.181   0.209
  416SOL     OW 1251   1.297   2.687   0.038
  416SOL    HW1 1252   1.337   2.596   0.053
  416SOL    HW2 1253   1.324   2.721   2.948
  417SOL     OW 1254   0.315   2.677   0.953
  417SOL    HW1 1255   0.412   2.694   0.938
  417SOL    HW2 1256   0.302   2.584   0.988
  418SOL     OW 1257   0.338   2.376   1.012
  418SOL    HW1 1258   0.292   2.289   0.992
  418SOL    HW2 1259   0.416   2.387   0.950
  419SOL     OW 1260   1.136   2.241   1.681
  419SOL    HW1 1261   1.087   2.299   1.746
  419SOL    HW2 1262   1.230   2.275   1.672
  420SOL     OW 1263   1.159   2.068   1.474
  420SOL    HW1 1264   1.151   2.132   1.550
  420SOL    HW2 1265   1.196   2.116   1.394
  421SOL     OW 1266   0.988   2.669   1.235
  421SOL    HW1 1267   1.042   2.635   1.312
  421SOL    HW2 1268   0.900   2.620   1.232
  422SOL     OW 1269   0.051   2.434   1.113
  422SOL    HW1 1270   0.126   2.383   1.072
  422SOL    HW2 1271   0.034   2.401   1.206
  423SOL     OW 1272   0.199   2.380   1.721
  423SOL    HW1 1273   0.266   2.347   1.655
  423SOL    HW2 1274   0.150   2.459   1.683
  424SOL     OW 1275   1.375   2.807   1.660
  424SOL    HW1 1276   1.409   2.900   1.670
  424SOL    HW2 1277   1.373   2.782   1.563
  425SOL     OW 1278   0.819   2.437   0.346
  425SOL    HW1 1279   0.824   2.354   0.290
  425SOL    HW2 1280   0.735   2.487   0.325
  426SOL     OW 1281   1.646   2.465   1.193
  426SOL    HW1 1282   1.626   2.402   1.267
  426SOL    HW2 1283   1.736   2.443   1.154
  427SOL     OW 1284   0.691   2.319   1.263
  427SOL    HW1 1285   0.641   2.237   1.234
  427SOL    HW2 1286   0.696   2.384   1.188
  428SOL     OW 1287   0.439   2.360   0.210
  428SOL    HW1 1288   0.518   2.420   0.215
  428SOL    HW2 1289   0.357   2.414   0.191
  429SOL     OW 1290   0.162   0.004   1.469
  429SOL    HW1 1291   0.155   2.951   1.554
  429SOL    HW2 1292   0.175   2.941   1.392
  430SOL     OW 1293   1.354   2.908   1.220
  430SOL    HW1 1294   1.365   2.842   1.146
  430SOL    HW2 1295   1.270   2.961   1.205
  431SOL     OW 1296   1.300   2.721   0.310
  431SOL    HW1 1297   1.222   2.682   0.360
  431SOL    HW2 1298   1.290   2.700   0.213
  432SOL     OW 1299   0.898   1.940   0.129
  432SOL    HW1 1300   0.950   1.933   0.044
  432SOL    HW2 1301   0.950   1.898   0.203
  433SOL     OW 1302   1.715   1.999   0.511
  433SOL    HW1 1303   1.798   1.994   0.456
  433SOL    HW2 1304   1.699   1.911   0.557
  434SOL     OW 1305   1.291   2.792   0.680
  434SOL    HW1 1306   1.359   2.719   0.680
  434SOL    HW2 1307   1.307   2.852   0.602
  435SOL     OW 1308   1.840   2.035   0.965
  435SOL    HW1 1309   1.875   1.945   0.938
  435SOL    HW2 1310   1.748   2.048   0.928
  436SOL     OW 1311   0.268   2.181   0.722
  436SOL    HW1 1312   0.183   2.222   0.688
  436SOL    HW2 1313   0.261   2.167   0.821
  437SOL     OW 1314   0.812   2.862   1.371
  437SOL    HW1 1315   0.869   2.836   1.293
  437SOL    HW2 1316   0.835   2.955   1.399
  438SOL     OW 1317   0.906   2.788   0.292
  438SOL    HW1 1318   0.981   2.813   0.230
  438SOL    HW2 1319   0.940   2.721   0.358
  439SOL     OW 1320   1.018   2.100   0.966
  439SOL    HW1 1321   1.011   2.056   0.877
  439SOL    HW2 1322   1.014   2.032   1.039
  440SOL     OW 1323   1.720   2.253   1.380
  440SOL    HW1 1324   1.791   2.323   1.379
  440SOL    HW2 1325   1.748   2.177   1.321
  441SOL     OW 1326   0.115   2.867   1.703
  441SOL    HW1 1327   0.038   2.840   1.761
  441SOL    HW2 1328   0.201   2.850   1.750
  442SOL     OW 1329   0.674   2.059   1.497
  442SOL    HW1 1330   0.760   2.041   1.449
  442SOL    HW2 1331   0.693   2.082   1.592
  443SOL     OW 1332   0.059   2.184   0.049
  443SOL    HW1 1333   2.964   2.193   0.018
  443SOL    HW2 1334   0.114   2.257   0.008
  444SOL     OW 1335   1.434   2.718   1.403
  444SOL    HW1 1336   1.384   2.777   1.339
  444SOL    HW2 1337   1.531   2.719   1.380
  445SOL     OW 1338   0.067   2.054   0.322
  445SOL    HW1 1339   0.050   2.104   0.237
  445SOL    HW2 1340   0.138   1.985   0.307
  446SOL     OW 1341   1.146   0.217   0.099
  446SOL    HW1 1342   1.058   0.233   0.145
  446SOL    HW2 1343   1.220   0.224   0.166
  447SOL     OW 1344   0.614   2.693   1.433
  447SOL    HW1 1345   0.672   2.773   1.416
  447SOL    HW2 1346   0.672   2.612   1.443
  448SOL     OW 1347   0.718   2.427   1.708
  448SOL    HW1 1348   0.749   2.497   1.773
  448SOL    HW2 1349   0.761   2.339   1.730
  449SOL     OW 1350   1.677   2.744   1.254
  449SOL    HW1 1351   1.664   2.652   1.218
  449SOL    HW2 1352   1.661   2.811   1.182
  450SOL     OW 1353   1.224   2.180   0.458
  450SOL    HW1 1354   1.289   2.106   0.444
  450SOL    HW2 1355   1.250   2.233   0.539
  451SOL     OW 1356   0.592   2.592   0.658
  451SOL    HW1 1357   0.627   2.685   0.663
  451SOL    HW2 1358   0.513   2.589   0.596
  452SOL     OW 1359   1.764   2.221   1.647
  452SOL    HW1 1360   1.750   2.234   1.549
  452SOL    HW2 1361   1.692   2.162   1.684
  453SOL     OW 1362   1.736   2.795   1.514
  453SOL    HW1 1363   1.755   2.891   1.538
  453SOL    HW2 1364   1.727   2.787   1.415
  454SOL     OW 1365   0.883   2.829   0.863
  454SOL    HW1 1366   0.921   2.745   0.902
  454SOL    HW2 1367   0.826   2.875   0.931
  455SOL     OW 1368   1.110   2.890   0.082
  455SOL    HW1 1369   1.056   2.894   2.999
  455SOL    HW2 1370   1.172   2.811   0.079
  456SOL     OW 1371   1.812   2.049   1.235
  456SOL    HW1 1372   1.815   1.953   1.264
  456SOL    HW2 1373   1.825   2.055   1.136
  457SOL     OW 1374   0.431   2.292   0.525
  457SOL    HW1 1375   0.462   2.220   0.463
  457SOL    HW2 1376   0.383   2.250   0.603
  458SOL     OW 1377   0.331   2.413   1.287
  458SOL    HW1 1378   0.389   2.358   1.347
  458SOL    HW2 1379   0.348   2.388   1.192
  459SOL     OW 1380   1.431   2.084   1.118
  459SOL    HW1 1381   1.471   2.005   1.164
  459SOL    HW2 1382   1.376   2.137   1.183
  460SOL     OW 1383   1.007   1.885   1.149
  460SOL    HW1 1384   0.944   1.817   1.112
  460SOL    HW2 1385   1.100   1.849   1.150
  461SOL     OW 1386   1.352   1.913   0.164
  461SOL    HW1 1387   1.384   1.866   0.082
  461SOL    HW2 1388   1.262   1.876   0.190
  462SOL     OW 1389   1.299   2.323   0.687
  462SOL    HW1 1390   1.239   2.403   0.692
  462SOL    HW2 1391   1.299   2.276   0.776
  463SOL     OW 1392   1.589   2.073   0.878
  463SOL    HW1 1393   1.518   2.083   0.948
  463SOL    HW2 1394   1.590   2.155   0.821
  464SOL     OW 1395   0.008   2.894   0.285
  464SOL    HW1 1396   0.101   2.922   0.264
  464SOL    HW2 1397   0.006   2.845   0.372
  465SOL     OW 1398   0.225   2.507   1.967
  465SOL    HW1 1399   0.161   2.460   2.028
  465SOL    HW2 1400   0.227   2.459   1.879
  466SOL     OW 1401   0.235   2.125   2.840
  466SOL    HW1 1402   0.270   2.105   2.931
  466SOL    HW2 1403   0.142   2.088   2.832
  467SOL     OW 1404   0.016   2.248   2.502
  467SOL    HW1 1405   2.930   2.283   2.539
  467SOL    HW2 1406   0.001   2.158   2.462
  468SOL     OW 1407   1.134   2.568   2.567
  468SOL    HW1 1408   1.186   2.652   2.551
  468SOL    HW2 1409   1.078   2.578   2.650
  469SOL     OW 1410   1.758   2.469   2.092
  469SOL    HW1 1411   1.743   2.459   1.993
  469SOL    HW2 1412   1.728   2.385   2.138
  470SOL     OW 1413   0.781   0.012   2.882
  470SOL    HW1 1414   0.694   0.022   2.930
  470SOL    HW2 1415   0.798   0.093   2.826
  471SOL     OW 1416   0.659   2.847   2.558
  471SOL    HW1 1417   0.752   2.852   2.594
  471SOL    HW2 1418   0.624   2.939   2.543
  472SOL     OW 1419   1.617   2.312   2.594
  472SOL    HW1 1420   1.534   2.337   2.544
  472SOL    HW2 1421   1.636   2.381   2.664
  473SOL     OW 1422   0.214   0.307   2.335
  473SOL    HW1 1423   0.225   0.392   2.386
  473SOL    HW2 1424   0.188   0.233   2.397
  474SOL     OW 1425   0.236   2.946   2.744
  474SOL    HW1 1426   0.257   2.859   2.787
  474SOL    HW2 1427   0.201   0.010   2.813
  475SOL     OW 1428   0.611   2.825   1.989
  475SOL    HW1 1429   0.601   2.910   1.938
  475SOL    HW2 1430   0.661   2.842   2.073
  476SOL     OW 1431   0.120   2.497   2.429
  476SOL    HW1 1432   0.090   2.407   2.461
  476SOL    HW2 1433   0.117   2.562   2.505
  477SOL     OW 1434   1.697   2.806   2.485
  477SOL    HW1 1435   1.778   2.748   2.494
  477SOL    HW2 1436   1.682   2.827   2.389
  478SOL     OW 1437   0.643   0.243   2.560
  478SOL    HW1 1438   0.589   0.160   2.574
  478SOL    HW2 1439   0.604   0.296   2.484
  479SOL     OW 1440   0.809   1.862   2.363
  479SOL    HW1 1441   0.856   1.950   2.351
  479SOL    HW2 1442   0.712   1.878   2.377
  480SOL     OW 1443   0.208   2.809   0.097
  480SOL    HW1 1444   0.285   2.745   0.104
  480SOL    HW2 1445   0.122   2.758   0.096
  481SOL     OW 1446   1.542   2.838   2.047
  481SOL    HW1 1447   1.464   2.785   2.080
  481SOL    HW2 1448   1.590   2.879   2.124
  482SOL     OW 1449   0.596   2.584   2.127
  482SOL    HW1 1450   0.609   2.662   2.067
  482SOL    HW2 1451   0.527   2.606   2.196
  483SOL     OW 1452   1.294   2.195   2.804
  483SOL    HW1 1453   1.196   2.177   2.799
  483SOL    HW2 1454   1.330   2.160   2.890
  484SOL     OW 1455   1.049   2.561   2.290
  484SOL    HW1 1456   1.064   2.558   2.389
  484SOL    HW2 1457   0.963   2.514   2.268
  485SOL     OW 1458   0.103   2.674   2.628
  485SOL    HW1 1459   0.186   2.669   2.684
  485SOL    HW2 1460   0.044   2.747   2.663
  486SOL     OW 1461   0.880   2.208   2.056
  486SOL    HW1 1462   0.929   2.273   1.998
  486SOL    HW2 1463   0.898   2.115   2.024
  487SOL     OW 1464   0.552   2.049   2.762
  487SOL    HW1 1465   0.524   2.074   2.855
  487SOL    HW2 1466   0.557   2.132   2.706
  488SOL     OW 1467   1.797   2.913   2.729
  488SOL    HW1 1468   1.738   2.895   2.651
  488SOL    HW2 1469   1.742   2.920   2.812
  489SOL     OW 1470   1.475   2.600   2.587
  489SOL    HW1 1471   1.460   2.540   2.666
  489SOL    HW2 1472   1.554   2.659   2.604
  490SOL     OW 1473   1.401   1.969   2.289
  490SOL    HW1 1474   1.385   1.942   2.194
  490SOL    HW2 1475   1.500   1.981   2.304
  491SOL     OW 1476   0.392   2.553   2.340
  491SOL    HW1 1477   0.417   2.456   2.350
  491SOL    HW2 1478   0.294   2.564   2.359
  492SOL     OW 1479   0.623   1.987   1.970
  492SOL    HW1 1480   0.710   1.939   1.985
  492SOL    HW2 1481   0.580   1.952   1.887
  493SOL     OW 1482   0.921   2.378   2.758
  493SOL    HW1 1483   0.899   2.357   2.662
  493SOL    HW2 1484   0.961   2.297   2.801
  494SOL     OW 1485   0.545   1.925   2.369
  494SOL    HW1 1486   0.461   1.924   2.423
  494SOL    HW2 1487   0.546   2.006   2.310
  495SOL     OW 1488   0.294   1.904   2.041
  495SOL    HW1 1489   0.349   1.981   2.009
  495SOL    HW2 1490   0.353   1.837   2.085
  496SOL     OW 1491   0.937   2.102   2.329
  496SOL    HW1 1492   0.897   2.149   2.251
  496SOL    HW2 1493   1.036   2.114   2.328
  497SOL     OW 1494   1.028   2.409   1.879
  497SOL    HW1 1495   0.981   2.494   1.854
  497SOL    HW2 1496   1.093   2.427   1.953
  498SOL     OW 1497   0.870   2.319   2.500
  498SOL    HW1 1498   0.822   2.383   2.440
  498SOL    HW2 1499   0.890   2.235   2.450
  499SOL     OW 1500   1.012   1.910   2.615
  499SOL    HW1 1501   0.952   1.909   2.535
  499SOL    HW2 1502   0.993   1.830   2.672
  500SOL     OW 1503   1.425   0.005   2.735
  500SOL    HW1 1504   1.354   2.941   2.704
  500SOL    HW2 1505   1.452   0.064   2.659
  501SOL     OW 1506   1.488   2.446   2.822
  501SOL    HW1 1507   1.420   2.374   2.835
  501SOL    HW2 1508   1.521   2.477   2.911
  502SOL     OW 1509   1.841   2.671   2.251
  502SOL    HW1 1510   1.902   2.619   2.310
  502SOL    HW2 1511   1.815   2.617   2.172
  503SOL     OW 1512   1.391   2.436   1.935
  503SOL    HW1 1513   1.331   2.414   2.012
  503SOL    HW2 1514   1.483   2.404   1.954
  504SOL     OW 1515   0.529   2.125   2.184
  504SOL    HW1 1516   0.563   2.066   2.110
  504SOL    HW2 1517   0.514   2.217   2.149
  505SOL     OW 1518   1.628   2.965   2.938
  505SOL    HW1 1519   1.640   0.044   2.998
  505SOL    HW2 1520   1.550   2.981   2.878
  506SOL     OW 1521   0.557   2.401   2.726
  506SOL    HW1 1522   0.572   2.459   2.646
  506SOL    HW2 1523   0.617   2.431   2.801
  507SOL     OW 1524   1.579   2.490   2.333
  507SOL    HW1 1525   1.540   2.548   2.405
  507SOL    HW2 1526   1.636   2.546   2.272
  508SOL     OW 1527   0.575   2.726   2.881
  508SOL    HW1 1528   0.621   2.811   2.855
  508SOL    HW2 1529   0.542   2.733   2.976
  509SOL     OW 1530   1.208   2.391   2.135
  509SOL    HW1 1531   1.218   2.307   2.188
  509SOL    HW2 1532   1.163   2.460   2.191
  510SOL     OW 1533   0.322   2.062   0.085
  510SOL    HW1 1534   0.305   2.112   0.170
  510SOL    HW2 1535   0.295   1.967   0.096
  511SOL     OW 1536   0.732   2.502   2.917
  511SOL    HW1 1537   0.798   2.472   2.848
  511SOL    HW2 1538   0.693   2.590   2.890
  512SOL     OW 1539   0.302   1.931   2.485
  512SOL    HW1 1540   0.285   2.026   2.511
  512SOL    HW2 1541   0.306   1.874   2.568
  513SOL     OW 1542   1.613   2.233   2.233
  513SOL    HW1 1543   1.642   2.164   2.299
  513SOL    HW2 1544   1.586   2.316   2.281
  514SOL     OW 1545   1.021   2.621   2.823
  514SOL    HW1 1546   1.029   2.634   2.922
  514SOL    HW2 1547   0.994   2.527   2.803
  515SOL     OW 1548   1.532   2.135   1.991
  515SOL    HW1 1549   1.465   2.065   2.016
  515SOL    HW2 1550   1.567   2.178   2.074
  516SOL     OW 1551   1.297   2.690   1.897
  516SOL    HW1 1552   1.338   2.598   1.906
  516SOL    HW2 1553   1.324   2.729   1.809
  517SOL     OW 1554   0.313   2.674   2.810
  517SOL    HW1 1555   0.411   2.696   2.806
  517SOL    HW2 1556   0.301   2.582   2.849
  518SOL     OW 1557   0.325   2.381   2.866
  518SOL    HW1 1558   0.289   2.289   2.853
  518SOL    HW2 1559   0.408   2.393   2.811
  519SOL     OW 1560   0.988   2.626   0.088
  519SOL    HW1 1561   1.036   2.612   0.175
  519SOL    HW2 1562   0.890   2.632   0.105
  520SOL     OW 1563   0.816   2.431   2.210
  520SOL    HW1 1564   0.819   2.350   2.151
  520SOL    HW2 1565   0.737   2.487   2.185
  521SOL     OW 1566   0.700   2.315   0.105
  521SOL    HW1 1567   0.622   2.254   0.090
  521SOL    HW2 1568   0.701   2.386   0.035
  522SOL     OW 1569   0.468   2.359   2.050
  522SOL    HW1 1570   0.532   2.433   2.070
  522SOL    HW2 1571   0.375   2.395   2.049
  523SOL     OW 1572   1.301   2.723   2.170
  523SOL    HW1 1573   1.223   2.686   2.220
  523SOL    HW2 1574   1.289   2.704   2.072
  524SOL     OW 1575   1.717   2.000   2.373
  524SOL    HW1 1576   1.796   1.992   2.313
  524SOL    HW2 1577   1.700   1.912   2.418
  525SOL     OW 1578   1.291   2.794   2.542
  525SOL    HW1 1579   1.358   2.720   2.544
  525SOL    HW2 1580   1.308   2.851   2.461
  526SOL     OW 1581   1.840   2.038   2.821
  526SOL    HW1 1582   1.875   1.947   2.797
  526SOL    HW2 1583   1.746   2.048   2.788
  527SOL     OW 1584   0.269   2.182   2.579
  527SOL    HW1 1585   0.183   2.223   2.549
  527SOL    HW2 1586   0.266   2.166   2.678
  528SOL     OW 1587   0.908   2.759   2.123
  528SOL    HW1 1588   0.983   2.809   2.079
  528SOL    HW2 1589   0.945   2.703   2.198
  529SOL     OW 1590   1.030   2.103   2.812
  529SOL    HW1 1591   1.015   2.052   2.728
  529SOL    HW2 1592   1.013   2.043   2.891
  530SOL     OW 1593   0.091   2.189   1.916
  530SOL    HW1 1594   0.004   2.155   1.881
  530SOL    HW2 1595   0.113   2.276   1.871
  531SOL     OW 1596   0.070   2.053   2.180
  531SOL    HW1 1597   0.063   2.110   2.099
  531SOL    HW2 1598   0.142   1.985   2.168
  532SOL     OW 1599   1.145   0.247   1.992
  532SOL    HW1 1600   1.090   0.167   1.967
  532SOL    HW2 1601   1.214   0.221   2.059
  533SOL     OW 1602   1.725   2.711   0.058
  533SOL    HW1 1603   1.650   2.657   0.096
  533SOL    HW2 1604   1.695   2.806   0.049
  534SOL     OW 1605   1.222   2.181   2.319
  534SOL    HW1 1606   1.288   2.106   2.306
  534SOL    HW2 1607   1.247   2.234   2.400
  535SOL     OW 1608   0.593   2.591   2.520
  535SOL    HW1 1609   0.628   2.684   2.526
  535SOL    HW2 1610   0.515   2.588   2.458
  536SOL     OW 1611   0.878   2.825   2.721
  536SOL    HW1 1612   0.922   2.745   2.761
  536SOL    HW2 1613   0.838   2.882   2.793
  537SOL     OW 1614   1.098   2.867   1.952
  537SOL    HW1 1615   1.057   2.902   1.868
  537SOL    HW2 1616   1.161   2.792   1.930
  538SOL     OW 1617   1.828   2.055   0.091
  538SOL    HW1 1618   1.804   1.962   0.118
  538SOL    HW2 1619   1.829   2.062   2.991
  539SOL     OW 1620   0.428   2.290   2.382
  539SOL    HW1 1621   0.461   2.216   2.324
  539SOL    HW2 1622   0.382   2.252   2.462
  540SOL     OW 1623   1.350   1.915   2.027
  540SOL    HW1 1624   1.382   1.864   1.947
  540SOL    HW2 1625   1.260   1.880   2.055
  541SOL     OW 1626   1.297   2.320   2.550
  541SOL    HW1 1627   1.240   2.403   2.556
  541SOL    HW2 1628   1.300   2.276   2.639
  542SOL     OW 1629   1.588   2.078   2.740
  542SOL    HW1 1630   1.503   2.086   2.792
  542SOL    HW2 1631   1.597   2.156   2.679
  543SOL     OW 1632   0.024   2.928   2.153
  543SOL    HW1 1633   0.124   2.925   2.149
  543SOL    HW2 1634   2.991   2.866   2.224
  544SOL     OW 1635   2.091   0.634   0.117
  544SOL    HW1 1636   1.995   0.627   0.144
  544SOL    HW2 1637   2.104   0.594   0.026
  545SOL     OW 1638   2.079   0.281   1.003
  545SOL    HW1 1639   2.115   0.251   1.091
  545SOL    HW2 1640   1.988   0.241   0.989
  546SOL     OW 1641   1.866   0.379   0.644
  546SOL    HW1 1642   1.781   0.409   0.689
  546SOL    HW2 1643   1.846   0.303   0.583
  547SOL     OW 1644   2.427   1.278   1.171
  547SOL    HW1 1645   2.336   1.277   1.129
  547SOL    HW2 1646   2.446   1.368   1.209
  548SOL     OW 1647   2.620   1.146   1.030
  548SOL    HW1 1648   2.548   1.175   1.093
  548SOL    HW2 1649   2.662   1.226   0.987
  549SOL     OW 1650   2.717   0.785   1.817
  549SOL    HW1 1651   2.710   0.855   1.888
  549SOL    HW2 1652   2.741   0.828   1.730
  550SOL     OW 1653   2.547   1.010   0.655
  550SOL    HW1 1654   2.613   0.990   0.727
  550SOL    HW2 1655   2.470   1.061   0.694
  551SOL     OW 1656   2.565   1.156   1.808
  551SOL    HW1 1657   2.618   1.238   1.831
  551SOL    HW2 1658   2.476   1.184   1.772
  552SOL     OW 1659   2.192   1.432   1.067
  552SOL    HW1 1660   2.116   1.394   1.014
  552SOL    HW2 1661   2.251   1.486   1.006
  553SOL     OW 1662   2.309   0.399   1.492
  553SOL    HW1 1663   2.389   0.339   1.495
  553SOL    HW2 1664   2.226   0.344   1.504
  554SOL     OW 1665   2.085   1.713   0.476
  554SOL    HW1 1666   2.108   1.792   0.533
  554SOL    HW2 1667   2.155   1.702   0.405
  555SOL     OW 1668   2.981   1.345   1.689
  555SOL    HW1 1669   0.038   1.351   1.771
  555SOL    HW2 1670   2.934   1.256   1.688
  556SOL     OW 1671   2.087   1.441   0.536
  556SOL    HW1 1672   2.075   1.540   0.542
  556SOL    HW2 1673   2.023   1.395   0.598
  557SOL     OW 1674   2.113   1.089   0.891
  557SOL    HW1 1675   2.116   0.999   0.934
  557SOL    HW2 1676   2.055   1.150   0.946
  558SOL     OW 1677   2.478   1.790   1.435
  558SOL    HW1 1678   2.390   1.771   1.478
  558SOL    HW2 1679   2.505   1.885   1.456
  559SOL     OW 1680   2.459   0.974   0.144
  559SOL    HW1 1681   2.473   1.050   0.080
  559SOL    HW2 1682   2.499   0.998   0.232
  560SOL     OW 1683   1.980   0.645   0.564
  560SOL    HW1 1684   1.934   0.558   0.582
  560SOL    HW2 1685   1.972   0.704   0.644
  561SOL     OW 1686   1.877   1.587   0.122
  561SOL    HW1 1687   1.888   1.492   0.150
  561SOL    HW2 1688   1.877   1.646   0.203
  562SOL     OW 1689   1.981   0.741   1.588
  562SOL    HW1 1690   2.077   0.751   1.612
  562SOL    HW2 1691   1.936   0.830   1.589
  563SOL     OW 1692   2.471   1.379   0.733
  563SOL    HW1 1693   2.425   1.291   0.745
  563SOL    HW2 1694   2.457   1.413   0.640
  564SOL     OW 1695   2.681   0.014   0.505
  564SOL    HW1 1696   2.711   0.109   0.494
  564SOL    HW2 1697   2.581   0.010   0.503
  565SOL     OW 1698   2.056   0.972   1.263
  565SOL    HW1 1699   2.144   0.926   1.251
  565SOL    HW2 1700   1.983   0.911   1.234
  566SOL     OW 1701   2.186   0.254   1.799
  566SOL    HW1 1702   2.245   0.332   1.818
  566SOL    HW2 1703   2.096   0.270   1.841
  567SOL     OW 1704   2.455   0.724   0.266
  567SOL    HW1 1705   2.469   0.806   0.210
  567SOL    HW2 1706   2.386   0.742   0.336
  568SOL     OW 1707   2.652   0.622   1.456
  568SOL    HW1 1708   2.627   0.599   1.550
  568SOL    HW2 1709   2.612   0.555   1.393
  569SOL     OW 1710   2.833   0.885   1.572
  569SOL    HW1 1711   2.867   0.795   1.545
  569SOL    HW2 1712   2.780   0.924   1.498
  570SOL     OW 1713   2.845   0.381   1.259
  570SOL    HW1 1714   2.772   0.440   1.294
  570SOL    HW2 1715   2.833   0.369   1.160
  571SOL     OW 1716   2.892   0.711   0.413
  571SOL    HW1 1717   2.932   0.701   0.505
  571SOL    HW2 1718   2.814   0.650   0.404
  572SOL     OW 1719   1.952   0.820   0.774
  572SOL    HW1 1720   2.039   0.807   0.822
  572SOL    HW2 1721   1.906   0.902   0.811
  573SOL     OW 1722   1.994   1.838   1.577
  573SOL    HW1 1723   1.987   1.815   1.674
  573SOL    HW2 1724   1.902   1.849   1.538
  574SOL     OW 1725   2.784   0.340   0.217
  574SOL    HW1 1726   2.776   0.405   0.141
  574SOL    HW2 1727   2.766   0.247   0.184
  575SOL     OW 1728   2.380   0.194   0.913
  575SOL    HW1 1729   2.398   0.209   1.010
  575SOL    HW2 1730   2.406   0.275   0.860
  576SOL     OW 1731   2.862   1.446   0.470
  576SOL    HW1 1732   2.825   1.525   0.421
  576SOL    HW2 1733   2.866   1.467   0.568
  577SOL     OW 1734   2.216   1.804   0.854
  577SOL    HW1 1735   2.262   1.716   0.866
  577SOL    HW2 1736   2.283   1.878   0.868
  578SOL     OW 1737   2.182   0.951   0.241
  578SOL    HW1 1738   2.271   0.973   0.200
  578SOL    HW2 1739   2.151   0.862   0.206
  579SOL     OW 1740   2.324   1.259   1.734
  579SOL    HW1 1741   2.294   1.267   1.638
  579SOL    HW2 1742   2.244   1.260   1.793
  580SOL     OW 1743   2.063   0.293   1.498
  580SOL    HW1 1744   1.978   0.345   1.489
  580SOL    HW2 1745   2.053   0.226   1.572
  581SOL     OW 1746   2.329   1.729   0.330
  581SOL    HW1 1747   2.359   1.797   0.397
  581SOL    HW2 1748   2.399   1.718   0.259
  582SOL     OW 1749   2.120   1.793   1.233
  582SOL    HW1 1750   2.171   1.727   1.287
  582SOL    HW2 1751   2.097   1.754   1.144
  583SOL     OW 1752   2.801   1.696   0.900
  583SOL    HW1 1753   2.869   1.630   0.933
  583SOL    HW2 1754   2.748   1.655   0.826
  584SOL     OW 1755   2.251   0.692   0.478
  584SOL    HW1 1756   2.288   0.600   0.488
  584SOL    HW2 1757   2.154   0.692   0.503
  585SOL     OW 1758   2.474   0.109   0.111
  585SOL    HW1 1759   2.574   0.110   0.123
  585SOL    HW2 1760   2.452   0.125   0.015
  586SOL     OW 1761   2.637   0.274   1.753
  586SOL    HW1 1762   2.705   0.203   1.773
  586SOL    HW2 1763   2.571   0.278   1.829
  587SOL     OW 1764   2.743   1.516   1.192
  587SOL    HW1 1765   2.720   1.484   1.100
  587SOL    HW2 1766   2.805   1.451   1.236
  588SOL     OW 1767   2.669   1.404   0.932
  588SOL    HW1 1768   2.759   1.393   0.890
  588SOL    HW2 1769   2.598   1.396   0.862
  589SOL     OW 1770   2.784   0.505   0.902
  589SOL    HW1 1771   2.754   0.495   0.808
  589SOL    HW2 1772   2.828   0.421   0.933
  590SOL     OW 1773   2.399   0.051   0.496
  590SOL    HW1 1774   2.311   0.041   0.543
  590SOL    HW2 1775   2.399   0.135   0.442
  591SOL     OW 1776   0.314   1.158   0.046
  591SOL    HW1 1777   0.316   1.094   0.123
  591SOL    HW2 1778   0.240   1.224   0.060
  592SOL     OW 1779   2.164   0.078   0.189
  592SOL    HW1 1780   2.240   0.142   0.181
  592SOL    HW2 1781   2.198   2.987   0.213
  593SOL     OW 1782   2.817   0.247   0.470
  593SOL    HW1 1783   2.766   0.292   0.396
  593SOL    HW2 1784   2.901   0.208   0.433
  594SOL     OW 1785   0.081   1.577   0.799
  594SOL    HW1 1786   0.107   1.623   0.714
  594SOL    HW2 1787   0.164   1.554   0.851
  595SOL     OW 1788   2.326   1.145   0.738
  595SOL    HW1 1789   2.253   1.128   0.805
  595SOL    HW2 1790   2.291   1.129   0.646
  596SOL     OW 1791   2.892   0.516   0.021
  596SOL    HW1 1792   2.843   0.600   2.996
  596SOL    HW2 1793   2.949   0.534   0.101
  597SOL     OW 1794   1.938   0.558   1.389
  597SOL    HW1 1795   2.032   0.551   1.356
  597SOL    HW2 1796   1.932   0.630   1.459
  598SOL     OW 1797   2.428   0.219   1.175
  598SOL    HW1 1798   2.467   0.152   1.238
  598SOL    HW2 1799   2.332   0.234   1.197
  599SOL     OW 1800   2.744   0.466   0.635
  599SOL    HW1 1801   2.680   0.524   0.585
  599SOL    HW2 1802   2.744   0.374   0.596
  600SOL     OW 1803   2.862   0.051   0.761
  600SOL    HW1 1804   2.820   0.057   0.671
  600SOL    HW2 1805   2.842   2.963   0.803
  601SOL     OW 1806   2.351   1.398   0.156
  601SOL    HW1 1807   2.279   1.372   0.221
  601SOL    HW2 1808   2.311   1.409   0.065
  602SOL     OW 1809   2.394   0.265   0.326
  602SOL    HW1 1810   2.430   0.205   0.254
  602SOL    HW2 1811   2.369   0.353   0.286
  603SOL     OW 1812   2.780   0.110   1.401
  603SOL    HW1 1813   2.807   0.092   1.307
  603SOL    HW2 1814   2.848   0.169   1.445
  604SOL     OW 1815   2.840   1.108   1.726
  604SOL    HW1 1816   2.743   1.132   1.739
  604SOL    HW2 1817   2.847   1.037   1.656
  605SOL     OW 1818   2.565   1.058   0.377
  605SOL    HW1 1819   2.548   1.051   0.475
  605SOL    HW2 1820   2.651   1.012   0.355
  606SOL     OW 1821   2.278   0.812   1.252
  606SOL    HW1 1822   2.353   0.827   1.317
  606SOL    HW2 1823   2.237   0.722   1.268
  607SOL     OW 1824   1.934   1.572   1.337
  607SOL    HW1 1825   1.892   1.651   1.294
  607SOL    HW2 1826   2.033   1.585   1.340
  608SOL     OW 1827   2.222   1.106   0.492
  608SOL    HW1 1828   2.218   1.187   0.433
  608SOL    HW2 1829   2.220   1.024   0.435
  609SOL     OW 1830   2.420   0.545   0.865
  609SOL    HW1 1831   2.437   0.602   0.784
  609SOL    HW2 1832   2.483   0.571   0.938
  610SOL     OW 1833   2.215   1.520   1.321
  610SOL    HW1 1834   2.194   1.477   1.233
  610SOL    HW2 1835   2.313   1.537   1.326
  611SOL     OW 1836   2.273   0.746   1.601
  611SOL    HW1 1837   2.334   0.797   1.541
  611SOL    HW2 1838   2.313   0.656   1.620
  612SOL     OW 1839   2.869   0.114   1.761
  612SOL    HW1 1840   2.896   0.197   1.712
  612SOL    HW2 1841   2.907   0.034   1.713
  613SOL     OW 1842   2.363   0.056   1.748
  613SOL    HW1 1843   2.334   2.988   1.680
  613SOL    HW2 1844   2.289   0.122   1.763
  614SOL     OW 1845   2.441   0.871   1.032
  614SOL    HW1 1846   2.479   0.963   1.023
  614SOL    HW2 1847   2.381   0.867   1.111
  615SOL     OW 1848   0.064   0.533   0.275
  615SOL    HW1 1849   0.086   0.445   0.318
  615SOL    HW2 1850   0.030   0.596   0.344
  616SOL     OW 1851   2.164   0.204   1.246
  616SOL    HW1 1852   2.133   0.245   1.332
  616SOL    HW2 1853   2.139   0.107   1.245
  617SOL     OW 1854   1.905   1.308   1.274
  617SOL    HW1 1855   1.937   1.251   1.350
  617SOL    HW2 1856   1.909   1.404   1.301
  618SOL     OW 1857   2.591   0.633   1.061
  618SOL    HW1 1858   2.666   0.610   1.000
  618SOL    HW2 1859   2.558   0.726   1.041
  619SOL     OW 1860   2.169   0.058   0.640
  619SOL    HW1 1861   2.169   0.156   0.662
  619SOL    HW2 1862   2.151   0.005   0.722
  620SOL     OW 1863   2.866   0.768   0.972
  620SOL    HW1 1864   2.897   0.779   1.066
  620SOL    HW2 1865   2.868   0.671   0.948
  621SOL     OW 1866   2.834   1.566   1.702
  621SOL    HW1 1867   2.824   1.611   1.613
  621SOL    HW2 1868   2.892   1.486   1.692
  622SOL     OW 1869   2.214   0.914   1.805
  622SOL    HW1 1870   2.297   0.938   1.856
  622SOL    HW2 1871   2.238   0.851   1.731
  623SOL     OW 1872   2.909   1.343   0.836
  623SOL    HW1 1873   2.909   1.261   0.779
  623SOL    HW2 1874   2.984   1.403   0.809
  624SOL     OW 1875   2.176   0.810   0.947
  624SOL    HW1 1876   2.272   0.838   0.944
  624SOL    HW2 1877   2.169   0.718   0.987
  625SOL     OW 1878   2.198   0.519   1.011
  625SOL    HW1 1879   2.155   0.430   0.995
  625SOL    HW2 1880   2.277   0.529   0.950
  626SOL     OW 1881   2.968   0.372   1.666
  626SOL    HW1 1882   2.915   0.438   1.719
  626SOL    HW2 1883   0.063   0.402   1.660
  627SOL     OW 1884   1.869   1.319   0.186
  627SOL    HW1 1885   1.775   1.337   0.158
  627SOL    HW2 1886   1.874   1.229   0.230
  628SOL     OW 1887   1.954   1.793   0.933
  628SOL    HW1 1888   1.916   1.709   0.895
  628SOL    HW2 1889   2.048   1.804   0.903
  629SOL     OW 1890   2.363   1.573   0.906
  629SOL    HW1 1891   2.433   1.641   0.931
  629SOL    HW2 1892   2.405   1.500   0.852
  630SOL     OW 1893   2.862   0.800   1.248
  630SOL    HW1 1894   2.911   0.742   1.314
  630SOL    HW2 1895   2.770   0.763   1.234
  631SOL     OW 1896   1.899   0.540   1.117
  631SOL    HW1 1897   1.983   0.522   1.066
  631SOL    HW2 1898   1.921   0.554   1.214
  632SOL     OW 1899   2.052   0.519   1.724
  632SOL    HW1 1900   2.111   0.477   1.656
  632SOL    HW2 1901   1.999   0.592   1.682
  633SOL     OW 1902   2.675   0.572   0.347
  633SOL    HW1 1903   2.684   0.489   0.291
  633SOL    HW2 1904   2.591   0.620   0.322
  634SOL     OW 1905   2.128   1.556   1.743
  634SOL    HW1 1906   2.089   1.624   1.806
  634SOL    HW2 1907   2.112   1.464   1.779
  635SOL     OW 1908   2.550   0.461   1.265
  635SOL    HW1 1909   2.505   0.377   1.236
  635SOL    HW2 1910   2.556   0.524   1.188
  636SOL     OW 1911   2.800   1.688   1.461
  636SOL    HW1 1912   2.767   1.640   1.380
  636SOL    HW2 1913   2.784   1.786   1.451
  637SOL     OW 1914   2.309   0.495   0.205
  637SOL    HW1 1915   2.381   0.564   0.217
  637SOL    HW2 1916   2.222   0.540   0.189
  638SOL     OW 1917   2.011   1.136   1.469
  638SOL    HW1 1918   2.022   1.083   1.553
  638SOL    HW2 1919   2.031   1.077   1.391
  639SOL     OW 1920   1.945   1.265   1.013
  639SOL    HW1 1921   1.935   1.275   1.112
  639SOL    HW2 1922   1.871   1.209   0.978
  640SOL     OW 1923   2.540   1.664   1.723
  640SOL    HW1 1924   2.486   1.748   1.722
  640SOL    HW2 1925   2.606   1.666   1.647
  641SOL     OW 1926   2.762   0.084   0.138
  641SOL    HW1 1927   2.811   0.053   0.056
  641SOL    HW2 1928   2.807   0.047   0.219
  642SOL     OW 1929   1.997   1.793   1.845
  642SOL    HW1 1930   1.943   1.725   1.893
  642SOL    HW2 1931   2.051   1.845   1.912
  643SOL     OW 1932   2.683   1.268   1.427
  643SOL    HW1 1933   2.676   1.314   1.515
  643SOL    HW2 1934   2.606   1.295   1.369
  644SOL     OW 1935   2.531   1.609   0.158
  644SOL    HW1 1936   2.539   1.628   0.060
  644SOL    HW2 1937   2.478   1.525   0.171
  645SOL     OW 1938   2.135   0.347   0.752
  645SOL    HW1 1939   2.044   0.371   0.720
  645SOL    HW2 1940   2.130   0.311   0.845
  646SOL     OW 1941   2.688   1.007   1.375
  646SOL    HW1 1942   2.732   0.995   1.286
  646SOL    HW2 1943   2.690   1.104   1.401
  647SOL     OW 1944   2.787   0.936   0.308
  647SOL    HW1 1945   2.838   0.953   0.223
  647SOL    HW2 1946   2.820   0.851   0.349
  648SOL     OW 1947   2.228   1.298   1.491
  648SOL    HW1 1948   2.221   1.382   1.437
  648SOL    HW2 1949   2.149   1.240   1.474
  649SOL     OW 1950   2.909   1.085   0.721
  649SOL    HW1 1951   2.830   1.040   0.761
  649SOL    HW2 1952   2.941   1.033   0.642
  650SOL     OW 1953   2.877   0.237   0.969
  650SOL    HW1 1954   2.873   0.188   0.882
  650SOL    HW2 1955   2.872   0.171   1.044
  651SOL     OW 1956   2.457   1.487   0.484
  651SOL    HW1 1957   2.504   1.433   0.414
  651SOL    HW2 1958   2.401   1.557   0.441
  652SOL     OW 1959   2.125   1.340   0.295
  652SOL    HW1 1960   2.035   1.343   0.251
  652SOL    HW2 1961   2.119   1.385   0.385
  653SOL     OW 1962   1.974   1.015   1.721
  653SOL    HW1 1963   1.893   0.993   1.775
  653SOL    HW2 1964   2.055   0.979   1.767
  654SOL     OW 1965   2.531   0.207   1.492
  654SOL    HW1 1966   2.616   0.183   1.446
  654SOL    HW2 1967   2.547   0.219   1.590
  655SOL     OW 1968   1.917   0.193   0.327
  655SOL    HW1 1969   1.891   0.242   0.243
  655SOL    HW2 1970   2.005   0.149   0.313
  656SOL     OW 1971   2.479   0.836   1.430
  656SOL    HW1 1972   2.535   0.917   1.416
  656SOL    HW2 1973   2.538   0.756   1.439
  657SOL     OW 1974   2.579   0.564   1.708
  657SOL    HW1 1975   2.609   0.634   1.773
  657SOL    HW2 1976   2.624   0.477   1.729
  658SOL     OW 1977   2.247   1.740   1.562
  658SOL    HW1 1978   2.157   1.783   1.552
  658SOL    HW2 1979   2.236   1.651   1.606
  659SOL     OW 1980   2.457   0.742   0.659
  659SOL    HW1 1981   2.498   0.833   0.649
  659SOL    HW2 1982   2.377   0.735   0.599
  660SOL     OW 1983   2.761   1.378   0.061
  660SOL    HW1 1984   2.684   1.384   0.125
  660SOL    HW2 1985   2.743   1.437   2.981
  661SOL     OW 1986   2.521   1.797   0.953
  661SOL    HW1 1987   2.492   1.888   0.925
  661SOL    HW2 1988   2.620   1.788   0.939
  662SOL     OW 1989   2.718   0.960   0.859
  662SOL    HW1 1990   2.770   0.885   0.900
  662SOL    HW2 1991   2.687   1.022   0.931
  663SOL     OW 1992   2.960   1.019   0.074
  663SOL    HW1 1993   2.920   1.052   2.989
  663SOL    HW2 1994   0.018   0.940   0.056
  664SOL     OW 1995   2.087   1.305   1.855
  664SOL    HW1 1996   2.015   1.245   1.822
  664SOL    HW2 1997   2.075   1.322   1.952
  665SOL     OW 1998   1.944   1.236   0.661
  665SOL    HW1 1999   1.943   1.186   0.747
  665SOL    HW2 2000   2.017   1.202   0.602
  666SOL     OW 2001   2.538   1.401   1.625
  666SOL    HW1 2002   2.457   1.350   1.656
  666SOL    HW2 2003   2.536   1.492   1.664
  667SOL     OW 2004   2.331   0.430   0.544
  667SOL    HW1 2005   2.324   0.370   0.465
  667SOL    HW2 2006   2.263   0.403   0.613
  668SOL     OW 2007   2.186   0.547   1.288
  668SOL    HW1 2008   2.244   0.496   1.350
  668SOL    HW2 2009   2.211   0.526   1.193
  669SOL     OW 2010   2.681   1.584   0.683
  669SOL    HW1 2011   2.693   1.613   0.588
  669SOL    HW2 2012   2.601   1.524   0.690
  670SOL     OW 2013   2.854   0.022   1.151
  670SOL    HW1 2014   2.808   2.951   1.098
  670SOL    HW2 2015   2.950   2.997   1.164
  671SOL     OW 2016   2.628   1.329   0.312
  671SOL    HW1 2017   2.595   1.236   0.326
  671SOL    HW2 2018   2.718   1.339   0.355
  672SOL     OW 2019   2.484   1.563   1.285
  672SOL    HW1 2020   2.485   1.647   1.339
  672SOL    HW2 2021   2.574   1.551   1.242
  673SOL     OW 2022   1.903   1.075   0.303
  673SOL    HW1 2023   2.002   1.072   0.286
  673SOL    HW2 2024   1.871   0.984   0.328
  674SOL     OW 2025   2.734   1.649   0.348
  674SOL    HW1 2026   2.665   1.627   0.280
  674SOL    HW2 2027   2.707   1.731   0.399
  675SOL     OW 2028   2.092   0.623   1.982
  675SOL    HW1 2029   1.999   0.624   2.019
  675SOL    HW2 2030   2.089   0.594   1.886
  676SOL     OW 2031   2.085   0.276   2.873
  676SOL    HW1 2032   2.110   0.244   2.964
  676SOL    HW2 2033   1.994   0.241   2.849
  677SOL     OW 2034   1.866   0.379   2.506
  677SOL    HW1 2035   1.782   0.411   2.549
  677SOL    HW2 2036   1.845   0.303   2.445
  678SOL     OW 2037   2.618   1.148   2.888
  678SOL    HW1 2038   2.551   1.181   2.954
  678SOL    HW2 2039   2.666   1.226   2.848
  679SOL     OW 2040   2.547   1.011   2.515
  679SOL    HW1 2041   2.613   0.990   2.588
  679SOL    HW2 2042   2.470   1.061   2.554
  680SOL     OW 2043   2.205   1.432   2.928
  680SOL    HW1 2044   2.121   1.398   2.885
  680SOL    HW2 2045   2.255   1.490   2.863
  681SOL     OW 2046   2.085   1.712   2.340
  681SOL    HW1 2047   2.109   1.792   2.395
  681SOL    HW2 2048   2.148   1.703   2.263
  682SOL     OW 2049   2.091   1.439   2.397
  682SOL    HW1 2050   2.077   1.538   2.401
  682SOL    HW2 2051   2.025   1.393   2.457
  683SOL     OW 2052   2.114   1.091   2.756
  683SOL    HW1 2053   2.112   0.999   2.794
  683SOL    HW2 2054   2.053   1.151   2.808
  684SOL     OW 2055   2.457   0.977   1.992
  684SOL    HW1 2056   2.493   1.038   1.921
  684SOL    HW2 2057   2.498   1.002   2.080
  685SOL     OW 2058   1.980   0.645   2.427
  685SOL    HW1 2059   1.933   0.559   2.443
  685SOL    HW2 2060   1.972   0.704   2.507
  686SOL     OW 2061   1.885   1.599   1.988
  686SOL    HW1 2062   1.874   1.501   2.004
  686SOL    HW2 2063   1.865   1.649   2.072
  687SOL     OW 2064   2.469   1.378   2.592
  687SOL    HW1 2065   2.422   1.290   2.603
  687SOL    HW2 2066   2.455   1.412   2.499
  688SOL     OW 2067   2.682   0.013   2.363
  688SOL    HW1 2068   2.711   0.108   2.355
  688SOL    HW2 2069   2.582   0.008   2.365
  689SOL     OW 2070   2.458   0.726   2.127
  689SOL    HW1 2071   2.471   0.805   2.066
  689SOL    HW2 2072   2.387   0.747   2.194
  690SOL     OW 2073   2.892   0.707   2.282
  690SOL    HW1 2074   2.926   0.697   2.375
  690SOL    HW2 2075   2.812   0.648   2.269
  691SOL     OW 2076   1.951   0.821   2.636
  691SOL    HW1 2077   2.038   0.807   2.685
  691SOL    HW2 2078   1.905   0.901   2.674
  692SOL     OW 2079   2.736   0.347   2.054
  692SOL    HW1 2080   2.790   0.411   1.999
  692SOL    HW2 2081   2.764   0.253   2.034
  693SOL     OW 2082   2.404   0.195   2.807
  693SOL    HW1 2083   2.379   0.250   2.887
  693SOL    HW2 2084   2.413   0.255   2.727
  694SOL     OW 2085   2.862   1.445   2.333
  694SOL    HW1 2086   2.824   1.524   2.284
  694SOL    HW2 2087   2.869   1.466   2.430
  695SOL     OW 2088   2.216   1.802   2.714
  695SOL    HW1 2089   2.262   1.714   2.728
  695SOL    HW2 2090   2.282   1.876   2.729
  696SOL     OW 2091   2.186   0.951   2.108
  696SOL    HW1 2092   2.271   0.978   2.064
  696SOL    HW2 2093   2.151   0.868   2.065
  697SOL     OW 2094   2.330   1.739   2.183
  697SOL    HW1 2095   2.365   1.797   2.256
  697SOL    HW2 2096   2.405   1.713   2.122
  698SOL     OW 2097   2.124   1.799   0.099
  698SOL    HW1 2098   2.169   1.731   0.157
  698SOL    HW2 2099   2.081   1.753   0.022
  699SOL     OW 2100   2.797   1.698   2.761
  699SOL    HW1 2101   2.867   1.637   2.799
  699SOL    HW2 2102   2.750   1.651   2.686
  700SOL     OW 2103   2.252   0.692   2.342
  700SOL    HW1 2104   2.287   0.599   2.350
  700SOL    HW2 2105   2.154   0.692   2.364
  701SOL     OW 2106   2.483   0.124   1.973
  701SOL    HW1 2107   2.576   0.087   1.981
  701SOL    HW2 2108   2.445   0.100   1.884
  702SOL     OW 2109   2.662   1.404   2.783
  702SOL    HW1 2110   2.754   1.395   2.745
  702SOL    HW2 2111   2.595   1.394   2.710
  703SOL     OW 2112   2.783   0.514   2.756
  703SOL    HW1 2113   2.754   0.494   2.662
  703SOL    HW2 2114   2.818   0.431   2.799
  704SOL     OW 2115   2.402   0.058   2.362
  704SOL    HW1 2116   2.313   0.043   2.404
  704SOL    HW2 2117   2.398   0.137   2.301
  705SOL     OW 2118   2.155   0.036   2.055
  705SOL    HW1 2119   2.198   0.115   2.013
  705SOL    HW2 2120   2.225   2.970   2.083
  706SOL     OW 2121   2.813   0.250   2.328
  706SOL    HW1 2122   2.754   0.288   2.257
  706SOL    HW2 2123   2.896   0.213   2.285
  707SOL     OW 2124   0.082   1.574   2.661
  707SOL    HW1 2125   0.109   1.626   2.580
  707SOL    HW2 2126   0.162   1.556   2.718
  708SOL     OW 2127   2.326   1.144   2.601
  708SOL    HW1 2128   2.253   1.129   2.667
  708SOL    HW2 2129   2.291   1.128   2.508
  709SOL     OW 2130   2.889   0.553   1.874
  709SOL    HW1 2131   2.840   0.637   1.852
  709SOL    HW2 2132   2.944   0.567   1.957
  710SOL     OW 2133   2.744   0.465   2.495
  710SOL    HW1 2134   2.679   0.524   2.445
  710SOL    HW2 2135   2.744   0.374   2.454
  711SOL     OW 2136   2.860   0.051   2.622
  711SOL    HW1 2137   2.818   0.052   2.531
  711SOL    HW2 2138   2.844   2.962   2.665
  712SOL     OW 2139   2.354   1.407   2.028
  712SOL    HW1 2140   2.274   1.378   2.080
  712SOL    HW2 2141   2.335   1.399   1.930
  713SOL     OW 2142   2.395   0.267   2.184
  713SOL    HW1 2143   2.425   0.204   2.112
  713SOL    HW2 2144   2.375   0.356   2.144
  714SOL     OW 2145   2.569   1.056   2.234
  714SOL    HW1 2146   2.552   1.048   2.332
  714SOL    HW2 2147   2.651   1.004   2.210
  715SOL     OW 2148   2.222   1.104   2.355
  715SOL    HW1 2149   2.221   1.186   2.296
  715SOL    HW2 2150   2.220   1.022   2.297
  716SOL     OW 2151   2.419   0.543   2.728
  716SOL    HW1 2152   2.435   0.598   2.646
  716SOL    HW2 2153   2.480   0.573   2.801
  717SOL     OW 2154   2.437   0.869   2.880
  717SOL    HW1 2155   2.485   0.953   2.857
  717SOL    HW2 2156   2.402   0.874   2.973
  718SOL     OW 2157   0.058   0.531   2.137
  718SOL    HW1 2158   0.086   0.447   2.185
  718SOL    HW2 2159   0.024   0.598   2.203
  719SOL     OW 2160   2.594   0.642   2.917
  719SOL    HW1 2161   2.662   0.613   2.849
  719SOL    HW2 2162   2.557   0.731   2.890
  720SOL     OW 2163   2.173   0.059   2.504
  720SOL    HW1 2164   2.165   0.156   2.527
  720SOL    HW2 2165   2.150   0.004   2.585
  721SOL     OW 2166   2.872   0.773   2.829
  721SOL    HW1 2167   2.887   0.774   2.928
  721SOL    HW2 2168   2.864   0.678   2.798
  722SOL     OW 2169   2.908   1.342   2.698
  722SOL    HW1 2170   2.911   1.262   2.638
  722SOL    HW2 2171   2.981   1.406   2.672
  723SOL     OW 2172   2.174   0.811   2.812
  723SOL    HW1 2173   2.270   0.836   2.807
  723SOL    HW2 2174   2.166   0.717   2.846
  724SOL     OW 2175   2.190   0.527   2.868
  724SOL    HW1 2176   2.147   0.437   2.860
  724SOL    HW2 2177   2.271   0.530   2.810
  725SOL     OW 2178   1.866   1.323   2.058
  725SOL    HW1 2179   1.776   1.340   2.018
  725SOL    HW2 2180   1.871   1.228   2.090
  726SOL     OW 2181   1.954   1.797   2.793
  726SOL    HW1 2182   1.915   1.711   2.760
  726SOL    HW2 2183   2.049   1.804   2.764
  727SOL     OW 2184   2.367   1.576   2.765
  727SOL    HW1 2185   2.438   1.643   2.787
  727SOL    HW2 2186   2.407   1.501   2.714
  728SOL     OW 2187   2.853   0.765   0.100
  728SOL    HW1 2188   2.897   0.749   0.188
  728SOL    HW2 2189   2.754   0.769   0.112
  729SOL     OW 2190   2.673   0.567   2.209
  729SOL    HW1 2191   2.678   0.485   2.152
  729SOL    HW2 2192   2.593   0.622   2.183
  730SOL     OW 2193   2.565   0.446   0.094
  730SOL    HW1 2194   2.472   0.408   0.098
  730SOL    HW2 2195   2.566   0.525   0.033
  731SOL     OW 2196   2.331   0.497   2.054
  731SOL    HW1 2197   2.392   0.575   2.070
  731SOL    HW2 2198   2.237   0.529   2.043
  732SOL     OW 2199   1.943   1.267   2.884
  732SOL    HW1 2200   1.935   1.272   2.984
  732SOL    HW2 2201   1.867   1.212   2.848
  733SOL     OW 2202   2.532   1.614   2.016
  733SOL    HW1 2203   2.545   1.626   1.917
  733SOL    HW2 2204   2.480   1.530   2.032
  734SOL     OW 2205   2.133   0.339   2.613
  734SOL    HW1 2206   2.044   0.370   2.582
  734SOL    HW2 2207   2.128   0.309   2.708
  735SOL     OW 2208   2.784   0.918   2.155
  735SOL    HW1 2209   2.836   0.937   2.071
  735SOL    HW2 2210   2.819   0.835   2.198
  736SOL     OW 2211   2.909   1.082   2.585
  736SOL    HW1 2212   2.827   1.037   2.621
  736SOL    HW2 2213   2.941   1.033   2.504
  737SOL     OW 2214   2.878   0.235   2.824
  737SOL    HW1 2215   2.872   0.192   2.734
  737SOL    HW2 2216   2.883   0.164   2.895
  738SOL     OW 2217   2.458   1.486   2.345
  738SOL    HW1 2218   2.503   1.433   2.274
  738SOL    HW2 2219   2.398   1.554   2.303
  739SOL     OW 2220   2.116   1.350   2.149
  739SOL    HW1 2221   2.020   1.346   2.122
  739SOL    HW2 2222   2.124   1.388   2.241
  740SOL     OW 2223   1.940   0.341   1.898
  740SOL    HW1 2224   1.848   0.311   1.871
  740SOL    HW2 2225   1.969   0.418   1.840
  741SOL     OW 2226   1.906   0.199   2.164
  741SOL    HW1 2227   1.918   0.270   2.094
  741SOL    HW2 2228   1.985   0.137   2.162
  742SOL     OW 2229   2.456   0.743   2.523
  742SOL    HW1 2230   2.498   0.832   2.510
  742SOL    HW2 2231   2.377   0.734   2.462
  743SOL     OW 2232   2.728   1.369   1.893
  743SOL    HW1 2233   2.677   1.396   1.975
  743SOL    HW2 2234   2.751   1.451   1.840
  744SOL     OW 2235   2.524   1.798   2.822
  744SOL    HW1 2236   2.496   1.887   2.785
  744SOL    HW2 2237   2.622   1.785   2.805
  745SOL     OW 2238   2.715   0.959   2.721
  745SOL    HW1 2239   2.771   0.887   2.761
  745SOL    HW2 2240   2.687   1.023   2.792
  746SOL     OW 2241   2.932   0.957   1.934
  746SOL    HW1 2242   2.907   1.035   1.876
  746SOL    HW2 2243   0.031   0.953   1.944
  747SOL     OW 2244   1.945   1.238   2.524
  747SOL    HW1 2245   1.940   1.185   2.608
  747SOL    HW2 2246   2.017   1.201   2.465
  748SOL     OW 2247   2.327   0.428   2.404
  748SOL    HW1 2248   2.321   0.367   2.325
  748SOL    HW2 2249   2.260   0.400   2.473
  749SOL     OW 2250   2.681   1.585   2.542
  749SOL    HW1 2251   2.694   1.612   2.447
  749SOL    HW2 2252   2.600   1.526   2.549
  750SOL     OW 2253   2.634   1.332   2.170
  750SOL    HW1 2254   2.597   1.239   2.178
  750SOL    HW2 2255   2.720   1.337   2.221
  751SOL     OW 2256   1.905   1.074   2.166
  751SOL    HW1 2257   2.003   1.069   2.147
  751SOL    HW2 2258   1.872   0.983   2.191
  752SOL     OW 2259   2.734   1.646   2.210
  752SOL    HW1 2260   2.664   1.627   2.141
  752SOL    HW2 2261   2.710   1.730   2.259
  753SOL     OW 2262   2.089   2.497   0.112
  753SOL    HW1 2263   1.996   2.480   0.143
  753SOL    HW2 2264   2.104   2.452   0.024
  754SOL     OW 2265   2.085   2.140   0.992
  754SOL    HW1 2266   2.119   2.111   1.081
  754SOL    HW2 2267   1.992   2.105   0.979
  755SOL     OW 2268   1.870   2.244   0.636
  755SOL    HW1 2269   1.785   2.270   0.682
  755SOL    HW2 2270   1.856   2.160   0.585
  756SOL     OW 2271   2.609   0.003   1.021
  756SOL    HW1 2272   2.531   0.035   1.074
  756SOL    HW2 2273   2.653   0.080   0.975
  757SOL     OW 2274   2.715   2.646   1.816
  757SOL    HW1 2275   2.714   2.707   1.894
  757SOL    HW2 2276   2.746   2.695   1.734
  758SOL     OW 2277   2.521   2.847   0.700
  758SOL    HW1 2278   2.616   2.854   0.730
  758SOL    HW2 2279   2.485   2.938   0.680
  759SOL     OW 2280   2.306   2.259   1.495
  759SOL    HW1 2281   2.387   2.201   1.495
  759SOL    HW2 2282   2.224   2.203   1.503
  760SOL     OW 2283   2.102   0.301   0.486
  760SOL    HW1 2284   2.071   0.393   0.509
  760SOL    HW2 2285   2.040   0.234   0.527
  761SOL     OW 2286   2.108   2.948   0.883
  761SOL    HW1 2287   2.121   2.858   0.924
  761SOL    HW2 2288   2.060   0.008   0.947
  762SOL     OW 2289   2.477   2.829   0.145
  762SOL    HW1 2290   2.463   2.922   0.110
  762SOL    HW2 2291   2.533   2.833   0.228
  763SOL     OW 2292   1.976   2.511   0.562
  763SOL    HW1 2293   1.946   2.417   0.579
  763SOL    HW2 2294   1.969   2.564   0.646
  764SOL     OW 2295   1.981   2.604   1.586
  764SOL    HW1 2296   2.077   2.610   1.613
  764SOL    HW2 2297   1.937   2.693   1.597
  765SOL     OW 2298   2.517   0.241   0.682
  765SOL    HW1 2299   2.458   0.173   0.727
  765SOL    HW2 2300   2.461   0.298   0.622
  766SOL     OW 2301   2.672   1.865   0.502
  766SOL    HW1 2302   2.715   1.954   0.491
  766SOL    HW2 2303   2.573   1.877   0.515
  767SOL     OW 2304   2.058   2.840   1.256
  767SOL    HW1 2305   2.144   2.789   1.250
  767SOL    HW2 2306   1.982   2.779   1.238
  768SOL     OW 2307   2.189   2.114   1.806
  768SOL    HW1 2308   2.246   2.195   1.817
  768SOL    HW2 2309   2.097   2.133   1.839
  769SOL     OW 2310   2.456   2.583   0.268
  769SOL    HW1 2311   2.471   2.664   0.210
  769SOL    HW2 2312   2.387   2.604   0.337
  770SOL     OW 2313   2.651   2.484   1.455
  770SOL    HW1 2314   2.627   2.461   1.549
  770SOL    HW2 2315   2.612   2.416   1.393
  771SOL     OW 2316   2.831   2.749   1.577
  771SOL    HW1 2317   2.867   2.660   1.550
  771SOL    HW2 2318   2.774   2.786   1.503
  772SOL     OW 2319   2.846   2.244   1.256
  772SOL    HW1 2320   2.771   2.298   1.293
  772SOL    HW2 2321   2.831   2.227   1.159
  773SOL     OW 2322   2.891   2.575   0.414
  773SOL    HW1 2323   2.932   2.564   0.505
  773SOL    HW2 2324   2.813   2.514   0.404
  774SOL     OW 2325   1.948   2.682   0.777
  774SOL    HW1 2326   2.037   2.668   0.819
  774SOL    HW2 2327   1.907   2.766   0.812
  775SOL     OW 2328   2.788   2.197   0.216
  775SOL    HW1 2329   2.784   2.269   0.147
  775SOL    HW2 2330   2.755   2.111   0.177
  776SOL     OW 2331   2.408   2.049   0.893
  776SOL    HW1 2332   2.412   2.069   0.990
  776SOL    HW2 2333   2.414   2.134   0.841
  777SOL     OW 2334   2.062   2.148   1.500
  777SOL    HW1 2335   1.978   2.200   1.486
  777SOL    HW2 2336   2.049   2.084   1.576
  778SOL     OW 2337   2.247   2.555   0.478
  778SOL    HW1 2338   2.280   2.461   0.482
  778SOL    HW2 2339   2.150   2.557   0.502
  779SOL     OW 2340   2.486   1.985   0.115
  779SOL    HW1 2341   2.583   1.962   0.121
  779SOL    HW2 2342   2.447   1.941   0.034
  780SOL     OW 2343   2.635   2.138   1.754
  780SOL    HW1 2344   2.706   2.069   1.770
  780SOL    HW2 2345   2.567   2.134   1.828
  781SOL     OW 2346   2.785   2.367   0.902
  781SOL    HW1 2347   2.756   2.357   0.807
  781SOL    HW2 2348   2.827   2.282   0.933
  782SOL     OW 2349   2.406   1.924   0.507
  782SOL    HW1 2350   2.324   1.924   0.563
  782SOL    HW2 2351   2.407   2.004   0.448
  783SOL     OW 2352   2.805   2.100   0.468
  783SOL    HW1 2353   2.762   2.149   0.392
  783SOL    HW2 2354   2.898   2.075   0.443
  784SOL     OW 2355   2.883   2.386   0.029
  784SOL    HW1 2356   2.844   2.473   2.997
  784SOL    HW2 2357   2.948   2.404   0.102
  785SOL     OW 2358   1.938   2.420   1.389
  785SOL    HW1 2359   2.032   2.413   1.355
  785SOL    HW2 2360   1.933   2.491   1.459
  786SOL     OW 2361   2.424   2.086   1.162
  786SOL    HW1 2362   2.467   2.002   1.195
  786SOL    HW2 2363   2.329   2.090   1.193
  787SOL     OW 2364   2.741   2.320   0.636
  787SOL    HW1 2365   2.684   2.385   0.585
  787SOL    HW2 2366   2.747   2.234   0.585
  788SOL     OW 2367   2.860   1.920   0.755
  788SOL    HW1 2368   2.808   1.905   0.672
  788SOL    HW2 2369   2.854   1.840   0.814
  789SOL     OW 2370   2.386   2.123   0.325
  789SOL    HW1 2371   2.421   2.066   0.251
  789SOL    HW2 2372   2.370   2.216   0.291
  790SOL     OW 2373   2.762   1.950   1.395
  790SOL    HW1 2374   2.783   1.931   1.299
  790SOL    HW2 2375   2.838   1.998   1.437
  791SOL     OW 2376   2.276   2.676   1.255
  791SOL    HW1 2377   2.353   2.687   1.318
  791SOL    HW2 2378   2.236   2.586   1.265
  792SOL     OW 2379   2.421   2.404   0.863
  792SOL    HW1 2380   2.436   2.462   0.783
  792SOL    HW2 2381   2.483   2.431   0.936
  793SOL     OW 2382   2.275   2.606   1.602
  793SOL    HW1 2383   2.336   2.655   1.541
  793SOL    HW2 2384   2.312   2.515   1.621
  794SOL     OW 2385   2.860   1.985   1.769
  794SOL    HW1 2386   2.894   2.052   1.703
  794SOL    HW2 2387   2.902   1.896   1.751
  795SOL     OW 2388   2.359   1.910   1.744
  795SOL    HW1 2389   2.322   1.849   1.674
  795SOL    HW2 2390   2.294   1.983   1.762
  796SOL     OW 2391   2.448   2.729   1.037
  796SOL    HW1 2392   2.470   2.824   1.013
  796SOL    HW2 2393   2.380   2.728   1.110
  797SOL     OW 2394   0.063   2.398   0.275
  797SOL    HW1 2395   0.083   2.312   0.322
  797SOL    HW2 2396   0.029   2.465   0.341
  798SOL     OW 2397   2.165   2.066   1.243
  798SOL    HW1 2398   2.130   2.103   1.329
  798SOL    HW2 2399   2.145   1.968   1.239
  799SOL     OW 2400   2.591   2.494   1.062
  799SOL    HW1 2401   2.666   2.472   1.000
  799SOL    HW2 2402   2.557   2.586   1.042
  800SOL     OW 2403   2.162   1.928   0.624
  800SOL    HW1 2404   2.147   2.024   0.650
  800SOL    HW2 2405   2.169   1.873   0.707
  801SOL     OW 2406   2.860   2.627   0.980
  801SOL    HW1 2407   2.904   2.631   1.069
  801SOL    HW2 2408   2.864   2.534   0.944
  802SOL     OW 2409   2.220   2.785   1.798
  802SOL    HW1 2410   2.290   2.787   1.869
  802SOL    HW2 2411   2.241   2.712   1.732
  803SOL     OW 2412   2.176   2.674   0.951
  803SOL    HW1 2413   2.273   2.697   0.938
  803SOL    HW2 2414   2.168   2.582   0.987
  804SOL     OW 2415   2.197   2.381   1.009
  804SOL    HW1 2416   2.156   2.291   0.995
  804SOL    HW2 2417   2.277   2.390   0.949
  805SOL     OW 2418   2.972   2.242   1.666
  805SOL    HW1 2419   2.917   2.304   1.722
  805SOL    HW2 2420   0.067   2.273   1.667
  806SOL     OW 2421   2.982   2.061   1.475
  806SOL    HW1 2422   2.971   2.135   1.541
  806SOL    HW2 2423   2.999   2.100   1.384
  807SOL     OW 2424   2.857   2.669   1.257
  807SOL    HW1 2425   2.912   2.607   1.313
  807SOL    HW2 2426   2.772   2.624   1.230
  808SOL     OW 2427   1.898   2.408   1.116
  808SOL    HW1 2428   1.981   2.382   1.066
  808SOL    HW2 2429   1.920   2.415   1.214
  809SOL     OW 2430   2.053   2.381   1.723
  809SOL    HW1 2431   2.111   2.339   1.654
  809SOL    HW2 2432   1.997   2.452   1.681
  810SOL     OW 2433   2.673   2.429   0.352
  810SOL    HW1 2434   2.681   2.353   0.287
  810SOL    HW2 2435   2.594   2.486   0.327
  811SOL     OW 2436   2.550   2.321   1.265
  811SOL    HW1 2437   2.504   2.237   1.235
  811SOL    HW2 2438   2.556   2.385   1.188
  812SOL     OW 2439   2.304   2.358   0.211
  812SOL    HW1 2440   2.380   2.422   0.217
  812SOL    HW2 2441   2.220   2.408   0.188
  813SOL     OW 2442   2.016   2.994   1.473
  813SOL    HW1 2443   2.026   2.939   1.555
  813SOL    HW2 2444   2.034   2.938   1.392
  814SOL     OW 2445   2.761   1.939   0.128
  814SOL    HW1 2446   2.816   1.919   0.047
  814SOL    HW2 2447   2.806   1.900   0.209
  815SOL     OW 2448   2.127   2.180   0.720
  815SOL    HW1 2449   2.041   2.220   0.688
  815SOL    HW2 2450   2.123   2.168   0.819
  816SOL     OW 2451   2.673   2.867   1.372
  816SOL    HW1 2452   2.729   2.838   1.295
  816SOL    HW2 2453   2.700   2.959   1.401
  817SOL     OW 2454   2.753   2.779   0.293
  817SOL    HW1 2455   2.829   2.828   0.251
  817SOL    HW2 2456   2.788   2.711   0.357
  818SOL     OW 2457   2.879   2.100   0.967
  818SOL    HW1 2458   2.874   2.053   0.879
  818SOL    HW2 2459   2.869   2.034   1.041
  819SOL     OW 2460   1.973   2.864   1.713
  819SOL    HW1 2461   1.893   2.856   1.772
  819SOL    HW2 2462   2.055   2.843   1.766
  820SOL     OW 2463   2.532   2.061   1.498
  820SOL    HW1 2464   2.616   2.041   1.448
  820SOL    HW2 2465   2.554   2.085   1.592
  821SOL     OW 2466   1.938   2.022   0.337
  821SOL    HW1 2467   1.902   2.079   0.263
  821SOL    HW2 2468   2.030   1.990   0.314
  822SOL     OW 2469   2.476   2.695   1.432
  822SOL    HW1 2470   2.535   2.775   1.416
  822SOL    HW2 2471   2.533   2.614   1.441
  823SOL     OW 2472   2.579   2.425   1.707
  823SOL    HW1 2473   2.609   2.496   1.771
  823SOL    HW2 2474   2.622   2.338   1.731
  824SOL     OW 2475   2.454   2.591   0.657
  824SOL    HW1 2476   2.490   2.684   0.664
  824SOL    HW2 2477   2.376   2.590   0.595
  825SOL     OW 2478   2.746   2.834   0.862
  825SOL    HW1 2479   2.779   2.747   0.900
  825SOL    HW2 2480   2.683   2.877   0.926
  826SOL     OW 2481   2.293   2.292   0.526
  826SOL    HW1 2482   2.323   2.220   0.463
  826SOL    HW2 2483   2.244   2.250   0.603
  827SOL     OW 2484   2.187   2.411   1.287
  827SOL    HW1 2485   2.243   2.357   1.350
  827SOL    HW2 2486   2.210   2.387   1.193
  828SOL     OW 2487   2.865   1.883   1.150
  828SOL    HW1 2488   2.805   1.814   1.108
  828SOL    HW2 2489   2.960   1.860   1.132
  829SOL     OW 2490   1.878   2.918   0.305
  829SOL    HW1 2491   1.968   2.928   0.263
  829SOL    HW2 2492   1.866   2.825   0.339
  830SOL     OW 2493   2.093   2.471   1.982
  830SOL    HW1 2494   2.002   2.492   2.018
  830SOL    HW2 2495   2.087   2.452   1.884
  831SOL     OW 2496   2.088   2.139   2.848
  831SOL    HW1 2497   2.121   2.114   2.939
  831SOL    HW2 2498   1.994   2.106   2.836
  832SOL     OW 2499   1.870   2.244   2.497
  832SOL    HW1 2500   1.786   2.272   2.542
  832SOL    HW2 2501   1.855   2.158   2.448
  833SOL     OW 2502   2.641   0.013   2.881
  833SOL    HW1 2503   2.558   0.022   2.937
  833SOL    HW2 2504   2.652   0.094   2.824
  834SOL     OW 2505   2.522   2.845   2.555
  834SOL    HW1 2506   2.613   2.850   2.595
  834SOL    HW2 2507   2.484   2.937   2.545
  835SOL     OW 2508   2.094   0.296   2.343
  835SOL    HW1 2509   2.069   0.390   2.368
  835SOL    HW2 2510   2.037   0.232   2.395
  836SOL     OW 2511   2.111   2.951   2.748
  836SOL    HW1 2512   2.121   2.859   2.786
  836SOL    HW2 2513   2.057   0.006   2.812
  837SOL     OW 2514   2.470   2.825   1.991
  837SOL    HW1 2515   2.464   2.909   1.937
  837SOL    HW2 2516   2.525   2.841   2.073
  838SOL     OW 2517   1.977   2.511   2.425
  838SOL    HW1 2518   1.946   2.417   2.441
  838SOL    HW2 2519   1.970   2.564   2.509
  839SOL     OW 2520   2.509   0.245   2.555
  839SOL    HW1 2521   2.456   0.163   2.577
  839SOL    HW2 2522   2.461   0.298   2.485
  840SOL     OW 2523   2.671   1.864   2.362
  840SOL    HW1 2524   2.716   1.953   2.353
  840SOL    HW2 2525   2.573   1.878   2.378
  841SOL     OW 2526   2.062   2.811   0.109
  841SOL    HW1 2527   2.139   2.747   0.106
  841SOL    HW2 2528   1.977   2.760   0.096
  842SOL     OW 2529   2.459   2.584   2.127
  842SOL    HW1 2530   2.472   2.662   2.066
  842SOL    HW2 2531   2.389   2.607   2.195
  843SOL     OW 2532   2.896   2.575   2.278
  843SOL    HW1 2533   2.930   2.565   2.371
  843SOL    HW2 2534   2.814   2.519   2.266
  844SOL     OW 2535   1.948   2.683   2.639
  844SOL    HW1 2536   2.036   2.667   2.683
  844SOL    HW2 2537   1.906   2.766   2.676
  845SOL     OW 2538   2.745   2.206   2.060
  845SOL    HW1 2539   2.787   2.273   2.000
  845SOL    HW2 2540   2.753   2.115   2.020
  846SOL     OW 2541   2.412   2.050   2.761
  846SOL    HW1 2542   2.388   2.074   2.855
  846SOL    HW2 2543   2.418   2.133   2.705
  847SOL     OW 2544   2.247   2.554   2.340
  847SOL    HW1 2545   2.280   2.460   2.346
  847SOL    HW2 2546   2.150   2.558   2.363
  848SOL     OW 2547   2.487   1.988   1.969
  848SOL    HW1 2548   2.570   1.934   1.986
  848SOL    HW2 2549   2.441   1.953   1.888
  849SOL     OW 2550   2.785   2.374   2.756
  849SOL    HW1 2551   2.757   2.355   2.662
  849SOL    HW2 2552   2.818   2.290   2.799
  850SOL     OW 2553   2.407   1.925   2.369
  850SOL    HW1 2554   2.323   1.924   2.424
  850SOL    HW2 2555   2.407   2.006   2.311
  851SOL     OW 2556   2.156   1.906   2.045
  851SOL    HW1 2557   2.209   1.981   2.006
  851SOL    HW2 2558   2.218   1.839   2.086
  852SOL     OW 2559   2.802   2.102   2.326
  852SOL    HW1 2560   2.756   2.150   2.251
  852SOL    HW2 2561   2.895   2.077   2.298
  853SOL     OW 2562   2.889   2.415   1.874
  853SOL    HW1 2563   2.839   2.499   1.852
  853SOL    HW2 2564   2.943   2.430   1.958
  854SOL     OW 2565   2.740   2.319   2.497
  854SOL    HW1 2566   2.683   2.384   2.447
  854SOL    HW2 2567   2.746   2.234   2.445
  855SOL     OW 2568   2.858   1.922   2.614
  855SOL    HW1 2569   2.805   1.901   2.532
  855SOL    HW2 2570   2.857   1.843   2.675
  856SOL     OW 2571   2.392   2.125   2.184
  856SOL    HW1 2572   2.425   2.067   2.110
  856SOL    HW2 2573   2.373   2.217   2.149
  857SOL     OW 2574   2.421   2.400   2.724
  857SOL    HW1 2575   2.434   2.459   2.645
  857SOL    HW2 2576   2.479   2.431   2.800
  858SOL     OW 2577   2.434   2.729   2.881
  858SOL    HW1 2578   2.486   2.810   2.856
  858SOL    HW2 2579   2.406   2.735   2.977
  859SOL     OW 2580   0.056   2.391   2.138
  859SOL    HW1 2581   0.092   2.312   2.188
  859SOL    HW2 2582   0.021   2.459   2.203
  860SOL     OW 2583   2.163   2.068   0.091
  860SOL    HW1 2584   2.175   2.110   0.181
  860SOL    HW2 2585   2.150   1.970   0.101
  861SOL     OW 2586   2.591   2.500   2.915
  861SOL    HW1 2587   2.663   2.474   2.851
  861SOL    HW2 2588   2.557   2.591   2.892
  862SOL     OW 2589   2.162   1.929   2.486
  862SOL    HW1 2590   2.146   2.024   2.511
  862SOL    HW2 2591   2.167   1.873   2.569
  863SOL     OW 2592   2.868   2.631   2.827
  863SOL    HW1 2593   2.896   2.640   2.922
  863SOL    HW2 2594   2.866   2.534   2.802
  864SOL     OW 2595   2.174   2.672   2.811
  864SOL    HW1 2596   2.270   2.698   2.808
  864SOL    HW2 2597   2.166   2.578   2.844
  865SOL     OW 2598   2.188   2.390   2.864
  865SOL    HW1 2599   2.147   2.298   2.859
  865SOL    HW2 2600   2.272   2.392   2.810
  866SOL     OW 2601   2.876   2.647   0.093
  866SOL    HW1 2602   2.917   2.632   0.183
  866SOL    HW2 2603   2.777   2.657   0.102
  867SOL     OW 2604   2.675   2.429   2.211
  867SOL    HW1 2605   2.678   2.348   2.152
  867SOL    HW2 2606   2.596   2.486   2.185
  868SOL     OW 2607   2.564   2.312   0.104
  868SOL    HW1 2608   2.482   2.256   0.091
  868SOL    HW2 2609   2.565   2.385   0.036
  869SOL     OW 2610   2.332   2.357   2.054
  869SOL    HW1 2611   2.392   2.435   2.072
  869SOL    HW2 2612   2.238   2.389   2.041
  870SOL     OW 2613   0.170   2.703   2.170
  870SOL    HW1 2614   0.094   2.657   2.216
  870SOL    HW2 2615   0.187   2.660   2.082
  871SOL     OW 2616   2.127   2.181   2.580
  871SOL    HW1 2617   2.041   2.221   2.549
  871SOL    HW2 2618   2.124   2.169   2.680
  872SOL     OW 2619   2.765   2.762   2.123
  872SOL    HW1 2620   2.840   2.813   2.080
  872SOL    HW2 2621   2.802   2.700   2.192
  873SOL     OW 2622   2.878   2.098   2.823
  873SOL    HW1 2623   2.873   2.057   2.732
  873SOL    HW2 2624   2.890   2.027   2.892
  874SOL     OW 2625   1.939   2.200   1.895
  874SOL    HW1 2626   1.847   2.175   1.864
  874SOL    HW2 2627   1.971   2.279   1.844
  875SOL     OW 2628   1.933   2.022   2.176
  875SOL    HW1 2629   1.915   2.106   2.126
  875SOL    HW2 2630   2.022   1.985   2.150
  876SOL     OW 2631   2.455   2.590   2.518
  876SOL    HW1 2632   2.491   2.683   2.525
  876SOL    HW2 2633   2.375   2.589   2.458
  877SOL     OW 2634   2.738   2.829   2.718
  877SOL    HW1 2635   2.782   2.748   2.756
  877SOL    HW2 2636   2.700   2.885   2.792
  878SOL     OW 2637   2.942   2.828   1.901
  878SOL    HW1 2638   2.914   2.923   1.902
  878SOL    HW2 2639   0.018   2.815   1.965
  879SOL     OW 2640   2.294   2.291   2.386
  879SOL    HW1 2641   2.322   2.218   2.324
  879SOL    HW2 2642   2.244   2.252   2.463
  880SOL     OW 2643   1.888   2.917   2.168
  880SOL    HW1 2644   1.981   2.932   2.133
  880SOL    HW2 2645   1.878   2.822   2.196
   3.00000   3.00000   3.00000
