Include forcefield parameters
#include "gromos54a7_atb.ff/forcefield.itp"

[ moleculetype ]
; Name   nrexcl
_J0B     3
[ atoms ]
;  nr  type  resnr  resid  atom  cgnr  charge    mass
    1 CLOpt    1    _J0B    CL2    1    0.004  35.4530
    2  CPos    1    _J0B     C1    2   -0.351  12.0110
    3    HC    1    _J0B     H1    3    0.339   1.0080
    4 CLOpt    1    _J0B     CL    4    0.004  35.4530
    5 CLOpt    1    _J0B    CL1    5    0.004  35.4530
; total charge of the molecule:  -0.000
[ bonds ]
;  ai   aj  funct   c0         c1
    1    2    2   0.1790   2.1847e+06
    2    3    2   0.1090   1.2300e+07
    2    4    2   0.1790   2.1847e+06
    2    5    2   0.1790   2.1847e+06
[ pairs ]
;  ai   aj  funct  ;  all 1-4 pairs but the ones excluded in GROMOS itp
[ angles ]
;  ai   aj   ak  funct   angle     fc
    1    2    3    2    108.00   465.00
    1    2    4    2    111.00   530.00
    1    2    5    2    111.00   530.00
    3    2    4    2    108.00   465.00
    3    2    5    2    108.00   465.00
    4    2    5    2    111.00   530.00
[ dihedrals ]
; GROMOS improper dihedrals
;  ai   aj   ak   al  funct   angle     fc
[ dihedrals ]
;  ai   aj   ak   al  funct    ph0      cp     mult
[ exclusions ]
;  ai   aj  funct  ;  GROMOS 1-4 exclusions

; Include water topology
#include "./gromos54a7_atb.ff/spc.itp"

[ system ]
; Name
Dyes system in water

[ molecules ]
; Compound        #mols
_J0B              500
SOL              2373
