UNNAMED in water
 2642
    1LYS      N    1   1.193   1.345   1.606
    1LYS     H1    2   1.143   1.343   1.516
    1LYS     H2    3   1.164   1.262   1.662
    1LYS     H3    4   1.160   1.428   1.661
    1LYS     CA    5   1.342   1.353   1.591
    1LYS     HA    6   1.377   1.261   1.546
    1LYS     CB    7   1.382   1.478   1.506
    1LYS    HB1    8   1.341   1.468   1.403
    1LYS    HB2    9   1.337   1.569   1.552
    1LYS     CG   10   1.535   1.502   1.499
    1LYS    HG1   11   1.571   1.529   1.601
    1LYS    HG2   12   1.584   1.405   1.475
    1LYS     CD   13   1.585   1.611   1.405
    1LYS    HD1   14   1.546   1.591   1.302
    1LYS    HD2   15   1.545   1.709   1.439
    1LYS     CE   16   1.739   1.616   1.403
    1LYS    HE1   17   1.779   1.642   1.503
    1LYS    HE2   18   1.779   1.517   1.372
    1LYS     NZ   19   1.786   1.716   1.305
    1LYS    HZ1   20   1.891   1.725   1.307
    1LYS    HZ2   21   1.758   1.683   1.210
    1LYS    HZ3   22   1.744   1.809   1.326
    1LYS      C   23   1.414   1.369   1.726
    1LYS    OT1   24   1.356   1.425   1.821
    1LYS    OT2   25   1.534   1.328   1.735
    2SOL     OW   26   0.239   0.662   0.108
    2SOL    HW1   27   0.171   0.615   0.155
    2SOL    HW2   28   0.252   0.611   0.028
    3SOL     OW   29   0.203   0.272   1.002
    3SOL    HW1   30   0.241   0.247   1.086
    3SOL    HW2   31   0.109   0.255   1.012
    4SOL     OW   32   0.008   0.388   0.658
    4SOL    HW1   33   2.925   0.428   0.684
    4SOL    HW2   34   2.983   0.315   0.601
    5SOL     OW   35   0.570   1.285   1.172
    5SOL    HW1   36   0.481   1.279   1.140
    5SOL    HW2   37   0.577   1.373   1.209
    6SOL     OW   38   1.558   1.510   0.704
    6SOL    HW1   39   1.512   1.492   0.786
    6SOL    HW2   40   1.489   1.516   0.638
    7SOL     OW   41   1.131   0.699   0.701
    7SOL    HW1   42   1.180   0.781   0.690
    7SOL    HW2   43   1.082   0.712   0.782
    8SOL     OW   44   1.766   0.592   0.233
    8SOL    HW1   45   1.744   0.580   0.140
    8SOL    HW2   46   1.728   0.516   0.276
    9SOL     OW   47   0.769   1.148   1.045
    9SOL    HW1   48   0.695   1.177   1.097
    9SOL    HW2   49   0.793   1.225   0.993
   10SOL     OW   50   0.858   0.781   1.820
   10SOL    HW1   51   0.861   0.850   1.886
   10SOL    HW2   52   0.887   0.824   1.739
   11SOL     OW   53   0.686   1.006   0.650
   11SOL    HW1   54   0.749   0.993   0.720
   11SOL    HW2   55   0.615   1.056   0.689
   12SOL     OW   56   0.710   1.155   1.810
   12SOL    HW1   57   0.753   1.237   1.832
   12SOL    HW2   58   0.624   1.181   1.776
   13SOL     OW   59   0.333   1.428   1.072
   13SOL    HW1   60   0.266   1.379   1.023
   13SOL    HW2   61   0.382   1.475   1.005
   14SOL     OW   62   0.452   0.403   1.491
   14SOL    HW1   63   0.525   0.342   1.495
   14SOL    HW2   64   0.375   0.348   1.505
   15SOL     OW   65   1.611   0.456   0.736
   15SOL    HW1   66   1.536   0.480   0.681
   15SOL    HW2   67   1.627   0.534   0.790
   16SOL     OW   68   0.218   1.715   0.480
   16SOL    HW1   69   0.239   1.798   0.524
   16SOL    HW2   70   0.288   1.704   0.416
   17SOL     OW   71   0.251   1.450   0.531
   17SOL    HW1   72   0.213   1.538   0.524
   17SOL    HW2   73   0.189   1.401   0.585
   18SOL     OW   74   0.262   1.082   0.896
   18SOL    HW1   75   0.254   0.995   0.934
   18SOL    HW2   76   0.199   1.135   0.944
   19SOL     OW   77   0.623   1.786   1.440
   19SOL    HW1   78   0.536   1.769   1.477
   19SOL    HW2   79   0.638   1.879   1.458
   20SOL     OW   80   0.589   0.975   0.150
   20SOL    HW1   81   0.602   1.048   0.089
   20SOL    HW2   82   0.630   1.005   0.231
   21SOL     OW   83   1.552   0.145   1.458
   21SOL    HW1   84   1.590   0.220   1.413
   21SOL    HW2   85   1.622   0.114   1.516
   22SOL     OW   86   0.123   0.628   0.570
   22SOL    HW1   87   0.084   0.550   0.611
   22SOL    HW2   88   0.119   0.695   0.638
   23SOL     OW   89   1.845   1.759   0.338
   23SOL    HW1   90   1.907   1.727   0.403
   23SOL    HW2   91   1.870   1.850   0.323
   24SOL     OW   92   0.027   1.600   0.120
   24SOL    HW1   93   0.023   1.505   0.130
   24SOL    HW2   94   2.985   1.634   0.199
   25SOL     OW   95   1.692   0.920   0.641
   25SOL    HW1   96   1.774   0.877   0.618
   25SOL    HW2   97   1.668   0.970   0.562
   26SOL     OW   98   1.646   1.107   0.432
   26SOL    HW1   99   1.732   1.112   0.389
   26SOL    HW2  100   1.653   1.168   0.505
   27SOL     OW  101   0.131   0.747   1.588
   27SOL    HW1  102   0.226   0.759   1.592
   27SOL    HW2  103   0.095   0.836   1.594
   28SOL     OW  104   0.612   1.383   0.736
   28SOL    HW1  105   0.565   1.300   0.744
   28SOL    HW2  106   0.595   1.411   0.646
   29SOL     OW  107   0.819   0.013   0.517
   29SOL    HW1  108   0.851   0.102   0.500
   29SOL    HW2  109   0.725   0.017   0.500
   30SOL     OW  110   0.188   0.957   1.274
   30SOL    HW1  111   0.272   0.916   1.252
   30SOL    HW2  112   0.124   0.911   1.219
   31SOL     OW  113   1.505   1.008   0.211
   31SOL    HW1  114   1.440   0.948   0.250
   31SOL    HW2  115   1.560   1.035   0.284
   32SOL     OW  116   1.197   1.810   1.617
   32SOL    HW1  117   1.195   1.876   1.547
   32SOL    HW2  118   1.161   1.731   1.576
   33SOL     OW  119   0.333   0.253   1.795
   33SOL    HW1  120   0.383   0.330   1.824
   33SOL    HW2  121   0.249   0.261   1.841
   34SOL     OW  122   1.469   1.420   0.955
   34SOL    HW1  123   1.396   1.434   1.015
   34SOL    HW2  124   1.458   1.330   0.924
   35SOL     OW  125   1.660   1.735   0.579
   35SOL    HW1  126   1.641   1.710   0.489
   35SOL    HW2  127   1.633   1.660   0.632
   36SOL     OW  128   0.592   0.719   0.267
   36SOL    HW1  129   0.599   0.802   0.219
   36SOL    HW2  130   0.529   0.738   0.337
   37SOL     OW  131   1.286   0.344   0.930
   37SOL    HW1  132   1.194   0.318   0.938
   37SOL    HW2  133   1.330   0.292   0.998
   38SOL     OW  134   1.583   1.667   0.310
   38SOL    HW1  135   1.673   1.700   0.302
   38SOL    HW2  136   1.557   1.646   0.221
   39SOL     OW  137   0.792   0.619   1.454
   39SOL    HW1  138   0.765   0.595   1.543
   39SOL    HW2  139   0.752   0.553   1.398
   40SOL     OW  140   1.397   0.479   1.677
   40SOL    HW1  141   1.398   0.522   1.762
   40SOL    HW2  142   1.453   0.402   1.688
   41SOL     OW  143   0.962   0.891   1.584
   41SOL    HW1  144   1.013   0.818   1.549
   41SOL    HW2  145   0.909   0.920   1.509
   42SOL     OW  146   0.995   0.424   1.228
   42SOL    HW1  147   0.917   0.436   1.282
   42SOL    HW2  148   0.965   0.373   1.153
   43SOL     OW  149   1.049   0.705   0.424
   43SOL    HW1  150   1.065   0.694   0.518
   43SOL    HW2  151   0.969   0.656   0.408
   44SOL     OW  152   0.103   0.817   0.762
   44SOL    HW1  153   0.180   0.814   0.819
   44SOL    HW2  154   0.039   0.867   0.811
   45SOL     OW  155   0.139   1.835   1.571
   45SOL    HW1  156   0.125   1.815   1.663
   45SOL    HW2  157   0.054   1.867   1.540
   46SOL     OW  158   0.929   0.339   0.220
   46SOL    HW1  159   0.937   0.399   0.147
   46SOL    HW2  160   0.880   0.264   0.185
   47SOL     OW  161   1.712   0.577   1.828
   47SOL    HW1  162   1.672   0.653   1.785
   47SOL    HW2  163   1.735   0.518   1.757
   48SOL     OW  164   1.376   1.141   0.541
   48SOL    HW1  165   1.455   1.129   0.488
   48SOL    HW2  166   1.323   1.204   0.492
   49SOL     OW  167   0.512   0.196   0.916
   49SOL    HW1  168   0.536   0.212   1.007
   49SOL    HW2  169   0.548   0.271   0.868
   50SOL     OW  170   1.010   1.450   0.476
   50SOL    HW1  171   0.968   1.517   0.423
   50SOL    HW2  172   0.984   1.470   0.566
   51SOL     OW  173   0.353   1.807   0.856
   51SOL    HW1  174   0.399   1.724   0.868
   51SOL    HW2  175   0.420   1.874   0.874
   52SOL     OW  176   1.801   1.061   0.867
   52SOL    HW1  177   1.748   1.041   0.789
   52SOL    HW2  178   1.737   1.062   0.939
   53SOL     OW  179   0.319   0.948   0.235
   53SOL    HW1  180   0.410   0.956   0.206
   53SOL    HW2  181   0.292   0.861   0.204
   54SOL     OW  182   1.476   0.742   0.729
   54SOL    HW1  183   1.466   0.696   0.812
   54SOL    HW2  184   1.555   0.795   0.740
   55SOL     OW  185   0.468   1.261   1.733
   55SOL    HW1  186   0.438   1.268   1.642
   55SOL    HW2  187   0.388   1.266   1.785
   56SOL     OW  188   1.111   1.775   0.225
   56SOL    HW1  189   1.050   1.727   0.281
   56SOL    HW2  190   1.141   1.711   0.161
   57SOL     OW  191   0.201   0.297   1.495
   57SOL    HW1  192   0.117   0.343   1.493
   57SOL    HW2  193   0.186   0.222   1.551
   58SOL     OW  194   1.627   1.361   0.085
   58SOL    HW1  195   1.602   1.452   0.076
   58SOL    HW2  196   1.544   1.312   0.079
   59SOL     OW  197   0.467   1.722   0.337
   59SOL    HW1  198   0.500   1.792   0.392
   59SOL    HW2  199   0.531   1.716   0.265
   60SOL     OW  200   1.409   0.108   0.437
   60SOL    HW1  201   1.391   0.083   0.346
   60SOL    HW2  202   1.503   0.126   0.438
   61SOL     OW  203   0.268   1.797   1.232
   61SOL    HW1  204   0.302   1.721   1.281
   61SOL    HW2  205   0.225   1.760   1.156
   62SOL     OW  206   0.939   1.697   0.899
   62SOL    HW1  207   1.017   1.644   0.914
   62SOL    HW2  208   0.891   1.650   0.830
   63SOL     OW  209   0.394   0.691   0.474
   63SOL    HW1  210   0.423   0.601   0.492
   63SOL    HW2  211   0.301   0.690   0.497
   64SOL     OW  212   1.538   0.250   1.735
   64SOL    HW1  213   1.540   0.258   1.831
   64SOL    HW2  214   1.484   0.173   1.718
   65SOL     OW  215   0.609   0.111   0.106
   65SOL    HW1  216   0.704   0.109   0.118
   65SOL    HW2  217   0.596   0.147   0.018
   66SOL     OW  218   0.765   0.271   1.749
   66SOL    HW1  219   0.841   0.215   1.763
   66SOL    HW2  220   0.724   0.279   1.835
   67SOL     OW  221   0.879   1.522   1.189
   67SOL    HW1  222   0.857   1.495   1.099
   67SOL    HW2  223   0.916   1.443   1.229
   68SOL     OW  224   1.343   0.590   1.433
   68SOL    HW1  225   1.371   0.556   1.518
   68SOL    HW2  226   1.377   0.679   1.430
   69SOL     OW  227   0.814   1.398   0.935
   69SOL    HW1  228   0.897   1.388   0.888
   69SOL    HW2  229   0.747   1.397   0.867
   70SOL     OW  230   0.928   0.511   0.902
   70SOL    HW1  231   0.905   0.504   0.809
   70SOL    HW2  232   0.959   0.424   0.927
   71SOL     OW  233   0.542   0.048   0.499
   71SOL    HW1  234   0.455   0.039   0.539
   71SOL    HW2  235   0.534   0.124   0.441
   72SOL     OW  236   1.410   1.209   0.048
   72SOL    HW1  237   1.430   1.133   0.104
   72SOL    HW2  238   1.322   1.235   0.074
   73SOL     OW  239   0.298   0.082   0.199
   73SOL    HW1  240   0.382   0.128   0.194
   73SOL    HW2  241   0.321   2.989   0.194
   74SOL     OW  242   0.947   0.252   0.474
   74SOL    HW1  243   0.924   0.289   0.389
   74SOL    HW2  244   1.042   0.262   0.480
   75SOL     OW  245   1.079   0.680   1.457
   75SOL    HW1  246   1.010   0.615   1.466
   75SOL    HW2  247   1.160   0.628   1.453
   76SOL     OW  248   1.224   1.573   0.797
   76SOL    HW1  249   1.236   1.636   0.726
   76SOL    HW2  250   1.298   1.589   0.855
   77SOL     OW  251   0.468   1.148   0.737
   77SOL    HW1  252   0.397   1.128   0.798
   77SOL    HW2  253   0.430   1.135   0.650
   78SOL     OW  254   1.270   1.795   0.608
   78SOL    HW1  255   1.316   1.855   0.549
   78SOL    HW2  256   1.203   1.849   0.649
   79SOL     OW  257   1.045   0.498   0.031
   79SOL    HW1  258   1.002   0.584   0.023
   79SOL    HW2  259   1.113   0.512   0.097
   80SOL     OW  260   0.081   0.566   1.390
   80SOL    HW1  261   0.171   0.561   1.356
   80SOL    HW2  262   0.086   0.630   1.460
   81SOL     OW  263   0.580   0.212   1.180
   81SOL    HW1  264   0.616   0.170   1.258
   81SOL    HW2  265   0.487   0.221   1.198
   82SOL     OW  266   0.877   0.472   0.638
   82SOL    HW1  267   0.820   0.517   0.575
   82SOL    HW2  268   0.885   0.383   0.603
   83SOL     OW  269   0.998   0.057   0.765
   83SOL    HW1  270   0.962   0.065   0.677
   83SOL    HW2  271   0.974   2.968   0.792
   84SOL     OW  272   1.433   1.165   0.857
   84SOL    HW1  273   1.369   1.095   0.851
   84SOL    HW2  274   1.463   1.178   0.767
   85SOL     OW  275   1.468   0.604   0.979
   85SOL    HW1  276   1.417   0.523   0.985
   85SOL    HW2  277   1.528   0.600   1.054
   86SOL     OW  278   1.844   0.817   0.384
   86SOL    HW1  279   1.901   0.760   0.436
   86SOL    HW2  280   1.819   0.764   0.309
   87SOL     OW  281   0.490   1.407   0.153
   87SOL    HW1  282   0.425   1.374   0.215
   87SOL    HW2  283   0.441   1.415   0.070
   88SOL     OW  284   1.668   1.264   0.652
   88SOL    HW1  285   1.763   1.268   0.662
   88SOL    HW2  286   1.639   1.353   0.668
   89SOL     OW  287   1.415   0.575   0.098
   89SOL    HW1  288   1.343   0.568   0.162
   89SOL    HW2  289   1.459   0.490   0.103
   90SOL     OW  290   0.528   0.262   0.325
   90SOL    HW1  291   0.570   0.213   0.254
   90SOL    HW2  292   0.501   0.344   0.285
   91SOL     OW  293   1.754   1.232   1.550
   91SOL    HW1  294   1.844   1.210   1.576
   91SOL    HW2  295   1.714   1.265   1.631
   92SOL     OW  296   1.114   1.229   1.119
   92SOL    HW1  297   1.029   1.199   1.153
   92SOL    HW2  298   1.099   1.242   1.026
   93SOL     OW  299   1.628   1.093   1.072
   93SOL    HW1  300   1.625   1.156   1.143
   93SOL    HW2  301   1.548   1.109   1.023
   94SOL     OW  302   0.900   0.110   1.386
   94SOL    HW1  303   0.940   0.092   1.301
   94SOL    HW2  304   0.964   0.164   1.432
   95SOL     OW  305   0.995   1.137   1.696
   95SOL    HW1  306   0.909   1.147   1.736
   95SOL    HW2  307   0.995   1.048   1.660
   96SOL     OW  308   0.704   1.063   0.378
   96SOL    HW1  309   0.689   1.049   0.472
   96SOL    HW2  310   0.784   1.014   0.359
   97SOL     OW  311   0.421   0.812   1.247
   97SOL    HW1  312   0.487   0.824   1.316
   97SOL    HW2  313   0.383   0.726   1.264
   98SOL     OW  314   1.272   0.389   1.259
   98SOL    HW1  315   1.300   0.460   1.317
   98SOL    HW2  316   1.178   0.401   1.249
   99SOL     OW  317   0.067   1.573   1.309
   99SOL    HW1  318   0.025   1.652   1.343
   99SOL    HW2  319   0.154   1.574   1.348
  100SOL     OW  320   0.362   1.111   0.489
  100SOL    HW1  321   0.347   1.184   0.429
  100SOL    HW2  322   0.353   1.033   0.434
  101SOL     OW  323   0.552   0.542   0.863
  101SOL    HW1  324   0.571   0.596   0.786
  101SOL    HW2  325   0.618   0.568   0.927
  102SOL     OW  326   1.247   1.346   0.398
  102SOL    HW1  327   1.303   1.419   0.423
  102SOL    HW2  328   1.160   1.370   0.428
  103SOL     OW  329   1.273   1.450   1.145
  103SOL    HW1  330   1.312   1.428   1.230
  103SOL    HW2  331   1.213   1.378   1.127
  104SOL     OW  332   1.584   0.625   0.479
  104SOL    HW1  333   1.537   0.683   0.540
  104SOL    HW2  334   1.630   0.685   0.420
  105SOL     OW  335   0.349   1.529   1.321
  105SOL    HW1  336   0.331   1.487   1.237
  105SOL    HW2  337   0.445   1.539   1.322
  106SOL     OW  338   0.412   0.740   1.602
  106SOL    HW1  339   0.469   0.790   1.543
  106SOL    HW2  340   0.460   0.659   1.618
  107SOL     OW  341   1.599   0.776   1.680
  107SOL    HW1  342   1.510   0.811   1.674
  107SOL    HW2  343   1.648   0.822   1.612
  108SOL     OW  344   1.004   0.111   1.761
  108SOL    HW1  345   1.048   0.193   1.738
  108SOL    HW2  346   1.025   0.052   1.689
  109SOL     OW  347   0.504   0.051   1.749
  109SOL    HW1  348   0.470   2.988   1.687
  109SOL    HW2  349   0.436   0.118   1.757
  110SOL     OW  350   0.586   0.871   1.033
  110SOL    HW1  351   0.604   0.965   1.027
  110SOL    HW2  352   0.526   0.863   1.107
  111SOL     OW  353   1.356   0.863   1.036
  111SOL    HW1  354   1.278   0.851   0.983
  111SOL    HW2  355   1.399   0.777   1.036
  112SOL     OW  356   1.205   0.531   0.271
  112SOL    HW1  357   1.214   0.450   0.322
  112SOL    HW2  358   1.162   0.592   0.330
  113SOL     OW  359   0.325   0.206   1.249
  113SOL    HW1  360   0.291   0.252   1.326
  113SOL    HW2  361   0.274   0.126   1.244
  114SOL     OW  362   0.032   1.305   1.279
  114SOL    HW1  363   0.066   1.259   1.356
  114SOL    HW2  364   0.043   1.398   1.300
  115SOL     OW  365   0.727   0.632   1.060
  115SOL    HW1  366   0.799   0.615   0.999
  115SOL    HW2  367   0.698   0.720   1.038
  116SOL     OW  368   1.734   0.960   1.850
  116SOL    HW1  369   1.683   0.902   1.793
  116SOL    HW2  370   1.679   0.971   1.928
  117SOL     OW  371   0.309   0.071   0.642
  117SOL    HW1  372   0.304   0.157   0.685
  117SOL    HW2  373   0.283   0.009   0.711
  118SOL     OW  374   1.616   0.374   0.367
  118SOL    HW1  375   1.647   0.310   0.431
  118SOL    HW2  376   1.591   0.450   0.420
  119SOL     OW  377   1.027   0.760   0.963
  119SOL    HW1  378   1.026   0.776   1.057
  119SOL    HW2  379   1.001   0.668   0.954
  120SOL     OW  380   1.012   1.541   1.682
  120SOL    HW1  381   0.978   1.602   1.617
  120SOL    HW2  382   0.938   1.484   1.702
  121SOL     OW  383   0.356   0.916   1.808
  121SOL    HW1  384   0.438   0.934   1.856
  121SOL    HW2  385   0.381   0.852   1.742
  122SOL     OW  386   1.499   0.304   0.125
  122SOL    HW1  387   1.461   0.217   0.140
  122SOL    HW2  388   1.557   0.317   0.201
  123SOL     OW  389   1.293   0.823   0.035
  123SOL    HW1  390   1.335   0.738   0.048
  123SOL    HW2  391   1.322   0.850   2.948
  124SOL     OW  392   1.072   1.333   0.856
  124SOL    HW1  393   1.069   1.261   0.792
  124SOL    HW2  394   1.128   1.399   0.815
  125SOL     OW  395   0.310   0.807   0.948
  125SOL    HW1  396   0.404   0.826   0.941
  125SOL    HW2  397   0.306   0.719   0.986
  126SOL     OW  398   0.335   0.514   1.017
  126SOL    HW1  399   0.294   0.431   0.992
  126SOL    HW2  400   0.408   0.524   0.957
  127SOL     OW  401   1.141   0.381   1.701
  127SOL    HW1  402   1.095   0.436   1.765
  127SOL    HW2  403   1.228   0.421   1.693
  128SOL     OW  404   1.099   0.256   1.472
  128SOL    HW1  405   1.120   0.307   1.550
  128SOL    HW2  406   1.184   0.232   1.435
  129SOL     OW  407   0.008   1.315   0.171
  129SOL    HW1  408   2.917   1.331   0.149
  129SOL    HW2  409   0.006   1.241   0.231
  130SOL     OW  410   0.099   1.806   0.970
  130SOL    HW1  411   0.058   1.741   0.913
  130SOL    HW2  412   0.184   1.823   0.931
  131SOL     OW  413   0.496   1.573   0.902
  131SOL    HW1  414   0.565   1.634   0.928
  131SOL    HW2  415   0.540   1.509   0.847
  132SOL     OW  416   0.985   0.800   1.229
  132SOL    HW1  417   1.039   0.770   1.303
  132SOL    HW2  418   0.901   0.755   1.242
  133SOL     OW  419   0.044   0.560   1.107
  133SOL    HW1  420   0.133   0.535   1.082
  133SOL    HW2  421   0.039   0.544   1.201
  134SOL     OW  422   0.192   0.518   1.720
  134SOL    HW1  423   0.265   0.493   1.664
  134SOL    HW2  424   0.159   0.599   1.681
  135SOL     OW  425   1.376   0.936   1.667
  135SOL    HW1  426   1.400   1.023   1.698
  135SOL    HW2  427   1.388   0.939   1.572
  136SOL     OW  428   0.819   0.578   0.348
  136SOL    HW1  429   0.822   0.498   0.295
  136SOL    HW2  430   0.737   0.621   0.323
  137SOL     OW  431   1.644   0.604   1.188
  137SOL    HW1  432   1.630   0.545   1.262
  137SOL    HW2  433   1.730   0.580   1.154
  138SOL     OW  434   0.284   1.560   1.747
  138SOL    HW1  435   0.223   1.618   1.792
  138SOL    HW2  436   0.254   1.472   1.768
  139SOL     OW  437   0.697   0.456   1.263
  139SOL    HW1  438   0.649   0.379   1.231
  139SOL    HW2  439   0.697   0.517   1.190
  140SOL     OW  440   0.944   1.685   1.460
  140SOL    HW1  441   0.907   1.649   1.380
  140SOL    HW2  442   0.927   1.779   1.455
  141SOL     OW  443   0.450   0.495   0.200
  141SOL    HW1  444   0.512   0.565   0.221
  141SOL    HW2  445   0.366   0.540   0.188
  142SOL     OW  446   0.161   1.144   1.465
  142SOL    HW1  447   0.143   1.096   1.546
  142SOL    HW2  448   0.168   1.076   1.398
  143SOL     OW  449   1.333   1.060   1.226
  143SOL    HW1  450   1.352   0.994   1.159
  143SOL    HW2  451   1.255   1.106   1.192
  144SOL     OW  452   1.306   0.851   0.312
  144SOL    HW1  453   1.229   0.818   0.359
  144SOL    HW2  454   1.284   0.840   0.220
  145SOL     OW  455   1.246   1.733   1.124
  145SOL    HW1  456   1.324   1.754   1.072
  145SOL    HW2  457   1.246   1.637   1.128
  146SOL     OW  458   0.093   1.246   1.026
  146SOL    HW1  459   0.076   1.259   1.119
  146SOL    HW2  460   0.010   1.264   0.983
  147SOL     OW  461   0.687   1.670   1.720
  147SOL    HW1  462   0.623   1.739   1.733
  147SOL    HW2  463   0.722   1.686   1.632
  148SOL     OW  464   0.878   0.081   0.146
  148SOL    HW1  465   0.938   0.065   0.072
  148SOL    HW2  466   0.912   0.026   0.216
  149SOL     OW  467   1.715   0.141   0.506
  149SOL    HW1  468   1.784   0.141   0.441
  149SOL    HW2  469   1.729   0.061   0.557
  150SOL     OW  470   1.391   1.569   0.485
  150SOL    HW1  471   1.452   1.599   0.417
  150SOL    HW2  472   1.344   1.647   0.511
  151SOL     OW  473   0.123   1.797   1.842
  151SOL    HW1  474   0.081   1.729   1.894
  151SOL    HW2  475   0.181   1.842   1.905
  152SOL     OW  476   1.278   0.927   0.673
  152SOL    HW1  477   1.350   0.864   0.677
  152SOL    HW2  478   1.311   0.998   0.619
  153SOL     OW  479   0.827   1.283   1.415
  153SOL    HW1  480   0.803   1.313   1.503
  153SOL    HW2  481   0.749   1.296   1.362
  154SOL     OW  482   0.673   1.609   0.160
  154SOL    HW1  483   0.671   1.629   0.066
  154SOL    HW2  484   0.617   1.531   0.168
  155SOL     OW  485   1.850   0.155   0.967
  155SOL    HW1  486   1.854   0.073   0.918
  155SOL    HW2  487   1.768   0.196   0.939
  156SOL     OW  488   0.267   0.333   0.742
  156SOL    HW1  489   0.177   0.363   0.728
  156SOL    HW2  490   0.268   0.303   0.833
  157SOL     OW  491   1.205   1.603   0.034
  157SOL    HW1  492   1.198   1.513   0.065
  157SOL    HW2  493   1.154   1.604   2.952
  158SOL     OW  494   0.822   1.008   1.376
  158SOL    HW1  495   0.860   0.998   1.289
  158SOL    HW2  496   0.828   1.102   1.394
  159SOL     OW  497   0.922   0.928   0.305
  159SOL    HW1  498   0.987   0.964   0.244
  159SOL    HW2  499   0.970   0.862   0.355
  160SOL     OW  500   1.486   1.600   0.051
  160SOL    HW1  501   1.391   1.611   0.051
  160SOL    HW2  502   1.515   1.640   2.969
  161SOL     OW  503   0.376   1.304   1.488
  161SOL    HW1  504   0.356   1.384   1.440
  161SOL    HW2  505   0.300   1.248   1.476
  162SOL     OW  506   1.621   1.275   1.271
  162SOL    HW1  507   1.687   1.257   1.338
  162SOL    HW2  508   1.548   1.315   1.318
  163SOL     OW  509   1.050   1.106   0.708
  163SOL    HW1  510   0.978   1.054   0.745
  163SOL    HW2  511   1.110   1.042   0.672
  164SOL     OW  512   1.019   0.244   0.965
  164SOL    HW1  513   1.011   0.193   0.885
  164SOL    HW2  514   1.021   0.178   1.035
  165SOL     OW  515   0.603   1.493   0.485
  165SOL    HW1  516   0.642   1.441   0.414
  165SOL    HW2  517   0.537   1.547   0.442
  166SOL     OW  518   1.720   0.392   1.378
  166SOL    HW1  519   1.792   0.454   1.376
  166SOL    HW2  520   1.747   0.321   1.320
  167SOL     OW  521   0.267   1.331   0.294
  167SOL    HW1  522   0.178   1.338   0.258
  167SOL    HW2  523   0.263   1.379   0.377
  168SOL     OW  524   0.125   1.009   1.704
  168SOL    HW1  525   0.051   0.974   1.755
  168SOL    HW2  526   0.202   0.978   1.751
  169SOL     OW  527   0.664   0.211   1.492
  169SOL    HW1  528   0.745   0.180   1.453
  169SOL    HW2  529   0.685   0.227   1.584
  170SOL     OW  530   0.069   0.313   0.052
  170SOL    HW1  531   2.977   0.327   0.032
  170SOL    HW2  532   0.112   0.395   0.028
  171SOL     OW  533   1.435   0.867   1.403
  171SOL    HW1  534   1.387   0.925   1.345
  171SOL    HW2  535   1.523   0.864   1.367
  172SOL     OW  536   0.037   0.184   0.291
  172SOL    HW1  537   0.041   0.239   0.213
  172SOL    HW2  538   0.126   0.150   0.301
  173SOL     OW  539   1.183   1.348   0.125
  173SOL    HW1  540   1.088   1.336   0.113
  173SOL    HW2  541   1.198   1.336   0.218
  174SOL     OW  542   0.617   0.831   1.434
  174SOL    HW1  543   0.673   0.908   1.421
  174SOL    HW2  544   0.678   0.758   1.442
  175SOL     OW  545   1.483   1.772   0.974
  175SOL    HW1  546   1.496   1.834   0.901
  175SOL    HW2  547   1.571   1.743   0.996
  176SOL     OW  548   0.716   0.566   1.707
  176SOL    HW1  549   0.754   0.631   1.765
  176SOL    HW2  550   0.754   0.483   1.736
  177SOL     OW  551   0.388   1.736   1.563
  177SOL    HW1  552   0.302   1.775   1.548
  177SOL    HW2  553   0.369   1.657   1.613
  178SOL     OW  554   1.672   0.881   1.254
  178SOL    HW1  555   1.665   0.794   1.215
  178SOL    HW2  556   1.662   0.941   1.180
  179SOL     OW  557   1.226   0.317   0.454
  179SOL    HW1  558   1.287   0.243   0.454
  179SOL    HW2  559   1.250   0.367   0.532
  180SOL     OW  560   0.592   0.741   0.667
  180SOL    HW1  561   0.630   0.827   0.652
  180SOL    HW2  562   0.521   0.734   0.603
  181SOL     OW  563   1.765   0.354   1.645
  181SOL    HW1  564   1.744   0.377   1.555
  181SOL    HW2  565   1.683   0.319   1.681
  182SOL     OW  566   1.739   0.936   1.512
  182SOL    HW1  567   1.748   1.031   1.523
  182SOL    HW2  568   1.728   0.924   1.418
  183SOL     OW  569   0.907   1.388   0.062
  183SOL    HW1  570   0.834   1.388   0.123
  183SOL    HW2  571   0.868   1.412   2.978
  184SOL     OW  572   0.660   1.792   0.948
  184SOL    HW1  573   0.635   1.882   0.924
  184SOL    HW2  574   0.755   1.790   0.937
  185SOL     OW  575   0.866   0.966   0.857
  185SOL    HW1  576   0.914   0.893   0.896
  185SOL    HW2  577   0.832   1.015   0.932
  186SOL     OW  578   1.099   1.018   0.101
  186SOL    HW1  579   1.065   1.056   0.021
  186SOL    HW2  580   1.166   0.956   0.072
  187SOL     OW  581   1.854   1.559   0.849
  187SOL    HW1  582   1.784   1.544   0.786
  187SOL    HW2  583   1.860   1.478   0.899
  188SOL     OW  584   0.229   1.303   1.856
  188SOL    HW1  585   0.176   1.227   1.829
  188SOL    HW2  586   0.211   1.313   1.949
  189SOL     OW  587   0.128   1.251   0.665
  189SOL    HW1  588   0.077   1.185   0.712
  189SOL    HW2  589   0.175   1.202   0.598
  190SOL     OW  590   0.687   1.403   1.622
  190SOL    HW1  591   0.609   1.353   1.646
  190SOL    HW2  592   0.675   1.488   1.664
  191SOL     OW  593   1.796   0.176   1.235
  191SOL    HW1  594   1.843   0.102   1.272
  191SOL    HW2  595   1.822   0.178   1.143
  192SOL     OW  596   0.463   0.432   0.547
  192SOL    HW1  597   0.453   0.371   0.475
  192SOL    HW2  598   0.404   0.400   0.615
  193SOL     OW  599   1.692   1.507   1.109
  193SOL    HW1  600   1.624   1.480   1.047
  193SOL    HW2  601   1.719   1.425   1.151
  194SOL     OW  602   0.333   0.555   1.291
  194SOL    HW1  603   0.388   0.500   1.346
  194SOL    HW2  604   0.351   0.526   1.201
  195SOL     OW  605   0.827   1.576   0.677
  195SOL    HW1  606   0.818   1.631   0.599
  195SOL    HW2  607   0.748   1.522   0.679
  196SOL     OW  608   1.428   0.215   1.128
  196SOL    HW1  609   1.450   0.145   1.190
  196SOL    HW2  610   1.379   0.278   1.180
  197SOL     OW  611   1.013   0.026   1.148
  197SOL    HW1  612   0.932   2.996   1.107
  197SOL    HW2  613   1.076   2.955   1.133
  198SOL     OW  614   0.765   1.329   0.315
  198SOL    HW1  615   0.732   1.240   0.330
  198SOL    HW2  616   0.853   1.329   0.353
  199SOL     OW  617   0.622   1.558   1.284
  199SOL    HW1  618   0.623   1.638   1.336
  199SOL    HW2  619   0.708   1.556   1.242
  200SOL     OW  620   1.358   0.057   0.170
  200SOL    HW1  621   1.414   2.982   0.148
  200SOL    HW2  622   1.269   0.026   0.151
  201SOL     OW  623   1.298   0.460   0.681
  201SOL    HW1  624   1.242   0.538   0.689
  201SOL    HW2  625   1.294   0.419   0.768
  202SOL     OW  626   1.605   0.230   0.887
  202SOL    HW1  627   1.526   0.230   0.941
  202SOL    HW2  628   1.595   0.306   0.830
  203SOL     OW  629   0.072   1.089   0.345
  203SOL    HW1  630   0.148   1.049   0.304
  203SOL    HW2  631   0.002   1.024   0.334
  204SOL     OW  632   0.882   1.652   0.344
  204SOL    HW1  633   0.812   1.630   0.283
  204SOL    HW2  634   0.848   1.726   0.395
  205SOL     OW  635   0.242   0.646   1.974
  205SOL    HW1  636   0.173   0.610   2.029
  205SOL    HW2  637   0.226   0.608   1.888
  206SOL     OW  638   0.236   0.249   2.850
  206SOL    HW1  639   0.251   0.233   2.944
  206SOL    HW2  640   0.142   0.239   2.838
  207SOL     OW  641   0.007   0.387   2.523
  207SOL    HW1  642   2.923   0.425   2.546
  207SOL    HW2  643   2.986   0.314   2.464
  208SOL     OW  644   1.558   1.509   2.567
  208SOL    HW1  645   1.511   1.492   2.649
  208SOL    HW2  646   1.489   1.516   2.501
  209SOL     OW  647   1.133   0.698   2.564
  209SOL    HW1  648   1.183   0.778   2.550
  209SOL    HW2  649   1.084   0.714   2.645
  210SOL     OW  650   1.767   0.606   2.093
  210SOL    HW1  651   1.747   0.598   2.000
  210SOL    HW2  652   1.732   0.525   2.131
  211SOL     OW  653   0.749   1.144   2.897
  211SOL    HW1  654   0.680   1.191   2.945
  211SOL    HW2  655   0.801   1.214   2.856
  212SOL     OW  656   0.684   1.007   2.509
  212SOL    HW1  657   0.749   0.993   2.577
  212SOL    HW2  658   0.614   1.056   2.552
  213SOL     OW  659   0.332   1.449   2.933
  213SOL    HW1  660   0.277   1.388   2.884
  213SOL    HW2  661   0.387   1.491   2.867
  214SOL     OW  662   1.615   0.456   2.594
  214SOL    HW1  663   1.541   0.479   2.537
  214SOL    HW2  664   1.613   0.522   2.664
  215SOL     OW  665   0.222   1.711   2.347
  215SOL    HW1  666   0.240   1.796   2.389
  215SOL    HW2  667   0.280   1.708   2.272
  216SOL     OW  668   0.253   1.446   2.388
  216SOL    HW1  669   0.220   1.536   2.387
  216SOL    HW2  670   0.191   1.399   2.444
  217SOL     OW  671   0.241   1.084   2.750
  217SOL    HW1  672   0.258   1.002   2.796
  217SOL    HW2  673   0.192   1.137   2.813
  218SOL     OW  674   0.586   0.982   1.995
  218SOL    HW1  675   0.632   1.031   1.927
  218SOL    HW2  676   0.628   1.010   2.077
  219SOL     OW  677   0.130   0.624   2.435
  219SOL    HW1  678   0.086   0.549   2.475
  219SOL    HW2  679   0.124   0.693   2.501
  220SOL     OW  680   1.843   1.759   2.199
  220SOL    HW1  681   1.908   1.731   2.264
  220SOL    HW2  682   1.866   1.850   2.181
  221SOL     OW  683   0.029   1.598   2.000
  221SOL    HW1  684   0.021   1.503   2.008
  221SOL    HW2  685   2.973   1.633   2.069
  222SOL     OW  686   1.688   0.915   2.499
  222SOL    HW1  687   1.774   0.879   2.480
  222SOL    HW2  688   1.667   0.969   2.422
  223SOL     OW  689   1.646   1.106   2.295
  223SOL    HW1  690   1.729   1.118   2.249
  223SOL    HW2  691   1.650   1.168   2.368
  224SOL     OW  692   0.610   1.381   2.593
  224SOL    HW1  693   0.562   1.298   2.602
  224SOL    HW2  694   0.594   1.408   2.503
  225SOL     OW  695   0.820   0.012   2.376
  225SOL    HW1  696   0.852   0.099   2.352
  225SOL    HW2  697   0.726   0.016   2.359
  226SOL     OW  698   1.546   0.976   2.071
  226SOL    HW1  699   1.469   0.927   2.099
  226SOL    HW2  700   1.579   1.018   2.150
  227SOL     OW  701   1.431   1.422   2.799
  227SOL    HW1  702   1.417   1.421   2.894
  227SOL    HW2  703   1.440   1.329   2.776
  228SOL     OW  704   1.655   1.737   2.442
  228SOL    HW1  705   1.638   1.707   2.353
  228SOL    HW2  706   1.635   1.662   2.497
  229SOL     OW  707   0.597   0.722   2.126
  229SOL    HW1  708   0.604   0.803   2.074
  229SOL    HW2  709   0.532   0.742   2.193
  230SOL     OW  710   1.295   0.337   2.810
  230SOL    HW1  711   1.200   0.325   2.801
  230SOL    HW2  712   1.315   0.299   2.895
  231SOL     OW  713   1.583   1.670   2.173
  231SOL    HW1  714   1.673   1.702   2.169
  231SOL    HW2  715   1.556   1.663   2.081
  232SOL     OW  716   1.049   0.698   2.290
  232SOL    HW1  717   1.065   0.691   2.384
  232SOL    HW2  718   0.967   0.651   2.275
  233SOL     OW  719   0.105   0.816   2.623
  233SOL    HW1  720   0.183   0.814   2.679
  233SOL    HW2  721   0.046   0.877   2.666
  234SOL     OW  722   0.872   0.354   2.045
  234SOL    HW1  723   0.929   0.415   1.999
  234SOL    HW2  724   0.914   0.269   2.034
  235SOL     OW  725   1.377   1.142   2.404
  235SOL    HW1  726   1.455   1.129   2.350
  235SOL    HW2  727   1.324   1.205   2.355
  236SOL     OW  728   0.561   0.200   2.840
  236SOL    HW1  729   0.502   0.271   2.867
  236SOL    HW2  730   0.581   0.220   2.749
  237SOL     OW  731   1.004   1.443   2.336
  237SOL    HW1  732   0.967   1.518   2.288
  237SOL    HW2  733   0.991   1.466   2.428
  238SOL     OW  734   0.353   1.801   2.713
  238SOL    HW1  735   0.400   1.719   2.728
  238SOL    HW2  736   0.415   1.869   2.740
  239SOL     OW  737   1.806   1.055   2.720
  239SOL    HW1  738   1.746   1.042   2.647
  239SOL    HW2  739   1.749   1.059   2.797
  240SOL     OW  740   0.316   0.948   2.109
  240SOL    HW1  741   0.397   0.975   2.066
  240SOL    HW2  742   0.295   0.864   2.069
  241SOL     OW  743   1.475   0.745   2.588
  241SOL    HW1  744   1.473   0.693   2.669
  241SOL    HW2  745   1.556   0.795   2.593
  242SOL     OW  746   1.117   1.783   2.099
  242SOL    HW1  747   1.048   1.740   2.149
  242SOL    HW2  748   1.140   1.721   2.030
  243SOL     OW  749   1.619   1.374   1.979
  243SOL    HW1  750   1.588   1.464   1.976
  243SOL    HW2  751   1.580   1.333   1.901
  244SOL     OW  752   0.466   1.740   2.181
  244SOL    HW1  753   0.506   1.795   2.249
  244SOL    HW2  754   0.540   1.710   2.128
  245SOL     OW  755   1.409   0.111   2.296
  245SOL    HW1  756   1.393   0.079   2.208
  245SOL    HW2  757   1.503   0.128   2.299
  246SOL     OW  758   0.264   1.799   0.099
  246SOL    HW1  759   0.298   1.725   0.150
  246SOL    HW2  760   0.200   1.760   0.040
  247SOL     OW  761   0.943   1.691   2.756
  247SOL    HW1  762   1.024   1.640   2.757
  247SOL    HW2  763   0.888   1.647   2.690
  248SOL     OW  764   0.394   0.692   2.337
  248SOL    HW1  765   0.425   0.603   2.352
  248SOL    HW2  766   0.301   0.689   2.360
  249SOL     OW  767   0.626   0.118   1.975
  249SOL    HW1  768   0.717   0.088   1.967
  249SOL    HW2  769   0.588   0.102   1.889
  250SOL     OW  770   0.805   1.397   2.793
  250SOL    HW1  771   0.892   1.390   2.754
  250SOL    HW2  772   0.745   1.393   2.719
  251SOL     OW  773   0.920   0.519   2.758
  251SOL    HW1  774   0.903   0.500   2.666
  251SOL    HW2  775   0.951   0.436   2.795
  252SOL     OW  776   0.545   0.061   2.369
  252SOL    HW1  777   0.457   0.044   2.402
  252SOL    HW2  778   0.533   0.130   2.303
  253SOL     OW  779   1.377   1.121   1.896
  253SOL    HW1  780   1.443   1.092   1.959
  253SOL    HW2  781   1.357   1.212   1.921
  254SOL     OW  782   0.290   0.034   2.051
  254SOL    HW1  783   0.342   0.109   2.024
  254SOL    HW2  784   0.354   2.972   2.086
  255SOL     OW  785   0.939   0.255   2.323
  255SOL    HW1  786   0.911   0.300   2.243
  255SOL    HW2  787   1.034   0.266   2.325
  256SOL     OW  788   1.218   1.586   2.671
  256SOL    HW1  789   1.243   1.643   2.599
  256SOL    HW2  790   1.301   1.566   2.716
  257SOL     OW  791   0.462   1.146   2.601
  257SOL    HW1  792   0.390   1.129   2.661
  257SOL    HW2  793   0.425   1.130   2.514
  258SOL     OW  794   1.270   1.795   2.467
  258SOL    HW1  795   1.316   1.856   2.409
  258SOL    HW2  796   1.206   1.849   2.513
  259SOL     OW  797   1.023   0.549   1.886
  259SOL    HW1  798   0.983   0.634   1.867
  259SOL    HW2  799   1.089   0.568   1.953
  260SOL     OW  800   0.872   0.467   2.497
  260SOL    HW1  801   0.823   0.515   2.431
  260SOL    HW2  802   0.887   0.381   2.458
  261SOL     OW  803   0.998   0.050   2.623
  261SOL    HW1  804   0.965   0.057   2.534
  261SOL    HW2  805   0.974   2.961   2.650
  262SOL     OW  806   1.439   1.159   2.712
  262SOL    HW1  807   1.364   1.101   2.702
  262SOL    HW2  808   1.469   1.175   2.622
  263SOL     OW  809   1.488   0.585   2.819
  263SOL    HW1  810   1.423   0.514   2.822
  263SOL    HW2  811   1.505   0.605   2.911
  264SOL     OW  812   1.850   0.817   2.245
  264SOL    HW1  813   1.906   0.764   2.301
  264SOL    HW2  814   1.818   0.756   2.178
  265SOL     OW  815   0.492   1.413   2.024
  265SOL    HW1  816   0.415   1.385   2.075
  265SOL    HW2  817   0.468   1.397   1.933
  266SOL     OW  818   1.668   1.264   2.512
  266SOL    HW1  819   1.763   1.269   2.523
  266SOL    HW2  820   1.637   1.352   2.531
  267SOL     OW  821   1.395   0.569   1.933
  267SOL    HW1  822   1.333   0.553   2.004
  267SOL    HW2  823   1.479   0.537   1.967
  268SOL     OW  824   0.525   0.263   2.182
  268SOL    HW1  825   0.566   0.212   2.112
  268SOL    HW2  826   0.506   0.347   2.142
  269SOL     OW  827   1.648   1.104   2.931
  269SOL    HW1  828   1.648   1.172   2.999
  269SOL    HW2  829   1.563   1.113   2.889
  270SOL     OW  830   0.708   1.061   2.234
  270SOL    HW1  831   0.695   1.046   2.328
  270SOL    HW2  832   0.784   1.008   2.212
  271SOL     OW  833   0.350   1.108   2.353
  271SOL    HW1  834   0.354   1.181   2.291
  271SOL    HW2  835   0.354   1.030   2.299
  272SOL     OW  836   0.544   0.547   2.731
  272SOL    HW1  837   0.565   0.595   2.651
  272SOL    HW2  838   0.616   0.566   2.791
  273SOL     OW  839   1.248   1.345   2.264
  273SOL    HW1  840   1.303   1.420   2.287
  273SOL    HW2  841   1.160   1.371   2.293
  274SOL     OW  842   1.584   0.626   2.339
  274SOL    HW1  843   1.537   0.683   2.401
  274SOL    HW2  844   1.625   0.687   2.278
  275SOL     OW  845   0.577   0.873   2.880
  275SOL    HW1  846   0.617   0.956   2.853
  275SOL    HW2  847   0.554   0.885   2.972
  276SOL     OW  848   1.209   0.534   2.132
  276SOL    HW1  849   1.214   0.453   2.183
  276SOL    HW2  850   1.165   0.596   2.189
  277SOL     OW  851   0.731   0.641   2.918
  277SOL    HW1  852   0.798   0.615   2.855
  277SOL    HW2  853   0.698   0.725   2.884
  278SOL     OW  854   0.308   0.070   2.505
  278SOL    HW1  855   0.302   0.156   2.547
  278SOL    HW2  856   0.282   0.008   2.572
  279SOL     OW  857   1.608   0.374   2.232
  279SOL    HW1  858   1.648   0.314   2.294
  279SOL    HW2  859   1.590   0.453   2.283
  280SOL     OW  860   1.020   0.763   2.818
  280SOL    HW1  861   1.023   0.770   2.914
  280SOL    HW2  862   0.994   0.673   2.802
  281SOL     OW  863   1.529   0.272   1.996
  281SOL    HW1  864   1.466   0.207   2.025
  281SOL    HW2  865   1.564   0.310   2.077
  282SOL     OW  866   1.288   0.821   1.900
  282SOL    HW1  867   1.335   0.737   1.899
  282SOL    HW2  868   1.321   0.867   1.823
  283SOL     OW  869   1.050   1.349   2.696
  283SOL    HW1  870   1.063   1.267   2.649
  283SOL    HW2  871   1.128   1.401   2.675
  284SOL     OW  872   0.311   0.811   2.811
  284SOL    HW1  873   0.405   0.829   2.810
  284SOL    HW2  874   0.305   0.721   2.845
  285SOL     OW  875   0.318   0.520   2.874
  285SOL    HW1  876   0.289   0.432   2.851
  285SOL    HW2  877   0.398   0.533   2.822
  286SOL     OW  878   2.994   1.318   2.039
  286SOL    HW1  879   2.900   1.324   2.022
  286SOL    HW2  880   0.004   1.237   2.089
  287SOL     OW  881   0.097   1.819   2.817
  287SOL    HW1  882   0.054   1.745   2.772
  287SOL    HW2  883   0.186   1.820   2.782
  288SOL     OW  884   0.503   1.575   2.761
  288SOL    HW1  885   0.573   1.636   2.785
  288SOL    HW2  886   0.547   1.508   2.708
  289SOL     OW  887   0.975   0.750   0.087
  289SOL    HW1  888   1.025   0.751   0.168
  289SOL    HW2  889   0.886   0.773   0.113
  290SOL     OW  890   0.814   0.568   2.217
  290SOL    HW1  891   0.816   0.495   2.156
  290SOL    HW2  892   0.741   0.622   2.188
  291SOL     OW  893   0.697   0.436   0.089
  291SOL    HW1  894   0.602   0.434   0.101
  291SOL    HW2  895   0.713   0.512   0.034
  292SOL     OW  896   0.466   0.494   2.049
  292SOL    HW1  897   0.528   0.564   2.068
  292SOL    HW2  898   0.382   0.538   2.039
  293SOL     OW  899   1.311   0.856   2.171
  293SOL    HW1  900   1.233   0.826   2.217
  293SOL    HW2  901   1.290   0.844   2.078
  294SOL     OW  902   1.738   1.769   2.972
  294SOL    HW1  903   1.812   1.789   2.914
  294SOL    HW2  904   1.768   1.693   0.023
  295SOL     OW  905   0.072   1.245   2.905
  295SOL    HW1  906   0.045   1.277   2.991
  295SOL    HW2  907   0.006   1.280   2.844
  296SOL     OW  908   1.721   0.144   2.366
  296SOL    HW1  909   1.782   0.140   2.293
  296SOL    HW2  910   1.734   0.062   2.414
  297SOL     OW  911   1.390   1.569   2.347
  297SOL    HW1  912   1.451   1.598   2.280
  297SOL    HW2  913   1.344   1.648   2.374
  298SOL     OW  914   1.276   0.927   2.532
  298SOL    HW1  915   1.349   0.865   2.540
  298SOL    HW2  916   1.311   0.998   2.479
  299SOL     OW  917   0.671   1.618   2.018
  299SOL    HW1  918   0.681   1.627   1.923
  299SOL    HW2  919   0.618   1.539   2.029
  300SOL     OW  920   1.853   0.162   2.814
  300SOL    HW1  921   1.852   0.076   2.773
  300SOL    HW2  922   1.767   0.200   2.794
  301SOL     OW  923   0.270   0.334   2.598
  301SOL    HW1  924   0.180   0.366   2.589
  301SOL    HW2  925   0.275   0.302   2.688
  302SOL     OW  926   1.180   1.611   1.904
  302SOL    HW1  927   1.223   1.526   1.904
  302SOL    HW2  928   1.126   1.610   1.825
  303SOL     OW  929   0.915   0.910   2.153
  303SOL    HW1  930   0.974   0.938   2.082
  303SOL    HW2  931   0.963   0.840   2.197
  304SOL     OW  932   1.495   1.645   1.907
  304SOL    HW1  933   1.411   1.600   1.909
  304SOL    HW2  934   1.539   1.611   1.829
  305SOL     OW  935   1.051   1.105   2.571
  305SOL    HW1  936   0.979   1.053   2.606
  305SOL    HW2  937   1.112   1.041   2.535
  306SOL     OW  938   1.020   0.249   2.808
  306SOL    HW1  939   1.012   0.182   2.740
  306SOL    HW2  940   1.044   0.200   2.887
  307SOL     OW  941   0.604   1.489   2.341
  307SOL    HW1  942   0.638   1.440   2.267
  307SOL    HW2  943   0.530   1.538   2.305
  308SOL     OW  944   0.254   1.345   2.144
  308SOL    HW1  945   0.159   1.343   2.128
  308SOL    HW2  946   0.263   1.384   2.231
  309SOL     OW  947   0.099   0.325   1.911
  309SOL    HW1  948   0.015   0.296   1.876
  309SOL    HW2  949   0.112   0.412   1.873
  310SOL     OW  950   0.015   0.216   2.144
  310SOL    HW1  951   0.063   0.261   2.074
  310SOL    HW2  952   0.069   0.140   2.164
  311SOL     OW  953   1.148   1.325   2.001
  311SOL    HW1  954   1.058   1.301   2.025
  311SOL    HW2  955   1.195   1.326   2.084
  312SOL     OW  956   1.505   1.781   2.832
  312SOL    HW1  957   1.517   1.833   2.753
  312SOL    HW2  958   1.588   1.789   2.879
  313SOL     OW  959   1.718   0.851   0.065
  313SOL    HW1  960   1.636   0.816   0.101
  313SOL    HW2  961   1.697   0.941   0.042
  314SOL     OW  962   1.222   0.317   2.318
  314SOL    HW1  963   1.284   0.244   2.317
  314SOL    HW2  964   1.246   0.368   2.395
  315SOL     OW  965   0.592   0.741   2.529
  315SOL    HW1  966   0.631   0.826   2.513
  315SOL    HW2  967   0.522   0.734   2.464
  316SOL     OW  968   0.847   1.385   1.890
  316SOL    HW1  969   0.816   1.371   1.980
  316SOL    HW2  970   0.894   1.468   1.895
  317SOL     OW  971   0.663   1.795   2.822
  317SOL    HW1  972   0.640   1.883   2.792
  317SOL    HW2  973   0.757   1.788   2.805
  318SOL     OW  974   0.862   0.965   2.716
  318SOL    HW1  975   0.913   0.894   2.753
  318SOL    HW2  976   0.832   1.016   2.791
  319SOL     OW  977   1.067   0.979   1.939
  319SOL    HW1  978   1.075   1.054   1.881
  319SOL    HW2  979   1.150   0.931   1.928
  320SOL     OW  980   1.854   1.557   2.713
  320SOL    HW1  981   1.779   1.543   2.655
  320SOL    HW2  982   1.862   1.475   2.761
  321SOL     OW  983   0.128   1.248   2.522
  321SOL    HW1  984   0.088   1.184   2.580
  321SOL    HW2  985   0.188   1.196   2.467
  322SOL     OW  986   1.811   0.187   0.083
  322SOL    HW1  987   1.833   0.101   0.119
  322SOL    HW2  988   1.828   0.179   2.989
  323SOL     OW  989   0.462   0.435   2.404
  323SOL    HW1  990   0.454   0.370   2.333
  323SOL    HW2  991   0.409   0.399   2.475
  324SOL     OW  992   0.819   1.583   2.538
  324SOL    HW1  993   0.814   1.627   2.453
  324SOL    HW2  994   0.744   1.524   2.539
  325SOL     OW  995   0.782   1.326   2.160
  325SOL    HW1  996   0.744   1.240   2.177
  325SOL    HW2  997   0.854   1.333   2.224
  326SOL     OW  998   1.346   0.047   2.029
  326SOL    HW1  999   1.413   2.985   1.999
  326SOL    HW2 1000   1.266   2.995   2.034
  327SOL     OW 1001   1.297   0.456   2.547
  327SOL    HW1 1002   1.243   0.535   2.554
  327SOL    HW2 1003   1.294   0.417   2.635
  328SOL     OW 1004   1.599   0.235   2.750
  328SOL    HW1 1005   1.508   0.231   2.779
  328SOL    HW2 1006   1.602   0.309   2.689
  329SOL     OW 1007   0.064   1.078   2.155
  329SOL    HW1 1008   0.153   1.043   2.162
  329SOL    HW2 1009   0.010   1.016   2.204
  330SOL     OW 1010   0.880   1.650   2.208
  330SOL    HW1 1011   0.809   1.633   2.146
  330SOL    HW2 1012   0.851   1.727   2.257
  331SOL     OW 1013   0.239   2.517   0.100
  331SOL    HW1 1014   0.171   2.473   0.150
  331SOL    HW2 1015   0.249   2.463   0.021
  332SOL     OW 1016   0.211   2.137   0.990
  332SOL    HW1 1017   0.244   2.107   1.075
  332SOL    HW2 1018   0.124   2.098   0.983
  333SOL     OW 1019   0.015   2.248   0.647
  333SOL    HW1 1020   2.929   2.284   0.668
  333SOL    HW2 1021   2.996   2.167   0.600
  334SOL     OW 1022   1.135   2.568   0.702
  334SOL    HW1 1023   1.180   2.652   0.694
  334SOL    HW2 1024   1.082   2.578   0.782
  335SOL     OW 1025   1.760   2.454   0.228
  335SOL    HW1 1026   1.747   2.435   0.135
  335SOL    HW2 1027   1.726   2.377   0.273
  336SOL     OW 1028   0.759   0.013   1.033
  336SOL    HW1 1029   0.678   0.046   1.069
  336SOL    HW2 1030   0.781   0.074   0.963
  337SOL     OW 1031   0.868   2.636   1.823
  337SOL    HW1 1032   0.845   2.699   1.891
  337SOL    HW2 1033   0.890   2.690   1.747
  338SOL     OW 1034   0.650   2.852   0.713
  338SOL    HW1 1035   0.745   2.856   0.723
  338SOL    HW2 1036   0.628   2.929   0.660
  339SOL     OW 1037   0.475   2.272   1.487
  339SOL    HW1 1038   0.544   2.206   1.491
  339SOL    HW2 1039   0.394   2.223   1.502
  340SOL     OW 1040   1.612   2.309   0.740
  340SOL    HW1 1041   1.537   2.334   0.686
  340SOL    HW2 1042   1.634   2.389   0.788
  341SOL     OW 1043   0.216   0.318   0.461
  341SOL    HW1 1044   0.213   0.387   0.527
  341SOL    HW2 1045   0.202   0.237   0.510
  342SOL     OW 1046   0.230   2.942   0.877
  342SOL    HW1 1047   0.259   2.862   0.920
  342SOL    HW2 1048   0.204   0.001   0.948
  343SOL     OW 1049   0.616   2.833   0.149
  343SOL    HW1 1050   0.599   2.925   0.130
  343SOL    HW2 1051   0.683   2.835   0.218
  344SOL     OW 1052   1.607   1.968   1.467
  344SOL    HW1 1053   1.603   2.048   1.415
  344SOL    HW2 1054   1.590   1.996   1.557
  345SOL     OW 1055   0.118   2.496   0.564
  345SOL    HW1 1056   0.095   2.411   0.602
  345SOL    HW2 1057   0.115   2.557   0.638
  346SOL     OW 1058   1.701   2.805   0.623
  346SOL    HW1 1059   1.778   2.750   0.634
  346SOL    HW2 1060   1.693   2.817   0.528
  347SOL     OW 1061   0.130   2.609   1.587
  347SOL    HW1 1062   0.224   2.622   1.593
  347SOL    HW2 1063   0.092   2.694   1.609
  348SOL     OW 1064   0.660   0.245   0.687
  348SOL    HW1 1065   0.597   0.176   0.709
  348SOL    HW2 1066   0.614   0.301   0.625
  349SOL     OW 1067   1.305   0.052   1.449
  349SOL    HW1 1068   1.322   2.994   1.375
  349SOL    HW2 1069   1.388   0.097   1.463
  350SOL     OW 1070   0.814   1.861   0.511
  350SOL    HW1 1071   0.853   1.947   0.493
  350SOL    HW2 1072   0.720   1.879   0.517
  351SOL     OW 1073   0.190   2.835   1.257
  351SOL    HW1 1074   0.273   2.789   1.249
  351SOL    HW2 1075   0.124   2.771   1.231
  352SOL     OW 1076   1.522   2.843   0.206
  352SOL    HW1 1077   1.454   2.797   0.255
  352SOL    HW2 1078   1.591   2.858   0.270
  353SOL     OW 1079   0.338   2.112   1.806
  353SOL    HW1 1080   0.384   2.193   1.828
  353SOL    HW2 1081   0.251   2.122   1.846
  354SOL     OW 1082   0.593   2.582   0.271
  354SOL    HW1 1083   0.595   2.662   0.218
  354SOL    HW2 1084   0.526   2.599   0.337
  355SOL     OW 1085   1.279   2.212   0.932
  355SOL    HW1 1086   1.189   2.180   0.939
  355SOL    HW2 1087   1.329   2.159   0.995
  356SOL     OW 1088   0.794   2.478   1.453
  356SOL    HW1 1089   0.766   2.456   1.542
  356SOL    HW2 1090   0.752   2.412   1.398
  357SOL     OW 1091   1.394   2.335   1.679
  357SOL    HW1 1092   1.394   2.380   1.763
  357SOL    HW2 1093   1.457   2.264   1.689
  358SOL     OW 1094   0.961   2.759   1.592
  358SOL    HW1 1095   1.013   2.688   1.554
  358SOL    HW2 1096   0.908   2.791   1.520
  359SOL     OW 1097   0.992   2.274   1.239
  359SOL    HW1 1098   0.909   2.298   1.279
  359SOL    HW2 1099   0.968   2.229   1.158
  360SOL     OW 1100   1.050   2.567   0.423
  360SOL    HW1 1101   1.063   2.560   0.517
  360SOL    HW2 1102   0.968   2.520   0.406
  361SOL     OW 1103   0.102   2.669   0.769
  361SOL    HW1 1104   0.179   2.675   0.826
  361SOL    HW2 1105   0.048   2.743   0.793
  362SOL     OW 1106   0.929   2.193   0.222
  362SOL    HW1 1107   0.938   2.255   0.150
  362SOL    HW2 1108   0.894   2.114   0.182
  363SOL     OW 1109   1.709   2.436   1.827
  363SOL    HW1 1110   1.671   2.511   1.782
  363SOL    HW2 1111   1.738   2.378   1.757
  364SOL     OW 1112   0.549   2.043   0.893
  364SOL    HW1 1113   0.552   2.073   0.984
  364SOL    HW2 1114   0.550   2.124   0.841
  365SOL     OW 1115   1.796   2.906   0.867
  365SOL    HW1 1116   1.741   2.891   0.790
  365SOL    HW2 1117   1.734   2.914   0.939
  366SOL     OW 1118   1.483   2.601   0.727
  366SOL    HW1 1119   1.463   2.551   0.806
  366SOL    HW2 1120   1.555   2.659   0.753
  367SOL     OW 1121   0.235   2.162   1.504
  367SOL    HW1 1122   0.155   2.209   1.481
  367SOL    HW2 1123   0.205   2.088   1.557
  368SOL     OW 1124   1.403   1.967   0.431
  368SOL    HW1 1125   1.392   1.948   0.338
  368SOL    HW2 1126   1.497   1.979   0.442
  369SOL     OW 1127   0.390   2.555   0.474
  369SOL    HW1 1128   0.412   2.463   0.485
  369SOL    HW2 1129   0.296   2.560   0.494
  370SOL     OW 1130   1.538   2.084   1.724
  370SOL    HW1 1131   1.548   2.107   1.817
  370SOL    HW2 1132   1.465   2.022   1.724
  371SOL     OW 1133   0.627   1.980   0.121
  371SOL    HW1 1134   0.721   1.961   0.118
  371SOL    HW2 1135   0.592   1.938   0.042
  372SOL     OW 1136   0.767   2.139   1.752
  372SOL    HW1 1137   0.840   2.077   1.758
  372SOL    HW2 1138   0.717   2.124   1.832
  373SOL     OW 1139   1.341   2.450   1.433
  373SOL    HW1 1140   1.371   2.418   1.518
  373SOL    HW2 1141   1.377   2.538   1.426
  374SOL     OW 1142   0.929   2.371   0.902
  374SOL    HW1 1143   0.905   2.363   0.809
  374SOL    HW2 1144   0.959   2.284   0.926
  375SOL     OW 1145   0.549   1.925   0.505
  375SOL    HW1 1146   0.467   1.926   0.554
  375SOL    HW2 1147   0.544   2.001   0.448
  376SOL     OW 1148   0.944   2.104   0.474
  376SOL    HW1 1149   0.919   2.140   0.388
  376SOL    HW2 1150   1.038   2.117   0.479
  377SOL     OW 1151   1.078   2.546   1.458
  377SOL    HW1 1152   1.007   2.483   1.468
  377SOL    HW2 1153   1.158   2.493   1.454
  378SOL     OW 1154   1.051   2.357   0.028
  378SOL    HW1 1155   1.002   2.439   0.019
  378SOL    HW2 1156   1.112   2.373   0.100
  379SOL     OW 1157   0.088   2.414   1.400
  379SOL    HW1 1158   0.174   2.421   1.357
  379SOL    HW2 1159   0.088   2.486   1.464
  380SOL     OW 1160   0.560   2.089   1.164
  380SOL    HW1 1161   0.597   2.009   1.201
  380SOL    HW2 1162   0.469   2.088   1.191
  381SOL     OW 1163   0.870   2.322   0.639
  381SOL    HW1 1164   0.820   2.376   0.578
  381SOL    HW2 1165   0.890   2.242   0.590
  382SOL     OW 1166   1.016   1.914   0.753
  382SOL    HW1 1167   0.957   1.911   0.677
  382SOL    HW2 1168   0.991   1.838   0.805
  383SOL     OW 1169   1.426   2.991   0.873
  383SOL    HW1 1170   1.360   2.935   0.830
  383SOL    HW2 1171   1.448   0.057   0.807
  384SOL     OW 1172   1.466   2.466   0.979
  384SOL    HW1 1173   1.419   2.383   0.983
  384SOL    HW2 1174   1.527   2.462   1.053
  385SOL     OW 1175   1.829   2.665   0.390
  385SOL    HW1 1176   1.893   2.618   0.443
  385SOL    HW2 1177   1.814   2.608   0.315
  386SOL     OW 1178   1.414   2.436   0.100
  386SOL    HW1 1179   1.342   2.428   0.162
  386SOL    HW2 1180   1.459   2.352   0.104
  387SOL     OW 1181   0.520   2.124   0.325
  387SOL    HW1 1182   0.557   2.074   0.253
  387SOL    HW2 1183   0.499   2.209   0.287
  388SOL     OW 1184   1.780   0.076   1.589
  388SOL    HW1 1185   1.868   0.043   1.575
  388SOL    HW2 1186   1.792   0.159   1.635
  389SOL     OW 1187   1.623   2.955   1.074
  389SOL    HW1 1188   1.639   0.039   1.117
  389SOL    HW2 1189   1.548   2.971   1.017
  390SOL     OW 1190   0.920   1.957   1.400
  390SOL    HW1 1191   0.940   1.942   1.308
  390SOL    HW2 1192   0.997   2.001   1.435
  391SOL     OW 1193   0.415   2.679   1.253
  391SOL    HW1 1194   0.485   2.686   1.318
  391SOL    HW2 1195   0.381   2.591   1.263
  392SOL     OW 1196   1.266   2.240   1.274
  392SOL    HW1 1197   1.298   2.317   1.321
  392SOL    HW2 1198   1.176   2.262   1.250
  393SOL     OW 1199   0.555   2.397   0.862
  393SOL    HW1 1200   0.570   2.451   0.784
  393SOL    HW2 1201   0.619   2.428   0.926
  394SOL     OW 1202   1.581   2.484   0.478
  394SOL    HW1 1203   1.539   2.542   0.542
  394SOL    HW2 1204   1.636   2.542   0.425
  395SOL     OW 1205   0.413   2.597   1.603
  395SOL    HW1 1206   0.470   2.647   1.545
  395SOL    HW2 1207   0.460   2.516   1.620
  396SOL     OW 1208   1.596   2.634   1.678
  396SOL    HW1 1209   1.510   2.676   1.673
  396SOL    HW2 1210   1.649   2.679   1.613
  397SOL     OW 1211   0.996   1.982   1.754
  397SOL    HW1 1212   1.048   2.058   1.728
  397SOL    HW2 1213   1.054   1.907   1.737
  398SOL     OW 1214   0.501   1.901   1.746
  398SOL    HW1 1215   0.458   1.847   1.680
  398SOL    HW2 1216   0.441   1.975   1.759
  399SOL     OW 1217   0.594   2.729   1.039
  399SOL    HW1 1218   0.595   2.820   1.010
  399SOL    HW2 1219   0.527   2.727   1.107
  400SOL     OW 1220   1.348   2.713   1.034
  400SOL    HW1 1221   1.279   2.707   0.968
  400SOL    HW2 1222   1.393   2.628   1.029
  401SOL     OW 1223   1.204   2.395   0.271
  401SOL    HW1 1224   1.210   2.310   0.316
  401SOL    HW2 1225   1.158   2.452   0.332
  402SOL     OW 1226   0.300   2.065   1.243
  402SOL    HW1 1227   0.279   2.095   1.332
  402SOL    HW2 1228   0.285   1.971   1.245
  403SOL     OW 1229   0.054   0.171   1.267
  403SOL    HW1 1230   0.082   0.137   1.352
  403SOL    HW2 1231   0.009   0.253   1.287
  404SOL     OW 1232   0.729   2.493   1.061
  404SOL    HW1 1233   0.799   2.478   0.997
  404SOL    HW2 1234   0.697   2.581   1.042
  405SOL     OW 1235   1.736   2.818   1.845
  405SOL    HW1 1236   1.686   2.761   1.787
  405SOL    HW2 1237   1.680   2.830   1.921
  406SOL     OW 1238   0.302   1.931   0.622
  406SOL    HW1 1239   0.285   2.022   0.648
  406SOL    HW2 1240   0.309   1.883   0.704
  407SOL     OW 1241   1.619   2.234   0.369
  407SOL    HW1 1242   1.645   2.170   0.435
  407SOL    HW2 1243   1.592   2.311   0.419
  408SOL     OW 1244   1.028   2.617   0.966
  408SOL    HW1 1245   1.027   2.632   1.060
  408SOL    HW2 1246   1.001   2.525   0.956
  409SOL     OW 1247   0.358   2.788   1.796
  409SOL    HW1 1248   0.419   2.783   1.870
  409SOL    HW2 1249   0.382   2.713   1.741
  410SOL     OW 1250   1.501   2.169   0.126
  410SOL    HW1 1251   1.467   2.081   0.136
  410SOL    HW2 1252   1.558   2.182   0.203
  411SOL     OW 1253   1.296   2.684   0.038
  411SOL    HW1 1254   1.336   2.598   0.049
  411SOL    HW2 1255   1.325   2.713   2.951
  412SOL     OW 1256   0.313   2.678   0.951
  412SOL    HW1 1257   0.407   2.685   0.933
  412SOL    HW2 1258   0.302   2.589   0.986
  413SOL     OW 1259   0.336   2.379   1.015
  413SOL    HW1 1260   0.295   2.295   0.993
  413SOL    HW2 1261   0.410   2.385   0.955
  414SOL     OW 1262   1.134   2.238   1.680
  414SOL    HW1 1263   1.087   2.293   1.743
  414SOL    HW2 1264   1.223   2.275   1.677
  415SOL     OW 1265   1.162   2.064   1.470
  415SOL    HW1 1266   1.151   2.126   1.542
  415SOL    HW2 1267   1.198   2.116   1.399
  416SOL     OW 1268   0.982   2.667   1.231
  416SOL    HW1 1269   1.036   2.638   1.305
  416SOL    HW2 1270   0.900   2.619   1.242
  417SOL     OW 1271   0.046   2.442   1.117
  417SOL    HW1 1272   0.120   2.396   1.077
  417SOL    HW2 1273   0.034   2.399   1.202
  418SOL     OW 1274   0.196   2.381   1.721
  418SOL    HW1 1275   0.266   2.353   1.662
  418SOL    HW2 1276   0.162   2.462   1.681
  419SOL     OW 1277   1.380   2.806   1.661
  419SOL    HW1 1278   1.397   2.900   1.657
  419SOL    HW2 1279   1.372   2.779   1.569
  420SOL     OW 1280   0.819   2.438   0.349
  420SOL    HW1 1281   0.818   2.361   0.293
  420SOL    HW2 1282   0.739   2.486   0.327
  421SOL     OW 1283   1.643   2.464   1.188
  421SOL    HW1 1284   1.632   2.406   1.263
  421SOL    HW2 1285   1.729   2.442   1.153
  422SOL     OW 1286   0.703   2.312   1.260
  422SOL    HW1 1287   0.647   2.239   1.231
  422SOL    HW2 1288   0.699   2.375   1.189
  423SOL     OW 1289   0.441   2.358   0.208
  423SOL    HW1 1290   0.512   2.421   0.223
  423SOL    HW2 1291   0.365   2.412   0.186
  424SOL     OW 1292   0.159   0.009   1.468
  424SOL    HW1 1293   0.147   2.957   1.548
  424SOL    HW2 1294   0.172   2.945   1.399
  425SOL     OW 1295   1.347   2.908   1.221
  425SOL    HW1 1296   1.364   2.845   1.151
  425SOL    HW2 1297   1.279   2.965   1.186
  426SOL     OW 1298   1.299   2.722   0.315
  426SOL    HW1 1299   1.227   2.676   0.358
  426SOL    HW2 1300   1.289   2.700   0.222
  427SOL     OW 1301   0.899   1.936   0.123
  427SOL    HW1 1302   0.955   1.920   0.047
  427SOL    HW2 1303   0.946   1.897   0.196
  428SOL     OW 1304   1.715   2.005   0.514
  428SOL    HW1 1305   1.793   1.997   0.459
  428SOL    HW2 1306   1.702   1.918   0.551
  429SOL     OW 1307   1.294   2.796   0.684
  429SOL    HW1 1308   1.362   2.728   0.680
  429SOL    HW2 1309   1.304   2.844   0.602
  430SOL     OW 1310   1.839   2.035   0.970
  430SOL    HW1 1311   1.871   1.949   0.943
  430SOL    HW2 1312   1.755   2.045   0.925
  431SOL     OW 1313   0.267   2.179   0.722
  431SOL    HW1 1314   0.184   2.216   0.695
  431SOL    HW2 1315   0.258   2.167   0.817
  432SOL     OW 1316   0.814   2.858   1.375
  432SOL    HW1 1317   0.868   2.835   1.299
  432SOL    HW2 1318   0.833   2.950   1.392
  433SOL     OW 1319   0.900   2.793   0.284
  433SOL    HW1 1320   0.981   2.820   0.240
  433SOL    HW2 1321   0.930   2.743   0.360
  434SOL     OW 1322   1.021   2.103   0.965
  434SOL    HW1 1323   1.015   2.055   0.882
  434SOL    HW2 1324   1.014   2.035   1.033
  435SOL     OW 1325   1.718   2.253   1.378
  435SOL    HW1 1326   1.792   2.314   1.377
  435SOL    HW2 1327   1.746   2.182   1.320
  436SOL     OW 1328   0.118   2.865   1.694
  436SOL    HW1 1329   0.049   2.846   1.757
  436SOL    HW2 1330   0.200   2.851   1.742
  437SOL     OW 1331   0.674   2.057   1.498
  437SOL    HW1 1332   0.759   2.039   1.458
  437SOL    HW2 1333   0.695   2.086   1.587
  438SOL     OW 1334   0.054   2.167   0.057
  438SOL    HW1 1335   2.968   2.196   0.029
  438SOL    HW2 1336   0.115   2.232   0.021
  439SOL     OW 1337   1.434   2.717   1.403
  439SOL    HW1 1338   1.391   2.776   1.342
  439SOL    HW2 1339   1.526   2.719   1.378
  440SOL     OW 1340   0.061   2.061   0.321
  440SOL    HW1 1341   0.048   2.100   0.234
  440SOL    HW2 1342   0.123   1.990   0.306
  441SOL     OW 1343   1.139   0.211   0.092
  441SOL    HW1 1344   1.071   0.256   0.141
  441SOL    HW2 1345   1.217   0.218   0.147
  442SOL     OW 1346   0.613   2.688   1.436
  442SOL    HW1 1347   0.670   2.764   1.420
  442SOL    HW2 1348   0.674   2.614   1.444
  443SOL     OW 1349   0.717   2.427   1.705
  443SOL    HW1 1350   0.756   2.491   1.766
  443SOL    HW2 1351   0.748   2.342   1.736
  444SOL     OW 1352   1.676   2.745   1.253
  444SOL    HW1 1353   1.665   2.659   1.213
  444SOL    HW2 1354   1.658   2.807   1.182
  445SOL     OW 1355   1.220   2.180   0.461
  445SOL    HW1 1356   1.285   2.110   0.449
  445SOL    HW2 1357   1.251   2.230   0.536
  446SOL     OW 1358   0.592   2.587   0.666
  446SOL    HW1 1359   0.615   2.680   0.675
  446SOL    HW2 1360   0.524   2.586   0.599
  447SOL     OW 1361   1.765   2.218   1.646
  447SOL    HW1 1362   1.743   2.235   1.554
  447SOL    HW2 1363   1.692   2.164   1.678
  448SOL     OW 1364   1.733   2.796   1.515
  448SOL    HW1 1365   1.750   2.888   1.535
  448SOL    HW2 1366   1.727   2.792   1.420
  449SOL     OW 1367   0.890   2.831   0.863
  449SOL    HW1 1368   0.927   2.750   0.898
  449SOL    HW2 1369   0.827   2.860   0.929
  450SOL     OW 1370   1.110   2.886   0.086
  450SOL    HW1 1371   1.063   2.888   0.003
  450SOL    HW2 1372   1.173   2.814   0.076
  451SOL     OW 1373   1.803   2.029   1.237
  451SOL    HW1 1374   1.891   1.997   1.258
  451SOL    HW2 1375   1.806   2.048   1.144
  452SOL     OW 1376   0.431   2.296   0.529
  452SOL    HW1 1377   0.460   2.225   0.470
  452SOL    HW2 1378   0.384   2.251   0.599
  453SOL     OW 1379   0.336   2.419   1.290
  453SOL    HW1 1380   0.395   2.364   1.342
  453SOL    HW2 1381   0.349   2.389   1.200
  454SOL     OW 1382   1.430   2.086   1.119
  454SOL    HW1 1383   1.462   2.012   1.171
  454SOL    HW2 1384   1.377   2.137   1.181
  455SOL     OW 1385   1.009   1.882   1.144
  455SOL    HW1 1386   0.955   1.814   1.103
  455SOL    HW2 1387   1.096   1.844   1.148
  456SOL     OW 1388   1.354   1.914   0.164
  456SOL    HW1 1389   1.381   1.865   0.086
  456SOL    HW2 1390   1.269   1.878   0.187
  457SOL     OW 1391   1.300   2.325   0.683
  457SOL    HW1 1392   1.244   2.402   0.690
  457SOL    HW2 1393   1.294   2.283   0.770
  458SOL     OW 1394   1.586   2.066   0.878
  458SOL    HW1 1395   1.522   2.087   0.945
  458SOL    HW2 1396   1.588   2.143   0.822
  459SOL     OW 1397   2.998   2.884   0.285
  459SOL    HW1 1398   0.081   2.917   0.251
  459SOL    HW2 1399   0.019   2.851   0.373
  460SOL     OW 1400   0.233   2.503   1.972
  460SOL    HW1 1401   0.166   2.459   2.025
  460SOL    HW2 1402   0.222   2.466   1.884
  461SOL     OW 1403   0.234   2.125   2.837
  461SOL    HW1 1404   0.270   2.100   2.922
  461SOL    HW2 1405   0.147   2.086   2.835
  462SOL     OW 1406   0.014   2.248   2.506
  462SOL    HW1 1407   2.929   2.285   2.530
  462SOL    HW2 1408   2.993   2.163   2.465
  463SOL     OW 1409   1.136   2.569   2.564
  463SOL    HW1 1410   1.183   2.652   2.556
  463SOL    HW2 1411   1.084   2.579   2.644
  464SOL     OW 1412   1.762   2.466   2.090
  464SOL    HW1 1413   1.743   2.456   1.997
  464SOL    HW2 1414   1.731   2.385   2.130
  465SOL     OW 1415   0.776   0.012   2.874
  465SOL    HW1 1416   0.684   0.031   2.896
  465SOL    HW2 1417   0.804   0.088   2.823
  466SOL     OW 1418   0.648   2.848   2.570
  466SOL    HW1 1419   0.742   2.848   2.591
  466SOL    HW2 1420   0.634   2.931   2.525
  467SOL     OW 1421   1.616   2.309   2.594
  467SOL    HW1 1422   1.539   2.334   2.542
  467SOL    HW2 1423   1.623   2.376   2.662
  468SOL     OW 1424   0.212   0.315   2.322
  468SOL    HW1 1425   0.220   0.385   2.387
  468SOL    HW2 1426   0.206   0.235   2.375
  469SOL     OW 1427   0.233   2.945   2.743
  469SOL    HW1 1428   0.258   2.860   2.778
  469SOL    HW2 1429   0.212   2.997   2.821
  470SOL     OW 1430   0.606   2.823   1.994
  470SOL    HW1 1431   0.594   2.907   1.950
  470SOL    HW2 1432   0.669   2.840   2.063
  471SOL     OW 1433   0.123   2.494   2.425
  471SOL    HW1 1434   0.097   2.411   2.464
  471SOL    HW2 1435   0.120   2.557   2.498
  472SOL     OW 1436   1.702   2.804   2.484
  472SOL    HW1 1437   1.779   2.751   2.500
  472SOL    HW2 1438   1.697   2.813   2.389
  473SOL     OW 1439   0.622   0.240   2.575
  473SOL    HW1 1440   0.594   0.158   2.533
  473SOL    HW2 1441   0.616   0.306   2.506
  474SOL     OW 1442   0.813   1.862   2.368
  474SOL    HW1 1443   0.854   1.947   2.351
  474SOL    HW2 1444   0.720   1.881   2.379
  475SOL     OW 1445   0.216   2.805   0.105
  475SOL    HW1 1446   0.275   2.729   0.100
  475SOL    HW2 1447   0.128   2.768   0.092
  476SOL     OW 1448   1.536   2.842   2.047
  476SOL    HW1 1449   1.469   2.788   2.088
  476SOL    HW2 1450   1.596   2.866   2.118
  477SOL     OW 1451   0.596   2.578   2.128
  477SOL    HW1 1452   0.600   2.658   2.075
  477SOL    HW2 1453   0.532   2.598   2.196
  478SOL     OW 1454   1.299   2.201   2.810
  478SOL    HW1 1455   1.205   2.182   2.801
  478SOL    HW2 1456   1.322   2.167   2.896
  479SOL     OW 1457   1.052   2.562   2.288
  479SOL    HW1 1458   1.065   2.557   2.383
  479SOL    HW2 1459   0.969   2.517   2.273
  480SOL     OW 1460   0.108   2.672   2.624
  480SOL    HW1 1461   0.182   2.674   2.684
  480SOL    HW2 1462   0.044   2.731   2.663
  481SOL     OW 1463   0.888   2.208   2.056
  481SOL    HW1 1464   0.931   2.269   1.996
  481SOL    HW2 1465   0.908   2.121   2.020
  482SOL     OW 1466   0.552   2.047   2.768
  482SOL    HW1 1467   0.513   2.082   2.848
  482SOL    HW2 1468   0.560   2.122   2.710
  483SOL     OW 1469   1.797   2.909   2.728
  483SOL    HW1 1470   1.740   2.890   2.654
  483SOL    HW2 1471   1.739   2.912   2.804
  484SOL     OW 1472   1.483   2.604   2.585
  484SOL    HW1 1473   1.467   2.549   2.662
  484SOL    HW2 1474   1.559   2.657   2.608
  485SOL     OW 1475   1.402   1.970   2.293
  485SOL    HW1 1476   1.393   1.945   2.201
  485SOL    HW2 1477   1.497   1.976   2.307
  486SOL     OW 1478   0.396   2.554   2.334
  486SOL    HW1 1479   0.413   2.461   2.349
  486SOL    HW2 1480   0.303   2.566   2.355
  487SOL     OW 1481   0.632   1.988   1.967
  487SOL    HW1 1482   0.703   1.926   1.981
  487SOL    HW2 1483   0.584   1.954   1.891
  488SOL     OW 1484   0.923   2.381   2.757
  488SOL    HW1 1485   0.903   2.358   2.666
  488SOL    HW2 1486   0.958   2.301   2.794
  489SOL     OW 1487   0.549   1.925   2.366
  489SOL    HW1 1488   0.468   1.925   2.416
  489SOL    HW2 1489   0.544   2.003   2.311
  490SOL     OW 1490   0.291   1.905   2.041
  490SOL    HW1 1491   0.350   1.976   2.016
  490SOL    HW2 1492   0.347   1.841   2.085
  491SOL     OW 1493   0.937   2.106   2.323
  491SOL    HW1 1494   0.909   2.150   2.243
  491SOL    HW2 1495   1.032   2.119   2.326
  492SOL     OW 1496   1.026   2.406   1.881
  492SOL    HW1 1497   0.981   2.488   1.862
  492SOL    HW2 1498   1.088   2.427   1.951
  493SOL     OW 1499   0.869   2.318   2.499
  493SOL    HW1 1500   0.821   2.375   2.438
  493SOL    HW2 1501   0.887   2.239   2.448
  494SOL     OW 1502   1.012   1.911   2.612
  494SOL    HW1 1503   0.955   1.904   2.535
  494SOL    HW2 1504   0.992   1.833   2.664
  495SOL     OW 1505   1.421   2.996   2.737
  495SOL    HW1 1506   1.355   2.940   2.697
  495SOL    HW2 1507   1.448   0.055   2.666
  496SOL     OW 1508   1.484   2.450   2.818
  496SOL    HW1 1509   1.421   2.377   2.824
  496SOL    HW2 1510   1.507   2.469   2.909
  497SOL     OW 1511   1.835   2.666   2.253
  497SOL    HW1 1512   1.895   2.619   2.310
  497SOL    HW2 1513   1.814   2.605   2.182
  498SOL     OW 1514   1.394   2.434   1.934
  498SOL    HW1 1515   1.334   2.413   2.006
  498SOL    HW2 1516   1.479   2.402   1.964
  499SOL     OW 1517   0.526   2.124   2.181
  499SOL    HW1 1518   0.568   2.076   2.109
  499SOL    HW2 1519   0.507   2.210   2.144
  500SOL     OW 1520   1.625   2.966   2.934
  500SOL    HW1 1521   1.630   0.044   2.989
  500SOL    HW2 1522   1.549   2.981   2.877
  501SOL     OW 1523   0.552   2.394   2.726
  501SOL    HW1 1524   0.567   2.450   2.649
  501SOL    HW2 1525   0.615   2.426   2.791
  502SOL     OW 1526   1.576   2.486   2.334
  502SOL    HW1 1527   1.539   2.542   2.403
  502SOL    HW2 1528   1.636   2.544   2.286
  503SOL     OW 1529   0.576   2.727   2.885
  503SOL    HW1 1530   0.613   2.807   2.848
  503SOL    HW2 1531   0.565   2.746   2.978
  504SOL     OW 1532   1.205   2.392   2.130
  504SOL    HW1 1533   1.215   2.313   2.184
  504SOL    HW2 1534   1.161   2.454   2.187
  505SOL     OW 1535   0.330   2.061   0.078
  505SOL    HW1 1536   0.315   2.104   0.162
  505SOL    HW2 1537   0.307   1.969   0.092
  506SOL     OW 1538   0.729   2.500   2.914
  506SOL    HW1 1539   0.797   2.479   2.850
  506SOL    HW2 1540   0.694   2.585   2.886
  507SOL     OW 1541   0.304   1.932   2.482
  507SOL    HW1 1542   0.284   2.022   2.508
  507SOL    HW2 1543   0.307   1.883   2.564
  508SOL     OW 1544   1.614   2.234   2.228
  508SOL    HW1 1545   1.644   2.170   2.293
  508SOL    HW2 1546   1.591   2.311   2.280
  509SOL     OW 1547   1.025   2.620   2.822
  509SOL    HW1 1548   1.026   2.625   2.918
  509SOL    HW2 1549   0.996   2.531   2.803
  510SOL     OW 1550   1.530   2.137   1.987
  510SOL    HW1 1551   1.467   2.070   2.013
  510SOL    HW2 1552   1.563   2.171   2.070
  511SOL     OW 1553   1.291   2.686   1.894
  511SOL    HW1 1554   1.334   2.600   1.899
  511SOL    HW2 1555   1.324   2.724   1.813
  512SOL     OW 1556   0.311   2.675   2.809
  512SOL    HW1 1557   0.406   2.691   2.812
  512SOL    HW2 1558   0.301   2.586   2.842
  513SOL     OW 1559   0.320   2.386   2.867
  513SOL    HW1 1560   0.288   2.297   2.852
  513SOL    HW2 1561   0.400   2.393   2.815
  514SOL     OW 1562   0.981   2.612   0.088
  514SOL    HW1 1563   1.025   2.604   0.173
  514SOL    HW2 1564   0.891   2.637   0.110
  515SOL     OW 1565   0.818   2.432   2.218
  515SOL    HW1 1566   0.817   2.356   2.159
  515SOL    HW2 1567   0.743   2.484   2.190
  516SOL     OW 1568   0.704   2.309   0.101
  516SOL    HW1 1569   0.616   2.272   0.092
  516SOL    HW2 1570   0.707   2.381   0.038
  517SOL     OW 1571   0.464   2.355   2.047
  517SOL    HW1 1572   0.526   2.424   2.069
  517SOL    HW2 1573   0.379   2.399   2.042
  518SOL     OW 1574   1.303   2.726   2.170
  518SOL    HW1 1575   1.232   2.685   2.219
  518SOL    HW2 1576   1.286   2.704   2.079
  519SOL     OW 1577   1.712   2.004   2.369
  519SOL    HW1 1578   1.792   1.994   2.317
  519SOL    HW2 1579   1.702   1.920   2.413
  520SOL     OW 1580   1.295   2.799   2.545
  520SOL    HW1 1581   1.361   2.730   2.546
  520SOL    HW2 1582   1.306   2.842   2.460
  521SOL     OW 1583   1.839   2.041   2.823
  521SOL    HW1 1584   1.872   1.955   2.797
  521SOL    HW2 1585   1.750   2.044   2.788
  522SOL     OW 1586   0.269   2.181   2.576
  522SOL    HW1 1587   0.183   2.217   2.554
  522SOL    HW2 1588   0.265   2.167   2.671
  523SOL     OW 1589   0.903   2.760   2.111
  523SOL    HW1 1590   0.979   2.810   2.081
  523SOL    HW2 1591   0.934   2.712   2.187
  524SOL     OW 1592   1.036   2.107   2.804
  524SOL    HW1 1593   1.024   2.051   2.727
  524SOL    HW2 1594   1.004   2.056   2.877
  525SOL     OW 1595   0.094   2.178   1.917
  525SOL    HW1 1596   0.009   2.149   1.882
  525SOL    HW2 1597   0.103   2.268   1.885
  526SOL     OW 1598   0.065   2.062   2.175
  526SOL    HW1 1599   0.073   2.107   2.091
  526SOL    HW2 1600   0.130   1.991   2.171
  527SOL     OW 1601   1.123   0.237   2.007
  527SOL    HW1 1602   1.107   0.157   1.957
  527SOL    HW2 1603   1.210   0.224   2.045
  528SOL     OW 1604   1.731   2.712   0.053
  528SOL    HW1 1605   1.658   2.668   0.097
  528SOL    HW2 1606   1.699   2.801   0.038
  529SOL     OW 1607   1.218   2.182   2.319
  529SOL    HW1 1608   1.282   2.111   2.310
  529SOL    HW2 1609   1.247   2.229   2.397
  530SOL     OW 1610   0.594   2.584   2.527
  530SOL    HW1 1611   0.617   2.676   2.538
  530SOL    HW2 1612   0.525   2.583   2.461
  531SOL     OW 1613   0.884   2.824   2.715
  531SOL    HW1 1614   0.927   2.749   2.756
  531SOL    HW2 1615   0.846   2.873   2.787
  532SOL     OW 1616   1.106   2.878   1.953
  532SOL    HW1 1617   1.061   2.901   1.872
  532SOL    HW2 1618   1.161   2.802   1.930
  533SOL     OW 1619   1.819   2.048   0.097
  533SOL    HW1 1620   1.795   1.956   0.098
  533SOL    HW2 1621   1.830   2.070   0.005
  534SOL     OW 1622   0.428   2.294   2.383
  534SOL    HW1 1623   0.458   2.220   2.330
  534SOL    HW2 1624   0.381   2.254   2.456
  535SOL     OW 1625   1.353   1.914   2.024
  535SOL    HW1 1626   1.385   1.843   1.968
  535SOL    HW2 1627   1.266   1.886   2.050
  536SOL     OW 1628   1.296   2.320   2.548
  536SOL    HW1 1629   1.243   2.399   2.556
  536SOL    HW2 1630   1.296   2.281   2.635
  537SOL     OW 1631   1.581   2.073   2.737
  537SOL    HW1 1632   1.498   2.096   2.779
  537SOL    HW2 1633   1.598   2.145   2.676
  538SOL     OW 1634   0.017   2.933   2.156
  538SOL    HW1 1635   0.111   2.923   2.140
  538SOL    HW2 1636   2.999   2.876   2.231
  539SOL     OW 1637   2.093   0.636   0.122
  539SOL    HW1 1638   1.998   0.629   0.136
  539SOL    HW2 1639   2.106   0.606   0.032
  540SOL     OW 1640   2.078   0.287   1.009
  540SOL    HW1 1641   2.110   0.249   1.091
  540SOL    HW2 1642   1.994   0.243   0.994
  541SOL     OW 1643   1.865   0.381   0.642
  541SOL    HW1 1644   1.783   0.407   0.684
  541SOL    HW2 1645   1.841   0.306   0.588
  542SOL     OW 1646   2.427   1.283   1.172
  542SOL    HW1 1647   2.339   1.290   1.134
  542SOL    HW2 1648   2.444   1.371   1.207
  543SOL     OW 1649   2.616   1.143   1.036
  543SOL    HW1 1650   2.549   1.177   1.095
  543SOL    HW2 1651   2.655   1.220   0.996
  544SOL     OW 1652   2.720   0.776   1.817
  544SOL    HW1 1653   2.714   0.845   1.883
  544SOL    HW2 1654   2.745   0.822   1.737
  545SOL     OW 1655   2.547   1.006   0.649
  545SOL    HW1 1656   2.608   0.990   0.721
  545SOL    HW2 1657   2.476   1.057   0.689
  546SOL     OW 1658   2.570   1.152   1.811
  546SOL    HW1 1659   2.617   1.231   1.837
  546SOL    HW2 1660   2.487   1.185   1.777
  547SOL     OW 1661   2.189   1.430   1.065
  547SOL    HW1 1662   2.122   1.392   1.009
  547SOL    HW2 1663   2.245   1.480   1.006
  548SOL     OW 1664   2.314   0.402   1.486
  548SOL    HW1 1665   2.388   0.342   1.492
  548SOL    HW2 1666   2.237   0.347   1.503
  549SOL     OW 1667   2.082   1.713   0.474
  549SOL    HW1 1668   2.104   1.790   0.526
  549SOL    HW2 1669   2.157   1.703   0.414
  550SOL     OW 1670   2.982   1.347   1.688
  550SOL    HW1 1671   0.026   1.349   1.773
  550SOL    HW2 1672   2.935   1.263   1.688
  551SOL     OW 1673   2.085   1.442   0.534
  551SOL    HW1 1674   2.075   1.537   0.539
  551SOL    HW2 1675   2.026   1.407   0.601
  552SOL     OW 1676   2.114   1.090   0.890
  552SOL    HW1 1677   2.117   1.004   0.931
  552SOL    HW2 1678   2.058   1.143   0.947
  553SOL     OW 1679   2.473   1.791   1.430
  553SOL    HW1 1680   2.393   1.772   1.478
  553SOL    HW2 1681   2.497   1.880   1.456
  554SOL     OW 1682   2.453   0.979   0.146
  554SOL    HW1 1683   2.480   1.049   0.087
  554SOL    HW2 1684   2.487   1.005   0.232
  555SOL     OW 1685   1.980   0.645   0.562
  555SOL    HW1 1686   1.937   0.563   0.588
  555SOL    HW2 1687   1.973   0.700   0.640
  556SOL     OW 1688   1.869   1.588   0.122
  556SOL    HW1 1689   1.887   1.498   0.149
  556SOL    HW2 1690   1.879   1.640   0.202
  557SOL     OW 1691   1.985   0.743   1.585
  557SOL    HW1 1692   2.077   0.765   1.598
  557SOL    HW2 1693   1.938   0.826   1.598
  558SOL     OW 1694   2.472   1.384   0.735
  558SOL    HW1 1695   2.428   1.300   0.743
  558SOL    HW2 1696   2.457   1.411   0.644
  559SOL     OW 1697   2.682   0.016   0.522
  559SOL    HW1 1698   2.710   0.105   0.501
  559SOL    HW2 1699   2.588   0.015   0.503
  560SOL     OW 1700   2.052   0.969   1.260
  560SOL    HW1 1701   2.137   0.927   1.251
  560SOL    HW2 1702   1.990   0.904   1.228
  561SOL     OW 1703   2.187   0.254   1.800
  561SOL    HW1 1704   2.237   0.331   1.826
  561SOL    HW2 1705   2.101   0.266   1.841
  562SOL     OW 1706   2.452   0.721   0.266
  562SOL    HW1 1707   2.458   0.804   0.218
  562SOL    HW2 1708   2.389   0.739   0.336
  563SOL     OW 1709   2.655   0.628   1.453
  563SOL    HW1 1710   2.629   0.600   1.541
  563SOL    HW2 1711   2.617   0.561   1.395
  564SOL     OW 1712   2.828   0.882   1.574
  564SOL    HW1 1713   2.854   0.796   1.541
  564SOL    HW2 1714   2.781   0.922   1.502
  565SOL     OW 1715   2.846   0.373   1.260
  565SOL    HW1 1716   2.771   0.425   1.288
  565SOL    HW2 1717   2.842   0.375   1.164
  566SOL     OW 1718   2.892   0.716   0.408
  566SOL    HW1 1719   2.930   0.699   0.494
  566SOL    HW2 1720   2.816   0.657   0.404
  567SOL     OW 1721   1.952   0.819   0.774
  567SOL    HW1 1722   2.033   0.811   0.825
  567SOL    HW2 1723   1.911   0.898   0.809
  568SOL     OW 1724   1.967   1.818   1.569
  568SOL    HW1 1725   1.984   1.799   1.661
  568SOL    HW2 1726   1.908   1.893   1.571
  569SOL     OW 1727   2.781   0.344   0.219
  569SOL    HW1 1728   2.761   0.395   0.141
  569SOL    HW2 1729   2.773   0.253   0.191
  570SOL     OW 1730   2.378   0.198   0.911
  570SOL    HW1 1731   2.397   0.214   1.004
  570SOL    HW2 1732   2.404   0.279   0.868
  571SOL     OW 1733   2.862   1.441   0.470
  571SOL    HW1 1734   2.828   1.517   0.422
  571SOL    HW2 1735   2.858   1.467   0.562
  572SOL     OW 1736   2.219   1.807   0.860
  572SOL    HW1 1737   2.264   1.723   0.867
  572SOL    HW2 1738   2.288   1.872   0.874
  573SOL     OW 1739   2.180   0.952   0.245
  573SOL    HW1 1740   2.262   0.970   0.200
  573SOL    HW2 1741   2.152   0.867   0.211
  574SOL     OW 1742   2.327   1.261   1.738
  574SOL    HW1 1743   2.300   1.267   1.647
  574SOL    HW2 1744   2.246   1.263   1.788
  575SOL     OW 1745   2.063   0.294   1.498
  575SOL    HW1 1746   1.979   0.341   1.501
  575SOL    HW2 1747   2.053   0.224   1.562
  576SOL     OW 1748   2.330   1.721   0.336
  576SOL    HW1 1749   2.364   1.792   0.391
  576SOL    HW2 1750   2.394   1.713   0.265
  577SOL     OW 1751   2.077   1.775   1.242
  577SOL    HW1 1752   2.137   1.718   1.290
  577SOL    HW2 1753   2.096   1.759   1.150
  578SOL     OW 1754   2.799   1.695   0.899
  578SOL    HW1 1755   2.863   1.629   0.926
  578SOL    HW2 1756   2.752   1.654   0.827
  579SOL     OW 1757   2.257   0.690   0.476
  579SOL    HW1 1758   2.287   0.601   0.494
  579SOL    HW2 1759   2.163   0.688   0.496
  580SOL     OW 1760   2.477   0.109   0.106
  580SOL    HW1 1761   2.572   0.113   0.118
  580SOL    HW2 1762   2.462   0.149   0.020
  581SOL     OW 1763   2.632   0.277   1.753
  581SOL    HW1 1764   2.702   0.214   1.766
  581SOL    HW2 1765   2.580   0.273   1.833
  582SOL     OW 1766   2.739   1.516   1.195
  582SOL    HW1 1767   2.719   1.483   1.107
  582SOL    HW2 1768   2.803   1.455   1.230
  583SOL     OW 1769   2.668   1.402   0.939
  583SOL    HW1 1770   2.752   1.389   0.895
  583SOL    HW2 1771   2.604   1.398   0.869
  584SOL     OW 1772   2.784   0.504   0.905
  584SOL    HW1 1773   2.758   0.494   0.814
  584SOL    HW2 1774   2.824   0.420   0.928
  585SOL     OW 1775   2.402   0.047   0.498
  585SOL    HW1 1776   2.316   0.038   0.539
  585SOL    HW2 1777   2.395   0.126   0.444
  586SOL     OW 1778   0.322   1.151   0.044
  586SOL    HW1 1779   0.309   1.099   0.123
  586SOL    HW2 1780   0.256   1.219   0.049
  587SOL     OW 1781   2.158   0.090   0.186
  587SOL    HW1 1782   2.244   0.131   0.198
  587SOL    HW2 1783   2.175   2.996   0.195
  588SOL     OW 1784   2.828   0.247   0.466
  588SOL    HW1 1785   2.787   0.297   0.397
  588SOL    HW2 1786   2.904   0.206   0.425
  589SOL     OW 1787   0.084   1.583   0.797
  589SOL    HW1 1788   0.108   1.620   0.712
  589SOL    HW2 1789   0.166   1.551   0.833
  590SOL     OW 1790   2.328   1.148   0.734
  590SOL    HW1 1791   2.258   1.128   0.796
  590SOL    HW2 1792   2.289   1.133   0.648
  591SOL     OW 1793   2.896   0.510   0.022
  591SOL    HW1 1794   2.844   0.589   0.010
  591SOL    HW2 1795   2.942   0.524   0.105
  592SOL     OW 1796   1.938   0.556   1.391
  592SOL    HW1 1797   2.030   0.552   1.365
  592SOL    HW2 1798   1.935   0.626   1.456
  593SOL     OW 1799   2.428   0.215   1.182
  593SOL    HW1 1800   2.464   0.170   1.258
  593SOL    HW2 1801   2.335   0.223   1.201
  594SOL     OW 1802   2.744   0.469   0.635
  594SOL    HW1 1803   2.678   0.519   0.588
  594SOL    HW2 1804   2.735   0.380   0.602
  595SOL     OW 1805   2.861   0.058   0.760
  595SOL    HW1 1806   2.822   0.062   0.672
  595SOL    HW2 1807   2.836   2.973   0.794
  596SOL     OW 1808   2.353   1.401   0.151
  596SOL    HW1 1809   2.287   1.372   0.214
  596SOL    HW2 1810   2.306   1.410   0.068
  597SOL     OW 1811   2.392   0.261   0.323
  597SOL    HW1 1812   2.435   0.214   0.252
  597SOL    HW2 1813   2.363   0.343   0.284
  598SOL     OW 1814   2.778   0.114   1.400
  598SOL    HW1 1815   2.805   0.099   1.309
  598SOL    HW2 1816   2.839   0.180   1.433
  599SOL     OW 1817   2.840   1.110   1.729
  599SOL    HW1 1818   2.748   1.131   1.741
  599SOL    HW2 1819   2.841   1.042   1.662
  600SOL     OW 1820   2.563   1.062   0.379
  600SOL    HW1 1821   2.549   1.048   0.473
  600SOL    HW2 1822   2.647   1.020   0.361
  601SOL     OW 1823   2.277   0.815   1.253
  601SOL    HW1 1824   2.347   0.825   1.318
  601SOL    HW2 1825   2.244   0.726   1.267
  602SOL     OW 1826   2.213   1.109   0.489
  602SOL    HW1 1827   2.214   1.184   0.429
  602SOL    HW2 1828   2.211   1.032   0.432
  603SOL     OW 1829   2.417   0.542   0.864
  603SOL    HW1 1830   2.434   0.596   0.786
  603SOL    HW2 1831   2.484   0.569   0.927
  604SOL     OW 1832   2.208   1.516   1.317
  604SOL    HW1 1833   2.199   1.482   1.228
  604SOL    HW2 1834   2.301   1.533   1.327
  605SOL     OW 1835   2.275   0.744   1.601
  605SOL    HW1 1836   2.336   0.790   1.544
  605SOL    HW2 1837   2.316   0.659   1.617
  606SOL     OW 1838   2.866   0.118   1.761
  606SOL    HW1 1839   2.901   0.193   1.712
  606SOL    HW2 1840   2.901   0.041   1.716
  607SOL     OW 1841   2.367   0.056   1.748
  607SOL    HW1 1842   2.329   2.985   1.695
  607SOL    HW2 1843   2.296   0.119   1.756
  608SOL     OW 1844   2.441   0.875   1.030
  608SOL    HW1 1845   2.478   0.963   1.030
  608SOL    HW2 1846   2.388   0.870   1.109
  609SOL     OW 1847   0.063   0.532   0.268
  609SOL    HW1 1848   0.085   0.449   0.311
  609SOL    HW2 1849   0.035   0.589   0.339
  610SOL     OW 1850   2.160   0.196   1.253
  610SOL    HW1 1851   2.129   0.239   1.333
  610SOL    HW2 1852   2.139   0.104   1.265
  611SOL     OW 1853   1.916   1.324   1.284
  611SOL    HW1 1854   1.935   1.256   1.348
  611SOL    HW2 1855   1.984   1.390   1.298
  612SOL     OW 1856   2.590   0.634   1.060
  612SOL    HW1 1857   2.666   0.617   1.005
  612SOL    HW2 1858   2.563   0.723   1.037
  613SOL     OW 1859   2.168   0.062   0.641
  613SOL    HW1 1860   2.170   0.153   0.670
  613SOL    HW2 1861   2.152   0.012   0.721
  614SOL     OW 1862   2.867   0.769   0.972
  614SOL    HW1 1863   2.896   0.774   1.063
  614SOL    HW2 1864   2.873   0.677   0.950
  615SOL     OW 1865   2.830   1.569   1.703
  615SOL    HW1 1866   2.826   1.609   1.616
  615SOL    HW2 1867   2.887   1.493   1.691
  616SOL     OW 1868   2.214   0.916   1.807
  616SOL    HW1 1869   2.296   0.937   1.852
  616SOL    HW2 1870   2.239   0.854   1.739
  617SOL     OW 1871   2.906   1.344   0.834
  617SOL    HW1 1872   2.910   1.265   0.780
  617SOL    HW2 1873   2.979   1.398   0.803
  618SOL     OW 1874   2.172   0.810   0.947
  618SOL    HW1 1875   2.265   0.833   0.944
  618SOL    HW2 1876   2.170   0.720   0.980
  619SOL     OW 1877   2.196   0.528   1.014
  619SOL    HW1 1878   2.159   0.441   0.999
  619SOL    HW2 1879   2.271   0.532   0.955
  620SOL     OW 1880   2.965   0.366   1.665
  620SOL    HW1 1881   2.906   0.428   1.706
  620SOL    HW2 1882   0.051   0.407   1.670
  621SOL     OW 1883   1.873   1.319   0.187
  621SOL    HW1 1884   1.783   1.333   0.160
  621SOL    HW2 1885   1.872   1.233   0.230
  622SOL     OW 1886   1.956   1.793   0.938
  622SOL    HW1 1887   1.921   1.713   0.900
  622SOL    HW2 1888   2.045   1.799   0.903
  623SOL     OW 1889   2.361   1.573   0.907
  623SOL    HW1 1890   2.430   1.634   0.931
  623SOL    HW2 1891   2.404   1.509   0.850
  624SOL     OW 1892   2.864   0.792   1.253
  624SOL    HW1 1893   2.910   0.726   1.304
  624SOL    HW2 1894   2.774   0.760   1.249
  625SOL     OW 1895   1.898   0.541   1.116
  625SOL    HW1 1896   1.978   0.526   1.067
  625SOL    HW2 1897   1.926   0.549   1.207
  626SOL     OW 1898   2.049   0.519   1.726
  626SOL    HW1 1899   2.108   0.483   1.660
  626SOL    HW2 1900   2.007   0.593   1.681
  627SOL     OW 1901   2.673   0.573   0.350
  627SOL    HW1 1902   2.678   0.493   0.297
  627SOL    HW2 1903   2.591   0.614   0.322
  628SOL     OW 1904   2.129   1.556   1.735
  628SOL    HW1 1905   2.085   1.616   1.795
  628SOL    HW2 1906   2.111   1.469   1.771
  629SOL     OW 1907   2.558   0.459   1.264
  629SOL    HW1 1908   2.512   0.382   1.232
  629SOL    HW2 1909   2.558   0.519   1.189
  630SOL     OW 1910   2.803   1.689   1.458
  630SOL    HW1 1911   2.772   1.639   1.382
  630SOL    HW2 1912   2.773   1.778   1.441
  631SOL     OW 1913   2.316   0.494   0.200
  631SOL    HW1 1914   2.371   0.569   0.223
  631SOL    HW2 1915   2.230   0.531   0.183
  632SOL     OW 1916   2.016   1.138   1.466
  632SOL    HW1 1917   2.017   1.086   1.547
  632SOL    HW2 1918   2.032   1.074   1.397
  633SOL     OW 1919   1.937   1.271   1.012
  633SOL    HW1 1920   1.926   1.274   1.107
  633SOL    HW2 1921   1.874   1.206   0.982
  634SOL     OW 1922   2.535   1.663   1.728
  634SOL    HW1 1923   2.489   1.747   1.723
  634SOL    HW2 1924   2.606   1.671   1.664
  635SOL     OW 1925   2.766   0.086   0.143
  635SOL    HW1 1926   2.798   0.037   0.068
  635SOL    HW2 1927   2.811   0.047   0.218
  636SOL     OW 1928   1.998   1.796   1.839
  636SOL    HW1 1929   1.946   1.734   1.890
  636SOL    HW2 1930   2.051   1.842   1.903
  637SOL     OW 1931   2.678   1.270   1.425
  637SOL    HW1 1932   2.668   1.314   1.509
  637SOL    HW2 1933   2.604   1.299   1.372
  638SOL     OW 1934   2.530   1.610   0.160
  638SOL    HW1 1935   2.533   1.633   0.067
  638SOL    HW2 1936   2.478   1.530   0.163
  639SOL     OW 1937   2.137   0.349   0.754
  639SOL    HW1 1938   2.047   0.367   0.727
  639SOL    HW2 1939   2.130   0.315   0.843
  640SOL     OW 1940   2.688   1.006   1.374
  640SOL    HW1 1941   2.736   1.000   1.292
  640SOL    HW2 1942   2.688   1.100   1.395
  641SOL     OW 1943   2.792   0.947   0.309
  641SOL    HW1 1944   2.839   0.956   0.227
  641SOL    HW2 1945   2.826   0.865   0.347
  642SOL     OW 1946   2.234   1.300   1.493
  642SOL    HW1 1947   2.221   1.378   1.440
  642SOL    HW2 1948   2.157   1.245   1.475
  643SOL     OW 1949   2.917   1.083   0.722
  643SOL    HW1 1950   2.841   1.042   0.763
  643SOL    HW2 1951   2.930   1.033   0.641
  644SOL     OW 1952   2.879   0.239   0.970
  644SOL    HW1 1953   2.876   0.188   0.888
  644SOL    HW2 1954   2.870   0.174   1.039
  645SOL     OW 1955   2.460   1.488   0.483
  645SOL    HW1 1956   2.505   1.439   0.414
  645SOL    HW2 1957   2.403   1.549   0.436
  646SOL     OW 1958   2.133   1.331   0.298
  646SOL    HW1 1959   2.048   1.337   0.254
  646SOL    HW2 1960   2.120   1.376   0.381
  647SOL     OW 1961   1.972   1.020   1.717
  647SOL    HW1 1962   1.897   0.997   1.771
  647SOL    HW2 1963   2.048   0.985   1.765
  648SOL     OW 1964   2.528   0.210   1.491
  648SOL    HW1 1965   2.611   0.181   1.453
  648SOL    HW2 1966   2.547   0.224   1.583
  649SOL     OW 1967   1.914   0.201   0.332
  649SOL    HW1 1968   1.881   0.231   0.248
  649SOL    HW2 1969   1.999   0.161   0.311
  650SOL     OW 1970   2.479   0.835   1.432
  650SOL    HW1 1971   2.535   0.911   1.418
  650SOL    HW2 1972   2.540   0.761   1.439
  651SOL     OW 1973   2.579   0.563   1.703
  651SOL    HW1 1974   2.614   0.627   1.765
  651SOL    HW2 1975   2.611   0.479   1.735
  652SOL     OW 1976   2.239   1.741   1.562
  652SOL    HW1 1977   2.149   1.772   1.548
  652SOL    HW2 1978   2.229   1.659   1.610
  653SOL     OW 1979   2.457   0.740   0.666
  653SOL    HW1 1980   2.493   0.828   0.653
  653SOL    HW2 1981   2.386   0.733   0.602
  654SOL     OW 1982   2.765   1.381   0.064
  654SOL    HW1 1983   2.693   1.389   0.126
  654SOL    HW2 1984   2.731   1.417   2.982
  655SOL     OW 1985   2.521   1.795   0.949
  655SOL    HW1 1986   2.500   1.884   0.922
  655SOL    HW2 1987   2.615   1.787   0.937
  656SOL     OW 1988   2.718   0.962   0.857
  656SOL    HW1 1989   2.765   0.890   0.898
  656SOL    HW2 1990   2.686   1.015   0.930
  657SOL     OW 1991   2.956   1.013   0.080
  657SOL    HW1 1992   2.933   1.061   0.000
  657SOL    HW2 1993   0.014   0.944   0.050
  658SOL     OW 1994   2.085   1.304   1.854
  658SOL    HW1 1995   2.018   1.240   1.833
  658SOL    HW2 1996   2.075   1.320   1.948
  659SOL     OW 1997   1.943   1.236   0.666
  659SOL    HW1 1998   1.951   1.182   0.744
  659SOL    HW2 1999   2.011   1.203   0.607
  660SOL     OW 2000   2.539   1.403   1.623
  660SOL    HW1 2001   2.462   1.357   1.655
  660SOL    HW2 2002   2.535   1.489   1.665
  661SOL     OW 2003   2.341   0.433   0.552
  661SOL    HW1 2004   2.326   0.377   0.476
  661SOL    HW2 2005   2.272   0.410   0.614
  662SOL     OW 2006   2.189   0.553   1.291
  662SOL    HW1 2007   2.247   0.501   1.346
  662SOL    HW2 2008   2.211   0.528   1.202
  663SOL     OW 2009   2.684   1.583   0.679
  663SOL    HW1 2010   2.680   1.623   0.592
  663SOL    HW2 2011   2.608   1.524   0.680
  664SOL     OW 2012   2.853   0.017   1.147
  664SOL    HW1 2013   2.822   2.943   1.095
  664SOL    HW2 2014   2.945   2.997   1.165
  665SOL     OW 2015   2.628   1.330   0.316
  665SOL    HW1 2016   2.600   1.240   0.333
  665SOL    HW2 2017   2.713   1.338   0.360
  666SOL     OW 2018   2.480   1.559   1.282
  666SOL    HW1 2019   2.484   1.639   1.333
  666SOL    HW2 2020   2.569   1.549   1.246
  667SOL     OW 2021   1.902   1.074   0.307
  667SOL    HW1 2022   1.995   1.068   0.287
  667SOL    HW2 2023   1.876   0.984   0.327
  668SOL     OW 2024   2.738   1.650   0.348
  668SOL    HW1 2025   2.669   1.633   0.283
  668SOL    HW2 2026   2.709   1.728   0.394
  669SOL     OW 2027   2.092   0.624   1.984
  669SOL    HW1 2028   2.003   0.622   2.019
  669SOL    HW2 2029   2.082   0.597   1.892
  670SOL     OW 2030   2.088   0.278   2.882
  670SOL    HW1 2031   2.105   0.237   2.967
  670SOL    HW2 2032   2.004   0.242   2.855
  671SOL     OW 2033   1.866   0.381   2.503
  671SOL    HW1 2034   1.785   0.412   2.545
  671SOL    HW2 2035   1.838   0.305   2.452
  672SOL     OW 2036   2.610   1.147   2.898
  672SOL    HW1 2037   2.546   1.194   2.951
  672SOL    HW2 2038   2.659   1.215   2.852
  673SOL     OW 2039   2.547   1.006   2.507
  673SOL    HW1 2040   2.607   0.991   2.581
  673SOL    HW2 2041   2.476   1.057   2.545
  674SOL     OW 2042   2.202   1.431   2.932
  674SOL    HW1 2043   2.125   1.401   2.883
  674SOL    HW2 2044   2.251   1.484   2.869
  675SOL     OW 2045   2.082   1.710   2.332
  675SOL    HW1 2046   2.092   1.785   2.392
  675SOL    HW2 2047   2.162   1.711   2.279
  676SOL     OW 2048   2.090   1.439   2.394
  676SOL    HW1 2049   2.082   1.534   2.397
  676SOL    HW2 2050   2.029   1.408   2.461
  677SOL     OW 2051   2.116   1.092   2.753
  677SOL    HW1 2052   2.110   1.005   2.793
  677SOL    HW2 2053   2.059   1.147   2.806
  678SOL     OW 2054   2.452   0.980   1.994
  678SOL    HW1 2055   2.493   1.032   1.926
  678SOL    HW2 2056   2.489   1.012   2.076
  679SOL     OW 2057   1.981   0.645   2.425
  679SOL    HW1 2058   1.934   0.565   2.450
  679SOL    HW2 2059   1.973   0.701   2.502
  680SOL     OW 2060   1.882   1.597   1.982
  680SOL    HW1 2061   1.877   1.505   2.007
  680SOL    HW2 2062   1.869   1.645   2.064
  681SOL     OW 2063   2.471   1.381   2.595
  681SOL    HW1 2064   2.422   1.299   2.602
  681SOL    HW2 2065   2.456   1.410   2.505
  682SOL     OW 2066   2.684   0.015   2.380
  682SOL    HW1 2067   2.710   0.104   2.357
  682SOL    HW2 2068   2.590   0.012   2.362
  683SOL     OW 2069   2.458   0.724   2.126
  683SOL    HW1 2070   2.463   0.805   2.075
  683SOL    HW2 2071   2.392   0.743   2.194
  684SOL     OW 2072   2.890   0.707   2.281
  684SOL    HW1 2073   2.919   0.692   2.372
  684SOL    HW2 2074   2.814   0.651   2.270
  685SOL     OW 2075   1.953   0.820   2.635
  685SOL    HW1 2076   2.032   0.812   2.689
  685SOL    HW2 2077   1.907   0.896   2.670
  686SOL     OW 2078   2.738   0.344   2.050
  686SOL    HW1 2079   2.790   0.406   1.999
  686SOL    HW2 2080   2.783   0.261   2.039
  687SOL     OW 2081   2.420   0.203   2.836
  687SOL    HW1 2082   2.359   0.268   2.869
  687SOL    HW2 2083   2.438   0.230   2.746
  688SOL     OW 2084   2.864   1.440   2.332
  688SOL    HW1 2085   2.828   1.514   2.282
  688SOL    HW2 2086   2.853   1.466   2.424
  689SOL     OW 2087   2.218   1.806   2.722
  689SOL    HW1 2088   2.262   1.721   2.726
  689SOL    HW2 2089   2.287   1.868   2.702
  690SOL     OW 2090   2.184   0.955   2.111
  690SOL    HW1 2091   2.265   0.976   2.065
  690SOL    HW2 2092   2.153   0.874   2.070
  691SOL     OW 2093   2.321   1.739   2.175
  691SOL    HW1 2094   2.351   1.783   2.254
  691SOL    HW2 2095   2.401   1.711   2.130
  692SOL     OW 2096   2.120   1.801   0.109
  692SOL    HW1 2097   2.168   1.728   0.149
  692SOL    HW2 2098   2.085   1.764   0.028
  693SOL     OW 2099   2.797   1.698   2.755
  693SOL    HW1 2100   2.858   1.636   2.794
  693SOL    HW2 2101   2.755   1.650   2.684
  694SOL     OW 2102   2.257   0.690   2.340
  694SOL    HW1 2103   2.286   0.600   2.355
  694SOL    HW2 2104   2.164   0.689   2.359
  695SOL     OW 2105   2.490   0.123   1.972
  695SOL    HW1 2106   2.578   0.085   1.968
  695SOL    HW2 2107   2.451   0.102   1.888
  696SOL     OW 2108   2.664   1.398   2.793
  696SOL    HW1 2109   2.749   1.392   2.750
  696SOL    HW2 2110   2.601   1.397   2.721
  697SOL     OW 2111   2.783   0.521   2.756
  697SOL    HW1 2112   2.757   0.497   2.667
  697SOL    HW2 2113   2.813   0.439   2.795
  698SOL     OW 2114   2.406   0.061   2.367
  698SOL    HW1 2115   2.319   0.044   2.401
  698SOL    HW2 2116   2.393   0.132   2.304
  699SOL     OW 2117   2.149   0.033   2.059
  699SOL    HW1 2118   2.193   0.110   2.022
  699SOL    HW2 2119   2.220   2.975   2.085
  700SOL     OW 2120   2.812   0.253   2.320
  700SOL    HW1 2121   2.762   0.297   2.251
  700SOL    HW2 2122   2.891   0.223   2.276
  701SOL     OW 2123   0.083   1.575   2.660
  701SOL    HW1 2124   0.108   1.621   2.580
  701SOL    HW2 2125   0.167   1.559   2.704
  702SOL     OW 2126   2.329   1.144   2.597
  702SOL    HW1 2127   2.258   1.129   2.660
  702SOL    HW2 2128   2.289   1.129   2.512
  703SOL     OW 2129   2.886   0.550   1.879
  703SOL    HW1 2130   2.840   0.632   1.859
  703SOL    HW2 2131   2.938   0.570   1.957
  704SOL     OW 2132   2.742   0.467   2.494
  704SOL    HW1 2133   2.678   0.518   2.445
  704SOL    HW2 2134   2.741   0.381   2.452
  705SOL     OW 2135   2.857   0.055   2.616
  705SOL    HW1 2136   2.820   0.053   2.527
  705SOL    HW2 2137   2.836   2.970   2.653
  706SOL     OW 2138   2.357   1.412   2.022
  706SOL    HW1 2139   2.282   1.386   2.075
  706SOL    HW2 2140   2.331   1.391   1.932
  707SOL     OW 2141   2.393   0.265   2.182
  707SOL    HW1 2142   2.430   0.213   2.110
  707SOL    HW2 2143   2.369   0.348   2.141
  708SOL     OW 2144   2.569   1.060   2.233
  708SOL    HW1 2145   2.554   1.046   2.326
  708SOL    HW2 2146   2.647   1.010   2.213
  709SOL     OW 2147   2.215   1.106   2.353
  709SOL    HW1 2148   2.219   1.183   2.296
  709SOL    HW2 2149   2.211   1.032   2.293
  710SOL     OW 2150   2.412   0.543   2.729
  710SOL    HW1 2151   2.431   0.594   2.650
  710SOL    HW2 2152   2.480   0.569   2.791
  711SOL     OW 2153   2.439   0.871   2.880
  711SOL    HW1 2154   2.479   0.953   2.851
  711SOL    HW2 2155   2.419   0.885   2.973
  712SOL     OW 2156   0.054   0.533   2.132
  712SOL    HW1 2157   0.083   0.455   2.180
  712SOL    HW2 2158   0.023   0.593   2.199
  713SOL     OW 2159   2.597   0.646   2.918
  713SOL    HW1 2160   2.662   0.622   2.852
  713SOL    HW2 2161   2.559   0.728   2.885
  714SOL     OW 2162   2.171   0.064   2.507
  714SOL    HW1 2163   2.164   0.154   2.539
  714SOL    HW2 2164   2.152   0.010   2.584
  715SOL     OW 2165   2.874   0.778   2.830
  715SOL    HW1 2166   2.881   0.770   2.926
  715SOL    HW2 2167   2.867   0.688   2.799
  716SOL     OW 2168   2.911   1.343   2.699
  716SOL    HW1 2169   2.916   1.270   2.639
  716SOL    HW2 2170   2.975   1.406   2.666
  717SOL     OW 2171   2.170   0.811   2.811
  717SOL    HW1 2172   2.264   0.831   2.809
  717SOL    HW2 2173   2.166   0.719   2.839
  718SOL     OW 2174   2.182   0.536   2.870
  718SOL    HW1 2175   2.148   0.447   2.868
  718SOL    HW2 2176   2.260   0.534   2.815
  719SOL     OW 2177   1.867   1.321   2.057
  719SOL    HW1 2178   1.776   1.335   2.032
  719SOL    HW2 2179   1.869   1.232   2.091
  720SOL     OW 2180   1.953   1.795   2.799
  720SOL    HW1 2181   1.924   1.713   2.759
  720SOL    HW2 2182   2.043   1.806   2.768
  721SOL     OW 2183   2.368   1.573   2.770
  721SOL    HW1 2184   2.435   1.640   2.786
  721SOL    HW2 2185   2.409   1.513   2.709
  722SOL     OW 2186   2.844   0.755   0.105
  722SOL    HW1 2187   2.883   0.738   0.191
  722SOL    HW2 2188   2.751   0.771   0.124
  723SOL     OW 2189   2.670   0.564   2.215
  723SOL    HW1 2190   2.669   0.489   2.156
  723SOL    HW2 2191   2.596   0.618   2.186
  724SOL     OW 2192   2.559   0.437   0.082
  724SOL    HW1 2193   2.466   0.438   0.106
  724SOL    HW2 2194   2.571   0.515   0.027
  725SOL     OW 2195   2.329   0.494   2.048
  725SOL    HW1 2196   2.385   0.569   2.070
  725SOL    HW2 2197   2.241   0.532   2.038
  726SOL     OW 2198   1.942   1.267   2.885
  726SOL    HW1 2199   1.929   1.279   2.979
  726SOL    HW2 2200   1.869   1.213   2.857
  727SOL     OW 2201   2.534   1.617   2.014
  727SOL    HW1 2202   2.541   1.627   1.919
  727SOL    HW2 2203   2.480   1.539   2.026
  728SOL     OW 2204   2.132   0.330   2.614
  728SOL    HW1 2205   2.045   0.364   2.592
  728SOL    HW2 2206   2.127   0.310   2.708
  729SOL     OW 2207   2.787   0.922   2.155
  729SOL    HW1 2208   2.836   0.927   2.073
  729SOL    HW2 2209   2.820   0.842   2.197
  730SOL     OW 2210   2.915   1.078   2.585
  730SOL    HW1 2211   2.836   1.040   2.623
  730SOL    HW2 2212   2.928   1.030   2.503
  731SOL     OW 2213   2.882   0.237   2.818
  731SOL    HW1 2214   2.876   0.188   2.736
  731SOL    HW2 2215   2.875   0.170   2.886
  732SOL     OW 2216   2.459   1.479   2.345
  732SOL    HW1 2217   2.496   1.443   2.264
  732SOL    HW2 2218   2.407   1.554   2.316
  733SOL     OW 2219   2.121   1.346   2.146
  733SOL    HW1 2220   2.028   1.344   2.126
  733SOL    HW2 2221   2.126   1.384   2.234
  734SOL     OW 2222   1.940   0.336   1.899
  734SOL    HW1 2223   1.850   0.318   1.874
  734SOL    HW2 2224   1.966   0.410   1.844
  735SOL     OW 2225   1.898   0.208   2.159
  735SOL    HW1 2226   1.920   0.266   2.087
  735SOL    HW2 2227   1.966   0.141   2.157
  736SOL     OW 2228   2.458   0.739   2.527
  736SOL    HW1 2229   2.493   0.827   2.514
  736SOL    HW2 2230   2.386   0.731   2.465
  737SOL     OW 2231   2.727   1.369   1.895
  737SOL    HW1 2232   2.683   1.398   1.975
  737SOL    HW2 2233   2.745   1.449   1.846
  738SOL     OW 2234   2.529   1.795   2.830
  738SOL    HW1 2235   2.498   1.878   2.794
  738SOL    HW2 2236   2.619   1.787   2.799
  739SOL     OW 2237   2.712   0.962   2.720
  739SOL    HW1 2238   2.766   0.893   2.759
  739SOL    HW2 2239   2.686   1.017   2.794
  740SOL     OW 2240   2.940   0.949   1.927
  740SOL    HW1 2241   2.907   1.025   1.879
  740SOL    HW2 2242   0.022   0.979   1.965
  741SOL     OW 2243   1.943   1.236   2.528
  741SOL    HW1 2244   1.947   1.181   2.606
  741SOL    HW2 2245   2.013   1.203   2.472
  742SOL     OW 2246   2.334   0.430   2.410
  742SOL    HW1 2247   2.320   0.374   2.334
  742SOL    HW2 2248   2.267   0.402   2.473
  743SOL     OW 2249   2.690   1.576   2.535
  743SOL    HW1 2250   2.681   1.636   2.461
  743SOL    HW2 2251   2.606   1.529   2.537
  744SOL     OW 2252   2.641   1.330   2.167
  744SOL    HW1 2253   2.606   1.243   2.183
  744SOL    HW2 2254   2.713   1.339   2.229
  745SOL     OW 2255   1.906   1.073   2.167
  745SOL    HW1 2256   2.000   1.063   2.152
  745SOL    HW2 2257   1.876   0.985   2.190
  746SOL     OW 2258   2.742   1.644   2.202
  746SOL    HW1 2259   2.668   1.635   2.142
  746SOL    HW2 2260   2.723   1.723   2.251
  747SOL     OW 2261   2.090   2.501   0.111
  747SOL    HW1 2262   2.000   2.473   0.131
  747SOL    HW2 2263   2.109   2.461   0.026
  748SOL     OW 2264   2.086   2.143   0.990
  748SOL    HW1 2265   2.116   2.109   1.074
  748SOL    HW2 2266   1.997   2.110   0.981
  749SOL     OW 2267   1.868   2.245   0.640
  749SOL    HW1 2268   1.783   2.266   0.679
  749SOL    HW2 2269   1.852   2.168   0.586
  750SOL     OW 2270   2.592   0.000   1.022
  750SOL    HW1 2271   2.524   0.050   1.066
  750SOL    HW2 2272   2.641   0.065   0.972
  751SOL     OW 2273   2.723   2.637   1.820
  751SOL    HW1 2274   2.721   2.696   1.895
  751SOL    HW2 2275   2.754   2.691   1.747
  752SOL     OW 2276   2.513   2.848   0.710
  752SOL    HW1 2277   2.608   2.856   0.722
  752SOL    HW2 2278   2.489   2.929   0.664
  753SOL     OW 2279   2.304   2.257   1.485
  753SOL    HW1 2280   2.385   2.206   1.493
  753SOL    HW2 2281   2.235   2.195   1.506
  754SOL     OW 2282   2.112   0.309   0.480
  754SOL    HW1 2283   2.058   0.386   0.499
  754SOL    HW2 2284   2.053   0.235   0.492
  755SOL     OW 2285   2.107   2.947   0.883
  755SOL    HW1 2286   2.126   2.861   0.918
  755SOL    HW2 2287   2.061   2.992   0.954
  756SOL     OW 2288   2.479   2.832   0.148
  756SOL    HW1 2289   2.463   2.925   0.133
  756SOL    HW2 2290   2.549   2.830   0.214
  757SOL     OW 2291   1.977   2.510   0.561
  757SOL    HW1 2292   1.949   2.421   0.583
  757SOL    HW2 2293   1.969   2.559   0.643
  758SOL     OW 2294   1.986   2.606   1.583
  758SOL    HW1 2295   2.079   2.624   1.597
  758SOL    HW2 2296   1.942   2.687   1.606
  759SOL     OW 2297   2.527   0.250   0.678
  759SOL    HW1 2298   2.469   0.182   0.714
  759SOL    HW2 2299   2.468   0.306   0.627
  760SOL     OW 2300   2.675   1.864   0.508
  760SOL    HW1 2301   2.713   1.950   0.492
  760SOL    HW2 2302   2.581   1.880   0.517
  761SOL     OW 2303   2.056   2.842   1.256
  761SOL    HW1 2304   2.138   2.793   1.248
  761SOL    HW2 2305   1.988   2.780   1.230
  762SOL     OW 2306   2.187   2.121   1.786
  762SOL    HW1 2307   2.243   2.187   1.827
  762SOL    HW2 2308   2.106   2.124   1.836
  763SOL     OW 2309   2.454   2.581   0.271
  763SOL    HW1 2310   2.460   2.661   0.218
  763SOL    HW2 2311   2.388   2.601   0.337
  764SOL     OW 2312   2.654   2.489   1.451
  764SOL    HW1 2313   2.632   2.462   1.540
  764SOL    HW2 2314   2.616   2.421   1.395
  765SOL     OW 2315   2.827   2.746   1.581
  765SOL    HW1 2316   2.854   2.661   1.546
  765SOL    HW2 2317   2.775   2.786   1.511
  766SOL     OW 2318   2.848   2.236   1.257
  766SOL    HW1 2319   2.771   2.284   1.287
  766SOL    HW2 2320   2.838   2.230   1.162
  767SOL     OW 2321   2.887   2.581   0.410
  767SOL    HW1 2322   2.928   2.563   0.494
  767SOL    HW2 2323   2.815   2.519   0.404
  768SOL     OW 2324   1.946   2.681   0.778
  768SOL    HW1 2325   2.031   2.672   0.822
  768SOL    HW2 2326   1.911   2.764   0.810
  769SOL     OW 2327   2.788   2.194   0.219
  769SOL    HW1 2328   2.783   2.261   0.150
  769SOL    HW2 2329   2.760   2.113   0.175
  770SOL     OW 2330   2.409   2.045   0.892
  770SOL    HW1 2331   2.415   2.074   0.983
  770SOL    HW2 2332   2.413   2.126   0.841
  771SOL     OW 2333   2.051   2.133   1.498
  771SOL    HW1 2334   1.985   2.202   1.502
  771SOL    HW2 2335   2.060   2.102   1.588
  772SOL     OW 2336   2.251   2.556   0.475
  772SOL    HW1 2337   2.274   2.464   0.485
  772SOL    HW2 2338   2.157   2.559   0.494
  773SOL     OW 2339   2.485   1.977   0.116
  773SOL    HW1 2340   2.580   1.963   0.116
  773SOL    HW2 2341   2.457   1.944   0.030
  774SOL     OW 2342   2.630   2.144   1.756
  774SOL    HW1 2343   2.704   2.083   1.763
  774SOL    HW2 2344   2.572   2.119   1.828
  775SOL     OW 2345   2.787   2.365   0.903
  775SOL    HW1 2346   2.761   2.354   0.811
  775SOL    HW2 2347   2.825   2.280   0.926
  776SOL     OW 2348   2.410   1.925   0.505
  776SOL    HW1 2349   2.328   1.926   0.555
  776SOL    HW2 2350   2.404   2.001   0.447
  777SOL     OW 2351   2.813   2.100   0.465
  777SOL    HW1 2352   2.778   2.148   0.390
  777SOL    HW2 2353   2.899   2.071   0.437
  778SOL     OW 2354   2.885   2.377   0.034
  778SOL    HW1 2355   2.841   2.459   0.013
  778SOL    HW2 2356   2.942   2.398   0.108
  779SOL     OW 2357   1.940   2.415   1.393
  779SOL    HW1 2358   2.031   2.415   1.364
  779SOL    HW2 2359   1.935   2.486   1.456
  780SOL     OW 2360   2.422   2.090   1.164
  780SOL    HW1 2361   2.464   2.012   1.202
  780SOL    HW2 2362   2.332   2.086   1.195
  781SOL     OW 2363   2.742   2.319   0.635
  781SOL    HW1 2364   2.686   2.379   0.585
  781SOL    HW2 2365   2.744   2.239   0.583
  782SOL     OW 2366   2.856   1.924   0.757
  782SOL    HW1 2367   2.811   1.905   0.675
  782SOL    HW2 2368   2.848   1.843   0.808
  783SOL     OW 2369   2.378   2.121   0.322
  783SOL    HW1 2370   2.420   2.072   0.251
  783SOL    HW2 2371   2.363   2.208   0.286
  784SOL     OW 2372   2.752   1.949   1.387
  784SOL    HW1 2373   2.779   1.934   1.297
  784SOL    HW2 2374   2.828   1.991   1.428
  785SOL     OW 2375   2.274   2.678   1.255
  785SOL    HW1 2376   2.346   2.686   1.318
  785SOL    HW2 2377   2.242   2.589   1.266
  786SOL     OW 2378   2.417   2.398   0.862
  786SOL    HW1 2379   2.431   2.453   0.786
  786SOL    HW2 2380   2.483   2.427   0.925
  787SOL     OW 2381   2.275   2.600   1.603
  787SOL    HW1 2382   2.335   2.647   1.545
  787SOL    HW2 2383   2.321   2.518   1.624
  788SOL     OW 2384   2.857   1.990   1.769
  788SOL    HW1 2385   2.904   2.042   1.704
  788SOL    HW2 2386   2.900   1.905   1.768
  789SOL     OW 2387   2.361   1.906   1.743
  789SOL    HW1 2388   2.317   1.848   1.681
  789SOL    HW2 2389   2.299   1.977   1.758
  790SOL     OW 2390   2.450   2.730   1.035
  790SOL    HW1 2391   2.469   2.822   1.016
  790SOL    HW2 2392   2.388   2.732   1.108
  791SOL     OW 2393   0.062   2.400   0.269
  791SOL    HW1 2394   0.076   2.318   0.317
  791SOL    HW2 2395   0.035   2.462   0.337
  792SOL     OW 2396   2.156   2.056   1.245
  792SOL    HW1 2397   2.129   2.093   1.329
  792SOL    HW2 2398   2.140   1.962   1.255
  793SOL     OW 2399   2.588   2.492   1.060
  793SOL    HW1 2400   2.666   2.480   1.005
  793SOL    HW2 2401   2.560   2.581   1.042
  794SOL     OW 2402   2.163   1.927   0.623
  794SOL    HW1 2403   2.146   2.018   0.647
  794SOL    HW2 2404   2.171   1.881   0.706
  795SOL     OW 2405   2.857   2.623   0.983
  795SOL    HW1 2406   2.911   2.618   1.061
  795SOL    HW2 2407   2.863   2.535   0.944
  796SOL     OW 2408   2.226   2.789   1.799
  796SOL    HW1 2409   2.288   2.778   1.871
  796SOL    HW2 2410   2.246   2.716   1.740
  797SOL     OW 2411   2.174   2.674   0.947
  797SOL    HW1 2412   2.267   2.692   0.933
  797SOL    HW2 2413   2.171   2.585   0.981
  798SOL     OW 2414   2.194   2.388   1.011
  798SOL    HW1 2415   2.159   2.300   0.994
  798SOL    HW2 2416   2.271   2.394   0.955
  799SOL     OW 2417   2.968   2.243   1.666
  799SOL    HW1 2418   2.909   2.301   1.716
  799SOL    HW2 2419   0.054   2.283   1.676
  800SOL     OW 2420   2.975   2.065   1.469
  800SOL    HW1 2421   2.963   2.136   1.533
  800SOL    HW2 2422   2.974   2.109   1.384
  801SOL     OW 2423   2.859   2.667   1.266
  801SOL    HW1 2424   2.910   2.597   1.307
  801SOL    HW2 2425   2.777   2.625   1.240
  802SOL     OW 2426   1.897   2.400   1.118
  802SOL    HW1 2427   1.978   2.392   1.067
  802SOL    HW2 2428   1.928   2.411   1.208
  803SOL     OW 2429   2.045   2.381   1.722
  803SOL    HW1 2430   2.118   2.355   1.666
  803SOL    HW2 2431   2.004   2.455   1.677
  804SOL     OW 2432   2.669   2.427   0.357
  804SOL    HW1 2433   2.672   2.357   0.291
  804SOL    HW2 2434   2.595   2.482   0.332
  805SOL     OW 2435   2.556   2.318   1.264
  805SOL    HW1 2436   2.509   2.241   1.231
  805SOL    HW2 2437   2.558   2.379   1.190
  806SOL     OW 2438   2.303   2.355   0.211
  806SOL    HW1 2439   2.371   2.422   0.223
  806SOL    HW2 2440   2.225   2.405   0.186
  807SOL     OW 2441   2.020   2.996   1.475
  807SOL    HW1 2442   2.023   2.939   1.552
  807SOL    HW2 2443   2.035   2.938   1.401
  808SOL     OW 2444   2.762   1.935   0.125
  808SOL    HW1 2445   2.812   1.903   0.050
  808SOL    HW2 2446   2.805   1.894   0.201
  809SOL     OW 2447   2.125   2.177   0.718
  809SOL    HW1 2448   2.041   2.214   0.693
  809SOL    HW2 2449   2.121   2.170   0.813
  810SOL     OW 2450   2.673   2.866   1.376
  810SOL    HW1 2451   2.730   2.840   1.304
  810SOL    HW2 2452   2.699   2.956   1.396
  811SOL     OW 2453   2.742   2.788   0.286
  811SOL    HW1 2454   2.823   2.836   0.272
  811SOL    HW2 2455   2.764   2.722   0.352
  812SOL     OW 2456   2.880   2.103   0.968
  812SOL    HW1 2457   2.875   2.055   0.885
  812SOL    HW2 2458   2.869   2.037   1.036
  813SOL     OW 2459   1.974   2.863   1.708
  813SOL    HW1 2460   1.899   2.856   1.767
  813SOL    HW2 2461   2.050   2.846   1.764
  814SOL     OW 2462   2.527   2.063   1.501
  814SOL    HW1 2463   2.608   2.041   1.455
  814SOL    HW2 2464   2.555   2.091   1.588
  815SOL     OW 2465   1.936   2.019   0.340
  815SOL    HW1 2466   1.899   2.061   0.263
  815SOL    HW2 2467   2.026   2.000   0.316
  816SOL     OW 2468   2.475   2.693   1.434
  816SOL    HW1 2469   2.531   2.768   1.419
  816SOL    HW2 2470   2.535   2.619   1.442
  817SOL     OW 2471   2.578   2.424   1.701
  817SOL    HW1 2472   2.612   2.489   1.763
  817SOL    HW2 2473   2.605   2.340   1.737
  818SOL     OW 2474   2.455   2.585   0.665
  818SOL    HW1 2475   2.479   2.677   0.676
  818SOL    HW2 2476   2.386   2.586   0.597
  819SOL     OW 2477   2.753   2.838   0.864
  819SOL    HW1 2478   2.782   2.753   0.899
  819SOL    HW2 2479   2.681   2.864   0.921
  820SOL     OW 2480   2.294   2.295   0.530
  820SOL    HW1 2481   2.320   2.226   0.469
  820SOL    HW2 2482   2.245   2.249   0.598
  821SOL     OW 2483   2.189   2.415   1.290
  821SOL    HW1 2484   2.245   2.362   1.346
  821SOL    HW2 2485   2.212   2.389   1.200
  822SOL     OW 2486   2.867   1.879   1.142
  822SOL    HW1 2487   2.815   1.809   1.102
  822SOL    HW2 2488   2.957   1.857   1.118
  823SOL     OW 2489   1.870   2.916   0.303
  823SOL    HW1 2490   1.954   2.917   0.257
  823SOL    HW2 2491   1.863   2.827   0.337
  824SOL     OW 2492   2.090   2.477   1.980
  824SOL    HW1 2493   2.003   2.488   2.018
  824SOL    HW2 2494   2.075   2.452   1.889
  825SOL     OW 2495   2.088   2.145   2.848
  825SOL    HW1 2496   2.115   2.116   2.935
  825SOL    HW2 2497   2.000   2.110   2.836
  826SOL     OW 2498   1.871   2.247   2.497
  826SOL    HW1 2499   1.785   2.267   2.536
  826SOL    HW2 2500   1.860   2.161   2.458
  827SOL     OW 2501   2.638   0.018   2.878
  827SOL    HW1 2502   2.547   0.026   2.905
  827SOL    HW2 2503   2.653   0.092   2.819
  828SOL     OW 2504   2.511   2.844   2.565
  828SOL    HW1 2505   2.603   2.847   2.592
  828SOL    HW2 2506   2.494   2.932   2.531
  829SOL     OW 2507   2.101   0.305   2.332
  829SOL    HW1 2508   2.052   0.382   2.359
  829SOL    HW2 2509   2.053   0.231   2.370
  830SOL     OW 2510   2.112   2.951   2.750
  830SOL    HW1 2511   2.128   2.861   2.779
  830SOL    HW2 2512   2.055   2.987   2.817
  831SOL     OW 2513   2.462   2.824   1.998
  831SOL    HW1 2514   2.459   2.907   1.949
  831SOL    HW2 2515   2.533   2.836   2.061
  832SOL     OW 2516   1.976   2.510   2.423
  832SOL    HW1 2517   1.953   2.420   2.445
  832SOL    HW2 2518   1.970   2.557   2.506
  833SOL     OW 2519   2.498   0.245   2.568
  833SOL    HW1 2520   2.461   0.162   2.538
  833SOL    HW2 2521   2.467   0.310   2.504
  834SOL     OW 2522   2.701   1.859   2.366
  834SOL    HW1 2523   2.726   1.951   2.353
  834SOL    HW2 2524   2.608   1.863   2.390
  835SOL     OW 2525   2.061   2.806   0.118
  835SOL    HW1 2526   2.128   2.739   0.107
  835SOL    HW2 2527   1.980   2.763   0.091
  836SOL     OW 2528   2.457   2.580   2.131
  836SOL    HW1 2529   2.460   2.660   2.077
  836SOL    HW2 2530   2.392   2.599   2.198
  837SOL     OW 2531   2.895   2.579   2.273
  837SOL    HW1 2532   2.923   2.567   2.364
  837SOL    HW2 2533   2.817   2.524   2.265
  838SOL     OW 2534   1.946   2.684   2.639
  838SOL    HW1 2535   2.028   2.670   2.686
  838SOL    HW2 2536   1.910   2.765   2.676
  839SOL     OW 2537   2.750   2.205   2.061
  839SOL    HW1 2538   2.788   2.265   1.997
  839SOL    HW2 2539   2.744   2.122   2.015
  840SOL     OW 2540   2.420   2.048   2.779
  840SOL    HW1 2541   2.369   2.096   2.844
  840SOL    HW2 2542   2.421   2.105   2.702
  841SOL     OW 2543   2.251   2.553   2.336
  841SOL    HW1 2544   2.275   2.461   2.346
  841SOL    HW2 2545   2.158   2.556   2.358
  842SOL     OW 2546   2.508   1.994   1.957
  842SOL    HW1 2547   2.553   1.919   1.997
  842SOL    HW2 2548   2.452   1.956   1.889
  843SOL     OW 2549   2.786   2.378   2.757
  843SOL    HW1 2550   2.762   2.356   2.667
  843SOL    HW2 2551   2.814   2.295   2.795
  844SOL     OW 2552   2.162   1.910   2.035
  844SOL    HW1 2553   2.218   1.987   2.043
  844SOL    HW2 2554   2.208   1.841   2.083
  845SOL     OW 2555   2.813   2.108   2.318
  845SOL    HW1 2556   2.769   2.150   2.244
  845SOL    HW2 2557   2.898   2.080   2.282
  846SOL     OW 2558   2.888   2.413   1.878
  846SOL    HW1 2559   2.839   2.493   1.857
  846SOL    HW2 2560   2.933   2.435   1.960
  847SOL     OW 2561   2.743   2.321   2.495
  847SOL    HW1 2562   2.680   2.377   2.450
  847SOL    HW2 2563   2.742   2.239   2.446
  848SOL     OW 2564   2.858   1.924   2.610
  848SOL    HW1 2565   2.807   1.902   2.532
  848SOL    HW2 2566   2.848   1.847   2.667
  849SOL     OW 2567   2.363   2.127   2.159
  849SOL    HW1 2568   2.430   2.082   2.108
  849SOL    HW2 2569   2.359   2.215   2.121
  850SOL     OW 2570   2.415   2.399   2.727
  850SOL    HW1 2571   2.431   2.452   2.649
  850SOL    HW2 2572   2.479   2.429   2.791
  851SOL     OW 2573   2.434   2.729   2.886
  851SOL    HW1 2574   2.479   2.806   2.851
  851SOL    HW2 2575   2.428   2.745   2.980
  852SOL     OW 2576   0.054   2.392   2.137
  852SOL    HW1 2577   0.082   2.317   2.190
  852SOL    HW2 2578   0.013   2.451   2.199
  853SOL     OW 2579   2.154   2.070   0.097
  853SOL    HW1 2580   2.198   2.099   0.177
  853SOL    HW2 2581   2.152   1.975   0.104
  854SOL     OW 2582   2.595   2.501   2.915
  854SOL    HW1 2583   2.663   2.480   2.852
  854SOL    HW2 2584   2.560   2.586   2.886
  855SOL     OW 2585   2.094   1.925   2.499
  855SOL    HW1 2586   2.138   2.010   2.492
  855SOL    HW2 2587   2.149   1.875   2.558
  856SOL     OW 2588   2.875   2.633   2.824
  856SOL    HW1 2589   2.894   2.633   2.918
  856SOL    HW2 2590   2.867   2.541   2.800
  857SOL     OW 2591   2.170   2.673   2.809
  857SOL    HW1 2592   2.264   2.693   2.813
  857SOL    HW2 2593   2.164   2.581   2.835
  858SOL     OW 2594   2.182   2.398   2.867
  858SOL    HW1 2595   2.146   2.311   2.858
  858SOL    HW2 2596   2.263   2.396   2.815
  859SOL     OW 2597   2.877   2.642   0.096
  859SOL    HW1 2598   2.917   2.634   0.182
  859SOL    HW2 2599   2.788   2.672   0.113
  860SOL     OW 2600   2.677   2.432   2.215
  860SOL    HW1 2601   2.674   2.353   2.161
  860SOL    HW2 2602   2.599   2.482   2.188
  861SOL     OW 2603   2.566   2.311   0.103
  861SOL    HW1 2604   2.481   2.270   0.085
  861SOL    HW2 2605   2.572   2.382   0.038
  862SOL     OW 2606   2.334   2.362   2.029
  862SOL    HW1 2607   2.388   2.433   2.063
  862SOL    HW2 2608   2.245   2.397   2.027
  863SOL     OW 2609   0.163   2.702   2.159
  863SOL    HW1 2610   0.110   2.646   2.216
  863SOL    HW2 2611   0.199   2.642   2.093
  864SOL     OW 2612   2.133   2.198   2.581
  864SOL    HW1 2613   2.044   2.221   2.555
  864SOL    HW2 2614   2.126   2.175   2.673
  865SOL     OW 2615   2.756   2.765   2.109
  865SOL    HW1 2616   2.835   2.816   2.089
  865SOL    HW2 2617   2.784   2.706   2.179
  866SOL     OW 2618   2.881   2.102   2.817
  866SOL    HW1 2619   2.873   2.058   2.732
  866SOL    HW2 2620   2.893   2.031   2.880
  867SOL     OW 2621   1.940   2.195   1.897
  867SOL    HW1 2622   1.850   2.179   1.868
  867SOL    HW2 2623   1.969   2.270   1.845
  868SOL     OW 2624   1.928   2.020   2.173
  868SOL    HW1 2625   1.921   2.099   2.121
  868SOL    HW2 2626   2.018   1.990   2.160
  869SOL     OW 2627   2.458   2.582   2.523
  869SOL    HW1 2628   2.480   2.675   2.534
  869SOL    HW2 2629   2.386   2.582   2.460
  870SOL     OW 2630   2.742   2.832   2.713
  870SOL    HW1 2631   2.786   2.755   2.749
  870SOL    HW2 2632   2.708   2.879   2.789
  871SOL     OW 2633   2.951   2.836   1.900
  871SOL    HW1 2634   2.916   2.925   1.913
  871SOL    HW2 2635   0.010   2.823   1.975
  872SOL     OW 2636   2.297   2.292   2.380
  872SOL    HW1 2637   2.322   2.216   2.328
  872SOL    HW2 2638   2.252   2.255   2.456
  873SOL     OW 2639   1.885   2.920   2.175
  873SOL    HW1 2640   1.970   2.929   2.131
  873SOL    HW2 2641   1.880   2.827   2.197
  874CL      CL 2642   2.412   1.854   2.437
   3.00000   3.00000   3.00000
