DPPC - 128 lipids & 30 H2O/lipid at 323 K
28160
    1DPPC     N    1   1.944   3.492   5.590
    1DPPC   C13    2   2.078   3.430   5.573
    1DPPC  H13A    3   2.146   3.503   5.530
    1DPPC  H13B    4   2.071   3.344   5.508
    1DPPC  H13C    5   2.116   3.399   5.670
    1DPPC   C14    6   1.888   3.527   5.457
    1DPPC  H14A    7   1.878   3.437   5.397
    1DPPC  H14B    8   1.955   3.597   5.409
    1DPPC  H14C    9   1.792   3.574   5.468
    1DPPC   C15   10   1.854   3.391   5.652
    1DPPC  H15A   11   1.894   3.361   5.748
    1DPPC  H15B   12   1.845   3.306   5.587
    1DPPC  H15C   13   1.755   3.434   5.667
    1DPPC   C12   14   1.952   3.614   5.679
    1DPPC  H12A   15   1.972   3.579   5.780
    1DPPC  H12B   16   1.854   3.659   5.680
    1DPPC   C11   17   2.056   3.723   5.644
    1DPPC  H11A   18   2.158   3.682   5.661
    1DPPC  H11B   19   2.038   3.805   5.719
    1DPPC     P   20   2.104   3.906   5.479
    1DPPC   O13   21   2.244   3.906   5.525
    1DPPC   O14   22   2.017   4.011   5.535
    1DPPC   O11   23   2.101   3.915   5.321
    1DPPC   O12   24   2.041   3.765   5.509
    1DPPC    C1   25   2.168   3.817   5.241
    1DPPC    HA   26   2.169   3.716   5.289
    1DPPC    HB   27   2.274   3.848   5.226
    1DPPC    C2   28   2.098   3.799   5.103
    1DPPC    HS   29   2.151   3.718   5.048
    1DPPC   O21   30   2.097   3.922   5.027
    1DPPC   C21   31   2.216   3.951   4.978
    1DPPC   O22   32   2.316   3.882   4.989
    1DPPC   C22   33   2.208   4.083   4.901
    1DPPC   H2R   34   2.179   4.164   4.971
    1DPPC   H2S   35   2.130   4.075   4.823
    1DPPC    C3   36   1.951   3.751   5.124
    1DPPC    HX   37   1.888   3.837   5.155
    1DPPC    HY   38   1.953   3.680   5.209
    1DPPC   O31   39   1.898   3.680   5.010
    1DPPC   C31   40   1.825   3.750   4.925
    1DPPC   O32   41   1.806   3.870   4.929
    1DPPC   C32   42   1.770   3.652   4.821
    1DPPC   H2X   43   1.707   3.577   4.873
    1DPPC   H2Y   44   1.857   3.600   4.775
    1DPPC   C23   45   2.344   4.116   4.836
    1DPPC   H3R   46   2.376   4.031   4.772
    1DPPC   H3S   47   2.420   4.131   4.915
    1DPPC   C24   48   2.338   4.242   4.749
    1DPPC   H4R   49   2.307   4.328   4.812
    1DPPC   H4S   50   2.260   4.227   4.671
    1DPPC   C25   51   2.471   4.277   4.680
    1DPPC   H5R   52   2.510   4.185   4.632
    1DPPC   H5S   53   2.545   4.309   4.757
    1DPPC   C26   54   2.456   4.385   4.572
    1DPPC   H6R   55   2.427   4.482   4.619
    1DPPC   H6S   56   2.373   4.354   4.506
    1DPPC   C27   57   2.584   4.405   4.488
    1DPPC   H7R   58   2.631   4.305   4.473
    1DPPC   H7S   59   2.656   4.468   4.545
    1DPPC   C28   60   2.562   4.466   4.348
    1DPPC   H8R   61   2.661   4.471   4.298
    1DPPC   H8S   62   2.523   4.570   4.358
    1DPPC   C29   63   2.466   4.383   4.261
    1DPPC   H9R   64   2.364   4.427   4.266
    1DPPC   H9S   65   2.460   4.280   4.303
    1DPPC  C210   66   2.509   4.367   4.114
    1DPPC  H10R   67   2.434   4.301   4.065
    1DPPC  H10S   68   2.607   4.315   4.111
    1DPPC  C211   69   2.519   4.497   4.032
    1DPPC  H11R   70   2.599   4.561   4.075
    1DPPC  H11S   71   2.422   4.552   4.040
    1DPPC  C212   72   2.549   4.468   3.884
    1DPPC  H12R   73   2.467   4.404   3.844
    1DPPC  H12S   74   2.644   4.410   3.878
    1DPPC  C213   75   2.562   4.593   3.797
    1DPPC  H13R   76   2.647   4.655   3.834
    1DPPC  H13S   77   2.469   4.653   3.806
    1DPPC  C214   78   2.585   4.559   3.649
    1DPPC  H14R   79   2.501   4.495   3.613
    1DPPC  H14S   80   2.679   4.500   3.640
    1DPPC  C215   81   2.596   4.683   3.559
    1DPPC  H15R   82   2.680   4.746   3.595
    1DPPC  H15S   83   2.502   4.742   3.568
    1DPPC  C216   84   2.620   4.652   3.410
    1DPPC  H16R   85   2.623   4.746   3.352
    1DPPC  H16S   86   2.538   4.588   3.371
    1DPPC  H16T   87   2.716   4.598   3.397
    1DPPC   C33   88   1.687   3.722   4.712
    1DPPC   H3X   89   1.754   3.788   4.652
    1DPPC   H3Y   90   1.609   3.786   4.759
    1DPPC   C34   91   1.616   3.623   4.618
    1DPPC   H4X   92   1.563   3.680   4.539
    1DPPC   H4Y   93   1.540   3.567   4.678
    1DPPC   C35   94   1.710   3.520   4.553
    1DPPC   H5X   95   1.765   3.465   4.633
    1DPPC   H5Y   96   1.785   3.574   4.491
    1DPPC   C36   97   1.641   3.414   4.466
    1DPPC   H6X   98   1.562   3.364   4.526
    1DPPC   H6Y   99   1.718   3.338   4.440
    1DPPC   C37  100   1.579   3.469   4.336
    1DPPC   H7X  101   1.658   3.524   4.281
    1DPPC   H7Y  102   1.499   3.541   4.363
    1DPPC   C38  103   1.518   3.361   4.245
    1DPPC   H8X  104   1.470   3.411   4.158
    1DPPC   H8Y  105   1.438   3.309   4.302
    1DPPC   C39  106   1.616   3.254   4.192
    1DPPC   H9X  107   1.558   3.174   4.141
    1DPPC   H9Y  108   1.668   3.207   4.279
    1DPPC  C310  109   1.721   3.309   4.094
    1DPPC  H10X  110   1.762   3.404   4.133
    1DPPC  H10Y  111   1.673   3.329   3.996
    1DPPC  C311  112   1.840   3.213   4.073
    1DPPC  H11X  113   1.805   3.116   4.034
    1DPPC  H11Y  114   1.887   3.196   4.173
    1DPPC  C312  115   1.948   3.271   3.979
    1DPPC  H12X  116   1.967   3.376   4.009
    1DPPC  H12Y  117   1.909   3.272   3.875
    1DPPC  C313  118   2.080   3.193   3.985
    1DPPC  H13X  119   2.066   3.094   3.937
    1DPPC  H13Y  120   2.108   3.177   4.091
    1DPPC  C314  121   2.197   3.266   3.915
    1DPPC  H14X  122   2.213   3.364   3.965
    1DPPC  H14Y  123   2.170   3.286   3.810
    1DPPC  C315  124   2.328   3.186   3.918
    1DPPC  H15X  125   2.310   3.086   3.872
    1DPPC  H15Y  126   2.359   3.171   4.024
    1DPPC  C316  127   2.443   3.254   3.842
    1DPPC  H16X  128   2.536   3.193   3.850
    1DPPC  H16Y  129   2.463   3.355   3.885
    1DPPC  H16Z  130   2.417   3.265   3.735
    2DPPC     N  131   1.857   6.224   5.151
    2DPPC   C13  132   1.908   6.170   5.280
    2DPPC  H13A  133   1.864   6.224   5.362
    2DPPC  H13B  134   2.016   6.179   5.284
    2DPPC  H13C  135   1.881   6.065   5.288
    2DPPC   C14  136   1.894   6.368   5.143
    2DPPC  H14A  137   2.002   6.378   5.143
    2DPPC  H14B  138   1.854   0.001   5.229
    2DPPC  H14C  139   1.851   6.411   5.054
    2DPPC   C15  140   1.923   6.151   5.040
    2DPPC  H15A  141   1.892   6.192   4.945
    2DPPC  H15B  142   1.897   6.046   5.045
    2DPPC  H15C  143   2.030   6.161   5.048
    2DPPC   C12  144   1.708   6.205   5.144
    2DPPC  H12A  145   1.663   6.255   5.229
    2DPPC  H12B  146   1.689   6.098   5.155
    2DPPC   C11  147   1.636   6.252   5.016
    2DPPC  H11A  148   1.534   6.206   5.016
    2DPPC  H11B  149   1.686   6.210   4.926
    2DPPC     P  150   1.508   0.051   5.054
    2DPPC   O13  151   1.520   0.085   5.198
    2DPPC   O14  152   1.389   6.392   5.016
    2DPPC   O11  153   1.509   0.184   4.969
    2DPPC   O12  154   1.637   6.394   5.006
    2DPPC    C1  155   1.390   0.227   4.901
    2DPPC    HA  156   1.395   0.337   4.886
    2DPPC    HB  157   1.298   0.207   4.961
    2DPPC    C2  158   1.373   0.162   4.760
    2DPPC    HS  159   1.378   0.051   4.775
    2DPPC   O21  160   1.479   0.211   4.676
    2DPPC   C21  161   1.517   0.124   4.585
    2DPPC   O22  162   1.478   0.009   4.575
    2DPPC   C22  163   1.618   0.190   4.491
    2DPPC   H2R  164   1.719   0.184   4.537
    2DPPC   H2S  165   1.591   0.296   4.476
    2DPPC    C3  166   1.233   0.196   4.699
    2DPPC    HX  167   1.211   0.302   4.724
    2DPPC    HY  168   1.157   0.131   4.750
    2DPPC   O31  169   1.229   0.179   4.556
    2DPPC   C31  170   1.109   0.200   4.502
    2DPPC   O32  171   1.008   0.229   4.563
    2DPPC   C32  172   1.121   0.190   4.350
    2DPPC   H2X  173   1.223   0.157   4.323
    2DPPC   H2Y  174   1.104   0.291   4.307
    2DPPC   C23  175   1.618   0.117   4.355
    2DPPC   H3R  176   1.514   0.118   4.314
    2DPPC   H3S  177   1.649   0.011   4.368
    2DPPC   C24  178   1.712   0.185   4.254
    2DPPC   H4R  179   1.816   0.181   4.294
    2DPPC   H4S  180   1.683   0.292   4.245
    2DPPC   C25  181   1.712   0.124   4.113
    2DPPC   H5R  182   1.754   0.021   4.116
    2DPPC   H5S  183   1.781   0.186   4.051
    2DPPC   C26  184   1.574   0.120   4.045
    2DPPC   H6R  185   1.513   0.206   4.080
    2DPPC   H6S  186   1.522   0.027   4.076
    2DPPC   C27  187   1.583   0.126   3.892
    2DPPC   H7R  188   1.488   0.086   3.849
    2DPPC   H7S  189   1.665   0.060   3.857
    2DPPC   C28  190   1.602   0.269   3.839
    2DPPC   H8R  191   1.692   0.314   3.888
    2DPPC   H8S  192   1.514   0.329   3.870
    2DPPC   C29  193   1.618   0.281   3.687
    2DPPC   H9R  194   1.615   0.390   3.662
    2DPPC   H9S  195   1.533   0.232   3.636
    2DPPC  C210  196   1.749   0.221   3.633
    2DPPC  H10R  197   1.745   0.111   3.644
    2DPPC  H10S  198   1.834   0.259   3.694
    2DPPC  C211  199   1.777   0.255   3.485
    2DPPC  H11R  200   1.691   0.223   3.422
    2DPPC  H11S  201   1.866   0.197   3.453
    2DPPC  C212  202   1.806   0.404   3.461
    2DPPC  H12R  203   1.881   0.437   3.536
    2DPPC  H12S  204   1.713   0.463   3.477
    2DPPC  C213  205   1.861   0.435   3.321
    2DPPC  H13R  206   1.789   0.396   3.245
    2DPPC  H13S  207   1.957   0.379   3.308
    2DPPC  C214  208   1.887   0.584   3.291
    2DPPC  H14R  209   1.791   0.639   3.287
    2DPPC  H14S  210   1.931   0.589   3.189
    2DPPC  C215  211   1.983   0.655   3.388
    2DPPC  H15R  212   2.038   0.732   3.329
    2DPPC  H15S  213   2.058   0.582   3.425
    2DPPC  C216  214   1.916   0.726   3.506
    2DPPC  H16R  215   1.846   0.804   3.469
    2DPPC  H16S  216   1.993   0.775   3.569
    2DPPC  H16T  217   1.859   0.655   3.569
    2DPPC   C33  218   1.016   0.092   4.295
    2DPPC   H3X  219   0.914   0.130   4.318
    2DPPC   H3Y  220   1.028   6.411   4.343
    2DPPC   C34  221   1.027   0.073   4.142
    2DPPC   H4X  222   1.018   0.172   4.093
    2DPPC   H4Y  223   0.941   0.010   4.109
    2DPPC   C35  224   1.157   0.005   4.098
    2DPPC   H5X  225   1.161   6.324   4.148
    2DPPC   H5Y  226   1.245   0.064   4.131
    2DPPC   C36  227   1.168   6.401   3.947
    2DPPC   H6X  228   1.079   6.345   3.911
    2DPPC   H6Y  229   1.258   6.337   3.929
    2DPPC   C37  230   1.184   0.111   3.864
    2DPPC   H7X  231   1.268   0.170   3.905
    2DPPC   H7Y  232   1.091   0.172   3.872
    2DPPC   C38  233   1.211   0.079   3.716
    2DPPC   H8X  234   1.301   0.014   3.710
    2DPPC   H8Y  235   1.125   0.023   3.674
    2DPPC   C39  236   1.236   0.204   3.630
    2DPPC   H9X  237   1.318   0.263   3.675
    2DPPC   H9Y  238   1.144   0.267   3.630
    2DPPC  C310  239   1.272   0.168   3.485
    2DPPC  H10X  240   1.187   0.111   3.443
    2DPPC  H10Y  241   1.361   0.101   3.485
    2DPPC  C311  242   1.301   0.289   3.396
    2DPPC  H11X  243   1.391   0.342   3.436
    2DPPC  H11Y  244   1.215   0.359   3.402
    2DPPC  C312  245   1.326   0.253   3.249
    2DPPC  H12X  246   1.418   0.191   3.241
    2DPPC  H12Y  247   1.344   0.348   3.193
    2DPPC  C313  248   1.209   0.179   3.183
    2DPPC  H13X  249   1.114   0.230   3.210
    2DPPC  H13Y  250   1.204   0.075   3.223
    2DPPC  C314  251   1.220   0.172   3.030
    2DPPC  H14X  252   1.319   0.130   3.003
    2DPPC  H14Y  253   1.214   0.276   2.990
    2DPPC  C315  254   1.111   0.087   2.962
    2DPPC  H15X  255   1.123   6.400   2.996
    2DPPC  H15Y  256   1.130   0.090   2.853
    2DPPC  C316  257   0.967   0.131   2.988
    2DPPC  H16X  258   0.896   0.067   2.931
    2DPPC  H16Y  259   0.952   0.237   2.956
    2DPPC  H16Z  260   0.942   0.123   3.096
    3DPPC     N  261   6.216   1.447   5.186
    3DPPC   C13  262   6.180   1.588   5.155
    3DPPC  H13A  263   6.127   1.594   5.061
    3DPPC  H13B  264   6.270   1.648   5.149
    3DPPC  H13C  265   6.117   1.628   5.234
    3DPPC   C14  266   0.007   1.398   5.082
    3DPPC  H14A  267   6.259   1.389   4.988
    3DPPC  H14B  268   0.047   1.302   5.111
    3DPPC  H14C  269   0.089   1.469   5.070
    3DPPC   C15  270   6.285   1.444   5.318
    3DPPC  H15A  271   0.066   1.512   5.316
    3DPPC  H15B  272   0.016   1.344   5.339
    3DPPC  H15C  273   6.216   1.475   5.395
    3DPPC   C12  274   6.092   1.362   5.191
    3DPPC  H12A  275   6.024   1.408   5.262
    3DPPC  H12B  276   6.119   1.265   5.231
    3DPPC   C11  277   6.015   1.340   5.058
    3DPPC  H11A  278   6.006   1.437   5.005
    3DPPC  H11B  279   5.910   1.310   5.081
    3DPPC     P  280   6.062   1.096   5.007
    3DPPC   O13  281   5.921   1.073   5.045
    3DPPC   O14  282   6.160   1.052   5.108
    3DPPC   O11  283   6.086   1.022   4.870
    3DPPC   O12  284   6.084   1.248   4.974
    3DPPC    C1  285   6.215   0.983   4.822
    3DPPC    HA  286   6.198   0.918   4.733
    3DPPC    HB  287   6.270   0.921   4.896
    3DPPC    C2  288   0.004   1.100   4.774
    3DPPC    HS  289   0.052   1.140   4.866
    3DPPC   O21  290   6.224   1.200   4.711
    3DPPC   C21  291   6.283   1.318   4.704
    3DPPC   O22  292   0.086   1.346   4.757
    3DPPC   C22  293   6.197   1.411   4.620
    3DPPC   H2R  294   6.103   1.433   4.676
    3DPPC   H2S  295   6.170   1.360   4.525
    3DPPC    C3  296   0.116   1.049   4.677
    3DPPC    HX  297   0.171   0.970   4.732
    3DPPC    HY  298   0.189   1.130   4.658
    3DPPC   O31  299   0.064   0.990   4.555
    3DPPC   C31  300   0.047   1.076   4.454
    3DPPC   O32  301   0.079   1.194   4.456
    3DPPC   C32  302   6.287   1.007   4.333
    3DPPC   H2X  303   6.258   0.903   4.359
    3DPPC   H2Y  304   0.060   1.003   4.253
    3DPPC   C23  305   6.271   1.542   4.590
    3DPPC   H3R  306   0.062   1.522   4.535
    3DPPC   H3S  307   6.296   1.592   4.686
    3DPPC   C24  308   6.186   1.641   4.509
    3DPPC   H4R  309   6.233   1.742   4.515
    3DPPC   H4S  310   6.086   1.648   4.556
    3DPPC   C25  311   6.170   1.606   4.360
    3DPPC   H5R  312   6.139   1.500   4.349
    3DPPC   H5S  313   6.268   1.619   4.310
    3DPPC   C26  314   6.065   1.695   4.293
    3DPPC   H6R  315   6.082   1.799   4.329
    3DPPC   H6S  316   5.964   1.664   4.326
    3DPPC   C27  317   6.070   1.699   4.139
    3DPPC   H7R  318   6.169   1.737   4.106
    3DPPC   H7S  319   5.993   1.773   4.107
    3DPPC   C28  320   6.040   1.566   4.068
    3DPPC   H8R  321   5.951   1.519   4.116
    3DPPC   H8S  322   6.127   1.497   4.079
    3DPPC   C29  323   6.010   1.590   3.920
    3DPPC   H9R  324   6.097   1.638   3.871
    3DPPC   H9S  325   5.925   1.661   3.915
    3DPPC  C210  326   5.972   1.463   3.840
    3DPPC  H10R  327   5.887   1.413   3.890
    3DPPC  H10S  328   6.059   1.393   3.842
    3DPPC  C211  329   5.934   1.492   3.694
    3DPPC  H11R  330   5.909   1.396   3.644
    3DPPC  H11S  331   6.022   1.536   3.642
    3DPPC  C212  332   5.815   1.588   3.679
    3DPPC  H12R  333   5.730   1.547   3.740
    3DPPC  H12S  334   5.841   1.688   3.721
    3DPPC  C213  335   5.765   1.609   3.535
    3DPPC  H13R  336   5.671   1.669   3.542
    3DPPC  H13S  337   5.741   1.511   3.490
    3DPPC  C214  338   5.864   1.684   3.444
    3DPPC  H14R  339   5.953   1.619   3.427
    3DPPC  H14S  340   5.900   1.775   3.496
    3DPPC  C215  341   5.805   1.726   3.308
    3DPPC  H15R  342   5.769   1.634   3.256
    3DPPC  H15S  343   5.888   1.769   3.247
    3DPPC  C216  344   5.692   1.828   3.314
    3DPPC  H16R  345   5.660   1.857   3.212
    3DPPC  H16S  346   5.725   1.920   3.368
    3DPPC  H16T  347   5.603   1.786   3.367
    3DPPC   C33  348   6.164   1.088   4.287
    3DPPC   H3X  349   6.186   1.197   4.284
    3DPPC   H3Y  350   6.084   1.073   4.363
    3DPPC   C34  351   6.109   1.046   4.150
    3DPPC   H4X  352   5.998   1.054   4.152
    3DPPC   H4Y  353   6.135   0.939   4.131
    3DPPC   C35  354   6.158   1.132   4.031
    3DPPC   H5X  355   6.118   1.235   4.042
    3DPPC   H5Y  356   6.114   1.089   3.938
    3DPPC   C36  357   0.008   1.140   4.017
    3DPPC   H6X  358   0.050   1.037   4.026
    3DPPC   H6Y  359   0.048   1.200   4.101
    3DPPC   C37  360   0.057   1.202   3.885
    3DPPC   H7X  361   0.168   1.209   3.889
    3DPPC   H7Y  362   0.018   1.306   3.877
    3DPPC   C38  363   0.020   1.125   3.757
    3DPPC   H8X  364   0.079   1.167   3.673
    3DPPC   H8Y  365   6.215   1.142   3.734
    3DPPC   C39  366   0.045   0.974   3.765
    3DPPC   H9X  367   6.274   0.930   3.836
    3DPPC   H9Y  368   0.146   0.954   3.807
    3DPPC  C310  369   0.029   0.900   3.631
    3DPPC  H10X  370   6.244   0.943   3.578
    3DPPC  H10Y  371   0.006   0.794   3.653
    3DPPC  C311  372   0.152   0.904   3.539
    3DPPC  H11X  373   0.176   1.009   3.513
    3DPPC  H11Y  374   0.125   0.851   3.445
    3DPPC  C312  375   0.276   0.835   3.598
    3DPPC  H12X  376   0.245   0.740   3.646
    3DPPC  H12Y  377   0.320   0.900   3.678
    3DPPC  C313  378   0.385   0.802   3.495
    3DPPC  H13X  379   0.343   0.729   3.422
    3DPPC  H13Y  380   0.470   0.753   3.547
    3DPPC  C314  381   0.439   0.922   3.416
    3DPPC  H14X  382   0.356   0.971   3.361
    3DPPC  H14Y  383   0.511   0.884   3.340
    3DPPC  C315  384   0.510   1.028   3.502
    3DPPC  H15X  385   0.594   0.978   3.556
    3DPPC  H15Y  386   0.439   1.066   3.578
    3DPPC  C316  387   0.566   1.146   3.423
    3DPPC  H16X  388   0.615   1.219   3.492
    3DPPC  H16Y  389   0.484   1.198   3.370
    3DPPC  H16Z  390   0.641   1.112   3.349
    4DPPC     N  391   6.188   4.922   5.135
    4DPPC   C13  392   6.208   4.877   4.994
    4DPPC  H13A  393   6.113   4.870   4.945
    4DPPC  H13B  394   6.256   4.780   4.994
    4DPPC  H13C  395   6.273   4.946   4.942
    4DPPC   C14  396   0.018   4.939   5.200
    4DPPC  H14A  397   0.005   4.977   5.300
    4DPPC  H14B  398   0.078   5.009   5.143
    4DPPC  H14C  399   0.070   4.844   5.205
    4DPPC   C15  400   6.120   5.053   5.134
    4DPPC  H15A  401   6.183   5.129   5.090
    4DPPC  H15B  402   6.098   5.084   5.236
    4DPPC  H15C  403   6.027   5.047   5.080
    4DPPC   C12  404   6.108   4.819   5.211
    4DPPC  H12A  405   6.075   4.865   5.304
    4DPPC  H12B  406   6.175   4.738   5.237
    4DPPC   C11  407   5.985   4.754   5.142
    4DPPC  H11A  408   5.938   4.680   5.211
    4DPPC  H11B  409   6.021   4.694   5.056
    4DPPC     P  410   5.779   4.902   5.184
    4DPPC   O13  411   5.783   5.051   5.183
    4DPPC   O14  412   5.786   4.838   5.318
    4DPPC   O11  413   5.648   4.857   5.110
    4DPPC   O12  414   5.894   4.851   5.092
    4DPPC    C1  415   5.623   4.724   5.063
    4DPPC    HA  416   5.513   4.715   5.051
    4DPPC    HB  417   5.653   4.647   5.137
    4DPPC    C2  418   5.685   4.690   4.923
    4DPPC    HS  419   5.776   4.630   4.946
    4DPPC   O21  420   5.715   4.812   4.852
    4DPPC   C21  421   5.823   4.804   4.778
    4DPPC   O22  422   5.902   4.711   4.778
    4DPPC   C22  423   5.834   4.927   4.688
    4DPPC   H2R  424   5.746   4.993   4.702
    4DPPC   H2S  425   5.926   4.983   4.714
    4DPPC    C3  426   5.588   4.603   4.837
    4DPPC    HX  427   5.493   4.661   4.828
    4DPPC    HY  428   5.561   4.510   4.892
    4DPPC   O31  429   5.635   4.575   4.703
    4DPPC   C31  430   5.723   4.476   4.693
    4DPPC   O32  431   5.761   4.407   4.786
    4DPPC   C32  432   5.769   4.464   4.548
    4DPPC   H2X  433   5.808   4.563   4.515
    4DPPC   H2Y  434   5.682   4.437   4.484
    4DPPC   C23  435   5.841   4.879   4.542
    4DPPC   H3R  436   5.754   4.812   4.522
    4DPPC   H3S  437   5.934   4.821   4.525
    4DPPC   C24  438   5.835   4.994   4.440
    4DPPC   H4R  439   5.923   5.060   4.453
    4DPPC   H4S  440   5.745   5.056   4.460
    4DPPC   C25  441   5.829   4.944   4.294
    4DPPC   H5R  442   5.750   4.866   4.287
    4DPPC   H5S  443   5.926   4.896   4.268
    4DPPC   C26  444   5.797   5.055   4.194
    4DPPC   H6R  445   5.882   5.127   4.192
    4DPPC   H6S  446   5.707   5.109   4.228
    4DPPC   C27  447   5.770   5.005   4.051
    4DPPC   H7R  448   5.746   5.093   3.987
    4DPPC   H7S  449   5.681   4.939   4.052
    4DPPC   C28  450   5.888   4.930   3.987
    4DPPC   H8R  451   5.906   4.835   4.042
    4DPPC   H8S  452   5.979   4.993   3.995
    4DPPC   C29  453   5.862   4.897   3.839
    4DPPC   H9R  454   5.850   4.992   3.783
    4DPPC   H9S  455   5.766   4.840   3.831
    4DPPC  C210  456   5.972   4.813   3.771
    4DPPC  H10R  457   5.943   4.798   3.665
    4DPPC  H10S  458   5.977   4.713   3.819
    4DPPC  C211  459   6.112   4.877   3.776
    4DPPC  H11R  460   6.149   4.871   3.881
    4DPPC  H11S  461   6.105   4.985   3.748
    4DPPC  C212  462   6.214   4.808   3.684
    4DPPC  H12R  463   0.013   4.836   3.717
    4DPPC  H12S  464   6.203   4.698   3.695
    4DPPC  C213  465   6.200   4.848   3.536
    4DPPC  H13R  466   6.218   4.957   3.528
    4DPPC  H13S  467   6.096   4.828   3.501
    4DPPC  C214  468   6.298   4.775   3.442
    4DPPC  H14R  469   0.098   4.783   3.482
    4DPPC  H14S  470   6.296   4.827   3.343
    4DPPC  C215  471   6.263   4.627   3.418
    4DPPC  H15R  472   6.159   4.621   3.380
    4DPPC  H15S  473   6.267   4.573   3.516
    4DPPC  C216  474   0.052   4.556   3.319
    4DPPC  H16R  475   0.157   4.558   3.355
    4DPPC  H16S  476   0.048   4.605   3.220
    4DPPC  H16T  477   0.021   4.450   3.308
    4DPPC   C33  478   5.878   4.357   4.534
    4DPPC   H3X  479   5.839   4.259   4.572
    4DPPC   H3Y  480   5.965   4.384   4.598
    4DPPC   C34  481   5.927   4.335   4.390
    4DPPC   H4X  482   5.842   4.297   4.329
    4DPPC   H4Y  483   6.006   4.257   4.391
    4DPPC   C35  484   5.983   4.461   4.320
    4DPPC   H5X  485   5.903   4.537   4.312
    4DPPC   H5Y  486   6.012   4.432   4.216
    4DPPC   C36  487   6.105   4.523   4.389
    4DPPC   H6X  488   6.188   4.450   4.390
    4DPPC   H6Y  489   6.080   4.546   4.495
    4DPPC   C37  490   6.154   4.655   4.325
    4DPPC   H7X  491   6.244   4.690   4.381
    4DPPC   H7Y  492   6.074   4.731   4.338
    4DPPC   C38  493   6.188   4.647   4.175
    4DPPC   H8X  494   6.220   4.748   4.141
    4DPPC   H8Y  495   6.097   4.620   4.118
    4DPPC   C39  496   6.300   4.547   4.141
    4DPPC   H9X  497   6.271   4.446   4.177
    4DPPC   H9Y  498   0.090   4.577   4.194
    4DPPC  C310  499   0.026   4.538   3.990
    4DPPC  H10X  500   0.056   4.639   3.953
    4DPPC  H10Y  501   6.236   4.508   3.938
    4DPPC  C311  502   0.136   4.436   3.957
    4DPPC  H11X  503   0.110   4.340   4.006
    4DPPC  H11Y  504   0.232   4.471   3.999
    4DPPC  C312  505   0.153   4.409   3.806
    4DPPC  H12X  506   0.058   4.365   3.768
    4DPPC  H12Y  507   0.233   4.333   3.793
    4DPPC  C313  508   0.188   4.531   3.719
    4DPPC  H13X  509   0.106   4.605   3.725
    4DPPC  H13Y  510   0.194   4.496   3.614
    4DPPC  C314  511   0.320   4.599   3.756
    4DPPC  H14X  512   0.400   4.521   3.760
    4DPPC  H14Y  513   0.312   4.644   3.857
    4DPPC  C315  514   0.362   4.707   3.656
    4DPPC  H15X  515   0.367   4.661   3.554
    4DPPC  H15Y  516   0.283   4.786   3.653
    4DPPC  C316  517   0.497   4.773   3.686
    4DPPC  H16X  518   0.578   4.697   3.688
    4DPPC  H16Y  519   0.493   4.823   3.785
    4DPPC  H16Z  520   0.521   4.849   3.609
    5DPPC     N  521   3.761   2.664   5.490
    5DPPC   C13  522   3.834   2.778   5.552
    5DPPC  H13A  523   3.793   2.871   5.516
    5DPPC  H13B  524   3.938   2.773   5.523
    5DPPC  H13C  525   3.827   2.773   5.659
    5DPPC   C14  526   3.811   2.537   5.549
    5DPPC  H14A  527   3.759   2.453   5.504
    5DPPC  H14B  528   3.795   2.535   5.656
    5DPPC  H14C  529   3.917   2.527   5.530
    5DPPC   C15  530   3.616   2.678   5.523
    5DPPC  H15A  531   3.576   2.767   5.476
    5DPPC  H15B  532   3.603   2.684   5.630
    5DPPC  H15C  533   3.563   2.592   5.485
    5DPPC   C12  534   3.779   2.664   5.340
    5DPPC  H12A  535   3.761   2.765   5.306
    5DPPC  H12B  536   3.702   2.601   5.298
    5DPPC   C11  537   3.915   2.618   5.283
    5DPPC  H11A  538   3.919   2.646   5.176
    5DPPC  H11B  539   3.917   2.506   5.290
    5DPPC     P  540   4.166   2.624   5.326
    5DPPC   O13  541   4.162   2.478   5.304
    5DPPC   O14  542   4.252   2.669   5.439
    5DPPC   O11  543   4.209   2.700   5.195
    5DPPC   O12  544   4.022   2.677   5.355
    5DPPC    C1  545   4.219   2.843   5.195
    5DPPC    HA  546   4.318   2.874   5.236
    5DPPC    HB  547   4.139   2.890   5.258
    5DPPC    C2  548   4.205   2.904   5.053
    5DPPC    HS  549   4.113   2.858   5.010
    5DPPC   O21  550   4.323   2.871   4.976
    5DPPC   C21  551   4.301   2.872   4.846
    5DPPC   O22  552   4.192   2.885   4.793
    5DPPC   C22  553   4.433   2.861   4.771
    5DPPC   H2R  554   4.427   2.777   4.699
    5DPPC   H2S  555   4.516   2.841   4.842
    5DPPC    C3  556   4.187   3.060   5.062
    5DPPC    HX  557   4.285   3.102   5.093
    5DPPC    HY  558   4.116   3.083   5.145
    5DPPC   O31  559   4.145   3.125   4.939
    5DPPC   C31  560   4.017   3.101   4.909
    5DPPC   O32  561   3.941   3.035   4.978
    5DPPC   C32  562   3.982   3.163   4.774
    5DPPC   H2X  563   4.035   3.107   4.693
    5DPPC   H2Y  564   4.014   3.269   4.771
    5DPPC   C23  565   4.458   2.993   4.697
    5DPPC   H3R  566   4.453   3.078   4.769
    5DPPC   H3S  567   4.379   3.008   4.621
    5DPPC   C24  568   4.596   2.999   4.628
    5DPPC   H4R  569   4.674   2.981   4.705
    5DPPC   H4S  570   4.603   2.918   4.552
    5DPPC   C25  571   4.626   3.134   4.560
    5DPPC   H5R  572   4.731   3.133   4.524
    5DPPC   H5S  573   4.617   3.215   4.636
    5DPPC   C26  574   4.533   3.166   4.442
    5DPPC   H6R  575   4.428   3.171   4.478
    5DPPC   H6S  576   4.540   3.083   4.368
    5DPPC   C27  577   4.567   3.299   4.372
    5DPPC   H7R  578   4.670   3.295   4.330
    5DPPC   H7S  579   4.564   3.379   4.448
    5DPPC   C28  580   4.468   3.335   4.260
    5DPPC   H8R  581   4.484   3.442   4.231
    5DPPC   H8S  582   4.365   3.327   4.300
    5DPPC   C29  583   4.479   3.249   4.133
    5DPPC   H9R  584   4.480   3.141   4.161
    5DPPC   H9S  585   4.576   3.271   4.083
    5DPPC  C210  586   4.363   3.272   4.036
    5DPPC  H10R  587   4.352   3.381   4.018
    5DPPC  H10S  588   4.269   3.236   4.083
    5DPPC  C211  589   4.381   3.203   3.900
    5DPPC  H11R  590   4.409   3.096   3.915
    5DPPC  H11S  591   4.464   3.253   3.846
    5DPPC  C212  592   4.253   3.209   3.814
    5DPPC  H12R  593   4.208   3.310   3.826
    5DPPC  H12S  594   4.180   3.135   3.852
    5DPPC  C213  595   4.277   3.187   3.664
    5DPPC  H13R  596   4.322   3.086   3.648
    5DPPC  H13S  597   4.350   3.263   3.629
    5DPPC  C214  598   4.148   3.200   3.583
    5DPPC  H14R  599   4.096   3.293   3.614
    5DPPC  H14S  600   4.081   3.114   3.605
    5DPPC  C215  601   4.171   3.209   3.431
    5DPPC  H15R  602   4.229   3.120   3.398
    5DPPC  H15S  603   4.233   3.300   3.411
    5DPPC  C216  604   4.043   3.218   3.349
    5DPPC  H16R  605   3.983   3.125   3.361
    5DPPC  H16S  606   4.068   3.230   3.241
    5DPPC  H16T  607   3.981   3.304   3.381
    5DPPC   C33  608   3.830   3.152   4.755
    5DPPC   H3X  609   3.780   3.217   4.831
    5DPPC   H3Y  610   3.798   3.047   4.772
    5DPPC   C34  611   3.776   3.192   4.616
    5DPPC   H4X  612   3.827   3.131   4.538
    5DPPC   H4Y  613   3.798   3.299   4.596
    5DPPC   C35  614   3.625   3.167   4.609
    5DPPC   H5X  615   3.573   3.231   4.684
    5DPPC   H5Y  616   3.607   3.060   4.638
    5DPPC   C36  617   3.560   3.189   4.472
    5DPPC   H6X  618   3.619   3.135   4.395
    5DPPC   H6Y  619   3.562   3.298   4.447
    5DPPC   C37  620   3.416   3.137   4.469
    5DPPC   H7X  621   3.358   3.185   4.551
    5DPPC   H7Y  622   3.418   3.027   4.490
    5DPPC   C38  623   3.342   3.158   4.336
    5DPPC   H8X  624   3.406   3.122   4.252
    5DPPC   H8Y  625   3.324   3.267   4.322
    5DPPC   C39  626   3.208   3.083   4.333
    5DPPC   H9X  627   3.148   3.112   4.421
    5DPPC   H9Y  628   3.230   2.974   4.341
    5DPPC  C310  629   3.125   3.108   4.206
    5DPPC  H10X  630   3.185   3.082   4.116
    5DPPC  H10Y  631   3.101   3.217   4.201
    5DPPC  C311  632   2.993   3.029   4.203
    5DPPC  H11X  633   2.931   3.067   4.118
    5DPPC  H11Y  634   2.937   3.048   4.297
    5DPPC  C312  635   3.011   2.877   4.185
    5DPPC  H12X  636   3.075   2.838   4.267
    5DPPC  H12Y  637   3.063   2.859   4.089
    5DPPC  C313  638   2.877   2.800   4.187
    5DPPC  H13X  639   2.813   2.837   4.104
    5DPPC  H13Y  640   2.826   2.823   4.283
    5DPPC  C314  641   2.893   2.648   4.175
    5DPPC  H14X  642   2.793   2.601   4.192
    5DPPC  H14Y  643   2.961   2.612   4.256
    5DPPC  C315  644   2.946   2.600   4.039
    5DPPC  H15X  645   3.046   2.644   4.022
    5DPPC  H15Y  646   2.878   2.637   3.960
    5DPPC  C316  647   2.957   2.447   4.027
    5DPPC  H16X  648   3.027   2.407   4.104
    5DPPC  H16Y  649   2.995   2.419   3.927
    5DPPC  H16Z  650   2.858   2.400   4.042
    6DPPC     N  651   4.487   2.338   5.302
    6DPPC   C13  652   4.527   2.482   5.307
    6DPPC  H13A  653   4.585   2.500   5.396
    6DPPC  H13B  654   4.438   2.543   5.309
    6DPPC  H13C  655   4.585   2.506   5.219
    6DPPC   C14  656   4.611   2.255   5.301
    6DPPC  H14A  657   4.669   2.274   5.390
    6DPPC  H14B  658   4.670   2.280   5.214
    6DPPC  H14C  659   4.585   2.150   5.296
    6DPPC   C15  660   4.409   2.307   5.425
    6DPPC  H15A  661   4.318   2.367   5.424
    6DPPC  H15B  662   4.467   2.333   5.513
    6DPPC  H15C  663   4.383   2.203   5.428
    6DPPC   C12  664   4.403   2.315   5.180
    6DPPC  H12A  665   4.455   2.356   5.095
    6DPPC  H12B  666   4.312   2.373   5.193
    6DPPC   C11  667   4.362   2.170   5.145
    6DPPC  H11A  668   4.278   2.171   5.072
    6DPPC  H11B  669   4.322   2.120   5.235
    6DPPC     P  670   4.529   2.131   4.954
    6DPPC   O13  671   4.593   2.011   4.897
    6DPPC   O14  672   4.614   2.252   4.966
    6DPPC   O11  673   4.400   2.166   4.869
    6DPPC   O12  674   4.473   2.095   5.097
    6DPPC    C1  675   4.378   2.299   4.818
    6DPPC    HA  676   4.410   2.378   4.890
    6DPPC    HB  677   4.269   2.314   4.802
    6DPPC    C2  678   4.449   2.324   4.681
    6DPPC    HS  679   4.558   2.306   4.699
    6DPPC   O21  680   4.388   2.236   4.584
    6DPPC   C21  681   4.470   2.145   4.535
    6DPPC   O22  682   4.591   2.141   4.553
    6DPPC   C22  683   4.391   2.039   4.459
    6DPPC   H2R  684   4.320   1.990   4.528
    6DPPC   H2S  685   4.462   1.963   4.421
    6DPPC    C3  686   4.440   2.473   4.633
    6DPPC    HX  687   4.525   2.487   4.564
    6DPPC    HY  688   4.460   2.541   4.720
    6DPPC   O31  689   4.320   2.509   4.560
    6DPPC   C31  690   4.221   2.558   4.633
    6DPPC   O32  691   4.221   2.566   4.754
    6DPPC   C32  692   4.109   2.606   4.540
    6DPPC   H2X  693   4.095   2.533   4.458
    6DPPC   H2Y  694   4.141   2.703   4.496
    6DPPC   C23  695   4.312   2.099   4.340
    6DPPC   H3R  696   4.235   2.170   4.376
    6DPPC   H3S  697   4.259   2.014   4.292
    6DPPC   C24  698   4.402   2.168   4.236
    6DPPC   H4R  699   4.499   2.115   4.230
    6DPPC   H4S  700   4.421   2.271   4.271
    6DPPC   C25  701   4.342   2.173   4.094
    6DPPC   H5R  702   4.403   2.244   4.035
    6DPPC   H5S  703   4.238   2.212   4.099
    6DPPC   C26  704   4.344   2.037   4.021
    6DPPC   H6R  705   4.275   1.966   4.070
    6DPPC   H6S  706   4.447   1.996   4.028
    6DPPC   C27  707   4.306   2.052   3.873
    6DPPC   H7R  708   4.370   2.130   3.827
    6DPPC   H7S  709   4.200   2.087   3.867
    6DPPC   C28  710   4.320   1.923   3.789
    6DPPC   H8R  711   4.248   1.847   3.824
    6DPPC   H8S  712   4.292   1.950   3.684
    6DPPC   C29  713   4.461   1.864   3.789
    6DPPC   H9R  714   4.472   1.795   3.875
    6DPPC   H9S  715   4.534   1.947   3.802
    6DPPC  C210  716   4.500   1.791   3.658
    6DPPC  H10R  717   4.603   1.750   3.669
    6DPPC  H10S  718   4.502   1.867   3.577
    6DPPC  C211  719   4.405   1.678   3.616
    6DPPC  H11R  720   4.301   1.718   3.611
    6DPPC  H11S  721   4.406   1.598   3.693
    6DPPC  C212  722   4.443   1.619   3.479
    6DPPC  H12R  723   4.546   1.580   3.485
    6DPPC  H12S  724   4.442   1.702   3.404
    6DPPC  C213  725   4.350   1.507   3.429
    6DPPC  H13R  726   4.357   1.421   3.498
    6DPPC  H13S  727   4.388   1.474   3.330
    6DPPC  C214  728   4.203   1.549   3.415
    6DPPC  H14R  729   4.198   1.642   3.354
    6DPPC  H14S  730   4.162   1.573   3.516
    6DPPC  C215  731   4.111   1.445   3.350
    6DPPC  H15R  732   4.008   1.487   3.347
    6DPPC  H15S  733   4.107   1.355   3.415
    6DPPC  C216  734   4.150   1.402   3.208
    6DPPC  H16R  735   4.246   1.347   3.210
    6DPPC  H16S  736   4.160   1.491   3.142
    6DPPC  H16T  737   4.072   1.335   3.165
    6DPPC   C33  738   3.977   2.626   4.616
    6DPPC   H3X  739   3.993   2.693   4.703
    6DPPC   H3Y  740   3.941   2.528   4.654
    6DPPC   C34  741   3.868   2.689   4.527
    6DPPC   H4X  742   3.863   2.631   4.433
    6DPPC   H4Y  743   3.898   2.793   4.502
    6DPPC   C35  744   3.728   2.692   4.591
    6DPPC   H5X  745   3.734   2.744   4.689
    6DPPC   H5Y  746   3.695   2.587   4.609
    6DPPC   C36  747   3.621   2.762   4.505
    6DPPC   H6X  748   3.647   2.870   4.498
    6DPPC   H6Y  749   3.523   2.754   4.556
    6DPPC   C37  750   3.609   2.706   4.362
    6DPPC   H7X  751   3.591   2.597   4.368
    6DPPC   H7Y  752   3.706   2.722   4.309
    6DPPC   C38  753   3.499   2.772   4.278
    6DPPC   H8X  754   3.514   2.883   4.282
    6DPPC   H8Y  755   3.399   2.751   4.321
    6DPPC   C39  756   3.502   2.730   4.130
    6DPPC   H9X  757   3.607   2.740   4.094
    6DPPC   H9Y  758   3.439   2.799   4.070
    6DPPC  C310  759   3.455   2.585   4.104
    6DPPC  H10X  760   3.344   2.582   4.106
    6DPPC  H10Y  761   3.493   2.519   4.184
    6DPPC  C311  762   3.506   2.530   3.970
    6DPPC  H11X  763   3.617   2.527   3.973
    6DPPC  H11Y  764   3.476   2.598   3.887
    6DPPC  C312  765   3.455   2.388   3.938
    6DPPC  H12X  766   3.346   2.394   3.916
    6DPPC  H12Y  767   3.469   2.323   4.027
    6DPPC  C313  768   3.527   2.324   3.818
    6DPPC  H13X  769   3.633   2.307   3.847
    6DPPC  H13Y  770   3.526   2.396   3.733
    6DPPC  C314  771   3.465   2.192   3.772
    6DPPC  H14X  772   3.366   2.213   3.726
    6DPPC  H14Y  773   3.448   2.127   3.861
    6DPPC  C315  774   3.552   2.113   3.672
    6DPPC  H15X  775   3.493   2.025   3.636
    6DPPC  H15Y  776   3.640   2.074   3.727
    6DPPC  C316  777   3.602   2.192   3.551
    6DPPC  H16X  778   3.667   2.276   3.583
    6DPPC  H16Y  779   3.516   2.233   3.493
    6DPPC  H16Z  780   3.661   2.126   3.484
    7DPPC     N  781   2.991   1.157   5.435
    7DPPC   C13  782   3.070   1.044   5.492
    7DPPC  H13A  783   3.009   0.955   5.495
    7DPPC  H13B  784   3.102   1.070   5.591
    7DPPC  H13C  785   3.157   1.026   5.430
    7DPPC   C14  786   2.876   1.184   5.525
    7DPPC  H14A  787   2.807   1.101   5.521
    7DPPC  H14B  788   2.825   1.274   5.492
    7DPPC  H14C  789   2.911   1.198   5.626
    7DPPC   C15  790   3.079   1.277   5.429
    7DPPC  H15A  791   3.109   1.305   5.529
    7DPPC  H15B  792   3.024   1.358   5.383
    7DPPC  H15C  793   3.167   1.256   5.369
    7DPPC   C12  794   2.945   1.117   5.298
    7DPPC  H12A  795   2.902   1.018   5.305
    7DPPC  H12B  796   3.032   1.110   5.234
    7DPPC   C11  797   2.840   1.207   5.228
    7DPPC  H11A  798   2.746   1.202   5.287
    7DPPC  H11B  799   2.821   1.161   5.129
    7DPPC     P  800   2.794   1.433   5.135
    7DPPC   O13  801   2.853   1.569   5.132
    7DPPC   O14  802   2.657   1.424   5.190
    7DPPC   O11  803   2.801   1.372   4.990
    7DPPC   O12  804   2.889   1.340   5.218
    7DPPC    C1  805   2.927   1.362   4.920
    7DPPC    HA  806   2.928   1.267   4.861
    7DPPC    HB  807   3.014   1.358   4.989
    7DPPC    C2  808   2.951   1.478   4.818
    7DPPC    HS  809   2.950   1.572   4.877
    7DPPC   O21  810   2.843   1.477   4.723
    7DPPC   C21  811   2.830   1.590   4.658
    7DPPC   O22  812   2.908   1.684   4.662
    7DPPC   C22  813   2.697   1.589   4.583
    7DPPC   H2R  814   2.616   1.569   4.656
    7DPPC   H2S  815   2.698   1.507   4.508
    7DPPC    C3  816   3.093   1.466   4.752
    7DPPC    HX  817   3.163   1.467   4.837
    7DPPC    HY  818   3.115   1.557   4.693
    7DPPC   O31  819   3.114   1.343   4.678
    7DPPC   C31  820   3.124   1.353   4.546
    7DPPC   O32  821   3.106   1.455   4.482
    7DPPC   C32  822   3.166   1.218   4.489
    7DPPC   H2X  823   3.106   1.138   4.537
    7DPPC   H2Y  824   3.273   1.200   4.513
    7DPPC   C23  825   2.672   1.724   4.514
    7DPPC   H3R  826   2.744   1.735   4.430
    7DPPC   H3S  827   2.688   1.808   4.585
    7DPPC   C24  828   2.528   1.735   4.462
    7DPPC   H4R  829   2.459   1.731   4.549
    7DPPC   H4S  830   2.505   1.646   4.399
    7DPPC   C25  831   2.498   1.863   4.382
    7DPPC   H5R  832   2.516   1.951   4.446
    7DPPC   H5S  833   2.389   1.862   4.356
    7DPPC   C26  834   2.578   1.878   4.251
    7DPPC   H6R  835   2.685   1.896   4.276
    7DPPC   H6S  836   2.541   1.969   4.199
    7DPPC   C27  837   2.569   1.757   4.157
    7DPPC   H7R  838   2.463   1.732   4.137
    7DPPC   H7S  839   2.617   1.670   4.207
    7DPPC   C28  840   2.642   1.778   4.023
    7DPPC   H8R  841   2.660   1.679   3.977
    7DPPC   H8S  842   2.741   1.824   4.044
    7DPPC   C29  843   2.564   1.865   3.924
    7DPPC   H9R  844   2.531   1.959   3.974
    7DPPC   H9S  845   2.473   1.810   3.892
    7DPPC  C210  846   2.645   1.906   3.799
    7DPPC  H10R  847   2.724   1.978   3.829
    7DPPC  H10S  848   2.576   1.958   3.729
    7DPPC  C211  849   2.712   1.788   3.726
    7DPPC  H11R  850   2.637   1.708   3.708
    7DPPC  H11S  851   2.793   1.747   3.790
    7DPPC  C212  852   2.773   1.830   3.591
    7DPPC  H12R  853   2.832   1.923   3.605
    7DPPC  H12S  854   2.691   1.852   3.520
    7DPPC  C213  855   2.865   1.722   3.530
    7DPPC  H13R  856   2.811   1.625   3.530
    7DPPC  H13S  857   2.954   1.710   3.595
    7DPPC  C214  858   2.910   1.751   3.386
    7DPPC  H14R  859   2.821   1.746   3.319
    7DPPC  H14S  860   2.980   1.671   3.354
    7DPPC  C215  861   2.978   1.888   3.364
    7DPPC  H15R  862   2.904   1.969   3.382
    7DPPC  H15S  863   3.008   1.895   3.257
    7DPPC  C216  864   3.101   1.913   3.451
    7DPPC  H16R  865   3.176   1.832   3.437
    7DPPC  H16S  866   3.073   1.918   3.559
    7DPPC  H16T  867   3.148   2.010   3.424
    7DPPC   C33  868   3.146   1.212   4.336
    7DPPC   H3X  869   3.220   1.280   4.287
    7DPPC   H3Y  870   3.044   1.247   4.309
    7DPPC   C34  871   3.165   1.070   4.280
    7DPPC   H4X  872   3.083   1.005   4.317
    7DPPC   H4Y  873   3.260   1.029   4.320
    7DPPC   C35  874   3.170   1.062   4.126
    7DPPC   H5X  875   3.198   0.958   4.099
    7DPPC   H5Y  876   3.250   1.129   4.089
    7DPPC   C36  877   3.037   1.095   4.056
    7DPPC   H6X  878   3.013   1.203   4.070
    7DPPC   H6Y  879   2.957   1.036   4.106
    7DPPC   C37  880   3.035   1.059   3.907
    7DPPC   H7X  881   2.932   1.074   3.867
    7DPPC   H7Y  882   3.059   0.950   3.897
    7DPPC   C38  883   3.134   1.138   3.818
    7DPPC   H8X  884   3.135   1.089   3.718
    7DPPC   H8Y  885   3.236   1.131   3.860
    7DPPC   C39  886   3.095   1.286   3.800
    7DPPC   H9X  887   3.090   1.335   3.899
    7DPPC   H9Y  888   2.993   1.290   3.755
    7DPPC  C310  889   3.190   1.367   3.710
    7DPPC  H10X  890   3.289   1.375   3.760
    7DPPC  H10Y  891   3.149   1.469   3.699
    7DPPC  C311  892   3.211   1.307   3.569
    7DPPC  H11X  893   3.112   1.283   3.525
    7DPPC  H11Y  894   3.269   1.213   3.578
    7DPPC  C312  895   3.286   1.402   3.474
    7DPPC  H12X  896   3.378   1.438   3.526
    7DPPC  H12Y  897   3.222   1.491   3.454
    7DPPC  C313  898   3.328   1.338   3.341
    7DPPC  H13X  899   3.405   1.260   3.363
    7DPPC  H13Y  900   3.378   1.416   3.279
    7DPPC  C314  901   3.215   1.272   3.260
    7DPPC  H14X  902   3.171   1.190   3.320
    7DPPC  H14Y  903   3.260   1.226   3.169
    7DPPC  C315  904   3.103   1.367   3.215
    7DPPC  H15X  905   3.055   1.412   3.304
    7DPPC  H15Y  906   3.025   1.305   3.163
    7DPPC  C316  907   3.146   1.479   3.120
    7DPPC  H16X  908   3.196   1.436   3.030
    7DPPC  H16Y  909   3.217   1.548   3.170
    7DPPC  H16Z  910   3.058   1.537   3.086
    8DPPC     N  911   6.245   3.990   5.447
    8DPPC   C13  912   6.247   4.121   5.377
    8DPPC  H13A  913   0.016   4.117   5.296
    8DPPC  H13B  914   6.277   4.199   5.447
    8DPPC  H13C  915   6.149   4.143   5.337
    8DPPC   C14  916   0.075   3.965   5.509
    8DPPC  H14A  917   0.103   4.049   5.571
    8DPPC  H14B  918   0.150   3.953   5.432
    8DPPC  H14C  919   0.071   3.876   5.570
    8DPPC   C15  920   6.142   3.994   5.554
    8DPPC  H15A  921   6.143   3.901   5.609
    8DPPC  H15B  922   6.044   4.008   5.511
    8DPPC  H15C  923   6.163   4.075   5.623
    8DPPC   C12  924   6.211   3.878   5.350
    8DPPC  H12A  925   6.118   3.905   5.302
    8DPPC  H12B  926   6.193   3.789   5.409
    8DPPC   C11  927   0.010   3.841   5.240
    8DPPC  H11A  928   6.264   3.765   5.174
    8DPPC  H11B  929   0.098   3.794   5.289
    8DPPC     P  930   0.159   3.940   5.060
    8DPPC   O13  931   0.279   3.884   5.126
    8DPPC   O14  932   0.178   4.070   4.992
    8DPPC   O11  933   0.103   3.834   4.958
    8DPPC   O12  934   0.045   3.957   5.166
    8DPPC    C1  935   6.283   3.852   4.887
    8DPPC    HA  936   6.227   3.943   4.918
    8DPPC    HB  937   6.217   3.765   4.908
    8DPPC    C2  938   6.303   3.858   4.732
    8DPPC    HS  939   6.200   3.866   4.689
    8DPPC   O21  940   0.067   3.738   4.692
    8DPPC   C21  941   0.038   3.701   4.569
    8DPPC   O22  942   6.262   3.757   4.495
    8DPPC   C22  943   0.117   3.575   4.533
    8DPPC   H2R  944   0.048   3.488   4.534
    8DPPC   H2S  945   0.197   3.558   4.609
    8DPPC    C3  946   0.082   3.986   4.692
    8DPPC    HX  947   0.186   3.969   4.727
    8DPPC    HY  948   0.043   4.072   4.750
    8DPPC   O31  949   0.085   4.015   4.550
    8DPPC   C31  950   6.277   4.074   4.505
    8DPPC   O32  951   6.178   4.094   4.573
    8DPPC   C32  952   6.292   4.113   4.359
    8DPPC   H2X  953   0.095   4.130   4.334
    8DPPC   H2Y  954   6.236   4.207   4.343
    8DPPC   C23  955   0.182   3.591   4.395
    8DPPC   H3R  956   0.238   3.687   4.391
    8DPPC   H3S  957   0.103   3.595   4.317
    8DPPC   C24  958   0.282   3.478   4.361
    8DPPC   H4R  959   0.366   3.484   4.434
    8DPPC   H4S  960   0.324   3.497   4.260
    8DPPC   C25  961   0.224   3.336   4.366
    8DPPC   H5R  962   0.188   3.314   4.468
    8DPPC   H5S  963   0.306   3.264   4.343
    8DPPC   C26  964   0.109   3.312   4.266
    8DPPC   H6R  965   0.145   3.336   4.163
    8DPPC   H6S  966   0.025   3.380   4.291
    8DPPC   C27  967   0.057   3.167   4.270
    8DPPC   H7R  968   0.027   3.145   4.375
    8DPPC   H7S  969   0.140   3.098   4.243
    8DPPC   C28  970   6.240   3.141   4.179
    8DPPC   H8R  971   6.157   3.210   4.205
    8DPPC   H8S  972   6.204   3.037   4.199
    8DPPC   C29  973   6.271   3.152   4.029
    8DPPC   H9R  974   0.059   3.092   4.007
    8DPPC   H9S  975   6.293   3.258   4.003
    8DPPC  C210  976   6.157   3.100   3.940
    8DPPC  H10R  977   6.066   3.163   3.955
    8DPPC  H10S  978   6.132   2.996   3.972
    8DPPC  C211  979   6.192   3.096   3.790
    8DPPC  H11R  980   6.289   3.043   3.778
    8DPPC  H11S  981   6.205   3.200   3.753
    8DPPC  C212  982   6.086   3.024   3.706
    8DPPC  H12R  983   5.990   3.080   3.709
    8DPPC  H12S  984   6.068   2.924   3.753
    8DPPC  C213  985   6.127   2.999   3.560
    8DPPC  H13R  986   6.052   2.930   3.514
    8DPPC  H13S  987   6.226   2.948   3.558
    8DPPC  C214  988   6.135   3.127   3.474
    8DPPC  H14R  989   6.201   3.200   3.524
    8DPPC  H14S  990   6.034   3.172   3.467
    8DPPC  C215  991   6.190   3.103   3.332
    8DPPC  H15R  992   6.294   3.066   3.341
    8DPPC  H15S  993   6.194   3.201   3.280
    8DPPC  C216  994   6.110   3.005   3.246
    8DPPC  H16R  995   6.107   2.904   3.293
    8DPPC  H16S  996   6.158   2.994   3.146
    8DPPC  H16T  997   6.006   3.041   3.232
    8DPPC   C33  998   6.233   4.001   4.270
    8DPPC   H3X  999   6.131   3.976   4.305
    8DPPC   H3Y 1000   6.297   3.910   4.281
    8DPPC   C34 1001   6.226   4.036   4.121
    8DPPC   H4X 1002   6.197   3.944   4.066
    8DPPC   H4Y 1003   0.023   4.067   4.085
    8DPPC   C35 1004   6.124   4.146   4.086
    8DPPC   H5X 1005   6.156   4.242   4.130
    8DPPC   H5Y 1006   6.026   4.118   4.130
    8DPPC   C36 1007   6.105   4.163   3.934
    8DPPC   H6X 1008   6.076   4.065   3.891
    8DPPC   H6Y 1009   6.203   4.193   3.889
    8DPPC   C37 1010   5.998   4.267   3.897
    8DPPC   H7X 1011   6.032   4.368   3.931
    8DPPC   H7Y 1012   5.905   4.242   3.953
    8DPPC   C38 1013   5.963   4.272   3.747
    8DPPC   H8X 1014   5.878   4.343   3.735
    8DPPC   H8Y 1015   5.928   4.171   3.715
    8DPPC   C39 1016   6.079   4.316   3.656
    8DPPC   H9X 1017   6.165   4.246   3.670
    8DPPC   H9Y 1018   6.113   4.417   3.687
    8DPPC  C310 1019   6.045   4.318   3.506
    8DPPC  H10X 1020   6.014   4.216   3.474
    8DPPC  H10Y 1021   6.137   4.346   3.450
    8DPPC  C311 1022   5.933   4.418   3.469
    8DPPC  H11X 1023   5.961   4.519   3.505
    8DPPC  H11Y 1024   5.839   4.388   3.520
    8DPPC  C312 1025   5.906   4.425   3.318
    8DPPC  H12X 1026   5.881   4.323   3.280
    8DPPC  H12Y 1027   5.999   4.458   3.266
    8DPPC  C313 1028   5.791   4.521   3.283
    8DPPC  H13X 1029   5.817   4.623   3.320
    8DPPC  H13Y 1030   5.700   4.487   3.336
    8DPPC  C314 1031   5.761   4.529   3.133
    8DPPC  H14X 1032   5.739   4.427   3.094
    8DPPC  H14Y 1033   5.851   4.568   3.080
    8DPPC  C315 1034   5.641   4.621   3.101
    8DPPC  H15X 1035   5.661   4.722   3.144
    8DPPC  H15Y 1036   5.551   4.580   3.152
    8DPPC  C316 1037   5.612   4.637   2.952
    8DPPC  H16X 1038   5.524   4.703   2.937
    8DPPC  H16Y 1039   5.590   4.538   2.906
    8DPPC  H16Z 1040   5.699   4.682   2.900
    9DPPC     N 1041   2.476   0.520   5.631
    9DPPC   C13 1042   2.446   0.432   5.748
    9DPPC  H13A 1043   2.409   0.336   5.715
    9DPPC  H13B 1044   2.371   0.479   5.810
    9DPPC  H13C 1045   2.536   0.418   5.806
    9DPPC   C14 1046   2.351   0.538   5.552
    9DPPC  H14A 1047   2.316   0.442   5.516
    9DPPC  H14B 1048   2.371   0.601   5.466
    9DPPC  H14C 1049   2.275   0.584   5.613
    9DPPC   C15 1050   2.520   0.652   5.684
    9DPPC  H15A 1051   2.442   0.695   5.745
    9DPPC  H15B 1052   2.540   0.718   5.600
    9DPPC  H15C 1053   2.610   0.640   5.742
    9DPPC   C12 1054   2.584   0.457   5.548
    9DPPC  H12A 1055   2.557   0.353   5.531
    9DPPC  H12B 1056   2.675   0.457   5.607
    9DPPC   C11 1057   2.617   0.519   5.410
    9DPPC  H11A 1058   2.533   0.495   5.341
    9DPPC  H11B 1059   2.707   0.467   5.368
    9DPPC     P 1060   2.770   0.726   5.397
    9DPPC   O13 1061   2.832   0.670   5.274
    9DPPC   O14 1062   2.849   0.714   5.522
    9DPPC   O11 1063   2.735   0.878   5.370
    9DPPC   O12 1064   2.629   0.660   5.417
    9DPPC    C1 1065   2.613   0.919   5.307
    9DPPC    HA 1066   2.604   1.030   5.319
    9DPPC    HB 1067   2.524   0.875   5.358
    9DPPC    C2 1068   2.603   0.891   5.153
    9DPPC    HS 1069   2.595   0.780   5.142
    9DPPC   O21 1070   2.725   0.937   5.091
    9DPPC   C21 1071   2.737   0.902   4.965
    9DPPC   O22 1072   2.661   0.829   4.904
    9DPPC   C22 1073   2.863   0.967   4.908
    9DPPC   H2R 1074   2.951   0.910   4.945
    9DPPC   H2S 1075   2.871   1.071   4.945
    9DPPC    C3 1076   2.473   0.954   5.090
    9DPPC    HX 1077   2.390   0.929   5.161
    9DPPC    HY 1078   2.451   0.903   4.994
    9DPPC   O31 1079   2.482   1.097   5.070
    9DPPC   C31 1080   2.366   1.152   5.034
    9DPPC   O32 1081   2.261   1.090   5.025
    9DPPC   C32 1082   2.382   1.301   5.008
    9DPPC   H2X 1083   2.449   1.344   5.086
    9DPPC   H2Y 1084   2.283   1.350   5.017
    9DPPC   C23 1085   2.865   0.968   4.754
    9DPPC   H3R 1086   2.850   0.865   4.715
    9DPPC   H3S 1087   2.967   1.001   4.724
    9DPPC   C24 1088   2.765   1.064   4.687
    9DPPC   H4R 1089   2.767   1.162   4.739
    9DPPC   H4S 1090   2.662   1.023   4.696
    9DPPC   C25 1091   2.799   1.087   4.539
    9DPPC   H5R 1092   2.819   0.988   4.492
    9DPPC   H5S 1093   2.893   1.146   4.533
    9DPPC   C26 1094   2.691   1.160   4.457
    9DPPC   H6R 1095   2.675   1.260   4.501
    9DPPC   H6S 1096   2.596   1.103   4.463
    9DPPC   C27 1097   2.731   1.176   4.309
    9DPPC   H7R 1098   2.748   1.076   4.265
    9DPPC   H7S 1099   2.828   1.232   4.305
    9DPPC   C28 1100   2.628   1.253   4.224
    9DPPC   H8R 1101   2.611   1.352   4.271
    9DPPC   H8S 1102   2.532   1.197   4.225
    9DPPC   C29 1103   2.674   1.274   4.079
    9DPPC   H9R 1104   2.693   1.175   4.032
    9DPPC   H9S 1105   2.770   1.331   4.080
    9DPPC  C210 1106   2.571   1.352   3.994
    9DPPC  H10R 1107   2.542   1.443   4.051
    9DPPC  H10S 1108   2.481   1.289   3.981
    9DPPC  C211 1109   2.623   1.397   3.857
    9DPPC  H11R 1110   2.712   1.462   3.872
    9DPPC  H11S 1111   2.544   1.459   3.809
    9DPPC  C212 1112   2.662   1.282   3.761
    9DPPC  H12R 1113   2.574   1.217   3.745
    9DPPC  H12S 1114   2.741   1.221   3.810
    9DPPC  C213 1115   2.718   1.330   3.626
    9DPPC  H13R 1116   2.753   1.242   3.569
    9DPPC  H13S 1117   2.806   1.395   3.645
    9DPPC  C214 1118   2.619   1.409   3.538
    9DPPC  H14R 1119   2.673   1.443   3.446
    9DPPC  H14S 1120   2.587   1.501   3.592
    9DPPC  C215 1121   2.493   1.332   3.493
    9DPPC  H15R 1122   2.429   1.402   3.436
    9DPPC  H15S 1123   2.436   1.301   3.583
    9DPPC  C216 1124   2.520   1.209   3.406
    9DPPC  H16R 1125   2.424   1.164   3.373
    9DPPC  H16S 1126   2.576   1.132   3.463
    9DPPC  H16T 1127   2.579   1.237   3.316
    9DPPC   C33 1128   2.442   1.328   4.869
    9DPPC   H3X 1129   2.537   1.272   4.855
    9DPPC   H3Y 1130   2.465   1.436   4.864
    9DPPC   C34 1131   2.344   1.296   4.753
    9DPPC   H4X 1132   2.243   1.331   4.783
    9DPPC   H4Y 1133   2.339   1.186   4.739
    9DPPC   C35 1134   2.380   1.364   4.620
    9DPPC   H5X 1135   2.477   1.325   4.583
    9DPPC   H5Y 1136   2.391   1.473   4.637
    9DPPC   C36 1137   2.272   1.342   4.512
    9DPPC   H6X 1138   2.174   1.379   4.553
    9DPPC   H6Y 1139   2.262   1.234   4.492
    9DPPC   C37 1140   2.299   1.415   4.380
    9DPPC   H7X 1141   2.392   1.374   4.335
    9DPPC   H7Y 1142   2.315   1.523   4.400
    9DPPC   C38 1143   2.184   1.401   4.279
    9DPPC   H8X 1144   2.093   1.447   4.324
    9DPPC   H8Y 1145   2.163   1.293   4.263
    9DPPC   C39 1146   2.210   1.466   4.142
    9DPPC   H9X 1147   2.295   1.414   4.092
    9DPPC   H9Y 1148   2.240   1.572   4.158
    9DPPC  C310 1149   2.086   1.462   4.052
    9DPPC  H10X 1150   2.004   1.515   4.105
    9DPPC  H10Y 1151   2.054   1.356   4.039
    9DPPC  C311 1152   2.103   1.525   3.913
    9DPPC  H11X 1153   2.141   1.629   3.923
    9DPPC  H11Y 1154   2.001   1.531   3.867
    9DPPC  C312 1155   2.193   1.446   3.817
    9DPPC  H12X 1156   2.176   1.337   3.835
    9DPPC  H12Y 1157   2.299   1.467   3.840
    9DPPC  C313 1158   2.163   1.473   3.668
    9DPPC  H13X 1159   2.058   1.441   3.648
    9DPPC  H13Y 1160   2.230   1.411   3.606
    9DPPC  C314 1161   2.176   1.620   3.624
    9DPPC  H14X 1162   2.111   1.684   3.687
    9DPPC  H14Y 1163   2.139   1.628   3.519
    9DPPC  C315 1164   2.320   1.674   3.628
    9DPPC  H15X 1165   2.383   1.610   3.563
    9DPPC  H15Y 1166   2.359   1.667   3.731
    9DPPC  C316 1167   2.332   1.819   3.579
    9DPPC  H16X 1168   2.292   1.829   3.476
    9DPPC  H16Y 1169   2.276   1.887   3.647
    9DPPC  H16Z 1170   2.439   1.850   3.578
   10DPPC     N 1171   2.748   5.199   5.454
   10DPPC   C13 1172   2.864   5.289   5.428
   10DPPC  H13A 1173   2.827   5.386   5.395
   10DPPC  H13B 1174   2.928   5.249   5.351
   10DPPC  H13C 1175   2.921   5.304   5.519
   10DPPC   C14 1176   2.801   5.069   5.502
   10DPPC  H14A 1177   2.718   5.005   5.530
   10DPPC  H14B 1178   2.862   5.086   5.590
   10DPPC  H14C 1179   2.860   5.021   5.426
   10DPPC   C15 1180   2.664   5.259   5.561
   10DPPC  H15A 1181   2.582   5.192   5.584
   10DPPC  H15B 1182   2.625   5.354   5.528
   10DPPC  H15C 1183   2.723   5.275   5.650
   10DPPC   C12 1184   2.668   5.175   5.329
   10DPPC  H12A 1185   2.598   5.094   5.350
   10DPPC  H12B 1186   2.736   5.139   5.252
   10DPPC   C11 1187   2.587   5.292   5.269
   10DPPC  H11A 1188   2.507   5.322   5.341
   10DPPC  H11B 1189   2.538   5.251   5.178
   10DPPC     P 1190   2.610   5.514   5.153
   10DPPC   O13 1191   2.712   5.620   5.130
   10DPPC   O14 1192   2.481   5.555   5.215
   10DPPC   O11 1193   2.580   5.440   5.017
   10DPPC   O12 1194   2.673   5.401   5.241
   10DPPC    C1 1195   2.681   5.363   4.950
   10DPPC    HA 1196   2.631   5.288   4.884
   10DPPC    HB 1197   2.744   5.305   5.021
   10DPPC    C2 1198   2.775   5.449   4.859
   10DPPC    HS 1199   2.824   5.522   4.927
   10DPPC   O21 1200   2.693   5.516   4.762
   10DPPC   C21 1201   2.749   5.627   4.718
   10DPPC   O22 1202   2.863   5.663   4.744
   10DPPC   C22 1203   2.647   5.700   4.632
   10DPPC   H2R 1204   2.555   5.717   4.691
   10DPPC   H2S 1205   2.622   5.636   4.545
   10DPPC    C3 1206   2.887   5.361   4.793
   10DPPC    HX 1207   2.944   5.318   4.879
   10DPPC    HY 1208   2.956   5.427   4.735
   10DPPC   O31 1209   2.831   5.260   4.707
   10DPPC   C31 1210   2.904   5.149   4.696
   10DPPC   O32 1211   3.015   5.133   4.744
   10DPPC   C32 1212   2.827   5.049   4.610
   10DPPC   H2X 1213   2.809   5.093   4.510
   10DPPC   H2Y 1214   2.730   5.029   4.659
   10DPPC   C23 1215   2.700   5.836   4.582
   10DPPC   H3R 1216   2.801   5.825   4.537
   10DPPC   H3S 1217   2.707   5.906   4.668
   10DPPC   C24 1218   2.606   5.896   4.476
   10DPPC   H4R 1219   2.626   6.005   4.467
   10DPPC   H4S 1220   2.501   5.883   4.510
   10DPPC   C25 1221   2.624   5.833   4.336
   10DPPC   H5R 1222   2.646   5.725   4.346
   10DPPC   H5S 1223   2.711   5.882   4.287
   10DPPC   C26 1224   2.500   5.845   4.246
   10DPPC   H6R 1225   2.453   5.945   4.259
   10DPPC   H6S 1226   2.425   5.769   4.277
   10DPPC   C27 1227   2.534   5.826   4.097
   10DPPC   H7R 1228   2.590   5.731   4.085
   10DPPC   H7S 1229   2.601   5.909   4.066
   10DPPC   C28 1230   2.411   5.824   4.006
   10DPPC   H8R 1231   2.350   5.914   4.026
   10DPPC   H8S 1232   2.350   5.734   4.030
   10DPPC   C29 1233   2.448   5.821   3.856
   10DPPC   H9R 1234   2.524   5.741   3.840
   10DPPC   H9S 1235   2.497   5.917   3.830
   10DPPC  C210 1236   2.330   5.795   3.762
   10DPPC  H10R 1237   2.299   5.688   3.774
   10DPPC  H10S 1238   2.363   5.809   3.657
   10DPPC  C211 1239   2.206   5.882   3.788
   10DPPC  H11R 1240   2.171   5.862   3.892
   10DPPC  H11S 1241   2.123   5.850   3.720
   10DPPC  C212 1242   2.228   6.033   3.771
   10DPPC  H12R 1243   2.219   6.059   3.663
   10DPPC  H12S 1244   2.331   6.061   3.804
   10DPPC  C213 1245   2.130   6.116   3.854
   10DPPC  H13R 1246   2.151   6.099   3.962
   10DPPC  H13S 1247   2.026   6.081   3.834
   10DPPC  C214 1248   2.138   6.267   3.826
   10DPPC  H14R 1249   2.242   6.302   3.843
   10DPPC  H14S 1250   2.112   6.285   3.719
   10DPPC  C215 1251   2.043   6.349   3.914
   10DPPC  H15R 1252   2.069   6.330   4.021
   10DPPC  H15S 1253   1.939   6.313   3.898
   10DPPC  C216 1254   2.047   0.081   3.888
   10DPPC  H16R 1255   2.150   0.120   3.905
   10DPPC  H16S 1256   1.978   0.134   3.956
   10DPPC  H16T 1257   2.018   0.103   3.783
   10DPPC   C33 1258   2.906   4.917   4.597
   10DPPC   H3X 1259   2.927   4.880   4.700
   10DPPC   H3Y 1260   3.003   4.934   4.546
   10DPPC   C34 1261   2.828   4.806   4.524
   10DPPC   H4X 1262   2.719   4.816   4.544
   10DPPC   H4Y 1263   2.861   4.708   4.566
   10DPPC   C35 1264   2.852   4.797   4.372
   10DPPC   H5X 1265   2.799   4.705   4.335
   10DPPC   H5Y 1266   2.960   4.783   4.352
   10DPPC   C36 1267   2.800   4.916   4.289
   10DPPC   H6X 1268   2.863   5.005   4.310
   10DPPC   H6Y 1269   2.696   4.939   4.320
   10DPPC   C37 1270   2.801   4.888   4.138
   10DPPC   H7X 1271   2.737   4.799   4.120
   10DPPC   H7Y 1272   2.905   4.863   4.106
   10DPPC   C38 1273   2.748   5.004   4.052
   10DPPC   H8X 1274   2.821   5.088   4.055
   10DPPC   H8Y 1275   2.652   5.040   4.096
   10DPPC   C39 1276   2.723   4.962   3.907
   10DPPC   H9X 1277   2.651   4.877   3.909
   10DPPC   H9Y 1278   2.817   4.926   3.861
   10DPPC  C310 1279   2.662   5.072   3.819
   10DPPC  H10X 1280   2.740   5.148   3.794
   10DPPC  H10Y 1281   2.582   5.123   3.876
   10DPPC  C311 1282   2.599   5.017   3.690
   10DPPC  H11X 1283   2.525   4.939   3.720
   10DPPC  H11Y 1284   2.677   4.968   3.628
   10DPPC  C312 1285   2.526   5.121   3.605
   10DPPC  H12X 1286   2.601   5.186   3.554
   10DPPC  H12Y 1287   2.464   5.186   3.671
   10DPPC  C313 1288   2.433   5.057   3.500
   10DPPC  H13X 1289   2.354   5.000   3.554
   10DPPC  H13Y 1290   2.491   4.986   3.438
   10DPPC  C314 1291   2.365   5.159   3.407
   10DPPC  H14X 1292   2.443   5.209   3.346
   10DPPC  H14Y 1293   2.315   5.237   3.468
   10DPPC  C315 1294   2.261   5.095   3.313
   10DPPC  H15X 1295   2.178   5.055   3.375
   10DPPC  H15Y 1296   2.309   5.009   3.261
   10DPPC  C316 1297   2.203   5.190   3.208
   10DPPC  H16X 1298   2.284   5.228   3.141
   10DPPC  H16Y 1299   2.154   5.277   3.257
   10DPPC  H16Z 1300   2.128   5.137   3.146
   11DPPC     N 1301   4.999   4.846   5.816
   11DPPC   C13 1302   4.939   4.981   5.800
   11DPPC  H13A 1303   4.995   5.037   5.727
   11DPPC  H13B 1304   4.942   5.033   5.895
   11DPPC  H13C 1305   4.837   4.970   5.767
   11DPPC   C14 1306   5.137   4.862   5.871
   11DPPC  H14A 1307   5.201   4.909   5.797
   11DPPC  H14B 1308   5.177   4.764   5.894
   11DPPC  H14C 1309   5.135   4.922   5.960
   11DPPC   C15 1310   4.918   4.770   5.915
   11DPPC  H15A 1311   4.817   4.761   5.879
   11DPPC  H15B 1312   4.917   4.822   6.010
   11DPPC  H15C 1313   4.961   4.672   5.929
   11DPPC   C12 1314   5.009   4.773   5.685
   11DPPC  H12A 1315   5.066   4.682   5.704
   11DPPC  H12B 1316   5.066   4.835   5.618
   11DPPC   C11 1317   4.879   4.732   5.612
   11DPPC  H11A 1318   4.825   4.657   5.676
   11DPPC  H11B 1319   4.911   4.683   5.518
   11DPPC     P 1320   4.664   4.819   5.511
   11DPPC   O13 1321   4.591   4.948   5.499
   11DPPC   O14 1322   4.591   4.709   5.578
   11DPPC   O11 1323   4.707   4.771   5.367
   11DPPC   O12 1324   4.799   4.846   5.586
   11DPPC    C1 1325   4.777   4.859   5.277
   11DPPC    HA 1326   4.840   4.799   5.209
   11DPPC    HB 1327   4.846   4.928   5.332
   11DPPC    C2 1328   4.683   4.947   5.188
   11DPPC    HS 1329   4.620   5.007   5.257
   11DPPC   O21 1330   4.603   4.862   5.104
   11DPPC   C21 1331   4.501   4.929   5.052
   11DPPC   O22 1332   4.471   5.044   5.081
   11DPPC   C22 1333   4.425   4.842   4.951
   11DPPC   H2R 1334   4.331   4.807   4.998
   11DPPC   H2S 1335   4.486   4.754   4.923
   11DPPC    C3 1336   4.770   5.047   5.104
   11DPPC    HX 1337   4.826   5.108   5.178
   11DPPC    HY 1338   4.705   5.118   5.049
   11DPPC   O31 1339   4.867   4.981   5.020
   11DPPC   C31 1340   4.839   4.973   4.891
   11DPPC   O32 1341   4.736   5.011   4.839
   11DPPC   C32 1342   4.956   4.909   4.818
   11DPPC   H2X 1343   4.922   4.818   4.766
   11DPPC   H2Y 1344   5.034   4.879   4.892
   11DPPC   C23 1345   4.393   4.927   4.827
   11DPPC   H3R 1346   4.488   4.964   4.783
   11DPPC   H3S 1347   4.331   5.015   4.857
   11DPPC   C24 1348   4.318   4.849   4.718
   11DPPC   H4R 1349   4.216   4.823   4.755
   11DPPC   H4S 1350   4.372   4.754   4.698
   11DPPC   C25 1351   4.305   4.925   4.585
   11DPPC   H5R 1352   4.248   4.863   4.513
   11DPPC   H5S 1353   4.407   4.940   4.543
   11DPPC   C26 1354   4.235   5.062   4.597
   11DPPC   H6R 1355   4.295   5.128   4.663
   11DPPC   H6S 1356   4.135   5.047   4.645
   11DPPC   C27 1357   4.214   5.134   4.463
   11DPPC   H7R 1358   4.162   5.231   4.483
   11DPPC   H7S 1359   4.148   5.073   4.399
   11DPPC   C28 1360   4.345   5.164   4.387
   11DPPC   H8R 1361   4.389   5.069   4.352
   11DPPC   H8S 1362   4.418   5.211   4.458
   11DPPC   C29 1363   4.328   5.259   4.267
   11DPPC   H9R 1364   4.427   5.269   4.217
   11DPPC   H9S 1365   4.298   5.359   4.304
   11DPPC  C210 1366   4.223   5.211   4.164
   11DPPC  H10R 1367   4.124   5.210   4.214
   11DPPC  H10S 1368   4.247   5.107   4.133
   11DPPC  C211 1369   4.213   5.301   4.040
   11DPPC  H11R 1370   4.200   5.406   4.071
   11DPPC  H11S 1371   4.121   5.270   3.985
   11DPPC  C212 1372   4.333   5.290   3.945
   11DPPC  H12R 1373   4.346   5.184   3.916
   11DPPC  H12S 1374   4.425   5.322   3.999
   11DPPC  C213 1375   4.322   5.376   3.817
   11DPPC  H13R 1376   4.412   5.358   3.755
   11DPPC  H13S 1377   4.321   5.483   3.847
   11DPPC  C214 1378   4.197   5.349   3.730
   11DPPC  H14R 1379   4.203   5.414   3.640
   11DPPC  H14S 1380   4.106   5.379   3.787
   11DPPC  C215 1381   4.181   5.203   3.684
   11DPPC  H15R 1382   4.172   5.138   3.774
   11DPPC  H15S 1383   4.272   5.173   3.629
   11DPPC  C216 1384   4.058   5.180   3.595
   11DPPC  H16R 1385   4.049   5.073   3.570
   11DPPC  H16S 1386   4.067   5.239   3.501
   11DPPC  H16T 1387   3.966   5.213   3.648
   11DPPC   C33 1388   5.017   5.007   4.717
   11DPPC   H3X 1389   5.020   5.109   4.763
   11DPPC   H3Y 1390   4.954   5.013   4.626
   11DPPC   C34 1391   5.161   4.970   4.681
   11DPPC   H4X 1392   5.162   4.881   4.614
   11DPPC   H4Y 1393   5.213   4.942   4.775
   11DPPC   C35 1394   5.240   5.085   4.617
   11DPPC   H5X 1395   5.218   5.176   4.677
   11DPPC   H5Y 1396   5.206   5.105   4.514
   11DPPC   C36 1397   5.392   5.064   4.622
   11DPPC   H6X 1398   5.417   4.998   4.708
   11DPPC   H6Y 1399   5.441   5.162   4.642
   11DPPC   C37 1400   5.455   5.007   4.494
   11DPPC   H7X 1401   5.559   4.976   4.519
   11DPPC   H7Y 1402   5.461   5.088   4.418
   11DPPC   C38 1403   5.383   4.887   4.432
   11DPPC   H8X 1404   5.283   4.920   4.394
   11DPPC   H8Y 1405   5.366   4.809   4.509
   11DPPC   C39 1406   5.462   4.826   4.316
   11DPPC   H9X 1407   5.552   4.776   4.357
   11DPPC   H9Y 1408   5.496   4.909   4.249
   11DPPC  C310 1409   5.382   4.727   4.231
   11DPPC  H10X 1410   5.289   4.778   4.197
   11DPPC  H10Y 1411   5.352   4.640   4.293
   11DPPC  C311 1412   5.457   4.679   4.106
   11DPPC  H11X 1413   5.496   4.767   4.051
   11DPPC  H11Y 1414   5.385   4.627   4.040
   11DPPC  C312 1415   5.574   4.583   4.136
   11DPPC  H12X 1416   5.533   4.488   4.178
   11DPPC  H12Y 1417   5.640   4.628   4.213
   11DPPC  C313 1418   5.662   4.550   4.013
   11DPPC  H13X 1419   5.735   4.471   4.041
   11DPPC  H13Y 1420   5.719   4.642   3.987
   11DPPC  C314 1421   5.585   4.505   3.888
   11DPPC  H14X 1422   5.658   4.485   3.807
   11DPPC  H14Y 1423   5.520   4.588   3.853
   11DPPC  C315 1424   5.498   4.380   3.908
   11DPPC  H15X 1425   5.427   4.396   3.992
   11DPPC  H15Y 1426   5.564   4.295   3.935
   11DPPC  C316 1427   5.417   4.342   3.784
   11DPPC  H16X 1428   5.357   4.250   3.803
   11DPPC  H16Y 1429   5.484   4.324   3.697
   11DPPC  H16Z 1430   5.347   4.424   3.757
   12DPPC     N 1431   5.054   5.425   5.818
   12DPPC   C13 1432   5.012   5.498   5.940
   12DPPC  H13A 1433   4.931   5.566   5.915
   12DPPC  H13B 1434   5.095   5.555   5.981
   12DPPC  H13C 1435   4.976   5.428   6.015
   12DPPC   C14 1436   5.101   5.524   5.718
   12DPPC  H14A 1437   5.023   5.597   5.700
   12DPPC  H14B 1438   5.126   5.475   5.625
   12DPPC  H14C 1439   5.189   5.575   5.756
   12DPPC   C15 1440   5.166   5.334   5.854
   12DPPC  H15A 1441   5.251   5.392   5.887
   12DPPC  H15B 1442   5.193   5.275   5.767
   12DPPC  H15C 1443   5.136   5.267   5.933
   12DPPC   C12 1444   4.935   5.348   5.766
   12DPPC  H12A 1445   4.850   5.415   5.763
   12DPPC  H12B 1446   4.912   5.271   5.838
   12DPPC   C11 1447   4.946   5.282   5.626
   12DPPC  H11A 1448   4.948   5.364   5.551
   12DPPC  H11B 1449   4.855   5.220   5.609
   12DPPC     P 1450   5.127   5.167   5.485
   12DPPC   O13 1451   5.271   5.142   5.511
   12DPPC   O14 1452   5.095   5.274   5.388
   12DPPC   O11 1453   5.057   5.032   5.441
   12DPPC   O12 1454   5.061   5.199   5.623
   12DPPC    C1 1455   5.129   4.918   5.391
   12DPPC    HA 1456   5.055   4.841   5.362
   12DPPC    HB 1457   5.193   4.874   5.470
   12DPPC    C2 1458   5.217   4.946   5.264
   12DPPC    HS 1459   5.309   4.994   5.304
   12DPPC   O21 1460   5.143   5.034   5.178
   12DPPC   C21 1461   5.220   5.116   5.111
   12DPPC   O22 1462   5.343   5.113   5.111
   12DPPC   C22 1463   5.135   5.216   5.032
   12DPPC   H2R 1464   5.079   5.280   5.103
   12DPPC   H2S 1465   5.063   5.160   4.969
   12DPPC    C3 1466   5.261   4.816   5.189
   12DPPC    HX 1467   5.313   4.752   5.264
   12DPPC    HY 1468   5.335   4.846   5.112
   12DPPC   O31 1469   5.150   4.745   5.128
   12DPPC   C31 1470   5.186   4.629   5.072
   12DPPC   O32 1471   5.297   4.578   5.080
   12DPPC   C32 1472   5.068   4.570   4.994
   12DPPC   H2X 1473   5.017   4.496   5.059
   12DPPC   H2Y 1474   4.996   4.650   4.967
   12DPPC   C23 1475   5.228   5.301   4.946
   12DPPC   H3R 1476   5.293   5.234   4.885
   12DPPC   H3S 1477   5.293   5.361   5.013
   12DPPC   C24 1478   5.158   5.398   4.849
   12DPPC   H4R 1479   5.105   5.477   4.907
   12DPPC   H4S 1480   5.082   5.342   4.790
   12DPPC   C25 1481   5.259   5.462   4.753
   12DPPC   H5R 1482   5.313   5.380   4.700
   12DPPC   H5S 1483   5.335   5.519   4.811
   12DPPC   C26 1484   5.199   5.555   4.647
   12DPPC   H6R 1485   5.160   5.647   4.695
   12DPPC   H6S 1486   5.113   5.503   4.598
   12DPPC   C27 1487   5.301   5.591   4.538
   12DPPC   H7R 1488   5.334   5.497   4.488
   12DPPC   H7S 1489   5.391   5.636   4.587
   12DPPC   C28 1490   5.249   5.688   4.432
   12DPPC   H8R 1491   5.231   5.786   4.480
   12DPPC   H8S 1492   5.152   5.651   4.392
   12DPPC   C29 1493   5.347   5.705   4.315
   12DPPC   H9R 1494   5.345   5.614   4.251
   12DPPC   H9S 1495   5.450   5.715   4.357
   12DPPC  C210 1496   5.321   5.830   4.228
   12DPPC  H10R 1497   5.400   5.834   4.149
   12DPPC  H10S 1498   5.332   5.920   4.292
   12DPPC  C211 1499   5.183   5.835   4.161
   12DPPC  H11R 1500   5.104   5.829   4.239
   12DPPC  H11S 1501   5.171   5.747   4.094
   12DPPC  C212 1502   5.163   5.964   4.080
   12DPPC  H12R 1503   5.236   5.965   3.995
   12DPPC  H12S 1504   5.186   6.050   4.146
   12DPPC  C213 1505   5.021   5.980   4.025
   12DPPC  H13R 1506   4.950   5.976   4.110
   12DPPC  H13S 1507   4.998   5.895   3.957
   12DPPC  C214 1508   5.001   6.113   3.951
   12DPPC  H14R 1509   5.064   6.113   3.859
   12DPPC  H14S 1510   5.037   6.196   4.016
   12DPPC  C215 1511   4.855   6.142   3.912
   12DPPC  H15R 1512   4.852   6.240   3.860
   12DPPC  H15S 1513   4.795   6.152   4.005
   12DPPC  C216 1514   4.790   6.036   3.823
   12DPPC  H16R 1515   4.688   6.069   3.794
   12DPPC  H16S 1516   4.782   5.939   3.876
   12DPPC  H16T 1517   4.850   6.022   3.730
   12DPPC   C33 1518   5.120   4.500   4.867
   12DPPC   H3X 1519   5.035   4.445   4.821
   12DPPC   H3Y 1520   5.196   4.424   4.894
   12DPPC   C34 1521   5.177   4.596   4.761
   12DPPC   H4X 1522   5.249   4.665   4.810
   12DPPC   H4Y 1523   5.095   4.657   4.718
   12DPPC   C35 1524   5.253   4.525   4.647
   12DPPC   H5X 1525   5.332   4.460   4.691
   12DPPC   H5Y 1526   5.303   4.602   4.585
   12DPPC   C36 1527   5.164   4.440   4.555
   12DPPC   H6X 1528   5.088   4.505   4.507
   12DPPC   H6Y 1529   5.111   4.363   4.616
   12DPPC   C37 1530   5.245   4.367   4.446
   12DPPC   H7X 1531   5.324   4.307   4.496
   12DPPC   H7Y 1532   5.296   4.442   4.381
   12DPPC   C38 1533   5.161   4.272   4.359
   12DPPC   H8X 1534   5.105   4.204   4.426
   12DPPC   H8Y 1535   5.231   4.209   4.298
   12DPPC   C39 1536   5.062   4.339   4.262
   12DPPC   H9X 1537   4.998   4.412   4.317
   12DPPC   H9Y 1538   4.995   4.259   4.223
   12DPPC  C310 1539   5.129   4.407   4.142
   12DPPC  H10X 1540   5.196   4.333   4.093
   12DPPC  H10Y 1541   5.191   4.492   4.177
   12DPPC  C311 1542   5.028   4.458   4.038
   12DPPC  H11X 1543   4.966   4.538   4.083
   12DPPC  H11Y 1544   4.960   4.374   4.011
   12DPPC  C312 1545   5.096   4.511   3.911
   12DPPC  H12X 1546   5.151   4.427   3.863
   12DPPC  H12Y 1547   5.170   4.588   3.940
   12DPPC  C313 1548   5.000   4.572   3.808
   12DPPC  H13X 1549   5.061   4.612   3.724
   12DPPC  H13Y 1550   4.947   4.657   3.856
   12DPPC  C314 1551   4.897   4.473   3.751
   12DPPC  H14X 1552   4.830   4.439   3.832
   12DPPC  H14Y 1553   4.952   4.384   3.712
   12DPPC  C315 1554   4.812   4.532   3.637
   12DPPC  H15X 1555   4.745   4.451   3.600
   12DPPC  H15Y 1556   4.879   4.561   3.553
   12DPPC  C316 1557   4.725   4.652   3.676
   12DPPC  H16X 1558   4.788   4.737   3.711
   12DPPC  H16Y 1559   4.655   4.624   3.757
   12DPPC  H16Z 1560   4.666   4.686   3.588
   13DPPC     N 1561   1.133   4.744   5.043
   13DPPC   C13 1562   1.281   4.759   5.044
   13DPPC  H13A 1563   1.311   4.828   4.966
   13DPPC  H13B 1564   1.327   4.663   5.026
   13DPPC  H13C 1565   1.312   4.797   5.140
   13DPPC   C14 1566   1.094   4.648   5.150
   13DPPC  H14A 1567   0.986   4.637   5.152
   13DPPC  H14B 1568   1.130   4.683   5.245
   13DPPC  H14C 1569   1.138   4.552   5.128
   13DPPC   C15 1570   1.072   4.877   5.072
   13DPPC  H15A 1571   1.102   4.947   4.995
   13DPPC  H15B 1572   1.108   4.912   5.167
   13DPPC  H15C 1573   0.965   4.868   5.074
   13DPPC   C12 1574   1.085   4.696   4.908
   13DPPC  H12A 1575   1.083   4.781   4.841
   13DPPC  H12B 1576   0.983   4.661   4.921
   13DPPC   C11 1577   1.167   4.584   4.840
   13DPPC  H11A 1578   1.255   4.634   4.794
   13DPPC  H11B 1579   1.105   4.541   4.758
   13DPPC     P 1580   1.327   4.398   4.896
   13DPPC   O13 1581   1.333   4.282   4.988
   13DPPC   O14 1582   1.445   4.487   4.894
   13DPPC   O11 1583   1.292   4.350   4.750
   13DPPC   O12 1584   1.201   4.483   4.934
   13DPPC    C1 1585   1.361   4.241   4.687
   13DPPC    HA 1586   1.301   4.211   4.598
   13DPPC    HB 1587   1.367   4.152   4.753
   13DPPC    C2 1588   1.504   4.278   4.636
   13DPPC    HS 1589   1.567   4.284   4.728
   13DPPC   O21 1590   1.496   4.405   4.568
   13DPPC   C21 1591   1.608   4.473   4.576
   13DPPC   O22 1592   1.712   4.433   4.625
   13DPPC   C22 1593   1.588   4.611   4.514
   13DPPC   H2R 1594   1.679   4.672   4.533
   13DPPC   H2S 1595   1.501   4.660   4.562
   13DPPC    C3 1596   1.563   4.166   4.544
   13DPPC    HX 1597   1.583   4.077   4.607
   13DPPC    HY 1598   1.661   4.203   4.504
   13DPPC   O31 1599   1.472   4.130   4.437
   13DPPC   C31 1600   1.527   4.052   4.343
   13DPPC   O32 1601   1.644   4.020   4.340
   13DPPC   C32 1602   1.419   4.010   4.243
   13DPPC   H2X 1603   1.372   4.102   4.203
   13DPPC   H2Y 1604   1.341   3.951   4.295
   13DPPC   C23 1605   1.564   4.600   4.362
   13DPPC   H3R 1606   1.473   4.538   4.344
   13DPPC   H3S 1607   1.651   4.549   4.314
   13DPPC   C24 1608   1.544   4.737   4.296
   13DPPC   H4R 1609   1.636   4.798   4.306
   13DPPC   H4S 1610   1.463   4.789   4.352
   13DPPC   C25 1611   1.503   4.731   4.148
   13DPPC   H5R 1612   1.478   4.835   4.114
   13DPPC   H5S 1613   1.410   4.670   4.138
   13DPPC   C26 1614   1.611   4.674   4.054
   13DPPC   H6R 1615   1.637   4.571   4.086
   13DPPC   H6S 1616   1.702   4.737   4.063
   13DPPC   C27 1617   1.566   4.670   3.907
   13DPPC   H7R 1618   1.536   4.773   3.876
   13DPPC   H7S 1619   1.477   4.604   3.899
   13DPPC   C28 1620   1.676   4.619   3.813
   13DPPC   H8R 1621   1.713   4.521   3.849
   13DPPC   H8S 1622   1.761   4.691   3.817
   13DPPC   C29 1623   1.632   4.605   3.666
   13DPPC   H9R 1624   1.723   4.589   3.604
   13DPPC   H9S 1625   1.584   4.699   3.633
   13DPPC  C210 1626   1.537   4.486   3.642
   13DPPC  H10R 1627   1.443   4.499   3.700
   13DPPC  H10S 1628   1.587   4.394   3.680
   13DPPC  C211 1629   1.502   4.464   3.494
   13DPPC  H11R 1630   1.452   4.365   3.484
   13DPPC  H11S 1631   1.596   4.460   3.435
   13DPPC  C212 1632   1.408   4.571   3.435
   13DPPC  H12R 1633   1.449   4.671   3.457
   13DPPC  H12S 1634   1.309   4.564   3.485
   13DPPC  C213 1635   1.388   4.558   3.283
   13DPPC  H13R 1636   1.346   4.458   3.261
   13DPPC  H13S 1637   1.488   4.565   3.234
   13DPPC  C214 1638   1.297   4.667   3.226
   13DPPC  H14R 1639   1.335   4.766   3.261
   13DPPC  H14S 1640   1.195   4.654   3.267
   13DPPC  C215 1641   1.291   4.671   3.072
   13DPPC  H15R 1642   1.393   4.691   3.033
   13DPPC  H15S 1643   1.225   4.756   3.042
   13DPPC  C216 1644   1.237   4.543   3.006
   13DPPC  H16R 1645   1.304   4.457   3.028
   13DPPC  H16S 1646   1.232   4.556   2.896
   13DPPC  H16T 1647   1.135   4.520   3.044
   13DPPC   C33 1648   1.476   3.928   4.126
   13DPPC   H3X 1649   1.564   3.979   4.083
   13DPPC   H3Y 1650   1.398   3.924   4.047
   13DPPC   C34 1651   1.514   3.783   4.161
   13DPPC   H4X 1652   1.424   3.727   4.195
   13DPPC   H4Y 1653   1.587   3.784   4.245
   13DPPC   C35 1654   1.580   3.707   4.044
   13DPPC   H5X 1655   1.623   3.612   4.083
   13DPPC   H5Y 1656   1.663   3.769   4.005
   13DPPC   C36 1657   1.483   3.671   3.930
   13DPPC   H6X 1658   1.439   3.764   3.888
   13DPPC   H6Y 1659   1.399   3.611   3.972
   13DPPC   C37 1660   1.548   3.591   3.816
   13DPPC   H7X 1661   1.469   3.565   3.742
   13DPPC   H7Y 1662   1.590   3.497   3.857
   13DPPC   C38 1663   1.659   3.668   3.742
   13DPPC   H8X 1664   1.743   3.689   3.813
   13DPPC   H8Y 1665   1.618   3.766   3.710
   13DPPC   C39 1666   1.716   3.597   3.619
   13DPPC   H9X 1667   1.786   3.667   3.568
   13DPPC   H9Y 1668   1.634   3.573   3.548
   13DPPC  C310 1669   1.794   3.468   3.652
   13DPPC  H10X 1670   1.723   3.389   3.685
   13DPPC  H10Y 1671   1.863   3.490   3.737
   13DPPC  C311 1672   1.878   3.417   3.535
   13DPPC  H11X 1673   1.947   3.499   3.503
   13DPPC  H11Y 1674   1.813   3.392   3.449
   13DPPC  C312 1675   1.963   3.294   3.572
   13DPPC  H12X 1676   1.896   3.207   3.591
   13DPPC  H12Y 1677   2.016   3.317   3.667
   13DPPC  C313 1678   2.069   3.257   3.467
   13DPPC  H13X 1679   2.131   3.348   3.447
   13DPPC  H13Y 1680   2.018   3.228   3.372
   13DPPC  C314 1681   2.162   3.144   3.513
   13DPPC  H14X 1682   2.102   3.051   3.526
   13DPPC  H14Y 1683   2.205   3.171   3.612
   13DPPC  C315 1684   2.278   3.117   3.416
   13DPPC  H15X 1685   2.332   3.212   3.399
   13DPPC  H15Y 1686   2.236   3.084   3.318
   13DPPC  C316 1687   2.378   3.012   3.466
   13DPPC  H16X 1688   2.327   2.914   3.480
   13DPPC  H16Y 1689   2.460   2.999   3.392
   13DPPC  H16Z 1690   2.422   3.044   3.563
   14DPPC     N 1691   4.375   1.632   5.357
   14DPPC   C13 1692   4.304   1.507   5.318
   14DPPC  H13A 1693   4.209   1.529   5.272
   14DPPC  H13B 1694   4.285   1.447   5.406
   14DPPC  H13C 1695   4.365   1.450   5.249
   14DPPC   C14 1696   4.293   1.704   5.459
   14DPPC  H14A 1697   4.350   1.788   5.497
   14DPPC  H14B 1698   4.268   1.637   5.540
   14DPPC  H14C 1699   4.203   1.740   5.413
   14DPPC   C15 1700   4.505   1.594   5.418
   14DPPC  H15A 1701   4.566   1.543   5.344
   14DPPC  H15B 1702   4.489   1.529   5.502
   14DPPC  H15C 1703   4.557   1.684   5.450
   14DPPC   C12 1704   4.401   1.720   5.237
   14DPPC  H12A 1705   4.477   1.672   5.178
   14DPPC  H12B 1706   4.442   1.813   5.274
   14DPPC   C11 1707   4.283   1.752   5.143
   14DPPC  H11A 1708   4.250   1.657   5.095
   14DPPC  H11B 1709   4.322   1.820   5.064
   14DPPC     P 1710   4.039   1.821   5.142
   14DPPC   O13 1711   3.960   1.937   5.191
   14DPPC   O14 1712   3.974   1.688   5.155
   14DPPC   O11 1713   4.076   1.843   4.991
   14DPPC   O12 1714   4.178   1.817   5.215
   14DPPC    C1 1715   4.105   1.969   4.930
   14DPPC    HA 1716   4.214   1.972   4.907
   14DPPC    HB 1717   4.082   2.056   4.996
   14DPPC    C2 1718   4.028   1.987   4.796
   14DPPC    HS 1719   3.921   2.007   4.824
   14DPPC   O21 1720   4.046   1.866   4.720
   14DPPC   C21 1721   3.936   1.819   4.666
   14DPPC   O22 1722   3.826   1.873   4.669
   14DPPC   C22 1723   3.966   1.687   4.596
   14DPPC   H2R 1724   3.891   1.611   4.626
   14DPPC   H2S 1725   4.066   1.650   4.629
   14DPPC    C3 1726   4.081   2.110   4.716
   14DPPC    HX 1727   4.192   2.097   4.710
   14DPPC    HY 1728   4.063   2.203   4.774
   14DPPC   O31 1729   4.032   2.117   4.580
   14DPPC   C31 1730   3.919   2.186   4.565
   14DPPC   O32 1731   3.857   2.238   4.656
   14DPPC   C32 1732   3.880   2.190   4.417
   14DPPC   H2X 1733   3.816   2.102   4.395
   14DPPC   H2Y 1734   3.972   2.183   4.354
   14DPPC   C23 1735   3.968   1.706   4.444
   14DPPC   H3R 1736   4.022   1.619   4.399
   14DPPC   H3S 1737   4.027   1.797   4.418
   14DPPC   C24 1738   3.830   1.713   4.376
   14DPPC   H4R 1739   3.848   1.740   4.270
   14DPPC   H4S 1740   3.769   1.795   4.421
   14DPPC   C25 1741   3.752   1.581   4.378
   14DPPC   H5R 1742   3.821   1.497   4.401
   14DPPC   H5S 1743   3.713   1.565   4.275
   14DPPC   C26 1744   3.632   1.578   4.476
   14DPPC   H6R 1745   3.562   1.660   4.447
   14DPPC   H6S 1746   3.668   1.600   4.579
   14DPPC   C27 1747   3.555   1.445   4.478
   14DPPC   H7R 1748   3.463   1.458   4.539
   14DPPC   H7S 1749   3.618   1.369   4.529
   14DPPC   C28 1750   3.517   1.388   4.340
   14DPPC   H8R 1751   3.462   1.292   4.354
   14DPPC   H8S 1752   3.611   1.364   4.286
   14DPPC   C29 1753   3.430   1.482   4.254
   14DPPC   H9R 1754   3.470   1.586   4.260
   14DPPC   H9S 1755   3.327   1.484   4.295
   14DPPC  C210 1756   3.425   1.444   4.104
   14DPPC  H10R 1757   3.352   1.512   4.055
   14DPPC  H10S 1758   3.389   1.340   4.093
   14DPPC  C211 1759   3.561   1.461   4.034
   14DPPC  H11R 1760   3.630   1.380   4.066
   14DPPC  H11S 1761   3.605   1.558   4.066
   14DPPC  C212 1762   3.553   1.462   3.880
   14DPPC  H12R 1763   3.484   1.544   3.850
   14DPPC  H12S 1764   3.509   1.366   3.845
   14DPPC  C213 1765   3.690   1.482   3.816
   14DPPC  H13R 1766   3.755   1.395   3.842
   14DPPC  H13S 1767   3.737   1.573   3.859
   14DPPC  C214 1768   3.688   1.496   3.662
   14DPPC  H14R 1769   3.635   1.408   3.619
   14DPPC  H14S 1770   3.793   1.494   3.626
   14DPPC  C215 1771   3.622   1.624   3.611
   14DPPC  H15R 1772   3.670   1.712   3.659
   14DPPC  H15S 1773   3.515   1.624   3.640
   14DPPC  C216 1774   3.630   1.641   3.459
   14DPPC  H16R 1775   3.580   1.735   3.427
   14DPPC  H16S 1776   3.580   1.556   3.408
   14DPPC  H16T 1777   3.736   1.644   3.426
   14DPPC   C33 1778   3.804   2.319   4.384
   14DPPC   H3X 1779   3.867   2.407   4.407
   14DPPC   H3Y 1780   3.714   2.325   4.450
   14DPPC   C34 1781   3.755   2.327   4.239
   14DPPC   H4X 1782   3.671   2.399   4.234
   14DPPC   H4Y 1783   3.715   2.227   4.210
   14DPPC   C35 1784   3.860   2.371   4.135
   14DPPC   H5X 1785   3.817   2.353   4.034
   14DPPC   H5Y 1786   3.951   2.309   4.145
   14DPPC   C36 1787   3.898   2.520   4.145
   14DPPC   H6X 1788   3.947   2.538   4.243
   14DPPC   H6Y 1789   3.805   2.581   4.142
   14DPPC   C37 1790   3.992   2.571   4.035
   14DPPC   H7X 1791   4.084   2.509   4.034
   14DPPC   H7Y 1792   4.022   2.675   4.061
   14DPPC   C38 1793   3.931   2.572   3.893
   14DPPC   H8X 1794   3.837   2.631   3.894
   14DPPC   H8Y 1795   3.904   2.468   3.866
   14DPPC   C39 1796   4.026   2.626   3.785
   14DPPC   H9X 1797   3.985   2.600   3.685
   14DPPC   H9Y 1798   4.123   2.573   3.795
   14DPPC  C310 1799   4.052   2.778   3.790
   14DPPC  H10X 1800   4.135   2.801   3.719
   14DPPC  H10Y 1801   4.087   2.806   3.892
   14DPPC  C311 1802   3.932   2.867   3.751
   14DPPC  H11X 1803   3.963   2.973   3.763
   14DPPC  H11Y 1804   3.848   2.848   3.820
   14DPPC  C312 1805   3.884   2.847   3.606
   14DPPC  H12X 1806   3.842   2.745   3.596
   14DPPC  H12Y 1807   3.972   2.855   3.538
   14DPPC  C313 1808   3.779   2.950   3.563
   14DPPC  H13X 1809   3.823   3.051   3.572
   14DPPC  H13Y 1810   3.692   2.945   3.632
   14DPPC  C314 1811   3.729   2.933   3.418
   14DPPC  H14X 1812   3.815   2.945   3.349
   14DPPC  H14Y 1813   3.657   3.015   3.396
   14DPPC  C315 1814   3.660   2.799   3.387
   14DPPC  H15X 1815   3.734   2.717   3.395
   14DPPC  H15Y 1816   3.626   2.802   3.281
   14DPPC  C316 1817   3.539   2.765   3.476
   14DPPC  H16X 1818   3.493   2.670   3.442
   14DPPC  H16Y 1819   3.463   2.846   3.470
   14DPPC  H16Z 1820   3.571   2.753   3.581
   15DPPC     N 1821   1.230   5.778   4.803
   15DPPC   C13 1822   1.083   5.793   4.817
   15DPPC  H13A 1823   1.041   5.829   4.724
   15DPPC  H13B 1824   1.060   5.865   4.895
   15DPPC  H13C 1825   1.039   5.699   4.843
   15DPPC   C14 1826   1.287   5.914   4.780
   15DPPC  H14A 1827   1.257   5.980   4.860
   15DPPC  H14B 1828   1.250   5.953   4.686
   15DPPC  H14C 1829   1.395   5.909   4.777
   15DPPC   C15 1830   1.286   5.724   4.930
   15DPPC  H15A 1831   1.394   5.718   4.924
   15DPPC  H15B 1832   1.246   5.625   4.948
   15DPPC  H15C 1833   1.260   5.789   5.012
   15DPPC   C12 1834   1.264   5.692   4.685
   15DPPC  H12A 1835   1.372   5.696   4.671
   15DPPC  H12B 1836   1.219   5.737   4.598
   15DPPC   C11 1837   1.223   5.543   4.687
   15DPPC  H11A 1838   1.238   5.503   4.584
   15DPPC  H11B 1839   1.114   5.537   4.711
   15DPPC     P 1840   1.258   5.326   4.812
   15DPPC   O13 1841   1.163   5.334   4.926
   15DPPC   O14 1842   1.374   5.237   4.832
   15DPPC   O11 1843   1.180   5.281   4.682
   15DPPC   O12 1844   1.304   5.472   4.780
   15DPPC    C1 1845   1.063   5.200   4.692
   15DPPC    HA 1846   0.976   5.262   4.725
   15DPPC    HB 1847   1.077   5.118   4.766
   15DPPC    C2 1848   1.024   5.135   4.556
   15DPPC    HS 1849   0.922   5.091   4.565
   15DPPC   O21 1850   1.120   5.036   4.517
   15DPPC   C21 1851   1.108   4.924   4.586
   15DPPC   O22 1852   1.015   4.899   4.662
   15DPPC   C22 1853   1.224   4.830   4.554
   15DPPC   H2R 1854   1.269   4.798   4.650
   15DPPC   H2S 1855   1.302   4.883   4.496
   15DPPC    C3 1856   1.015   5.244   4.444
   15DPPC    HX 1857   1.111   5.300   4.444
   15DPPC    HY 1858   0.937   5.319   4.469
   15DPPC   O31 1859   0.996   5.189   4.312
   15DPPC   C31 1860   0.875   5.143   4.285
   15DPPC   O32 1861   0.777   5.152   4.359
   15DPPC   C32 1862   0.880   5.075   4.149
   15DPPC   H2X 1863   0.969   5.009   4.143
   15DPPC   H2Y 1864   0.891   5.154   4.072
   15DPPC   C23 1865   1.176   4.704   4.479
   15DPPC   H3R 1866   1.087   4.660   4.529
   15DPPC   H3S 1867   1.258   4.630   4.484
   15DPPC   C24 1868   1.146   4.730   4.330
   15DPPC   H4R 1869   1.230   4.790   4.287
   15DPPC   H4S 1870   1.053   4.790   4.320
   15DPPC   C25 1871   1.134   4.601   4.246
   15DPPC   H5R 1872   1.226   4.541   4.259
   15DPPC   H5S 1873   1.126   4.630   4.139
   15DPPC   C26 1874   1.012   4.514   4.281
   15DPPC   H6R 1875   0.920   4.575   4.267
   15DPPC   H6S 1876   1.016   4.483   4.388
   15DPPC   C27 1877   1.002   4.388   4.193
   15DPPC   H7R 1878   1.085   4.319   4.220
   15DPPC   H7S 1879   1.015   4.417   4.087
   15DPPC   C28 1880   0.868   4.315   4.209
   15DPPC   H8R 1881   0.785   4.382   4.177
   15DPPC   H8S 1882   0.853   4.293   4.317
   15DPPC   C29 1883   0.859   4.181   4.133
   15DPPC   H9R 1884   0.766   4.129   4.164
   15DPPC   H9S 1885   0.945   4.117   4.164
   15DPPC  C210 1886   0.858   4.192   3.979
   15DPPC  H10R 1887   0.859   4.089   3.938
   15DPPC  H10S 1888   0.950   4.243   3.944
   15DPPC  C211 1889   0.735   4.264   3.922
   15DPPC  H11R 1890   0.741   4.372   3.949
   15DPPC  H11S 1891   0.642   4.222   3.969
   15DPPC  C212 1892   0.723   4.251   3.769
   15DPPC  H12R 1893   0.704   4.145   3.743
   15DPPC  H12S 1894   0.820   4.280   3.725
   15DPPC  C213 1895   0.613   4.340   3.709
   15DPPC  H13R 1896   0.627   4.443   3.748
   15DPPC  H13S 1897   0.514   4.304   3.743
   15DPPC  C214 1898   0.616   4.348   3.555
   15DPPC  H14R 1899   0.539   4.422   3.522
   15DPPC  H14S 1900   0.716   4.388   3.524
   15DPPC  C215 1901   0.592   4.216   3.481
   15DPPC  H15R 1902   0.671   4.143   3.509
   15DPPC  H15S 1903   0.602   4.235   3.372
   15DPPC  C216 1904   0.455   4.152   3.506
   15DPPC  H16R 1905   0.374   4.224   3.481
   15DPPC  H16S 1906   0.444   4.122   3.612
   15DPPC  H16T 1907   0.442   4.062   3.442
   15DPPC   C33 1908   0.753   4.993   4.120
   15DPPC   H3X 1909   0.755   4.972   4.011
   15DPPC   H3Y 1910   0.661   5.052   4.140
   15DPPC   C34 1911   0.748   4.859   4.196
   15DPPC   H4X 1912   0.710   4.876   4.299
   15DPPC   H4Y 1913   0.852   4.820   4.206
   15DPPC   C35 1914   0.664   4.749   4.128
   15DPPC   H5X 1915   0.557   4.781   4.126
   15DPPC   H5Y 1916   0.670   4.657   4.191
   15DPPC   C36 1917   0.706   4.711   3.985
   15DPPC   H6X 1918   0.682   4.795   3.916
   15DPPC   H6Y 1919   0.646   4.623   3.952
   15DPPC   C37 1920   0.855   4.678   3.971
   15DPPC   H7X 1921   0.879   4.595   4.041
   15DPPC   H7Y 1922   0.916   4.766   3.999
   15DPPC   C38 1923   0.898   4.635   3.829
   15DPPC   H8X 1924   0.873   4.716   3.757
   15DPPC   H8Y 1925   0.840   4.545   3.801
   15DPPC   C39 1926   1.048   4.606   3.821
   15DPPC   H9X 1927   1.073   4.526   3.895
   15DPPC   H9Y 1928   1.104   4.697   3.850
   15DPPC  C310 1929   1.098   4.560   3.683
   15DPPC  H10X 1930   1.208   4.542   3.691
   15DPPC  H10Y 1931   1.081   4.640   3.609
   15DPPC  C311 1932   1.031   4.430   3.634
   15DPPC  H11X 1933   0.925   4.451   3.611
   15DPPC  H11Y 1934   1.036   4.355   3.716
   15DPPC  C312 1935   1.098   4.370   3.509
   15DPPC  H12X 1936   1.205   4.349   3.533
   15DPPC  H12Y 1937   1.095   4.445   3.427
   15DPPC  C313 1938   1.032   4.240   3.463
   15DPPC  H13X 1939   0.927   4.261   3.431
   15DPPC  H13Y 1940   1.028   4.170   3.549
   15DPPC  C314 1941   1.107   4.170   3.348
   15DPPC  H14X 1942   1.058   4.071   3.329
   15DPPC  H14Y 1943   1.211   4.150   3.380
   15DPPC  C315 1944   1.108   4.250   3.217
   15DPPC  H15X 1945   1.155   4.349   3.235
   15DPPC  H15Y 1946   1.003   4.267   3.185
   15DPPC  C316 1947   1.184   4.181   3.103
   15DPPC  H16X 1948   1.138   4.083   3.080
   15DPPC  H16Y 1949   1.290   4.165   3.132
   15DPPC  H16Z 1950   1.182   4.244   3.011
   16DPPC     N 1951   5.256   6.056   5.593
   16DPPC   C13 1952   5.356   5.948   5.607
   16DPPC  H13A 1953   5.319   5.857   5.562
   16DPPC  H13B 1954   5.377   5.930   5.712
   16DPPC  H13C 1955   5.448   5.977   5.557
   16DPPC   C14 1956   5.130   6.012   5.659
   16DPPC  H14A 1957   5.149   5.989   5.763
   16DPPC  H14B 1958   5.093   5.923   5.609
   16DPPC  H14C 1959   5.055   6.090   5.651
   16DPPC   C15 1960   5.305   6.179   5.660
   16DPPC  H15A 1961   5.395   6.213   5.610
   16DPPC  H15B 1962   5.326   6.159   5.764
   16DPPC  H15C 1963   5.230   6.257   5.653
   16DPPC   C12 1964   5.227   6.081   5.447
   16DPPC  H12A 1965   5.133   6.134   5.440
   16DPPC  H12B 1966   5.213   5.985   5.400
   16DPPC   C11 1967   5.330   6.161   5.363
   16DPPC  H11A 1968   5.315   6.269   5.386
   16DPPC  H11B 1969   5.304   6.142   5.256
   16DPPC     P 1970   5.574   6.184   5.301
   16DPPC   O13 1971   5.704   6.165   5.371
   16DPPC   O14 1972   5.535   6.322   5.263
   16DPPC   O11 1973   5.571   6.092   5.173
   16DPPC   O12 1974   5.463   6.121   5.392
   16DPPC    C1 1975   5.688   6.022   5.127
   16DPPC    HA 1976   5.655   5.942   5.058
   16DPPC    HB 1977   5.742   5.972   5.211
   16DPPC    C2 1978   5.788   6.111   5.046
   16DPPC    HS 1979   5.832   6.184   5.118
   16DPPC   O21 1980   5.711   6.179   4.945
   16DPPC   C21 1981   5.773   6.282   4.892
   16DPPC   O22 1982   5.882   6.325   4.930
   16DPPC   C22 1983   5.688   6.340   4.780
   16DPPC   H2R 1984   5.627   0.003   4.823
   16DPPC   H2S 1985   5.620   6.263   4.739
   16DPPC    C3 1986   5.903   6.024   4.985
   16DPPC    HX 1987   5.955   5.977   5.071
   16DPPC    HY 1988   5.979   6.089   4.935
   16DPPC   O31 1989   5.855   5.918   4.900
   16DPPC   C31 1990   5.838   5.953   4.772
   16DPPC   O32 1991   5.869   6.060   4.724
   16DPPC   C32 1992   5.768   5.839   4.699
   16DPPC   H2X 1993   5.692   5.795   4.768
   16DPPC   H2Y 1994   5.842   5.761   4.672
   16DPPC   C23 1995   5.774   6.397   4.666
   16DPPC   H3R 1996   5.821   6.314   4.609
   16DPPC   H3S 1997   5.855   0.043   4.708
   16DPPC   C24 1998   5.690   0.066   4.572
   16DPPC   H4R 1999   5.647   0.149   4.633
   16DPPC   H4S 2000   5.606   0.006   4.531
   16DPPC   C25 2001   5.769   0.128   4.456
   16DPPC   H5R 2002   5.794   0.049   4.382
   16DPPC   H5S 2003   5.865   0.169   4.496
   16DPPC   C26 2004   5.692   0.242   4.389
   16DPPC   H6R 2005   5.666   0.316   4.469
   16DPPC   H6S 2006   5.598   0.205   4.345
   16DPPC   C27 2007   5.774   0.318   4.283
   16DPPC   H7R 2008   5.876   0.336   4.323
   16DPPC   H7S 2009   5.726   0.417   4.266
   16DPPC   C28 2010   5.785   0.247   4.147
   16DPPC   H8R 2011   5.823   0.144   4.160
   16DPPC   H8S 2012   5.861   0.304   4.089
   16DPPC   C29 2013   5.654   0.244   4.067
   16DPPC   H9R 2014   5.599   0.340   4.082
   16DPPC   H9S 2015   5.590   0.162   4.106
   16DPPC  C210 2016   5.674   0.225   3.915
   16DPPC  H10R 2017   5.575   0.202   3.869
   16DPPC  H10S 2018   5.740   0.138   3.898
   16DPPC  C211 2019   5.731   0.350   3.845
   16DPPC  H11R 2020   5.829   0.375   3.890
   16DPPC  H11S 2021   5.662   0.435   3.863
   16DPPC  C212 2022   5.750   0.334   3.694
   16DPPC  H12R 2023   5.653   0.306   3.648
   16DPPC  H12S 2024   5.822   0.251   3.675
   16DPPC  C213 2025   5.803   0.462   3.627
   16DPPC  H13R 2026   5.899   0.491   3.675
   16DPPC  H13S 2027   5.730   0.544   3.644
   16DPPC  C214 2028   5.826   0.447   3.476
   16DPPC  H14R 2029   5.732   0.412   3.428
   16DPPC  H14S 2030   5.904   0.371   3.458
   16DPPC  C215 2031   5.868   0.579   3.409
   16DPPC  H15R 2032   5.959   0.618   3.461
   16DPPC  H15S 2033   5.787   0.654   3.424
   16DPPC  C216 2034   5.898   0.568   3.260
   16DPPC  H16R 2035   5.928   0.666   3.218
   16DPPC  H16S 2036   5.808   0.533   3.205
   16DPPC  H16T 2037   5.980   0.496   3.242
   16DPPC   C33 2038   5.694   5.889   4.573
   16DPPC   H3X 2039   5.631   5.977   4.596
   16DPPC   H3Y 2040   5.626   5.807   4.541
   16DPPC   C34 2041   5.787   5.920   4.453
   16DPPC   H4X 2042   5.863   5.839   4.448
   16DPPC   H4Y 2043   5.839   6.016   4.469
   16DPPC   C35 2044   5.713   5.922   4.318
   16DPPC   H5X 2045   5.665   5.823   4.306
   16DPPC   H5Y 2046   5.788   5.933   4.237
   16DPPC   C36 2047   5.605   6.030   4.302
   16DPPC   H6X 2048   5.531   6.022   4.384
   16DPPC   H6Y 2049   5.553   6.008   4.206
   16DPPC   C37 2050   5.659   6.174   4.295
   16DPPC   H7X 2051   5.735   6.180   4.214
   16DPPC   H7Y 2052   5.709   6.199   4.390
   16DPPC   C38 2053   5.550   6.281   4.268
   16DPPC   H8X 2054   5.600   6.380   4.258
   16DPPC   H8Y 2055   5.483   6.285   4.357
   16DPPC   C39 2056   5.462   6.257   4.143
   16DPPC   H9X 2057   5.390   6.342   4.135
   16DPPC   H9Y 2058   5.403   6.165   4.158
   16DPPC  C310 2059   5.541   6.246   4.011
   16DPPC  H10X 2060   5.615   6.165   4.020
   16DPPC  H10Y 2061   5.595   6.341   3.993
   16DPPC  C311 2062   5.451   6.214   3.891
   16DPPC  H11X 2063   5.379   6.297   3.874
   16DPPC  H11Y 2064   5.392   6.123   3.915
   16DPPC  C312 2065   5.529   6.187   3.761
   16DPPC  H12X 2066   5.459   6.143   3.686
   16DPPC  H12Y 2067   5.608   6.112   3.782
   16DPPC  C313 2068   5.592   6.312   3.698
   16DPPC  H13X 2069   5.660   6.361   3.772
   16DPPC  H13Y 2070   5.512   6.384   3.673
   16DPPC  C314 2071   5.674   6.280   3.572
   16DPPC  H14X 2072   5.609   6.228   3.498
   16DPPC  H14Y 2073   5.756   6.211   3.600
   16DPPC  C315 2074   5.737   6.404   3.505
   16DPPC  H15X 2075   5.809   6.369   3.428
   16DPPC  H15Y 2076   5.795   0.042   3.582
   16DPPC  C316 2077   5.637   0.081   3.438
   16DPPC  H16X 2078   5.580   0.027   3.359
   16DPPC  H16Y 2079   5.691   0.166   3.391
   16DPPC  H16Z 2080   5.565   0.121   3.512
   17DPPC     N 2081   3.664   4.271   5.783
   17DPPC   C13 2082   3.791   4.328   5.729
   17DPPC  H13A 2083   3.847   4.373   5.810
   17DPPC  H13B 2084   3.770   4.402   5.654
   17DPPC  H13C 2085   3.850   4.249   5.686
   17DPPC   C14 2086   3.696   4.171   5.888
   17DPPC  H14A 2087   3.756   4.092   5.844
   17DPPC  H14B 2088   3.606   4.129   5.928
   17DPPC  H14C 2089   3.753   4.219   5.967
   17DPPC   C15 2090   3.585   4.381   5.846
   17DPPC  H15A 2091   3.643   4.428   5.925
   17DPPC  H15B 2092   3.494   4.340   5.889
   17DPPC  H15C 2093   3.558   4.454   5.772
   17DPPC   C12 2094   3.581   4.213   5.671
   17DPPC  H12A 2095   3.561   4.293   5.600
   17DPPC  H12B 2096   3.486   4.182   5.713
   17DPPC   C11 2097   3.638   4.094   5.591
   17DPPC  H11A 2098   3.739   4.123   5.553
   17DPPC  H11B 2099   3.573   4.077   5.503
   17DPPC     P 2100   3.761   3.881   5.666
   17DPPC   O13 2101   3.716   3.744   5.703
   17DPPC   O14 2102   3.868   3.942   5.748
   17DPPC   O11 2103   3.802   3.884   5.513
   17DPPC   O12 2104   3.636   3.977   5.672
   17DPPC    C1 2105   3.721   3.826   5.410
   17DPPC    HA 2106   3.713   3.896   5.325
   17DPPC    HB 2107   3.616   3.806   5.445
   17DPPC    C2 2108   3.780   3.692   5.357
   17DPPC    HS 2109   3.810   3.635   5.448
   17DPPC   O21 2110   3.895   3.721   5.275
   17DPPC   C21 2111   3.973   3.616   5.261
   17DPPC   O22 2112   3.955   3.507   5.313
   17DPPC   C22 2113   4.090   3.650   5.168
   17DPPC   H2R 2114   4.131   3.749   5.196
   17DPPC   H2S 2115   4.054   3.653   5.064
   17DPPC    C3 2116   3.671   3.607   5.283
   17DPPC    HX 2117   3.587   3.596   5.354
   17DPPC    HY 2118   3.709   3.503   5.267
   17DPPC   O31 2119   3.620   3.667   5.162
   17DPPC   C31 2120   3.674   3.625   5.049
   17DPPC   O32 2121   3.770   3.549   5.042
   17DPPC   C32 2122   3.598   3.681   4.929
   17DPPC   H2X 2123   3.602   3.792   4.932
   17DPPC   H2Y 2124   3.492   3.648   4.935
   17DPPC   C23 2125   4.200   3.542   5.184
   17DPPC   H3R 2126   4.160   3.441   5.161
   17DPPC   H3S 2127   4.232   3.542   5.291
   17DPPC   C24 2128   4.326   3.567   5.099
   17DPPC   H4R 2129   4.414   3.531   5.159
   17DPPC   H4S 2130   4.339   3.675   5.083
   17DPPC   C25 2131   4.331   3.492   4.965
   17DPPC   H5R 2132   4.329   3.382   4.984
   17DPPC   H5S 2133   4.428   3.515   4.916
   17DPPC   C26 2134   4.218   3.526   4.866
   17DPPC   H6R 2135   4.213   3.637   4.855
   17DPPC   H6S 2136   4.121   3.491   4.906
   17DPPC   C27 2137   4.240   3.465   4.727
   17DPPC   H7R 2138   4.244   3.354   4.736
   17DPPC   H7S 2139   4.339   3.499   4.687
   17DPPC   C28 2140   4.131   3.503   4.625
   17DPPC   H8R 2141   4.128   3.614   4.616
   17DPPC   H8S 2142   4.033   3.469   4.664
   17DPPC   C29 2143   4.154   3.442   4.486
   17DPPC   H9R 2144   4.161   3.332   4.494
   17DPPC   H9S 2145   4.251   3.480   4.447
   17DPPC  C210 2146   4.043   3.478   4.386
   17DPPC  H10R 2147   4.029   3.588   4.386
   17DPPC  H10S 2148   3.948   3.432   4.421
   17DPPC  C211 2149   4.071   3.433   4.242
   17DPPC  H11R 2150   4.083   3.322   4.240
   17DPPC  H11S 2151   4.167   3.478   4.208
   17DPPC  C212 2152   3.959   3.474   4.146
   17DPPC  H12R 2153   3.946   3.584   4.152
   17DPPC  H12S 2154   3.864   3.427   4.180
   17DPPC  C213 2155   3.982   3.435   4.000
   17DPPC  H13R 2156   3.985   3.324   3.993
   17DPPC  H13S 2157   4.080   3.474   3.966
   17DPPC  C214 2158   3.872   3.490   3.908
   17DPPC  H14R 2159   3.879   3.601   3.908
   17DPPC  H14S 2160   3.772   3.463   3.950
   17DPPC  C215 2161   3.878   3.441   3.763
   17DPPC  H15R 2162   3.980   3.461   3.723
   17DPPC  H15S 2163   3.806   3.501   3.702
   17DPPC  C216 2164   3.844   3.293   3.744
   17DPPC  H16R 2165   3.741   3.272   3.781
   17DPPC  H16S 2166   3.915   3.229   3.800
   17DPPC  H16T 2167   3.850   3.266   3.637
   17DPPC   C33 2168   3.662   3.629   4.799
   17DPPC   H3X 2169   3.663   3.518   4.800
   17DPPC   H3Y 2170   3.768   3.665   4.794
   17DPPC   C34 2171   3.590   3.675   4.672
   17DPPC   H4X 2172   3.581   3.786   4.672
   17DPPC   H4Y 2173   3.487   3.632   4.671
   17DPPC   C35 2174   3.664   3.632   4.544
   17DPPC   H5X 2175   3.685   3.523   4.550
   17DPPC   H5Y 2176   3.761   3.686   4.541
   17DPPC   C36 2177   3.586   3.660   4.415
   17DPPC   H6X 2178   3.556   3.767   4.411
   17DPPC   H6Y 2179   3.494   3.598   4.414
   17DPPC   C37 2180   3.671   3.628   4.291
   17DPPC   H7X 2181   3.713   3.526   4.302
   17DPPC   H7Y 2182   3.756   3.700   4.287
   17DPPC   C38 2183   3.595   3.636   4.157
   17DPPC   H8X 2184   3.670   3.643   4.076
   17DPPC   H8Y 2185   3.533   3.728   4.154
   17DPPC   C39 2186   3.508   3.512   4.129
   17DPPC   H9X 2187   3.426   3.506   4.203
   17DPPC   H9Y 2188   3.572   3.421   4.142
   17DPPC  C310 2189   3.450   3.510   3.987
   17DPPC  H10X 2190   3.532   3.527   3.914
   17DPPC  H10Y 2191   3.377   3.594   3.977
   17DPPC  C311 2192   3.380   3.378   3.952
   17DPPC  H11X 2193   3.298   3.360   4.025
   17DPPC  H11Y 2194   3.454   3.295   3.963
   17DPPC  C312 2195   3.323   3.376   3.810
   17DPPC  H12X 2196   3.406   3.391   3.737
   17DPPC  H12Y 2197   3.252   3.460   3.799
   17DPPC  C313 2198   3.250   3.244   3.776
   17DPPC  H13X 2199   3.172   3.226   3.853
   17DPPC  H13Y 2200   3.324   3.161   3.782
   17DPPC  C314 2201   3.184   3.245   3.638
   17DPPC  H14X 2202   3.261   3.264   3.560
   17DPPC  H14Y 2203   3.112   3.330   3.634
   17DPPC  C315 2204   3.109   3.116   3.603
   17DPPC  H15X 2205   3.057   3.131   3.505
   17DPPC  H15Y 2206   3.030   3.098   3.680
   17DPPC  C316 2207   3.196   2.990   3.592
   17DPPC  H16X 2208   3.134   2.903   3.562
   17DPPC  H16Y 2209   3.245   2.968   3.689
   17DPPC  H16Z 2210   3.275   3.005   3.515
   18DPPC     N 2211   1.585   2.776   5.537
   18DPPC   C13 2212   1.542   2.704   5.660
   18DPPC  H13A 2213   1.526   2.600   5.638
   18DPPC  H13B 2214   1.450   2.747   5.698
   18DPPC  H13C 2215   1.618   2.713   5.737
   18DPPC   C14 2216   1.711   2.714   5.487
   18DPPC  H14A 2217   1.787   2.716   5.564
   18DPPC  H14B 2218   1.745   2.769   5.401
   18DPPC  H14C 2219   1.692   2.611   5.459
   18DPPC   C15 2220   1.480   2.762   5.434
   18DPPC  H15A 2221   1.511   2.813   5.344
   18DPPC  H15B 2222   1.386   2.803   5.469
   18DPPC  H15C 2223   1.466   2.657   5.410
   18DPPC   C12 2224   1.606   2.921   5.573
   18DPPC  H12A 2225   1.689   2.926   5.643
   18DPPC  H12B 2226   1.517   2.954   5.626
   18DPPC   C11 2227   1.631   3.023   5.460
   18DPPC  H11A 2228   1.630   3.123   5.510
   18DPPC  H11B 2229   1.546   3.022   5.389
   18DPPC     P 2230   1.859   3.104   5.380
   18DPPC   O13 2231   1.952   3.087   5.494
   18DPPC   O14 2232   1.795   3.237   5.368
   18DPPC   O11 2233   1.941   3.079   5.249
   18DPPC   O12 2234   1.750   2.992   5.387
   18DPPC    C1 2235   1.921   2.969   5.161
   18DPPC    HA 2236   1.822   2.979   5.110
   18DPPC    HB 2237   1.923   2.873   5.216
   18DPPC    C2 2238   2.031   2.960   5.049
   18DPPC    HS 2239   2.131   2.949   5.098
   18DPPC   O21 2240   2.027   3.075   4.963
   18DPPC   C21 2241   2.092   3.181   5.009
   18DPPC   O22 2242   2.156   3.186   5.113
   18DPPC   C22 2243   2.075   3.296   4.910
   18DPPC   H2R 2244   1.990   3.359   4.943
   18DPPC   H2S 2245   2.052   3.257   4.809
   18DPPC    C3 2246   2.009   2.833   4.962
   18DPPC    HX 2247   2.031   2.744   5.026
   18DPPC    HY 2248   2.083   2.836   4.879
   18DPPC   O31 2249   1.873   2.825   4.912
   18DPPC   C31 2250   1.853   2.723   4.829
   18DPPC   O32 2251   1.941   2.649   4.788
   18DPPC   C32 2252   1.705   2.713   4.794
   18DPPC   H2X 2253   1.690   2.741   4.688
   18DPPC   H2Y 2254   1.646   2.782   4.858
   18DPPC   C23 2255   2.203   3.382   4.905
   18DPPC   H3R 2256   2.287   3.321   4.864
   18DPPC   H3S 2257   2.232   3.413   5.007
   18DPPC   C24 2258   2.189   3.511   4.821
   18DPPC   H4R 2259   2.283   3.570   4.832
   18DPPC   H4S 2260   2.106   3.572   4.864
   18DPPC   C25 2261   2.162   3.491   4.671
   18DPPC   H5R 2262   2.159   3.591   4.623
   18DPPC   H5S 2263   2.062   3.444   4.658
   18DPPC   C26 2264   2.268   3.405   4.600
   18DPPC   H6R 2265   2.259   3.300   4.636
   18DPPC   H6S 2266   2.369   3.442   4.629
   18DPPC   C27 2267   2.260   3.406   4.446
   18DPPC   H7R 2268   2.340   3.338   4.410
   18DPPC   H7S 2269   2.283   3.507   4.409
   18DPPC   C28 2270   2.126   3.357   4.388
   18DPPC   H8R 2271   2.077   3.289   4.462
   18DPPC   H8S 2272   2.147   3.297   4.297
   18DPPC   C29 2273   2.028   3.468   4.348
   18DPPC   H9R 2274   2.011   3.536   4.434
   18DPPC   H9S 2275   1.931   3.420   4.322
   18DPPC  C210 2276   2.074   3.550   4.226
   18DPPC  H10R 2277   2.098   3.478   4.144
   18DPPC  H10S 2278   2.169   3.603   4.249
   18DPPC  C211 2279   1.970   3.650   4.173
   18DPPC  H11R 2280   1.875   3.596   4.155
   18DPPC  H11S 2281   2.006   3.688   4.075
   18DPPC  C212 2282   1.942   3.771   4.264
   18DPPC  H12R 2283   1.901   3.738   4.361
   18DPPC  H12S 2284   1.863   3.832   4.213
   18DPPC  C213 2285   2.064   3.863   4.286
   18DPPC  H13R 2286   2.028   3.968   4.289
   18DPPC  H13S 2287   2.133   3.853   4.200
   18DPPC  C214 2288   2.140   3.836   4.418
   18DPPC  H14R 2289   2.157   3.727   4.429
   18DPPC  H14S 2290   2.076   3.868   4.503
   18DPPC  C215 2291   2.276   3.907   4.427
   18DPPC  H15R 2292   2.343   3.864   4.350
   18DPPC  H15S 2293   2.320   3.884   4.527
   18DPPC  C216 2294   2.272   4.059   4.409
   18DPPC  H16R 2295   2.239   4.086   4.307
   18DPPC  H16S 2296   2.373   4.102   4.426
   18DPPC  H16T 2297   2.202   4.105   4.482
   18DPPC   C33 2298   1.657   2.568   4.816
   18DPPC   H3X 2299   1.690   2.534   4.917
   18DPPC   H3Y 2300   1.704   2.502   4.740
   18DPPC   C34 2301   1.504   2.550   4.811
   18DPPC   H4X 2302   1.460   2.606   4.897
   18DPPC   H4Y 2303   1.480   2.442   4.825
   18DPPC   C35 2304   1.436   2.600   4.683
   18DPPC   H5X 2305   1.454   2.710   4.674
   18DPPC   H5Y 2306   1.326   2.585   4.693
   18DPPC   C36 2307   1.483   2.533   4.552
   18DPPC   H6X 2308   1.593   2.543   4.541
   18DPPC   H6Y 2309   1.435   2.589   4.468
   18DPPC   C37 2310   1.441   2.386   4.538
   18DPPC   H7X 2311   1.332   2.379   4.556
   18DPPC   H7Y 2312   1.493   2.325   4.615
   18DPPC   C38 2313   1.471   2.330   4.397
   18DPPC   H8X 2314   1.581   2.319   4.384
   18DPPC   H8Y 2315   1.434   2.403   4.322
   18DPPC   C39 2316   1.402   2.195   4.368
   18DPPC   H9X 2317   1.418   2.170   4.261
   18DPPC   H9Y 2318   1.293   2.207   4.384
   18DPPC  C310 2319   1.453   2.078   4.453
   18DPPC  H10X 2320   1.445   2.105   4.561
   18DPPC  H10Y 2321   1.560   2.061   4.430
   18DPPC  C311 2322   1.374   1.948   4.430
   18DPPC  H11X 2323   1.380   1.921   4.323
   18DPPC  H11Y 2324   1.267   1.967   4.455
   18DPPC  C312 2325   1.425   1.832   4.516
   18DPPC  H12X 2326   1.434   1.867   4.621
   18DPPC  H12Y 2327   1.527   1.803   4.482
   18DPPC  C313 2328   1.334   1.708   4.514
   18DPPC  H13X 2329   1.231   1.738   4.544
   18DPPC  H13Y 2330   1.372   1.636   4.591
   18DPPC  C314 2331   1.329   1.636   4.379
   18DPPC  H14X 2332   1.433   1.610   4.348
   18DPPC  H14Y 2333   1.287   1.704   4.302
   18DPPC  C315 2334   1.246   1.507   4.383
   18DPPC  H15X 2335   1.142   1.533   4.413
   18DPPC  H15Y 2336   1.288   1.440   4.461
   18DPPC  C316 2337   1.241   1.431   4.250
   18DPPC  H16X 2338   1.197   1.495   4.170
   18DPPC  H16Y 2339   1.179   1.340   4.260
   18DPPC  H16Z 2340   1.344   1.401   4.219
   19DPPC     N 2341   2.641   6.084   5.326
   19DPPC   C13 2342   2.553   6.099   5.445
   19DPPC  H13A 2343   2.590   6.179   5.507
   19DPPC  H13B 2344   2.552   6.007   5.502
   19DPPC  H13C 2345   2.453   6.123   5.414
   19DPPC   C14 2346   2.776   6.041   5.371
   19DPPC  H14A 2347   2.816   6.114   5.439
   19DPPC  H14B 2348   2.841   6.032   5.285
   19DPPC  H14C 2349   2.770   5.945   5.419
   19DPPC   C15 2350   2.585   5.979   5.236
   19DPPC  H15A 2351   2.486   6.008   5.204
   19DPPC  H15B 2352   2.580   5.884   5.288
   19DPPC  H15C 2353   2.648   5.970   5.148
   19DPPC   C12 2354   2.654   6.214   5.252
   19DPPC  H12A 2355   2.705   6.194   5.158
   19DPPC  H12B 2356   2.719   6.279   5.310
   19DPPC   C11 2357   2.527   6.296   5.221
   19DPPC  H11A 2358   2.557   6.383   5.159
   19DPPC  H11B 2359   2.489   6.334   5.319
   19DPPC     P 2360   2.284   6.263   5.165
   19DPPC   O13 2361   2.280   6.410   5.183
   19DPPC   O14 2362   2.221   6.181   5.272
   19DPPC   O11 2363   2.216   6.232   5.027
   19DPPC   O12 2364   2.432   6.216   5.150
   19DPPC    C1 2365   2.258   6.128   4.938
   19DPPC    HA 2366   2.174   6.109   4.868
   19DPPC    HB 2367   2.275   6.033   4.993
   19DPPC    C2 2368   2.384   6.161   4.850
   19DPPC    HS 2369   2.469   6.112   4.904
   19DPPC   O21 2370   2.400   6.304   4.842
   19DPPC   C21 2371   2.526   6.341   4.838
   19DPPC   O22 2372   2.622   6.265   4.843
   19DPPC   C22 2373   2.537   0.074   4.820
   19DPPC   H2R 2374   2.624   0.109   4.880
   19DPPC   H2S 2375   2.446   0.124   4.857
   19DPPC    C3 2376   2.374   6.095   4.708
   19DPPC    HX 2377   2.267   6.096   4.676
   19DPPC    HY 2378   2.400   5.988   4.720
   19DPPC   O31 2379   2.461   6.154   4.607
   19DPPC   C31 2380   2.403   6.240   4.524
   19DPPC   O32 2381   2.286   6.275   4.529
   19DPPC   C32 2382   2.504   6.295   4.422
   19DPPC   H2X 2383   2.607   6.287   4.462
   19DPPC   H2Y 2384   2.480   6.402   4.408
   19DPPC   C23 2385   2.560   0.107   4.672
   19DPPC   H3R 2386   2.466   0.090   4.615
   19DPPC   H3S 2387   2.637   0.037   4.633
   19DPPC   C24 2388   2.609   0.250   4.645
   19DPPC   H4R 2389   2.698   0.270   4.709
   19DPPC   H4S 2390   2.530   0.322   4.674
   19DPPC   C25 2391   2.650   0.276   4.498
   19DPPC   H5R 2392   2.687   0.381   4.491
   19DPPC   H5S 2393   2.561   0.266   4.432
   19DPPC   C26 2394   2.761   0.182   4.448
   19DPPC   H6R 2395   2.720   0.079   4.438
   19DPPC   H6S 2396   2.842   0.179   4.525
   19DPPC   C27 2397   2.827   0.221   4.315
   19DPPC   H7R 2398   2.874   0.320   4.326
   19DPPC   H7S 2399   2.749   0.228   4.236
   19DPPC   C28 2400   2.934   0.118   4.273
   19DPPC   H8R 2401   2.884   0.021   4.249
   19DPPC   H8S 2402   3.000   0.101   4.361
   19DPPC   C29 2403   3.022   0.161   4.156
   19DPPC   H9R 2404   3.066   0.261   4.180
   19DPPC   H9S 2405   2.961   0.172   4.064
   19DPPC  C210 2406   3.138   0.063   4.130
   19DPPC  H10R 2407   3.097   6.385   4.092
   19DPPC  H10S 2408   3.186   0.041   4.229
   19DPPC  C211 2409   3.248   0.116   4.037
   19DPPC  H11R 2410   3.285   0.213   4.077
   19DPPC  H11S 2411   3.333   0.044   4.039
   19DPPC  C212 2412   3.206   0.136   3.890
   19DPPC  H12R 2413   3.294   0.179   3.836
   19DPPC  H12S 2414   3.124   0.210   3.884
   19DPPC  C213 2415   3.164   0.007   3.818
   19DPPC  H13R 2416   3.068   6.389   3.861
   19DPPC  H13S 2417   3.241   6.348   3.835
   19DPPC  C214 2418   3.146   0.026   3.666
   19DPPC  H14R 2419   3.244   0.057   3.622
   19DPPC  H14S 2420   3.074   0.109   3.648
   19DPPC  C215 2421   3.096   6.319   3.595
   19DPPC  H15R 2422   3.000   6.289   3.642
   19DPPC  H15S 2423   3.169   6.236   3.611
   19DPPC  C216 2424   3.072   6.335   3.444
   19DPPC  H16R 2425   3.033   6.240   3.401
   19DPPC  H16S 2426   3.167   6.360   3.392
   19DPPC  H16T 2427   2.999   6.416   3.425
   19DPPC   C33 2428   2.493   6.221   4.287
   19DPPC   H3X 2429   2.389   6.188   4.268
   19DPPC   H3Y 2430   2.557   6.131   4.293
   19DPPC   C34 2431   2.539   6.305   4.167
   19DPPC   H4X 2432   2.553   6.236   4.081
   19DPPC   H4Y 2433   2.637   6.352   4.190
   19DPPC   C35 2434   2.436   6.412   4.124
   19DPPC   H5X 2435   2.425   0.069   4.204
   19DPPC   H5Y 2436   2.338   6.362   4.110
   19DPPC   C36 2437   2.472   0.064   3.992
   19DPPC   H6X 2438   2.384   0.125   3.960
   19DPPC   H6Y 2439   2.489   6.405   3.914
   19DPPC   C37 2440   2.594   0.157   4.001
   19DPPC   H7X 2441   2.682   0.099   4.036
   19DPPC   H7Y 2442   2.572   0.235   4.078
   19DPPC   C38 2443   2.629   0.228   3.869
   19DPPC   H8X 2444   2.705   0.306   3.891
   19DPPC   H8Y 2445   2.538   0.278   3.830
   19DPPC   C39 2446   2.685   0.133   3.762
   19DPPC   H9X 2447   2.612   0.051   3.745
   19DPPC   H9Y 2448   2.779   0.087   3.800
   19DPPC  C310 2449   2.712   0.199   3.626
   19DPPC  H10X 2450   2.617   0.241   3.587
   19DPPC  H10Y 2451   2.746   0.120   3.556
   19DPPC  C311 2452   2.819   0.310   3.630
   19DPPC  H11X 2453   2.912   0.269   3.675
   19DPPC  H11Y 2454   2.783   0.394   3.693
   19DPPC  C312 2455   2.852   0.364   3.489
   19DPPC  H12X 2456   2.759   0.407   3.445
   19DPPC  H12Y 2457   2.883   0.278   3.426
   19DPPC  C313 2458   2.962   0.471   3.489
   19DPPC  H13X 2459   3.056   0.426   3.526
   19DPPC  H13Y 2460   2.933   0.551   3.560
   19DPPC  C314 2461   2.985   0.535   3.351
   19DPPC  H14X 2462   3.065   0.611   3.361
   19DPPC  H14Y 2463   2.892   0.587   3.320
   19DPPC  C315 2464   3.025   0.436   3.239
   19DPPC  H15X 2465   3.036   0.494   3.145
   19DPPC  H15Y 2466   2.941   0.364   3.223
   19DPPC  C316 2467   3.154   0.357   3.263
   19DPPC  H16X 2468   3.145   0.293   3.353
   19DPPC  H16Y 2469   3.239   0.427   3.277
   19DPPC  H16Z 2470   3.176   0.292   3.176
   20DPPC     N 2471   1.152   6.273   5.313
   20DPPC   C13 2472   1.295   6.252   5.352
   20DPPC  H13A 2473   1.301   6.214   5.453
   20DPPC  H13B 2474   1.348   6.346   5.345
   20DPPC  H13C 2475   1.340   6.181   5.284
   20DPPC   C14 2476   1.083   6.141   5.319
   20DPPC  H14A 2477   0.982   6.153   5.282
   20DPPC  H14B 2478   1.080   6.106   5.421
   20DPPC  H14C 2479   1.135   6.071   5.257
   20DPPC   C15 2480   1.089   6.366   5.411
   20DPPC  H15A 2481   1.096   6.324   5.511
   20DPPC  H15B 2482   0.986   6.381   5.385
   20DPPC  H15C 2483   1.142   0.042   5.408
   20DPPC   C12 2484   1.149   6.331   5.174
   20DPPC  H12A 2485   1.208   6.266   5.110
   20DPPC  H12B 2486   1.200   0.008   5.178
   20DPPC   C11 2487   1.012   6.352   5.106
   20DPPC  H11A 2488   1.026   6.412   5.013
   20DPPC  H11B 2489   0.948   6.415   5.172
   20DPPC     P 2490   0.991   6.145   4.958
   20DPPC   O13 2491   0.890   6.040   4.935
   20DPPC   O14 2492   1.130   6.099   4.977
   20DPPC   O11 2493   0.986   6.250   4.841
   20DPPC   O12 2494   0.945   6.229   5.083
   20DPPC    C1 2495   0.875   6.261   4.752
   20DPPC    HA 2496   0.867   6.368   4.719
   20DPPC    HB 2497   0.778   6.235   4.801
   20DPPC    C2 2498   0.891   6.175   4.623
   20DPPC    HS 2499   0.893   6.068   4.656
   20DPPC   O21 2500   1.010   6.219   4.555
   20DPPC   C21 2501   1.093   6.122   4.524
   20DPPC   O22 2502   1.075   6.003   4.548
   20DPPC   C22 2503   1.213   6.178   4.449
   20DPPC   H2R 2504   1.261   6.257   4.511
   20DPPC   H2S 2505   1.179   6.223   4.354
   20DPPC    C3 2506   0.767   6.193   4.530
   20DPPC    HX 2507   0.749   6.303   4.523
   20DPPC    HY 2508   0.678   6.149   4.580
   20DPPC   O31 2509   0.784   6.143   4.395
   20DPPC   C31 2510   0.762   6.013   4.381
   20DPPC   O32 2511   0.736   5.937   4.472
   20DPPC   C32 2512   0.772   5.973   4.234
   20DPPC   H2X 2513   0.688   6.021   4.179
   20DPPC   H2Y 2514   0.760   5.863   4.227
   20DPPC   C23 2515   1.313   6.065   4.422
   20DPPC   H3R 2516   1.263   5.983   4.365
   20DPPC   H3S 2517   1.347   6.023   4.519
   20DPPC   C24 2518   1.439   6.107   4.344
   20DPPC   H4R 2519   1.512   6.024   4.352
   20DPPC   H4S 2520   1.484   6.197   4.391
   20DPPC   C25 2521   1.414   6.134   4.195
   20DPPC   H5R 2522   1.361   6.230   4.182
   20DPPC   H5S 2523   1.350   6.052   4.154
   20DPPC   C26 2524   1.546   6.136   4.115
   20DPPC   H6R 2525   1.599   6.041   4.137
   20DPPC   H6S 2526   1.609   6.221   4.150
   20DPPC   C27 2527   1.528   6.145   3.963
   20DPPC   H7R 2528   1.483   6.244   3.936
   20DPPC   H7S 2529   1.458   6.065   3.929
   20DPPC   C28 2530   1.662   6.128   3.889
   20DPPC   H8R 2531   1.704   6.029   3.918
   20DPPC   H8S 2532   1.732   6.206   3.925
   20DPPC   C29 2533   1.653   6.134   3.736
   20DPPC   H9R 2534   1.618   6.236   3.706
   20DPPC   H9S 2535   1.578   6.060   3.700
   20DPPC  C210 2536   1.788   6.105   3.670
   20DPPC  H10R 2537   1.816   5.999   3.692
   20DPPC  H10S 2538   1.865   6.171   3.717
   20DPPC  C211 2539   1.792   6.129   3.519
   20DPPC  H11R 2540   1.772   6.237   3.501
   20DPPC  H11S 2541   1.711   6.071   3.469
   20DPPC  C212 2542   1.929   6.094   3.456
   20DPPC  H12R 2543   2.008   6.121   3.530
   20DPPC  H12S 2544   1.944   6.158   3.367
   20DPPC  C213 2545   1.945   5.947   3.415
   20DPPC  H13R 2546   1.919   5.882   3.502
   20DPPC  H13S 2547   2.052   5.929   3.391
   20DPPC  C214 2548   1.861   5.904   3.293
   20DPPC  H14R 2549   1.753   5.920   3.315
   20DPPC  H14S 2550   1.876   5.794   3.278
   20DPPC  C215 2551   1.898   5.976   3.163
   20DPPC  H15R 2552   2.005   5.957   3.140
   20DPPC  H15S 2553   1.886   6.086   3.177
   20DPPC  C216 2554   1.814   5.935   3.042
   20DPPC  H16R 2555   1.825   5.826   3.024
   20DPPC  H16S 2556   1.846   5.990   2.951
   20DPPC  H16T 2557   1.706   5.956   3.060
   20DPPC   C33 2558   0.906   6.015   4.174
   20DPPC   H3X 2559   0.990   5.968   4.230
   20DPPC   H3Y 2560   0.918   6.126   4.182
   20DPPC   C34 2561   0.919   5.977   4.025
   20DPPC   H4X 2562   0.832   6.020   3.971
   20DPPC   H4Y 2563   0.916   5.867   4.015
   20DPPC   C35 2564   1.048   6.032   3.961
   20DPPC   H5X 2565   1.136   5.986   4.011
   20DPPC   H5Y 2566   1.051   6.141   3.979
   20DPPC   C36 2567   1.056   6.007   3.810
   20DPPC   H6X 2568   0.962   6.043   3.762
   20DPPC   H6Y 2569   1.064   5.897   3.791
   20DPPC   C37 2570   1.174   6.079   3.744
   20DPPC   H7X 2571   1.269   6.043   3.791
   20DPPC   H7Y 2572   1.165   6.188   3.765
   20DPPC   C38 2573   1.183   6.060   3.592
   20DPPC   H8X 2574   1.086   6.091   3.547
   20DPPC   H8Y 2575   1.199   5.953   3.570
   20DPPC   C39 2576   1.296   6.143   3.529
   20DPPC   H9X 2577   1.391   6.115   3.578
   20DPPC   H9Y 2578   1.277   6.251   3.548
   20DPPC  C310 2579   1.311   6.120   3.378
   20DPPC  H10X 2580   1.218   6.153   3.326
   20DPPC  H10Y 2581   1.325   6.012   3.359
   20DPPC  C311 2582   1.431   6.196   3.319
   20DPPC  H11X 2583   1.522   6.166   3.375
   20DPPC  H11Y 2584   1.416   6.305   3.333
   20DPPC  C312 2585   1.453   6.167   3.170
   20DPPC  H12X 2586   1.370   6.210   3.110
   20DPPC  H12Y 2587   1.452   6.056   3.155
   20DPPC  C313 2588   1.588   6.219   3.116
   20DPPC  H13X 2589   1.600   6.183   3.011
   20DPPC  H13Y 2590   1.670   6.175   3.176
   20DPPC  C314 2591   1.602   6.372   3.117
   20DPPC  H14X 2592   1.596   6.408   3.222
   20DPPC  H14Y 2593   1.518   6.417   3.060
   20DPPC  C315 2594   1.735   0.000   3.056
   20DPPC  H15X 2595   1.740   6.385   2.950
   20DPPC  H15Y 2596   1.819   6.370   3.111
   20DPPC  C316 2597   1.756   0.152   3.060
   20DPPC  H16X 2598   1.675   0.204   3.004
   20DPPC  H16Y 2599   1.854   0.179   3.014
   20DPPC  H16Z 2600   1.755   0.187   3.165
   21DPPC     N 2601   1.015   2.137   5.915
   21DPPC   C13 2602   1.121   2.223   5.856
   21DPPC  H13A 2603   1.182   2.164   5.789
   21DPPC  H13B 2604   1.183   2.264   5.934
   21DPPC  H13C 2605   1.075   2.303   5.801
   21DPPC   C14 2606   1.081   2.024   5.987
   21DPPC  H14A 2607   1.138   1.965   5.916
   21DPPC  H14B 2608   1.007   1.962   6.033
   21DPPC  H14C 2609   1.148   2.063   6.062
   21DPPC   C15 2610   0.938   2.218   6.014
   21DPPC  H15A 2611   0.891   2.302   5.963
   21DPPC  H15B 2612   1.005   2.257   6.089
   21DPPC  H15C 2613   0.862   2.158   6.062
   21DPPC   C12 2614   0.924   2.084   5.808
   21DPPC  H12A 2615   0.869   2.000   5.849
   21DPPC  H12B 2616   0.987   2.045   5.729
   21DPPC   C11 2617   0.820   2.180   5.744
   21DPPC  H11A 2618   0.736   2.193   5.815
   21DPPC  H11B 2619   0.783   2.130   5.652
   21DPPC     P 2620   0.797   2.405   5.629
   21DPPC   O13 2621   0.885   2.519   5.595
   21DPPC   O14 2622   0.670   2.439   5.698
   21DPPC   O11 2623   0.765   2.323   5.500
   21DPPC   O12 2624   0.880   2.306   5.716
   21DPPC    C1 2625   0.858   2.310   5.391
   21DPPC    HA 2626   0.837   2.214   5.338
   21DPPC    HB 2627   0.964   2.305   5.426
   21DPPC    C2 2628   0.843   2.425   5.287
   21DPPC    HS 2629   0.867   2.519   5.340
   21DPPC   O21 2630   0.706   2.424   5.242
   21DPPC   C21 2631   0.671   2.538   5.187
   21DPPC   O22 2632   0.743   2.636   5.176
   21DPPC   C22 2633   0.527   2.529   5.138
   21DPPC   H2R 2634   0.497   2.627   5.095
   21DPPC   H2S 2635   0.461   2.507   5.224
   21DPPC    C3 2636   0.944   2.409   5.169
   21DPPC    HX 2637   1.047   2.413   5.213
   21DPPC    HY 2638   0.933   2.495   5.099
   21DPPC   O31 2639   0.926   2.283   5.099
   21DPPC   C31 2640   1.009   2.268   4.996
   21DPPC   O32 2641   1.089   2.353   4.959
   21DPPC   C32 2642   0.987   2.131   4.933
   21DPPC   H2X 2643   0.882   2.099   4.953
   21DPPC   H2Y 2644   1.056   2.058   4.979
   21DPPC   C23 2645   0.513   2.418   5.032
   21DPPC   H3R 2646   0.405   2.403   5.010
   21DPPC   H3S 2647   0.552   2.322   5.071
   21DPPC   C24 2648   0.584   2.452   4.899
   21DPPC   H4R 2649   0.693   2.466   4.919
   21DPPC   H4S 2650   0.544   2.548   4.860
   21DPPC   C25 2651   0.568   2.343   4.791
   21DPPC   H5R 2652   0.461   2.333   4.765
   21DPPC   H5S 2653   0.604   2.246   4.832
   21DPPC   C26 2654   0.650   2.377   4.665
   21DPPC   H6R 2655   0.756   2.392   4.696
   21DPPC   H6S 2656   0.613   2.472   4.622
   21DPPC   C27 2657   0.648   2.268   4.557
   21DPPC   H7R 2658   0.678   2.170   4.600
   21DPPC   H7S 2659   0.724   2.296   4.481
   21DPPC   C28 2660   0.513   2.252   4.483
   21DPPC   H8R 2661   0.473   2.354   4.460
   21DPPC   H8S 2662   0.440   2.201   4.549
   21DPPC   C29 2663   0.529   2.176   4.351
   21DPPC   H9R 2664   0.570   2.074   4.372
   21DPPC   H9S 2665   0.603   2.230   4.289
   21DPPC  C210 2666   0.400   2.163   4.269
   21DPPC  H10R 2667   0.354   2.263   4.258
   21DPPC  H10S 2668   0.328   2.097   4.322
   21DPPC  C211 2669   0.426   2.106   4.128
   21DPPC  H11R 2670   0.501   2.171   4.077
   21DPPC  H11S 2671   0.471   2.005   4.138
   21DPPC  C212 2672   0.301   2.097   4.039
   21DPPC  H12R 2673   0.256   2.198   4.030
   21DPPC  H12S 2674   0.227   2.030   4.088
   21DPPC  C213 2675   0.332   2.042   3.899
   21DPPC  H13R 2676   0.371   1.938   3.910
   21DPPC  H13S 2677   0.413   2.102   3.852
   21DPPC  C214 2678   0.210   2.038   3.806
   21DPPC  H14R 2679   0.125   1.991   3.860
   21DPPC  H14S 2680   0.234   1.972   3.719
   21DPPC  C215 2681   0.165   2.174   3.751
   21DPPC  H15R 2682   0.143   2.243   3.835
   21DPPC  H15S 2683   0.071   2.160   3.694
   21DPPC  C216 2684   0.267   2.242   3.657
   21DPPC  H16R 2685   0.226   2.338   3.619
   21DPPC  H16S 2686   0.289   2.176   3.571
   21DPPC  H16T 2687   0.361   2.264   3.711
   21DPPC   C33 2688   1.008   2.137   4.781
   21DPPC   H3X 2689   1.113   2.166   4.758
   21DPPC   H3Y 2690   0.940   2.214   4.738
   21DPPC   C34 2691   0.977   2.002   4.713
   21DPPC   H4X 2692   0.880   1.965   4.753
   21DPPC   H4Y 2693   1.056   1.928   4.740
   21DPPC   C35 2694   0.965   2.013   4.561
   21DPPC   H5X 2695   1.061   2.046   4.517
   21DPPC   H5Y 2696   0.888   2.091   4.538
   21DPPC   C36 2697   0.920   1.882   4.494
   21DPPC   H6X 2698   0.837   1.838   4.554
   21DPPC   H6Y 2699   1.004   1.809   4.494
   21DPPC   C37 2700   0.869   1.905   4.351
   21DPPC   H7X 2701   0.950   1.950   4.290
   21DPPC   H7Y 2702   0.786   1.978   4.357
   21DPPC   C38 2703   0.816   1.779   4.281
   21DPPC   H8X 2704   0.747   1.725   4.349
   21DPPC   H8Y 2705   0.901   1.712   4.257
   21DPPC   C39 2706   0.740   1.816   4.153
   21DPPC   H9X 2707   0.806   1.879   4.088
   21DPPC   H9Y 2708   0.652   1.877   4.181
   21DPPC  C310 2709   0.693   1.695   4.070
   21DPPC  H10X 2710   0.630   1.629   4.134
   21DPPC  H10Y 2711   0.781   1.638   4.036
   21DPPC  C311 2712   0.610   1.739   3.948
   21DPPC  H11X 2713   0.669   1.814   3.892
   21DPPC  H11Y 2714   0.517   1.788   3.985
   21DPPC  C312 2715   0.572   1.623   3.854
   21DPPC  H12X 2716   0.519   1.545   3.913
   21DPPC  H12Y 2717   0.665   1.578   3.813
   21DPPC  C313 2718   0.481   1.666   3.738
   21DPPC  H13X 2719   0.386   1.706   3.780
   21DPPC  H13Y 2720   0.456   1.576   3.677
   21DPPC  C314 2721   0.543   1.772   3.645
   21DPPC  H14X 2722   0.640   1.734   3.606
   21DPPC  H14Y 2723   0.563   1.865   3.704
   21DPPC  C315 2724   0.452   1.810   3.527
   21DPPC  H15X 2725   0.354   1.844   3.566
   21DPPC  H15Y 2726   0.434   1.719   3.466
   21DPPC  C316 2727   0.511   1.919   3.437
   21DPPC  H16X 2728   0.441   1.942   3.354
   21DPPC  H16Y 2729   0.608   1.887   3.394
   21DPPC  H16Z 2730   0.527   2.012   3.496
   22DPPC     N 2731   4.865   0.618   5.149
   22DPPC   C13 2732   4.765   0.620   5.038
   22DPPC  H13A 2733   4.670   0.583   5.074
   22DPPC  H13B 2734   4.800   0.558   4.957
   22DPPC  H13C 2735   4.752   0.722   5.004
   22DPPC   C14 2736   4.890   0.478   5.192
   22DPPC  H14A 2737   4.924   0.420   5.108
   22DPPC  H14B 2738   4.799   0.435   5.230
   22DPPC  H14C 2739   4.965   0.477   5.269
   22DPPC   C15 2740   4.993   0.676   5.097
   22DPPC  H15A 2741   4.976   0.778   5.066
   22DPPC  H15B 2742   5.027   0.619   5.012
   22DPPC  H15C 2743   5.068   0.675   5.175
   22DPPC   C12 2744   4.819   0.702   5.266
   22DPPC  H12A 2745   4.795   0.801   5.229
   22DPPC  H12B 2746   4.903   0.712   5.333
   22DPPC   C11 2747   4.699   0.651   5.349
   22DPPC  H11A 2748   4.691   0.723   5.434
   22DPPC  H11B 2749   4.721   0.551   5.391
   22DPPC     P 2750   4.445   0.643   5.344
   22DPPC   O13 2751   4.453   0.732   5.463
   22DPPC   O14 2752   4.410   0.502   5.373
   22DPPC   O11 2753   4.341   0.704   5.240
   22DPPC   O12 2754   4.582   0.647   5.268
   22DPPC    C1 2755   4.390   0.799   5.144
   22DPPC    HA 2756   4.471   0.755   5.082
   22DPPC    HB 2757   4.432   0.889   5.195
   22DPPC    C2 2758   4.281   0.849   5.044
   22DPPC    HS 2759   4.207   0.905   5.106
   22DPPC   O21 2760   4.218   0.735   4.982
   22DPPC   C21 2761   4.111   0.768   4.914
   22DPPC   O22 2762   4.056   0.878   4.919
   22DPPC   C22 2763   4.063   0.652   4.828
   22DPPC   H2R 2764   3.970   0.611   4.873
   22DPPC   H2S 2765   4.139   0.572   4.824
   22DPPC    C3 2766   4.342   0.947   4.937
   22DPPC    HX 2767   4.414   1.016   4.987
   22DPPC    HY 2768   4.260   1.012   4.899
   22DPPC   O31 2769   4.399   0.877   4.824
   22DPPC   C31 2770   4.529   0.855   4.826
   22DPPC   O32 2771   4.607   0.901   4.908
   22DPPC   C32 2772   4.568   0.760   4.713
   22DPPC   H2X 2773   4.479   0.702   4.680
   22DPPC   H2Y 2774   4.643   0.688   4.752
   22DPPC   C23 2775   4.030   0.700   4.685
   22DPPC   H3R 2776   3.962   0.788   4.689
   22DPPC   H3S 2777   3.975   0.618   4.635
   22DPPC   C24 2778   4.155   0.733   4.602
   22DPPC   H4R 2779   4.219   0.642   4.597
   22DPPC   H4S 2780   4.213   0.813   4.653
   22DPPC   C25 2781   4.124   0.781   4.459
   22DPPC   H5R 2782   4.222   0.797   4.408
   22DPPC   H5S 2783   4.071   0.878   4.463
   22DPPC   C26 2784   4.041   0.682   4.376
   22DPPC   H6R 2785   3.935   0.685   4.410
   22DPPC   H6S 2786   4.080   0.579   4.393
   22DPPC   C27 2787   4.047   0.711   4.226
   22DPPC   H7R 2788   4.154   0.708   4.194
   22DPPC   H7S 2789   4.009   0.814   4.207
   22DPPC   C28 2790   3.968   0.611   4.141
   22DPPC   H8R 2791   3.859   0.625   4.161
   22DPPC   H8S 2792   3.995   0.508   4.174
   22DPPC   C29 2793   3.994   0.622   3.990
   22DPPC   H9R 2794   3.941   0.537   3.941
   22DPPC   H9S 2795   4.103   0.610   3.972
   22DPPC  C210 2796   3.946   0.754   3.929
   22DPPC  H10R 2797   3.997   0.839   3.981
   22DPPC  H10S 2798   3.837   0.764   3.948
   22DPPC  C211 2799   3.973   0.768   3.778
   22DPPC  H11R 2800   3.942   0.870   3.748
   22DPPC  H11S 2801   4.082   0.758   3.760
   22DPPC  C212 2802   3.897   0.665   3.692
   22DPPC  H12R 2803   3.788   0.677   3.710
   22DPPC  H12S 2804   3.926   0.562   3.724
   22DPPC  C213 2805   3.924   0.677   3.541
   22DPPC  H13R 2806   3.871   0.594   3.491
   22DPPC  H13S 2807   4.033   0.663   3.523
   22DPPC  C214 2808   3.880   0.811   3.480
   22DPPC  H14R 2809   3.937   0.893   3.528
   22DPPC  H14S 2810   3.772   0.827   3.501
   22DPPC  C215 2811   3.904   0.820   3.328
   22DPPC  H15R 2812   4.012   0.804   3.307
   22DPPC  H15S 2813   3.879   0.923   3.295
   22DPPC  C216 2814   3.822   0.721   3.244
   22DPPC  H16R 2815   3.841   0.736   3.136
   22DPPC  H16S 2816   3.713   0.736   3.262
   22DPPC  H16T 2817   3.848   0.617   3.270
   22DPPC   C33 2818   4.628   0.835   4.593
   22DPPC   H3X 2819   4.663   0.758   4.521
   22DPPC   H3Y 2820   4.717   0.894   4.624
   22DPPC   C34 2821   4.527   0.927   4.521
   22DPPC   H4X 2822   4.519   1.021   4.580
   22DPPC   H4Y 2823   4.427   0.878   4.521
   22DPPC   C35 2824   4.564   0.962   4.376
   22DPPC   H5X 2825   4.670   0.996   4.372
   22DPPC   H5Y 2826   4.500   1.048   4.344
   22DPPC   C36 2827   4.542   0.846   4.278
   22DPPC   H6X 2828   4.435   0.814   4.282
   22DPPC   H6Y 2829   4.604   0.760   4.311
   22DPPC   C37 2830   4.580   0.877   4.132
   22DPPC   H7X 2831   4.582   0.780   4.077
   22DPPC   H7Y 2832   4.682   0.920   4.130
   22DPPC   C38 2833   4.482   0.970   4.058
   22DPPC   H8X 2834   4.471   1.064   4.116
   22DPPC   H8Y 2835   4.382   0.922   4.054
   22DPPC   C39 2836   4.528   1.007   3.916
   22DPPC   H9X 2837   4.623   1.065   3.925
   22DPPC   H9Y 2838   4.452   1.074   3.870
   22DPPC  C310 2839   4.554   0.888   3.821
   22DPPC  H10X 2840   4.631   0.822   3.865
   22DPPC  H10Y 2841   4.595   0.929   3.726
   22DPPC  C311 2842   4.429   0.806   3.788
   22DPPC  H11X 2843   4.354   0.874   3.741
   22DPPC  H11Y 2844   4.384   0.764   3.880
   22DPPC  C312 2845   4.457   0.690   3.690
   22DPPC  H12X 2846   4.513   0.611   3.744
   22DPPC  H12Y 2847   4.522   0.728   3.608
   22DPPC  C313 2848   4.330   0.631   3.626
   22DPPC  H13X 2849   4.281   0.711   3.566
   22DPPC  H13Y 2850   4.260   0.600   3.706
   22DPPC  C314 2851   4.360   0.511   3.536
   22DPPC  H14X 2852   4.391   0.425   3.599
   22DPPC  H14Y 2853   4.444   0.536   3.468
   22DPPC  C315 2854   4.240   0.469   3.449
   22DPPC  H15X 2855   4.214   0.554   3.381
   22DPPC  H15Y 2856   4.152   0.451   3.514
   22DPPC  C316 2857   4.266   0.344   3.364
   22DPPC  H16X 2858   4.288   0.257   3.429
   22DPPC  H16Y 2859   4.352   0.361   3.296
   22DPPC  H16Z 2860   4.176   0.320   3.303
   23DPPC     N 2861   1.595   0.492   5.323
   23DPPC   C13 2862   1.726   0.544   5.370
   23DPPC  H13A 2863   1.805   0.503   5.307
   23DPPC  H13B 2864   1.744   0.515   5.472
   23DPPC  H13C 2865   1.729   0.652   5.363
   23DPPC   C14 2866   1.592   0.345   5.344
   23DPPC  H14A 2867   1.670   0.299   5.284
   23DPPC  H14B 2868   1.496   0.305   5.313
   23DPPC  H14C 2869   1.608   0.322   5.448
   23DPPC   C15 2870   1.487   0.553   5.405
   23DPPC  H15A 2871   1.498   0.524   5.508
   23DPPC  H15B 2872   1.390   0.519   5.370
   23DPPC  H15C 2873   1.491   0.661   5.399
   23DPPC   C12 2874   1.567   0.527   5.179
   23DPPC  H12A 2875   1.574   0.634   5.169
   23DPPC  H12B 2876   1.464   0.499   5.158
   23DPPC   C11 2877   1.655   0.462   5.071
   23DPPC  H11A 2878   1.617   0.492   4.971
   23DPPC  H11B 2879   1.643   0.351   5.079
   23DPPC     P 2880   1.901   0.404   5.063
   23DPPC   O13 2881   1.879   0.292   5.157
   23DPPC   O14 2882   2.033   0.470   5.071
   23DPPC   O11 2883   1.875   0.354   4.915
   23DPPC   O12 2884   1.788   0.509   5.085
   23DPPC    C1 2885   1.918   0.224   4.873
   23DPPC    HA 2886   1.879   0.206   4.771
   23DPPC    HB 2887   1.876   0.145   4.938
   23DPPC    C2 2888   2.074   0.209   4.866
   23DPPC    HS 2889   2.112   0.219   4.970
   23DPPC   O21 2890   2.123   0.312   4.778
   23DPPC   C21 2891   2.235   0.368   4.817
   23DPPC   O22 2892   2.301   0.334   4.914
   23DPPC   C22 2893   2.271   0.478   4.718
   23DPPC   H2R 2894   2.179   0.532   4.688
   23DPPC   H2S 2895   2.317   0.432   4.628
   23DPPC    C3 2896   2.115   0.068   4.814
   23DPPC    HX 2897   2.082   6.413   4.892
   23DPPC    HY 2898   2.225   0.064   4.808
   23DPPC   O31 2899   2.060   0.040   4.683
   23DPPC   C31 2900   2.008   6.338   4.663
   23DPPC   O32 2901   1.993   6.252   4.748
   23DPPC   C32 2902   1.968   6.324   4.516
   23DPPC   H2X 2903   2.044   6.374   4.452
   23DPPC   H2Y 2904   1.870   6.372   4.500
   23DPPC   C23 2905   2.369   0.578   4.783
   23DPPC   H3R 2906   2.463   0.527   4.812
   23DPPC   H3S 2907   2.322   0.619   4.875
   23DPPC   C24 2908   2.403   0.697   4.691
   23DPPC   H4R 2909   2.456   0.773   4.753
   23DPPC   H4S 2910   2.309   0.743   4.654
   23DPPC   C25 2911   2.493   0.661   4.572
   23DPPC   H5R 2912   2.441   0.591   4.503
   23DPPC   H5S 2913   2.584   0.609   4.611
   23DPPC   C26 2914   2.538   0.786   4.494
   23DPPC   H6R 2915   2.574   0.860   4.570
   23DPPC   H6S 2916   2.451   0.832   4.443
   23DPPC   C27 2917   2.652   0.764   4.394
   23DPPC   H7R 2918   2.733   0.703   4.441
   23DPPC   H7S 2919   2.694   0.864   4.371
   23DPPC   C28 2920   2.611   0.702   4.260
   23DPPC   H8R 2921   2.522   0.757   4.222
   23DPPC   H8S 2922   2.584   0.595   4.272
   23DPPC   C29 2923   2.724   0.717   4.156
   23DPPC   H9R 2924   2.809   0.651   4.182
   23DPPC   H9S 2925   2.760   0.822   4.161
   23DPPC  C210 2926   2.681   0.690   4.010
   23DPPC  H10R 2927   2.581   0.738   3.994
   23DPPC  H10S 2928   2.670   0.581   3.993
   23DPPC  C211 2929   2.779   0.751   3.909
   23DPPC  H11R 2930   2.878   0.700   3.918
   23DPPC  H11S 2931   2.794   0.858   3.936
   23DPPC  C212 2932   2.731   0.746   3.764
   23DPPC  H12R 2933   2.625   0.781   3.760
   23DPPC  H12S 2934   2.733   0.641   3.728
   23DPPC  C213 2935   2.814   0.835   3.671
   23DPPC  H13R 2936   2.921   0.801   3.675
   23DPPC  H13S 2937   2.810   0.939   3.709
   23DPPC  C214 2938   2.766   0.834   3.525
   23DPPC  H14R 2939   2.656   0.851   3.524
   23DPPC  H14S 2940   2.784   0.733   3.482
   23DPPC  C215 2941   2.832   0.940   3.436
   23DPPC  H15R 2942   2.801   1.041   3.473
   23DPPC  H15S 2943   2.793   0.929   3.333
   23DPPC  C216 2944   2.985   0.937   3.432
   23DPPC  H16R 2945   3.028   0.957   3.532
   23DPPC  H16S 2946   3.023   1.014   3.361
   23DPPC  H16T 2947   3.021   0.837   3.397
   23DPPC   C33 2948   1.961   6.174   4.481
   23DPPC   H3X 2949   1.880   6.126   4.539
   23DPPC   H3Y 2950   2.058   6.126   4.510
   23DPPC   C34 2951   1.938   6.147   4.332
   23DPPC   H4X 2952   2.012   6.204   4.272
   23DPPC   H4Y 2953   1.836   6.183   4.305
   23DPPC   C35 2954   1.951   5.998   4.299
   23DPPC   H5X 2955   1.884   5.940   4.366
   23DPPC   H5Y 2956   2.056   5.965   4.319
   23DPPC   C36 2957   1.915   5.966   4.154
   23DPPC   H6X 2958   1.977   6.027   4.085
   23DPPC   H6Y 2959   1.808   5.994   4.138
   23DPPC   C37 2960   1.932   5.817   4.118
   23DPPC   H7X 2961   1.884   5.755   4.197
   23DPPC   H7Y 2962   2.040   5.792   4.116
   23DPPC   C38 2963   1.868   5.782   3.983
   23DPPC   H8X 2964   1.914   5.845   3.904
   23DPPC   H8Y 2965   1.760   5.808   3.989
   23DPPC   C39 2966   1.883   5.634   3.946
   23DPPC   H9X 2967   1.839   5.570   4.026
   23DPPC   H9Y 2968   1.991   5.611   3.939
   23DPPC  C310 2969   1.816   5.600   3.812
   23DPPC  H10X 2970   1.851   5.499   3.780
   23DPPC  H10Y 2971   1.851   5.672   3.735
   23DPPC  C311 2972   1.663   5.596   3.816
   23DPPC  H11X 2973   1.623   5.692   3.856
   23DPPC  H11Y 2974   1.631   5.515   3.885
   23DPPC  C312 2975   1.600   5.570   3.678
   23DPPC  H12X 2976   1.493   5.542   3.691
   23DPPC  H12Y 2977   1.653   5.484   3.632
   23DPPC  C313 2978   1.606   5.692   3.584
   23DPPC  H13X 2979   1.712   5.726   3.573
   23DPPC  H13Y 2980   1.551   5.775   3.634
   23DPPC  C314 2981   1.546   5.671   3.445
   23DPPC  H14X 2982   1.538   5.772   3.398
   23DPPC  H14Y 2983   1.443   5.630   3.452
   23DPPC  C315 2984   1.631   5.585   3.349
   23DPPC  H15X 2985   1.739   5.600   3.372
   23DPPC  H15Y 2986   1.614   5.623   3.246
   23DPPC  C316 2987   1.598   5.435   3.348
   23DPPC  H16X 2988   1.617   5.389   3.447
   23DPPC  H16Y 2989   1.661   5.383   3.273
   23DPPC  H16Z 2990   1.491   5.419   3.321
   24DPPC     N 2991   0.073   5.441   4.736
   24DPPC   C13 2992   0.203   5.426   4.666
   24DPPC  H13A 2993   0.188   5.396   4.563
   24DPPC  H13B 2994   0.263   5.349   4.714
   24DPPC  H13C 2995   0.256   5.520   4.667
   24DPPC   C14 2996   0.096   5.485   4.876
   24DPPC  H14A 2997   0.001   5.494   4.927
   24DPPC  H14B 2998   0.146   5.581   4.876
   24DPPC  H14C 2999   0.157   5.412   4.929
   24DPPC   C15 3000   6.300   5.549   4.667
   24DPPC  H15A 3001   6.282   5.522   4.564
   24DPPC  H15B 3002   0.056   5.640   4.670
   24DPPC  H15C 3003   6.207   5.567   4.718
   24DPPC   C12 3004   6.296   5.313   4.732
   24DPPC  H12A 3005   6.290   5.282   4.629
   24DPPC  H12B 3006   6.196   5.337   4.766
   24DPPC   C11 3007   0.042   5.194   4.817
   24DPPC  H11A 3008   6.278   5.108   4.797
   24DPPC  H11B 3009   0.033   5.221   4.925
   24DPPC     P 3010   0.247   5.053   4.868
   24DPPC   O13 3011   0.233   5.087   5.011
   24DPPC   O14 3012   0.385   5.037   4.817
   24DPPC   O11 3013   0.163   4.923   4.837
   24DPPC   O12 3014   0.176   5.162   4.782
   24DPPC    C1 3015   0.208   4.824   4.742
   24DPPC    HA 3016   0.145   4.733   4.754
   24DPPC    HB 3017   0.313   4.794   4.762
   24DPPC    C2 3018   0.194   4.867   4.592
   24DPPC    HS 3019   0.268   4.949   4.577
   24DPPC   O21 3020   0.058   4.909   4.573
   24DPPC   C21 3021   0.046   5.006   4.485
   24DPPC   O22 3022   0.138   5.061   4.427
   24DPPC   C22 3023   6.201   5.041   4.468
   24DPPC   H2R 3024   6.157   5.058   4.569
   24DPPC   H2S 3025   6.149   4.956   4.420
   24DPPC    C3 3026   0.230   4.749   4.496
   24DPPC    HX 3027   0.166   4.663   4.526
   24DPPC    HY 3028   0.335   4.717   4.514
   24DPPC   O31 3029   0.205   4.776   4.356
   24DPPC   C31 3030   0.299   4.848   4.295
   24DPPC   O32 3031   0.402   4.886   4.348
   24DPPC   C32 3032   0.256   4.876   4.152
   24DPPC   H2X 3033   0.147   4.898   4.150
   24DPPC   H2Y 3034   0.276   4.786   4.090
   24DPPC   C23 3035   6.184   5.169   4.384
   24DPPC   H3R 3036   6.250   5.250   4.422
   24DPPC   H3S 3037   6.079   5.203   4.396
   24DPPC   C24 3038   6.207   5.149   4.233
   24DPPC   H4R 3039   6.152   5.058   4.199
   24DPPC   H4S 3040   0.012   5.134   4.213
   24DPPC   C25 3041   6.157   5.269   4.150
   24DPPC   H5R 3042   6.203   5.362   4.191
   24DPPC   H5S 3043   6.047   5.277   4.164
   24DPPC   C26 3044   6.188   5.259   4.000
   24DPPC   H6R 3045   6.167   5.155   3.966
   24DPPC   H6S 3046   6.296   5.279   3.984
   24DPPC   C27 3047   6.104   5.354   3.913
   24DPPC   H7R 3048   5.999   5.317   3.914
   24DPPC   H7S 3049   6.140   5.349   3.809
   24DPPC   C28 3050   6.101   5.501   3.960
   24DPPC   H8R 3051   6.061   5.505   4.063
   24DPPC   H8S 3052   6.029   5.557   3.895
   24DPPC   C29 3053   6.236   5.574   3.955
   24DPPC   H9R 3054   6.263   5.590   3.849
   24DPPC   H9S 3055   0.012   5.511   4.002
   24DPPC  C210 3056   6.233   5.710   4.028
   24DPPC  H10R 3057   6.138   5.762   4.001
   24DPPC  H10S 3058   0.015   5.772   3.993
   24DPPC  C211 3059   6.243   5.697   4.181
   24DPPC  H11R 3060   0.042   5.661   4.207
   24DPPC  H11S 3061   6.170   5.621   4.217
   24DPPC  C212 3062   6.215   5.828   4.257
   24DPPC  H12R 3063   6.110   5.858   4.238
   24DPPC  H12S 3064   6.281   5.908   4.216
   24DPPC  C213 3065   6.238   5.815   4.408
   24DPPC  H13R 3066   0.044   5.801   4.427
   24DPPC  H13S 3067   6.186   5.723   4.444
   24DPPC  C214 3068   6.186   5.933   4.492
   24DPPC  H14R 3069   6.214   5.915   4.598
   24DPPC  H14S 3070   6.075   5.934   4.486
   24DPPC  C215 3071   6.237   6.071   4.449
   24DPPC  H15R 3072   6.193   6.147   4.518
   24DPPC  H15S 3073   6.200   6.094   4.347
   24DPPC  C216 3074   0.086   6.088   4.451
   24DPPC  H16R 3075   0.113   6.192   4.422
   24DPPC  H16S 3076   0.127   6.068   4.552
   24DPPC  H16T 3077   0.134   6.019   4.379
   24DPPC   C33 3078   0.334   4.996   4.096
   24DPPC   H3X 3079   0.443   4.974   4.099
   24DPPC   H3Y 3080   0.315   5.086   4.159
   24DPPC   C34 3081   0.296   5.030   3.951
   24DPPC   H4X 3082   0.190   5.064   3.948
   24DPPC   H4Y 3083   0.304   4.937   3.890
   24DPPC   C35 3084   0.387   5.137   3.889
   24DPPC   H5X 3085   0.492   5.102   3.900
   24DPPC   H5Y 3086   0.378   5.232   3.945
   24DPPC   C36 3087   0.361   5.160   3.739
   24DPPC   H6X 3088   0.359   5.061   3.689
   24DPPC   H6Y 3089   0.447   5.217   3.696
   24DPPC   C37 3090   0.231   5.236   3.705
   24DPPC   H7X 3091   0.144   5.179   3.743
   24DPPC   H7Y 3092   0.223   5.240   3.594
   24DPPC   C38 3093   0.224   5.381   3.758
   24DPPC   H8X 3094   0.209   5.379   3.869
   24DPPC   H8Y 3095   0.134   5.429   3.714
   24DPPC   C39 3096   0.348   5.466   3.726
   24DPPC   H9X 3097   0.374   5.453   3.619
   24DPPC   H9Y 3098   0.433   5.429   3.787
   24DPPC  C310 3099   0.330   5.616   3.755
   24DPPC  H10X 3100   0.290   5.629   3.858
   24DPPC  H10Y 3101   0.255   5.656   3.683
   24DPPC  C311 3102   0.461   5.694   3.741
   24DPPC  H11X 3103   0.511   5.663   3.646
   24DPPC  H11Y 3104   0.529   5.667   3.825
   24DPPC  C312 3105   0.444   5.847   3.736
   24DPPC  H12X 3106   0.388   5.874   3.644
   24DPPC  H12Y 3107   0.545   5.894   3.728
   24DPPC  C313 3108   0.372   5.908   3.857
   24DPPC  H13X 3109   0.429   5.882   3.949
   24DPPC  H13Y 3110   0.270   5.865   3.865
   24DPPC  C314 3111   0.361   6.062   3.848
   24DPPC  H14X 3112   0.298   6.088   3.761
   24DPPC  H14Y 3113   0.463   6.103   3.831
   24DPPC  C315 3114   0.303   6.129   3.974
   24DPPC  H15X 3115   0.304   6.239   3.958
   24DPPC  H15Y 3116   0.371   6.106   4.060
   24DPPC  C316 3117   0.161   6.086   4.011
   24DPPC  H16X 3118   0.126   6.142   4.100
   24DPPC  H16Y 3119   0.157   5.978   4.034
   24DPPC  H16Z 3120   0.091   6.107   3.927
   25DPPC     N 3121   6.150   4.331   4.892
   25DPPC   C13 3122   6.054   4.426   4.953
   25DPPC  H13A 3123   5.985   4.462   4.878
   25DPPC  H13B 3124   6.108   4.509   4.995
   25DPPC  H13C 3125   5.999   4.376   5.032
   25DPPC   C14 3126   6.234   4.405   4.794
   25DPPC  H14A 3127   6.172   4.445   4.715
   25DPPC  H14B 3128   0.005   4.340   4.751
   25DPPC  H14C 3129   6.285   4.486   4.844
   25DPPC   C15 3130   6.239   4.277   4.998
   25DPPC  H15A 3131   0.012   4.213   4.955
   25DPPC  H15B 3132   6.180   4.220   5.068
   25DPPC  H15C 3133   6.288   4.359   5.050
   25DPPC   C12 3134   6.077   4.221   4.820
   25DPPC  H12A 3135   6.152   4.153   4.780
   25DPPC  H12B 3136   6.027   4.265   4.735
   25DPPC   C11 3137   5.973   4.138   4.897
   25DPPC  H11A 3138   5.933   4.063   4.825
   25DPPC  H11B 3139   5.890   4.205   4.929
   25DPPC     P 3140   5.938   3.985   5.098
   25DPPC   O13 3141   5.909   4.059   5.224
   25DPPC   O14 3142   5.998   3.852   5.116
   25DPPC   O11 3143   5.805   3.971   5.013
   25DPPC   O12 3144   6.033   4.074   5.009
   25DPPC    C1 3145   5.744   3.843   4.993
   25DPPC    HA 3146   5.640   3.859   4.959
   25DPPC    HB 3147   5.738   3.785   5.089
   25DPPC    C2 3148   5.814   3.754   4.885
   25DPPC    HS 3149   5.917   3.734   4.924
   25DPPC   O21 3150   5.816   3.827   4.761
   25DPPC   C21 3151   5.917   3.789   4.684
   25DPPC   O22 3152   5.994   3.699   4.711
   25DPPC   C22 3153   5.925   3.876   4.559
   25DPPC   H2R 3154   6.024   3.857   4.511
   25DPPC   H2S 3155   5.920   3.983   4.588
   25DPPC    C3 3156   5.743   3.615   4.872
   25DPPC    HX 3157   5.761   3.563   4.969
   25DPPC    HY 3158   5.792   3.556   4.792
   25DPPC   O31 3159   5.601   3.627   4.845
   25DPPC   C31 3160   5.534   3.513   4.867
   25DPPC   O32 3161   5.585   3.409   4.905
   25DPPC   C32 3162   5.385   3.534   4.841
   25DPPC   H2X 3163   5.366   3.632   4.792
   25DPPC   H2Y 3164   5.334   3.535   4.939
   25DPPC   C23 3165   5.814   3.842   4.459
   25DPPC   H3R 3166   5.716   3.875   4.500
   25DPPC   H3S 3167   5.810   3.732   4.442
   25DPPC   C24 3168   5.838   3.910   4.322
   25DPPC   H4R 3169   5.932   3.871   4.280
   25DPPC   H4S 3170   5.850   4.019   4.338
   25DPPC   C25 3171   5.725   3.887   4.221
   25DPPC   H5R 3172   5.631   3.931   4.261
   25DPPC   H5S 3173   5.709   3.778   4.208
   25DPPC   C26 3174   5.755   3.949   4.083
   25DPPC   H6R 3175   5.848   3.903   4.043
   25DPPC   H6S 3176   5.774   4.058   4.097
   25DPPC   C27 3177   5.641   3.931   3.982
   25DPPC   H7R 3178   5.549   3.977   4.024
   25DPPC   H7S 3179   5.622   3.822   3.968
   25DPPC   C28 3180   5.671   3.994   3.845
   25DPPC   H8R 3181   5.758   3.943   3.799
   25DPPC   H8S 3182   5.698   4.101   3.860
   25DPPC   C29 3183   5.551   3.987   3.749
   25DPPC   H9R 3184   5.464   4.036   3.799
   25DPPC   H9S 3185   5.525   3.880   3.731
   25DPPC  C210 3186   5.576   4.056   3.614
   25DPPC  H10R 3187   5.653   4.000   3.558
   25DPPC  H10S 3188   5.615   4.158   3.633
   25DPPC  C211 3189   5.448   4.067   3.530
   25DPPC  H11R 3190   5.369   4.117   3.589
   25DPPC  H11S 3191   5.412   3.964   3.506
   25DPPC  C212 3192   5.466   4.145   3.398
   25DPPC  H12R 3193   5.551   4.101   3.342
   25DPPC  H12S 3194   5.492   4.250   3.422
   25DPPC  C213 3195   5.341   4.141   3.309
   25DPPC  H13R 3196   5.257   4.190   3.362
   25DPPC  H13S 3197   5.314   4.034   3.292
   25DPPC  C214 3198   5.361   4.209   3.173
   25DPPC  H14R 3199   5.450   4.164   3.122
   25DPPC  H14S 3200   5.382   4.317   3.189
   25DPPC  C215 3201   5.239   4.194   3.081
   25DPPC  H15R 3202   5.150   4.236   3.132
   25DPPC  H15S 3203   5.221   4.086   3.064
   25DPPC  C216 3204   5.255   4.263   2.945
   25DPPC  H16R 3205   5.341   4.221   2.890
   25DPPC  H16S 3206   5.272   4.372   2.959
   25DPPC  H16T 3207   5.163   4.249   2.884
   25DPPC   C33 3208   5.328   3.418   4.757
   25DPPC   H3X 3209   5.217   3.425   4.761
   25DPPC   H3Y 3210   5.356   3.320   4.803
   25DPPC   C34 3211   5.369   3.417   4.608
   25DPPC   H4X 3212   5.320   3.330   4.560
   25DPPC   H4Y 3213   5.479   3.404   4.600
   25DPPC   C35 3214   5.326   3.544   4.532
   25DPPC   H5X 3215   5.389   3.630   4.565
   25DPPC   H5Y 3216   5.221   3.567   4.558
   25DPPC   C36 3217   5.335   3.532   4.379
   25DPPC   H6X 3218   5.297   3.627   4.335
   25DPPC   H6Y 3219   5.268   3.450   4.344
   25DPPC   C37 3220   5.477   3.507   4.324
   25DPPC   H7X 3221   5.508   3.403   4.348
   25DPPC   H7Y 3222   5.548   3.577   4.374
   25DPPC   C38 3223   5.485   3.530   4.172
   25DPPC   H8X 3224   5.461   3.637   4.153
   25DPPC   H8Y 3225   5.408   3.469   4.121
   25DPPC   C39 3226   5.623   3.502   4.111
   25DPPC   H9X 3227   5.700   3.552   4.174
   25DPPC   H9Y 3228   5.628   3.549   4.010
   25DPPC  C310 3229   5.660   3.353   4.097
   25DPPC  H10X 3230   5.666   3.308   4.199
   25DPPC  H10Y 3231   5.762   3.347   4.054
   25DPPC  C311 3232   5.564   3.267   4.012
   25DPPC  H11X 3233   5.469   3.257   4.070
   25DPPC  H11Y 3234   5.606   3.165   4.002
   25DPPC  C312 3235   5.527   3.321   3.873
   25DPPC  H12X 3236   5.502   3.429   3.877
   25DPPC  H12Y 3237   5.433   3.268   3.843
   25DPPC  C313 3238   5.628   3.295   3.759
   25DPPC  H13X 3239   5.578   3.323   3.664
   25DPPC  H13Y 3240   5.651   3.186   3.754
   25DPPC  C314 3241   5.759   3.374   3.768
   25DPPC  H14X 3242   5.822   3.334   3.850
   25DPPC  H14Y 3243   5.736   3.481   3.791
   25DPPC  C315 3244   5.841   3.370   3.638
   25DPPC  H15X 3245   5.780   3.413   3.556
   25DPPC  H15Y 3246   5.861   3.263   3.612
   25DPPC  C316 3247   5.975   3.444   3.645
   25DPPC  H16X 3248   5.958   3.551   3.669
   25DPPC  H16Y 3249   6.027   3.438   3.547
   25DPPC  H16Z 3250   6.040   3.400   3.723
   26DPPC     N 3251   3.330   3.219   5.255
   26DPPC   C13 3252   3.368   3.095   5.181
   26DPPC  H13A 3253   3.376   3.118   5.075
   26DPPC  H13B 3254   3.292   3.019   5.197
   26DPPC  H13C 3255   3.463   3.059   5.216
   26DPPC   C14 3256   3.325   3.186   5.400
   26DPPC  H14A 3257   3.421   3.153   5.434
   26DPPC  H14B 3258   3.252   3.109   5.416
   26DPPC  H14C 3259   3.294   3.274   5.456
   26DPPC   C15 3260   3.437   3.321   5.233
   26DPPC  H15A 3261   3.443   3.342   5.127
   26DPPC  H15B 3262   3.531   3.282   5.269
   26DPPC  H15C 3263   3.411   3.411   5.287
   26DPPC   C12 3264   3.200   3.275   5.204
   26DPPC  H12A 3265   3.219   3.315   5.105
   26DPPC  H12B 3266   3.173   3.358   5.268
   26DPPC   C11 3267   3.077   3.181   5.194
   26DPPC  H11A 3268   3.098   3.106   5.114
   26DPPC  H11B 3269   2.991   3.242   5.159
   26DPPC     P 3270   3.027   2.972   5.332
   26DPPC   O13 3271   2.977   2.941   5.467
   26DPPC   O14 3272   3.154   2.906   5.294
   26DPPC   O11 3273   2.919   2.939   5.223
   26DPPC   O12 3274   3.047   3.127   5.321
   26DPPC    C1 3275   2.785   2.990   5.224
   26DPPC    HA 3276   2.773   3.062   5.140
   26DPPC    HB 3277   2.760   3.045   5.319
   26DPPC    C2 3278   2.680   2.877   5.205
   26DPPC    HS 3279   2.685   2.814   5.297
   26DPPC   O21 3280   2.719   2.801   5.089
   26DPPC   C21 3281   2.667   2.680   5.086
   26DPPC   O22 3282   2.589   2.634   5.168
   26DPPC   C22 3283   2.725   2.607   4.965
   26DPPC   H2R 3284   2.835   2.601   4.977
   26DPPC   H2S 3285   2.702   2.665   4.873
   26DPPC    C3 3286   2.536   2.935   5.192
   26DPPC    HX 3287   2.518   2.997   5.282
   26DPPC    HY 3288   2.461   2.853   5.197
   26DPPC   O31 3289   2.521   3.019   5.076
   26DPPC   C31 3290   2.459   2.966   4.972
   26DPPC   O32 3291   2.405   2.856   4.971
   26DPPC   C32 3292   2.468   3.061   4.854
   26DPPC   H2X 3293   2.572   3.065   4.816
   26DPPC   H2Y 3294   2.440   3.163   4.889
   26DPPC   C23 3295   2.668   2.464   4.954
   26DPPC   H3R 3296   2.560   2.470   4.926
   26DPPC   H3S 3297   2.675   2.414   5.052
   26DPPC   C24 3298   2.742   2.376   4.852
   26DPPC   H4R 3299   2.703   2.273   4.859
   26DPPC   H4S 3300   2.850   2.374   4.879
   26DPPC   C25 3301   2.728   2.424   4.706
   26DPPC   H5R 3302   2.759   2.530   4.700
   26DPPC   H5S 3303   2.622   2.417   4.674
   26DPPC   C26 3304   2.817   2.345   4.608
   26DPPC   H6R 3305   2.921   2.346   4.646
   26DPPC   H6S 3306   2.815   2.400   4.511
   26DPPC   C27 3307   2.773   2.200   4.582
   26DPPC   H7R 3308   2.676   2.201   4.529
   26DPPC   H7S 3309   2.759   2.148   4.679
   26DPPC   C28 3310   2.875   2.119   4.500
   26DPPC   H8R 3311   2.833   2.018   4.480
   26DPPC   H8S 3312   2.967   2.106   4.561
   26DPPC   C29 3313   2.915   2.185   4.366
   26DPPC   H9R 3314   2.956   2.286   4.388
   26DPPC   H9S 3315   2.826   2.196   4.302
   26DPPC  C210 3316   3.025   2.109   4.290
   26DPPC  H10R 3317   3.109   2.085   4.359
   26DPPC  H10S 3318   3.064   2.177   4.211
   26DPPC  C211 3319   2.977   1.981   4.220
   26DPPC  H11R 3320   2.890   2.005   4.156
   26DPPC  H11S 3321   2.945   1.906   4.296
   26DPPC  C212 3322   3.087   1.919   4.132
   26DPPC  H12R 3323   3.171   1.885   4.196
   26DPPC  H12S 3324   3.126   2.000   4.065
   26DPPC  C213 3325   3.038   1.802   4.045
   26DPPC  H13R 3326   2.954   1.837   3.982
   26DPPC  H13S 3327   3.000   1.722   4.112
   26DPPC  C214 3328   3.147   1.743   3.954
   26DPPC  H14R 3329   3.104   1.653   3.903
   26DPPC  H14S 3330   3.233   1.709   4.016
   26DPPC  C215 3331   3.197   1.840   3.846
   26DPPC  H15R 3332   3.244   1.928   3.895
   26DPPC  H15S 3333   3.109   1.876   3.787
   26DPPC  C216 3334   3.299   1.779   3.749
   26DPPC  H16R 3335   3.329   1.854   3.673
   26DPPC  H16S 3336   3.255   1.691   3.697
   26DPPC  H16T 3337   3.389   1.746   3.804
   26DPPC   C33 3338   2.372   3.019   4.741
   26DPPC   H3X 3339   2.362   3.106   4.671
   26DPPC   H3Y 3340   2.271   2.998   4.781
   26DPPC   C34 3341   2.421   2.900   4.656
   26DPPC   H4X 3342   2.430   2.810   4.720
   26DPPC   H4Y 3343   2.522   2.924   4.616
   26DPPC   C35 3344   2.327   2.870   4.538
   26DPPC   H5X 3345   2.317   2.962   4.477
   26DPPC   H5Y 3346   2.226   2.844   4.578
   26DPPC   C36 3347   2.375   2.757   4.446
   26DPPC   H6X 3348   2.477   2.782   4.408
   26DPPC   H6Y 3349   2.307   2.753   4.358
   26DPPC   C37 3350   2.376   2.617   4.510
   26DPPC   H7X 3351   2.277   2.600   4.559
   26DPPC   H7Y 3352   2.454   2.613   4.590
   26DPPC   C38 3353   2.400   2.503   4.410
   26DPPC   H8X 3354   2.320   2.508   4.332
   26DPPC   H8Y 3355   2.389   2.406   4.463
   26DPPC   C39 3356   2.538   2.507   4.342
   26DPPC   H9X 3357   2.616   2.500   4.420
   26DPPC   H9Y 3358   2.550   2.604   4.290
   26DPPC  C310 3359   2.561   2.395   4.239
   26DPPC  H10X 3360   2.554   2.296   4.289
   26DPPC  H10Y 3361   2.665   2.406   4.200
   26DPPC  C311 3362   2.463   2.400   4.120
   26DPPC  H11X 3363   2.454   2.505   4.086
   26DPPC  H11Y 3364   2.363   2.366   4.154
   26DPPC  C312 3365   2.510   2.316   4.000
   26DPPC  H12X 3366   2.520   2.210   4.030
   26DPPC  H12Y 3367   2.610   2.352   3.969
   26DPPC  C313 3368   2.417   2.327   3.877
   26DPPC  H13X 3369   2.466   2.276   3.791
   26DPPC  H13Y 3370   2.405   2.434   3.851
   26DPPC  C314 3371   2.276   2.266   3.895
   26DPPC  H14X 3372   2.217   2.287   3.803
   26DPPC  H14Y 3373   2.225   2.315   3.981
   26DPPC  C315 3374   2.277   2.113   3.917
   26DPPC  H15X 3375   2.334   2.090   4.009
   26DPPC  H15Y 3376   2.331   2.066   3.831
   26DPPC  C316 3377   2.138   2.050   3.929
   26DPPC  H16X 3378   2.077   2.073   3.839
   26DPPC  H16Y 3379   2.085   2.090   4.018
   26DPPC  H16Z 3380   2.147   1.940   3.939
   27DPPC     N 3381   5.250   1.585   5.084
   27DPPC   C13 3382   5.169   1.709   5.072
   27DPPC  H13A 3383   5.076   1.686   5.022
   27DPPC  H13B 3384   5.223   1.784   5.016
   27DPPC  H13C 3385   5.148   1.748   5.171
   27DPPC   C14 3386   5.372   1.615   5.163
   27DPPC  H14A 3387   5.431   1.526   5.176
   27DPPC  H14B 3388   5.343   1.655   5.260
   27DPPC  H14C 3389   5.432   1.690   5.112
   27DPPC   C15 3390   5.168   1.483   5.155
   27DPPC  H15A 3391   5.144   1.518   5.254
   27DPPC  H15B 3392   5.222   1.389   5.161
   27DPPC  H15C 3393   5.076   1.467   5.100
   27DPPC   C12 3394   5.285   1.536   4.945
   27DPPC  H12A 3395   5.355   1.607   4.902
   27DPPC  H12B 3396   5.195   1.540   4.885
   27DPPC   C11 3397   5.345   1.394   4.930
   27DPPC  H11A 3398   5.377   1.383   4.824
   27DPPC  H11B 3399   5.262   1.320   4.948
   27DPPC     P 3400   5.478   1.242   5.088
   27DPPC   O13 3401   5.348   1.193   5.139
   27DPPC   O14 3402   5.587   1.260   5.187
   27DPPC   O11 3403   5.525   1.145   4.973
   27DPPC   O12 3404   5.458   1.379   5.014
   27DPPC    C1 3405   5.648   1.157   4.903
   27DPPC    HA 3406   5.707   1.064   4.919
   27DPPC    HB 3407   5.711   1.242   4.940
   27DPPC    C2 3408   5.630   1.174   4.749
   27DPPC    HS 3409   5.578   1.270   4.731
   27DPPC   O21 3410   5.561   1.058   4.698
   27DPPC   C21 3411   5.434   1.081   4.668
   27DPPC   O22 3412   5.378   1.189   4.674
   27DPPC   C22 3413   5.368   0.953   4.617
   27DPPC   H2R 3414   5.361   0.880   4.701
   27DPPC   H2S 3415   5.432   0.909   4.537
   27DPPC    C3 3416   5.771   1.187   4.681
   27DPPC    HX 3417   5.837   1.112   4.729
   27DPPC    HY 3418   5.813   1.287   4.704
   27DPPC   O31 3419   5.772   1.161   4.538
   27DPPC   C31 3420   5.710   1.252   4.464
   27DPPC   O32 3421   5.655   1.352   4.508
   27DPPC   C32 3422   5.719   1.213   4.318
   27DPPC   H2X 3423   5.704   1.103   4.308
   27DPPC   H2Y 3424   5.819   1.239   4.279
   27DPPC   C23 3425   5.228   0.984   4.561
   27DPPC   H3R 3426   5.235   1.064   4.484
   27DPPC   H3S 3427   5.164   1.022   4.644
   27DPPC   C24 3428   5.159   0.863   4.497
   27DPPC   H4R 3429   5.162   0.777   4.568
   27DPPC   H4S 3430   5.216   0.834   4.406
   27DPPC   C25 3431   5.013   0.889   4.458
   27DPPC   H5R 3432   5.007   0.987   4.404
   27DPPC   H5S 3433   4.952   0.898   4.551
   27DPPC   C26 3434   4.949   0.782   4.368
   27DPPC   H6R 3435   5.004   0.779   4.271
   27DPPC   H6S 3436   4.844   0.812   4.347
   27DPPC   C27 3437   4.949   0.640   4.429
   27DPPC   H7R 3438   4.905   0.645   4.531
   27DPPC   H7S 3439   5.054   0.605   4.438
   27DPPC   C28 3440   4.869   0.535   4.348
   27DPPC   H8R 3441   4.761   0.559   4.352
   27DPPC   H8S 3442   4.884   0.437   4.398
   27DPPC   C29 3443   4.912   0.521   4.201
   27DPPC   H9R 3444   4.904   0.414   4.171
   27DPPC   H9S 3445   5.019   0.551   4.191
   27DPPC  C210 3446   4.826   0.603   4.103
   27DPPC  H10R 3447   4.804   0.701   4.149
   27DPPC  H10S 3448   4.729   0.551   4.088
   27DPPC  C211 3449   4.892   0.630   3.967
   27DPPC  H11R 3450   4.985   0.689   3.985
   27DPPC  H11S 3451   4.823   0.694   3.908
   27DPPC  C212 3452   4.926   0.506   3.884
   27DPPC  H12R 3453   4.836   0.441   3.878
   27DPPC  H12S 3454   5.006   0.448   3.936
   27DPPC  C213 3455   4.973   0.539   3.741
   27DPPC  H13R 3456   4.890   0.590   3.688
   27DPPC  H13S 3457   4.995   0.444   3.688
   27DPPC  C214 3458   5.098   0.628   3.736
   27DPPC  H14R 3459   5.181   0.578   3.791
   27DPPC  H14S 3460   5.077   0.725   3.787
   27DPPC  C215 3461   5.146   0.659   3.593
   27DPPC  H15R 3462   5.061   0.705   3.537
   27DPPC  H15S 3463   5.172   0.564   3.542
   27DPPC  C216 3464   5.265   0.754   3.588
   27DPPC  H16R 3465   5.353   0.709   3.638
   27DPPC  H16S 3466   5.241   0.850   3.639
   27DPPC  H16T 3467   5.293   0.777   3.482
   27DPPC   C33 3468   5.611   1.287   4.238
   27DPPC   H3X 3469   5.625   1.397   4.248
   27DPPC   H3Y 3470   5.510   1.261   4.278
   27DPPC   C34 3471   5.613   1.252   4.088
   27DPPC   H4X 3472   5.597   1.143   4.075
   27DPPC   H4Y 3473   5.714   1.278   4.048
   27DPPC   C35 3474   5.507   1.329   4.008
   27DPPC   H5X 3475   5.519   1.438   4.029
   27DPPC   H5Y 3476   5.406   1.299   4.041
   27DPPC   C36 3477   5.520   1.308   3.857
   27DPPC   H6X 3478   5.501   1.201   3.832
   27DPPC   H6Y 3479   5.625   1.332   3.828
   27DPPC   C37 3480   5.426   1.397   3.775
   27DPPC   H7X 3481   5.437   1.502   3.810
   27DPPC   H7Y 3482   5.321   1.366   3.792
   27DPPC   C38 3483   5.459   1.392   3.625
   27DPPC   H8X 3484   5.447   1.287   3.589
   27DPPC   H8Y 3485   5.566   1.421   3.613
   27DPPC   C39 3486   5.373   1.485   3.539
   27DPPC   H9X 3487   5.367   1.585   3.589
   27DPPC   H9Y 3488   5.270   1.443   3.534
   27DPPC  C310 3489   5.426   1.507   3.396
   27DPPC  H10X 3490   5.522   1.563   3.398
   27DPPC  H10Y 3491   5.352   1.571   3.343
   27DPPC  C311 3492   5.445   1.379   3.313
   27DPPC  H11X 3493   5.433   1.406   3.206
   27DPPC  H11Y 3494   5.364   1.307   3.339
   27DPPC  C312 3495   5.583   1.312   3.325
   27DPPC  H12X 3496   5.604   1.286   3.431
   27DPPC  H12Y 3497   5.660   1.385   3.292
   27DPPC  C313 3498   5.598   1.184   3.242
   27DPPC  H13X 3499   5.703   1.148   3.254
   27DPPC  H13Y 3500   5.583   1.208   3.134
   27DPPC  C314 3501   5.501   1.072   3.281
   27DPPC  H14X 3502   5.397   1.105   3.260
   27DPPC  H14Y 3503   5.509   1.053   3.391
   27DPPC  C315 3504   5.524   0.939   3.206
   27DPPC  H15X 3505   5.523   0.960   3.097
   27DPPC  H15Y 3506   5.438   0.871   3.229
   27DPPC  C316 3507   5.654   0.867   3.243
   27DPPC  H16X 3508   5.742   0.931   3.224
   27DPPC  H16Y 3509   5.664   0.774   3.183
   27DPPC  H16Z 3510   5.653   0.839   3.351
   28DPPC     N 3511   6.114   5.721   5.620
   28DPPC   C13 3512   6.218   5.746   5.516
   28DPPC  H13A 3513   6.221   5.851   5.492
   28DPPC  H13B 3514   6.193   5.690   5.427
   28DPPC  H13C 3515   0.012   5.716   5.553
   28DPPC   C14 3516   6.117   5.577   5.658
   28DPPC  H14A 3517   6.040   5.556   5.730
   28DPPC  H14B 3518   6.213   5.553   5.702
   28DPPC  H14C 3519   6.103   5.515   5.570
   28DPPC   C15 3520   6.150   5.802   5.739
   28DPPC  H15A 3521   6.142   5.907   5.714
   28DPPC  H15B 3522   6.251   5.779   5.770
   28DPPC  H15C 3523   6.082   5.779   5.821
   28DPPC   C12 3524   5.978   5.761   5.571
   28DPPC  H12A 3525   5.985   5.862   5.533
   28DPPC  H12B 3526   5.911   5.764   5.656
   28DPPC   C11 3527   5.911   5.673   5.462
   28DPPC  H11A 3528   5.820   5.726   5.426
   28DPPC  H11B 3529   5.880   5.578   5.511
   28DPPC     P 3530   5.962   5.547   5.247
   28DPPC   O13 3531   5.885   5.436   5.308
   28DPPC   O14 3532   6.086   5.508   5.174
   28DPPC   O11 3533   5.871   5.628   5.147
   28DPPC   O12 3534   6.002   5.651   5.356
   28DPPC    C1 3535   5.728   5.614   5.149
   28DPPC    HA 3536   5.682   5.707   5.110
   28DPPC    HB 3537   5.690   5.600   5.253
   28DPPC    C2 3538   5.677   5.495   5.061
   28DPPC    HS 3539   5.739   5.406   5.088
   28DPPC   O21 3540   5.695   5.531   4.923
   28DPPC   C21 3541   5.676   5.429   4.841
   28DPPC   O22 3542   5.674   5.312   4.875
   28DPPC   C22 3543   5.648   5.479   4.700
   28DPPC   H2R 3544   5.655   5.590   4.696
   28DPPC   H2S 3545   5.544   5.451   4.673
   28DPPC    C3 3546   5.528   5.462   5.093
   28DPPC    HX 3547   5.519   5.448   5.203
   28DPPC    HY 3548   5.504   5.364   5.047
   28DPPC   O31 3549   5.439   5.563   5.039
   28DPPC   C31 3550   5.369   5.635   5.125
   28DPPC   O32 3551   5.369   5.622   5.246
   28DPPC   C32 3552   5.291   5.742   5.048
   28DPPC   H2X 3553   5.210   5.780   5.114
   28DPPC   H2Y 3554   5.246   5.698   4.957
   28DPPC   C23 3555   5.745   5.417   4.598
   28DPPC   H3R 3556   5.731   5.307   4.596
   28DPPC   H3S 3557   5.850   5.439   4.629
   28DPPC   C24 3558   5.722   5.473   4.457
   28DPPC   H4R 3559   5.741   5.583   4.459
   28DPPC   H4S 3560   5.615   5.458   4.431
   28DPPC   C25 3561   5.810   5.409   4.349
   28DPPC   H5R 3562   5.784   5.302   4.341
   28DPPC   H5S 3563   5.917   5.416   4.381
   28DPPC   C26 3564   5.797   5.475   4.210
   28DPPC   H6R 3565   5.863   5.422   4.139
   28DPPC   H6S 3566   5.832   5.580   4.219
   28DPPC   C27 3567   5.654   5.474   4.153
   28DPPC   H7R 3568   5.586   5.527   4.224
   28DPPC   H7S 3569   5.620   5.369   4.146
   28DPPC   C28 3570   5.638   5.541   4.016
   28DPPC   H8R 3571   5.530   5.539   3.989
   28DPPC   H8S 3572   5.693   5.483   3.939
   28DPPC   C29 3573   5.687   5.687   4.013
   28DPPC   H9R 3574   5.798   5.689   4.003
   28DPPC   H9S 3575   5.661   5.733   4.111
   28DPPC  C210 3576   5.623   5.776   3.905
   28DPPC  H10R 3577   5.668   5.877   3.913
   28DPPC  H10S 3578   5.514   5.786   3.926
   28DPPC  C211 3579   5.641   5.725   3.761
   28DPPC  H11R 3580   5.584   5.630   3.749
   28DPPC  H11S 3581   5.748   5.704   3.742
   28DPPC  C212 3582   5.590   5.828   3.658
   28DPPC  H12R 3583   5.656   5.917   3.662
   28DPPC  H12S 3584   5.487   5.859   3.686
   28DPPC  C213 3585   5.588   5.775   3.514
   28DPPC  H13R 3586   5.518   5.689   3.509
   28DPPC  H13S 3587   5.689   5.739   3.486
   28DPPC  C214 3588   5.543   5.882   3.413
   28DPPC  H14R 3589   5.616   5.966   3.417
   28DPPC  H14S 3590   5.444   5.922   3.444
   28DPPC  C215 3591   5.534   5.833   3.268
   28DPPC  H15R 3592   5.632   5.790   3.238
   28DPPC  H15S 3593   5.515   5.921   3.203
   28DPPC  C216 3594   5.424   5.730   3.242
   28DPPC  H16R 3595   5.440   5.638   3.302
   28DPPC  H16S 3596   5.423   5.701   3.134
   28DPPC  H16T 3597   5.325   5.773   3.268
   28DPPC   C33 3598   5.388   5.856   5.013
   28DPPC   H3X 3599   5.465   5.819   4.943
   28DPPC   H3Y 3600   5.438   5.888   5.107
   28DPPC   C34 3601   5.321   5.981   4.953
   28DPPC   H4X 3602   5.400   6.058   4.939
   28DPPC   H4Y 3603   5.246   6.021   5.025
   28DPPC   C35 3604   5.252   5.957   4.818
   28DPPC   H5X 3605   5.163   5.891   4.832
   28DPPC   H5Y 3606   5.323   5.904   4.751
   28DPPC   C36 3607   5.209   6.088   4.750
   28DPPC   H6X 3608   5.300   6.152   4.740
   28DPPC   H6Y 3609   5.136   6.142   4.814
   28DPPC   C37 3610   5.150   6.069   4.609
   28DPPC   H7X 3611   5.216   6.002   4.550
   28DPPC   H7Y 3612   5.148   6.168   4.558
   28DPPC   C38 3613   5.006   6.014   4.609
   28DPPC   H8X 3614   4.940   6.087   4.661
   28DPPC   H8Y 3615   5.002   5.918   4.664
   28DPPC   C39 3616   4.953   5.991   4.466
   28DPPC   H9X 3617   5.009   5.905   4.421
   28DPPC   H9Y 3618   4.975   6.081   4.405
   28DPPC  C310 3619   4.803   5.962   4.460
   28DPPC  H10X 3620   4.748   6.049   4.504
   28DPPC  H10Y 3621   4.780   5.872   4.522
   28DPPC  C311 3622   4.752   5.939   4.317
   28DPPC  H11X 3623   4.810   5.854   4.274
   28DPPC  H11Y 3624   4.773   6.030   4.256
   28DPPC  C312 3625   4.602   5.908   4.310
   28DPPC  H12X 3626   4.546   5.993   4.354
   28DPPC  H12Y 3627   4.581   5.818   4.371
   28DPPC  C313 3628   4.550   5.884   4.167
   28DPPC  H13X 3629   4.569   5.975   4.105
   28DPPC  H13Y 3630   4.439   5.870   4.172
   28DPPC  C314 3631   4.611   5.762   4.098
   28DPPC  H14X 3632   4.598   5.673   4.164
   28DPPC  H14Y 3633   4.720   5.778   4.084
   28DPPC  C315 3634   4.548   5.731   3.961
   28DPPC  H15X 3635   4.561   5.820   3.895
   28DPPC  H15Y 3636   4.439   5.714   3.975
   28DPPC  C316 3637   4.608   5.609   3.891
   28DPPC  H16X 3638   4.597   5.518   3.955
   28DPPC  H16Y 3639   4.717   5.624   3.872
   28DPPC  H16Z 3640   4.557   5.590   3.795
   29DPPC     N 3641   1.879   1.140   5.666
   29DPPC   C13 3642   1.835   1.282   5.678
   29DPPC  H13A 3643   1.826   1.308   5.783
   29DPPC  H13B 3644   1.740   1.295   5.630
   29DPPC  H13C 3645   1.908   1.347   5.632
   29DPPC   C14 3646   2.010   1.124   5.734
   29DPPC  H14A 3647   2.001   1.153   5.838
   29DPPC  H14B 3648   2.084   1.187   5.686
   29DPPC  H14C 3649   2.042   1.021   5.728
   29DPPC   C15 3650   1.779   1.054   5.735
   29DPPC  H15A 3651   1.769   1.084   5.838
   29DPPC  H15B 3652   1.811   0.951   5.730
   29DPPC  H15C 3653   1.684   1.064   5.685
   29DPPC   C12 3654   1.895   1.101   5.522
   29DPPC  H12A 3655   1.919   0.995   5.519
   29DPPC  H12B 3656   1.981   1.155   5.483
   29DPPC   C11 3657   1.778   1.126   5.425
   29DPPC  H11A 3658   1.811   1.099   5.322
   29DPPC  H11B 3659   1.757   1.235   5.422
   29DPPC     P 3660   1.643   0.910   5.421
   29DPPC   O13 3661   1.513   0.856   5.467
   29DPPC   O14 3662   1.761   0.832   5.463
   29DPPC   O11 3663   1.640   0.921   5.262
   29DPPC   O12 3664   1.659   1.059   5.467
   29DPPC    C1 3665   1.567   1.026   5.196
   29DPPC    HA 3666   1.637   1.107   5.168
   29DPPC    HB 3667   1.488   1.071   5.261
   29DPPC    C2 3668   1.496   0.978   5.066
   29DPPC    HS 3669   1.415   0.909   5.098
   29DPPC   O21 3670   1.595   0.914   4.984
   29DPPC   C21 3671   1.547   0.815   4.911
   29DPPC   O22 3672   1.433   0.773   4.916
   29DPPC   C22 3673   1.658   0.762   4.821
   29DPPC   H2R 3674   1.739   0.720   4.885
   29DPPC   H2S 3675   1.700   0.845   4.761
   29DPPC    C3 3676   1.433   1.100   4.990
   29DPPC    HX 3677   1.517   1.169   4.965
   29DPPC    HY 3678   1.366   1.156   5.059
   29DPPC   O31 3679   1.367   1.065   4.865
   29DPPC   C31 3680   1.238   1.032   4.878
   29DPPC   O32 3681   1.181   1.018   4.985
   29DPPC   C32 3682   1.169   1.015   4.743
   29DPPC   H2X 3683   1.072   1.069   4.751
   29DPPC   H2Y 3684   1.148   0.908   4.725
   29DPPC   C23 3685   1.605   0.651   4.727
   29DPPC   H3R 3686   1.537   0.695   4.651
   29DPPC   H3S 3687   1.547   0.578   4.787
   29DPPC   C24 3688   1.718   0.573   4.657
   29DPPC   H4R 3689   1.673   0.481   4.613
   29DPPC   H4S 3690   1.792   0.542   4.734
   29DPPC   C25 3691   1.789   0.651   4.546
   29DPPC   H5R 3692   1.815   0.752   4.583
   29DPPC   H5S 3693   1.720   0.663   4.460
   29DPPC   C26 3694   1.919   0.584   4.496
   29DPPC   H6R 3695   1.993   0.586   4.580
   29DPPC   H6S 3696   1.961   0.645   4.413
   29DPPC   C27 3697   1.902   0.439   4.449
   29DPPC   H7R 3698   1.831   0.436   4.364
   29DPPC   H7S 3699   1.858   0.379   4.532
   29DPPC   C28 3700   2.034   0.369   4.410
   29DPPC   H8R 3701   2.011   0.262   4.389
   29DPPC   H8S 3702   2.103   0.372   4.498
   29DPPC   C29 3703   2.107   0.427   4.288
   29DPPC   H9R 3704   2.198   0.365   4.271
   29DPPC   H9S 3705   2.141   0.531   4.310
   29DPPC  C210 3706   2.023   0.427   4.159
   29DPPC  H10R 3707   1.946   0.507   4.165
   29DPPC  H10S 3708   1.971   0.330   4.150
   29DPPC  C211 3709   2.109   0.448   4.032
   29DPPC  H11R 3710   2.180   0.362   4.025
   29DPPC  H11S 3711   2.168   0.541   4.042
   29DPPC  C212 3712   2.026   0.454   3.903
   29DPPC  H12R 3713   1.976   0.553   3.896
   29DPPC  H12S 3714   1.947   0.376   3.908
   29DPPC  C213 3715   2.108   0.428   3.775
   29DPPC  H13R 3716   2.040   0.430   3.688
   29DPPC  H13S 3717   2.152   0.325   3.782
   29DPPC  C214 3718   2.223   0.527   3.751
   29DPPC  H14R 3719   2.290   0.529   3.839
   29DPPC  H14S 3720   2.181   0.628   3.737
   29DPPC  C215 3721   2.308   0.489   3.628
   29DPPC  H15R 3722   2.242   0.489   3.538
   29DPPC  H15S 3723   2.346   0.385   3.641
   29DPPC  C216 3724   2.427   0.582   3.602
   29DPPC  H16R 3725   2.484   0.548   3.513
   29DPPC  H16S 3726   2.495   0.581   3.690
   29DPPC  H16T 3727   2.392   0.686   3.584
   29DPPC   C33 3728   1.248   1.075   4.625
   29DPPC   H3X 3729   1.293   1.172   4.655
   29DPPC   H3Y 3730   1.177   1.097   4.542
   29DPPC   C34 3731   1.356   0.981   4.570
   29DPPC   H4X 3732   1.311   0.913   4.495
   29DPPC   H4Y 3733   1.396   0.919   4.652
   29DPPC   C35 3734   1.474   1.058   4.508
   29DPPC   H5X 3735   1.521   1.117   4.589
   29DPPC   H5Y 3736   1.436   1.129   4.431
   29DPPC   C36 3737   1.580   0.966   4.445
   29DPPC   H6X 3738   1.548   0.939   4.342
   29DPPC   H6Y 3739   1.586   0.873   4.505
   29DPPC   C37 3740   1.721   1.028   4.444
   29DPPC   H7X 3741   1.792   0.957   4.396
   29DPPC   H7Y 3742   1.752   1.043   4.550
   29DPPC   C38 3743   1.731   1.164   4.373
   29DPPC   H8X 3744   1.831   1.208   4.396
   29DPPC   H8Y 3745   1.654   1.233   4.413
   29DPPC   C39 3746   1.717   1.157   4.220
   29DPPC   H9X 3747   1.621   1.107   4.194
   29DPPC   H9Y 3748   1.800   1.096   4.180
   29DPPC  C310 3749   1.720   1.296   4.154
   29DPPC  H10X 3750   1.811   1.350   4.188
   29DPPC  H10Y 3751   1.631   1.353   4.187
   29DPPC  C311 3752   1.722   1.289   4.001
   29DPPC  H11X 3753   1.637   1.227   3.966
   29DPPC  H11Y 3754   1.816   1.239   3.968
   29DPPC  C312 3755   1.714   1.427   3.935
   29DPPC  H12X 3756   1.797   1.490   3.972
   29DPPC  H12Y 3757   1.618   1.476   3.965
   29DPPC  C313 3758   1.720   1.422   3.781
   29DPPC  H13X 3759   1.633   1.363   3.745
   29DPPC  H13Y 3760   1.813   1.367   3.752
   29DPPC  C314 3761   1.721   1.560   3.716
   29DPPC  H14X 3762   1.806   1.619   3.758
   29DPPC  H14Y 3763   1.627   1.614   3.742
   29DPPC  C315 3764   1.736   1.557   3.563
   29DPPC  H15X 3765   1.832   1.506   3.537
   29DPPC  H15Y 3766   1.744   1.662   3.526
   29DPPC  C316 3767   1.622   1.487   3.488
   29DPPC  H16X 3768   1.525   1.536   3.512
   29DPPC  H16Y 3769   1.616   1.380   3.516
   29DPPC  H16Z 3770   1.638   1.494   3.378
   30DPPC     N 3771   3.899   5.070   5.475
   30DPPC   C13 3772   3.830   5.128   5.594
   30DPPC  H13A 3773   3.833   5.236   5.590
   30DPPC  H13B 3774   3.879   5.094   5.684
   30DPPC  H13C 3775   3.727   5.095   5.595
   30DPPC   C14 3776   4.036   5.129   5.467
   30DPPC  H14A 3777   4.029   5.236   5.456
   30DPPC  H14B 3778   4.088   5.086   5.382
   30DPPC  H14C 3779   4.091   5.106   5.557
   30DPPC   C15 3780   3.911   4.923   5.493
   30DPPC  H15A 3781   3.972   4.902   5.581
   30DPPC  H15B 3782   3.958   4.880   5.406
   30DPPC  H15C 3783   3.813   4.880   5.507
   30DPPC   C12 3784   3.824   5.103   5.349
   30DPPC  H12A 3785   3.889   5.081   5.265
   30DPPC  H12B 3786   3.805   5.210   5.349
   30DPPC   C11 3787   3.690   5.030   5.322
   30DPPC  H11A 3788   3.712   4.923   5.303
   30DPPC  H11B 3789   3.648   5.075   5.229
   30DPPC     P 3790   3.466   4.968   5.420
   30DPPC   O13 3791   3.368   5.018   5.519
   30DPPC   O14 3792   3.496   4.823   5.427
   30DPPC   O11 3793   3.415   5.003   5.275
   30DPPC   O12 3794   3.601   5.047   5.432
   30DPPC    C1 3795   3.340   4.907   5.198
   30DPPC    HA 3796   3.271   4.963   5.132
   30DPPC    HB 3797   3.277   4.842   5.263
   30DPPC    C2 3798   3.429   4.817   5.107
   30DPPC    HS 3799   3.501   4.765   5.175
   30DPPC   O21 3800   3.494   4.903   5.013
   30DPPC   C21 3801   3.610   4.859   4.970
   30DPPC   O22 3802   3.665   4.756   5.008
   30DPPC   C22 3803   3.670   4.960   4.873
   30DPPC   H2R 3804   3.742   5.025   4.928
   30DPPC   H2S 3805   3.589   5.024   4.832
   30DPPC    C3 3806   3.340   4.709   5.037
   30DPPC    HX 3807   3.272   4.762   4.967
   30DPPC    HY 3808   3.273   4.662   5.114
   30DPPC   O31 3809   3.411   4.608   4.962
   30DPPC   C31 3810   3.461   4.509   5.035
   30DPPC   O32 3811   3.466   4.508   5.158
   30DPPC   C32 3812   3.504   4.395   4.943
   30DPPC   H2X 3813   3.412   4.355   4.895
   30DPPC   H2Y 3814   3.549   4.313   5.004
   30DPPC   C23 3815   3.742   4.890   4.756
   30DPPC   H3R 3816   3.676   4.811   4.715
   30DPPC   H3S 3817   3.836   4.843   4.792
   30DPPC   C24 3818   3.773   4.988   4.641
   30DPPC   H4R 3819   3.839   5.070   4.678
   30DPPC   H4S 3820   3.678   5.034   4.608
   30DPPC   C25 3821   3.839   4.921   4.519
   30DPPC   H5R 3822   3.783   4.827   4.497
   30DPPC   H5S 3823   3.944   4.893   4.544
   30DPPC   C26 3824   3.837   5.008   4.393
   30DPPC   H6R 3825   3.899   5.099   4.408
   30DPPC   H6S 3826   3.732   5.041   4.376
   30DPPC   C27 3827   3.885   4.933   4.268
   30DPPC   H7R 3828   3.831   4.835   4.265
   30DPPC   H7S 3829   3.993   4.911   4.276
   30DPPC   C28 3830   3.857   5.007   4.136
   30DPPC   H8R 3831   3.931   5.089   4.122
   30DPPC   H8S 3832   3.756   5.052   4.143
   30DPPC   C29 3833   3.857   4.913   4.013
   30DPPC   H9R 3834   3.819   4.969   3.925
   30DPPC   H9S 3835   3.784   4.832   4.034
   30DPPC  C210 3836   3.994   4.853   3.977
   30DPPC  H10R 3837   4.049   4.825   4.069
   30DPPC  H10S 3838   4.053   4.931   3.925
   30DPPC  C211 3839   3.982   4.728   3.888
   30DPPC  H11R 3840   4.080   4.708   3.840
   30DPPC  H11S 3841   3.908   4.749   3.807
   30DPPC  C212 3842   3.939   4.603   3.966
   30DPPC  H12R 3843   3.856   4.630   4.035
   30DPPC  H12S 3844   4.024   4.568   4.029
   30DPPC  C213 3845   3.889   4.487   3.879
   30DPPC  H13R 3846   3.804   4.521   3.816
   30DPPC  H13S 3847   3.851   4.408   3.947
   30DPPC  C214 3848   3.995   4.422   3.788
   30DPPC  H14R 3849   4.090   4.413   3.844
   30DPPC  H14S 3850   4.014   4.488   3.700
   30DPPC  C215 3851   3.951   4.283   3.741
   30DPPC  H15R 3852   3.858   4.293   3.681
   30DPPC  H15S 3853   3.928   4.221   3.830
   30DPPC  C216 3854   4.056   4.208   3.658
   30DPPC  H16R 3855   4.080   4.265   3.566
   30DPPC  H16S 3856   4.017   4.108   3.628
   30DPPC  H16T 3857   4.149   4.194   3.716
   30DPPC   C33 3858   3.603   4.440   4.834
   30DPPC   H3X 3859   3.705   4.450   4.877
   30DPPC   H3Y 3860   3.573   4.540   4.796
   30DPPC   C34 3861   3.605   4.345   4.713
   30DPPC   H4X 3862   3.500   4.333   4.678
   30DPPC   H4Y 3863   3.642   4.245   4.744
   30DPPC   C35 3864   3.689   4.396   4.595
   30DPPC   H5X 3865   3.797   4.389   4.620
   30DPPC   H5Y 3866   3.664   4.503   4.578
   30DPPC   C36 3867   3.661   4.320   4.464
   30DPPC   H6X 3868   3.552   4.322   4.445
   30DPPC   H6Y 3869   3.692   4.214   4.476
   30DPPC   C37 3870   3.733   4.381   4.342
   30DPPC   H7X 3871   3.843   4.373   4.354
   30DPPC   H7Y 3872   3.707   4.489   4.339
   30DPPC   C38 3873   3.690   4.319   4.208
   30DPPC   H8X 3874   3.721   4.387   4.126
   30DPPC   H8Y 3875   3.579   4.311   4.205
   30DPPC   C39 3876   3.751   4.180   4.181
   30DPPC   H9X 3877   3.730   4.113   4.267
   30DPPC   H9Y 3878   3.862   4.191   4.172
   30DPPC  C310 3879   3.697   4.115   4.053
   30DPPC  H10X 3880   3.710   4.184   3.967
   30DPPC  H10Y 3881   3.588   4.098   4.067
   30DPPC  C311 3882   3.764   3.981   4.021
   30DPPC  H11X 3883   3.772   3.922   4.115
   30DPPC  H11Y 3884   3.868   4.000   3.984
   30DPPC  C312 3885   3.688   3.895   3.918
   30DPPC  H12X 3886   3.589   3.870   3.961
   30DPPC  H12Y 3887   3.744   3.800   3.904
   30DPPC  C313 3888   3.668   3.960   3.781
   30DPPC  H13X 3889   3.767   3.994   3.743
   30DPPC  H13Y 3890   3.603   4.050   3.792
   30DPPC  C314 3891   3.606   3.866   3.676
   30DPPC  H14X 3892   3.673   3.779   3.662
   30DPPC  H14Y 3893   3.599   3.920   3.579
   30DPPC  C315 3894   3.466   3.814   3.714
   30DPPC  H15X 3895   3.400   3.902   3.731
   30DPPC  H15Y 3896   3.472   3.758   3.810
   30DPPC  C316 3897   3.402   3.723   3.609
   30DPPC  H16X 3898   3.300   3.692   3.642
   30DPPC  H16Y 3899   3.463   3.632   3.594
   30DPPC  H16Z 3900   3.392   3.777   3.512
   31DPPC     N 3901   3.586   1.613   5.018
   31DPPC   C13 3902   3.684   1.713   4.969
   31DPPC  H13A 3903   3.641   1.770   4.888
   31DPPC  H13B 3904   3.773   1.662   4.934
   31DPPC  H13C 3905   3.710   1.780   5.050
   31DPPC   C14 3906   3.647   1.540   5.132
   31DPPC  H14A 3907   3.578   1.465   5.168
   31DPPC  H14B 3908   3.672   1.608   5.211
   31DPPC  H14C 3909   3.737   1.489   5.098
   31DPPC   C15 3910   3.464   1.684   5.065
   31DPPC  H15A 3911   3.396   1.612   5.109
   31DPPC  H15B 3912   3.415   1.732   4.982
   31DPPC  H15C 3913   3.492   1.757   5.140
   31DPPC   C12 3914   3.552   1.517   4.906
   31DPPC  H12A 3915   3.641   1.458   4.886
   31DPPC  H12B 3916   3.532   1.576   4.818
   31DPPC   C11 3917   3.433   1.422   4.928
   31DPPC  H11A 3918   3.424   1.354   4.841
   31DPPC  H11B 3919   3.342   1.488   4.929
   31DPPC     P 3920   3.320   1.306   5.124
   31DPPC   O13 3921   3.252   1.431   5.167
   31DPPC   O14 3922   3.356   1.209   5.230
   31DPPC   O11 3923   3.234   1.237   5.011
   31DPPC   O12 3924   3.450   1.347   5.047
   31DPPC    C1 3925   3.208   1.096   5.009
   31DPPC    HA 3926   3.141   1.076   4.922
   31DPPC    HB 3927   3.153   1.064   5.100
   31DPPC    C2 3928   3.333   1.003   4.990
   31DPPC    HS 3929   3.376   0.988   5.092
   31DPPC   O21 3930   3.427   1.072   4.905
   31DPPC   C21 3931   3.548   1.021   4.911
   31DPPC   O22 3932   3.579   0.921   4.973
   31DPPC   C22 3933   3.644   1.110   4.831
   31DPPC   H2R 3934   3.683   1.188   4.900
   31DPPC   H2S 3935   3.588   1.162   4.750
   31DPPC    C3 3936   3.290   0.863   4.934
   31DPPC    HX 3937   3.209   0.825   5.000
   31DPPC    HY 3938   3.376   0.792   4.942
   31DPPC   O31 3939   3.246   0.872   4.796
   31DPPC   C31 3940   3.186   0.763   4.750
   31DPPC   O32 3941   3.160   0.664   4.816
   31DPPC   C32 3942   3.156   0.783   4.602
   31DPPC   H2X 3943   3.233   0.849   4.557
   31DPPC   H2Y 3944   3.057   0.832   4.591
   31DPPC   C23 3945   3.762   1.030   4.771
   31DPPC   H3R 3946   3.759   0.923   4.800
   31DPPC   H3S 3947   3.856   1.073   4.813
   31DPPC   C24 3948   3.774   1.038   4.618
   31DPPC   H4R 3949   3.865   0.983   4.587
   31DPPC   H4S 3950   3.787   1.144   4.588
   31DPPC   C25 3951   3.654   0.979   4.543
   31DPPC   H5R 3952   3.564   1.042   4.562
   31DPPC   H5S 3953   3.633   0.877   4.580
   31DPPC   C26 3954   3.677   0.973   4.391
   31DPPC   H6R 3955   3.757   0.899   4.370
   31DPPC   H6S 3956   3.713   1.073   4.358
   31DPPC   C27 3957   3.551   0.935   4.311
   31DPPC   H7R 3958   3.475   1.015   4.328
   31DPPC   H7S 3959   3.509   0.840   4.351
   31DPPC   C28 3960   3.574   0.919   4.160
   31DPPC   H8R 3961   3.476   0.896   4.112
   31DPPC   H8S 3962   3.641   0.833   4.143
   31DPPC   C29 3963   3.635   1.043   4.093
   31DPPC   H9R 3964   3.734   1.062   4.140
   31DPPC   H9S 3965   3.571   1.132   4.113
   31DPPC  C210 3966   3.658   1.029   3.942
   31DPPC  H10R 3967   3.707   0.932   3.921
   31DPPC  H10S 3968   3.728   1.111   3.912
   31DPPC  C211 3969   3.530   1.040   3.857
   31DPPC  H11R 3970   3.486   1.141   3.875
   31DPPC  H11S 3971   3.456   0.964   3.890
   31DPPC  C212 3972   3.554   1.024   3.706
   31DPPC  H12R 3973   3.462   1.056   3.653
   31DPPC  H12S 3974   3.570   0.916   3.683
   31DPPC  C213 3975   3.674   1.104   3.653
   31DPPC  H13R 3976   3.768   1.052   3.681
   31DPPC  H13S 3977   3.674   1.204   3.702
   31DPPC  C214 3978   3.671   1.125   3.501
   31DPPC  H14R 3979   3.580   1.185   3.476
   31DPPC  H14S 3980   3.663   1.027   3.450
   31DPPC  C215 3981   3.794   1.199   3.448
   31DPPC  H15R 3982   3.884   1.135   3.462
   31DPPC  H15S 3983   3.810   1.292   3.508
   31DPPC  C216 3984   3.783   1.238   3.300
   31DPPC  H16R 3985   3.770   1.148   3.238
   31DPPC  H16S 3986   3.874   1.292   3.267
   31DPPC  H16T 3987   3.696   1.305   3.285
   31DPPC   C33 3988   3.155   0.648   4.528
   31DPPC   H3X 3989   3.070   0.586   4.563
   31DPPC   H3Y 3990   3.249   0.593   4.551
   31DPPC   C34 3991   3.147   0.666   4.376
   31DPPC   H4X 3992   3.231   0.733   4.346
   31DPPC   H4Y 3993   3.052   0.718   4.350
   31DPPC   C35 3994   3.156   0.534   4.298
   31DPPC   H5X 3995   3.068   0.471   4.324
   31DPPC   H5Y 3996   3.247   0.480   4.330
   31DPPC   C36 3997   3.162   0.552   4.145
   31DPPC   H6X 3998   3.068   0.601   4.110
   31DPPC   H6Y 3999   3.165   0.450   4.100
   31DPPC   C37 4000   3.283   0.633   4.097
   31DPPC   H7X 4001   3.375   0.591   4.143
   31DPPC   H7Y 4002   3.272   0.738   4.131
   31DPPC   C38 4003   3.301   0.635   3.944
   31DPPC   H8X 4004   3.383   0.707   3.921
   31DPPC   H8Y 4005   3.208   0.672   3.896
   31DPPC   C39 4006   3.339   0.498   3.885
   31DPPC   H9X 4007   3.255   0.427   3.902
   31DPPC   H9Y 4008   3.427   0.459   3.939
   31DPPC  C310 4009   3.371   0.499   3.734
   31DPPC  H10X 4010   3.279   0.529   3.679
   31DPPC  H10Y 4011   3.397   0.395   3.704
   31DPPC  C311 4012   3.487   0.592   3.695
   31DPPC  H11X 4013   3.571   0.576   3.766
   31DPPC  H11Y 4014   3.454   0.698   3.705
   31DPPC  C312 4015   3.540   0.569   3.553
   31DPPC  H12X 4016   3.588   0.469   3.550
   31DPPC  H12Y 4017   3.619   0.644   3.531
   31DPPC  C313 4018   3.434   0.574   3.441
   31DPPC  H13X 4019   3.359   0.494   3.461
   31DPPC  H13Y 4020   3.484   0.549   3.345
   31DPPC  C314 4021   3.359   0.707   3.426
   31DPPC  H14X 4022   3.315   0.737   3.523
   31DPPC  H14Y 4023   3.276   0.692   3.353
   31DPPC  C315 4024   3.447   0.821   3.372
   31DPPC  H15X 4025   3.491   0.789   3.275
   31DPPC  H15Y 4026   3.531   0.839   3.443
   31DPPC  C316 4027   3.373   0.953   3.351
   31DPPC  H16X 4028   3.441   1.030   3.309
   31DPPC  H16Y 4029   3.332   0.991   3.447
   31DPPC  H16Z 4030   3.288   0.939   3.280
   32DPPC     N 4031   3.180   0.321   5.577
   32DPPC   C13 4032   3.167   0.386   5.710
   32DPPC  H13A 4033   3.063   0.394   5.737
   32DPPC  H13B 4034   3.211   0.485   5.708
   32DPPC  H13C 4035   3.220   0.327   5.784
   32DPPC   C14 4036   3.110   0.405   5.476
   32DPPC  H14A 4037   3.110   0.355   5.381
   32DPPC  H14B 4038   3.159   0.501   5.467
   32DPPC  H14C 4039   3.008   0.420   5.508
   32DPPC   C15 4040   3.325   0.311   5.543
   32DPPC  H15A 4041   3.337   0.259   5.450
   32DPPC  H15B 4042   3.376   0.257   5.622
   32DPPC  H15C 4043   3.367   0.410   5.535
   32DPPC   C12 4044   3.116   0.184   5.582
   32DPPC  H12A 4045   3.009   0.198   5.585
   32DPPC  H12B 4046   3.145   0.139   5.676
   32DPPC   C11 4047   3.151   0.084   5.470
   32DPPC  H11A 4048   3.079   6.417   5.476
   32DPPC  H11B 4049   3.252   0.045   5.495
   32DPPC     P 4050   3.227   0.075   5.229
   32DPPC   O13 4051   3.155   6.372   5.182
   32DPPC   O14 4052   3.365   0.053   5.279
   32DPPC   O11 4053   3.231   0.183   5.115
   32DPPC   O12 4054   3.144   0.145   5.342
   32DPPC    C1 4055   3.112   0.225   5.047
   32DPPC    HA 4056   3.118   0.333   5.025
   32DPPC    HB 4057   3.020   0.211   5.109
   32DPPC    C2 4058   3.093   0.150   4.912
   32DPPC    HS 4059   3.111   0.043   4.935
   32DPPC   O21 4060   3.189   0.203   4.818
   32DPPC   C21 4061   3.231   0.114   4.730
   32DPPC   O22 4062   3.196   6.415   4.727
   32DPPC   C22 4063   3.331   0.179   4.634
   32DPPC   H2R 4064   3.409   0.232   4.692
   32DPPC   H2S 4065   3.276   0.253   4.573
   32DPPC    C3 4066   2.946   0.164   4.860
   32DPPC    HX 4067   2.930   0.272   4.835
   32DPPC    HY 4068   2.875   0.140   4.943
   32DPPC   O31 4069   2.915   0.085   4.742
   32DPPC   C31 4070   2.909   6.372   4.763
   32DPPC   O32 4071   2.920   6.318   4.872
   32DPPC   C32 4072   2.890   6.301   4.629
   32DPPC   H2X 4073   2.939   6.362   4.550
   32DPPC   H2Y 4074   2.781   6.295   4.606
   32DPPC   C23 4075   3.395   0.074   4.541
   32DPPC   H3R 4076   3.446   0.129   4.458
   32DPPC   H3S 4077   3.317   0.010   4.495
   32DPPC   C24 4078   3.501   6.405   4.610
   32DPPC   H4R 4079   3.455   6.359   4.701
   32DPPC   H4S 4080   3.585   0.051   4.644
   32DPPC   C25 4081   3.557   6.291   4.524
   32DPPC   H5R 4082   3.474   6.224   4.492
   32DPPC   H5S 4083   3.626   6.231   4.588
   32DPPC   C26 4084   3.635   6.338   4.400
   32DPPC   H6R 4085   3.705   0.000   4.433
   32DPPC   H6S 4086   3.566   6.381   4.325
   32DPPC   C27 4087   3.720   6.228   4.334
   32DPPC   H7R 4088   3.787   6.182   4.411
   32DPPC   H7S 4089   3.785   6.276   4.258
   32DPPC   C28 4090   3.641   6.116   4.264
   32DPPC   H8R 4091   3.578   6.161   4.185
   32DPPC   H8S 4092   3.573   6.066   4.338
   32DPPC   C29 4093   3.733   6.010   4.201
   32DPPC   H9R 4094   3.786   5.956   4.283
   32DPPC   H9S 4095   3.810   6.063   4.140
   32DPPC  C210 4096   3.663   5.908   4.110
   32DPPC  H10R 4097   3.742   5.839   4.070
   32DPPC  H10S 4098   3.619   5.961   4.023
   32DPPC  C211 4099   3.555   5.823   4.178
   32DPPC  H11R 4100   3.466   5.887   4.198
   32DPPC  H11S 4101   3.594   5.788   4.276
   32DPPC  C212 4102   3.513   5.699   4.097
   32DPPC  H12R 4103   3.435   5.644   4.153
   32DPPC  H12S 4104   3.602   5.632   4.089
   32DPPC  C213 4105   3.461   5.726   3.954
   32DPPC  H13R 4106   3.436   5.628   3.910
   32DPPC  H13S 4107   3.543   5.770   3.893
   32DPPC  C214 4108   3.339   5.818   3.948
   32DPPC  H14R 4109   3.367   5.919   3.986
   32DPPC  H14S 4110   3.259   5.778   4.014
   32DPPC  C215 4111   3.281   5.836   3.806
   32DPPC  H15R 4112   3.361   5.875   3.739
   32DPPC  H15S 4113   3.200   5.912   3.810
   32DPPC  C216 4114   3.222   5.708   3.744
   32DPPC  H16R 4115   3.178   5.731   3.645
   32DPPC  H16S 4116   3.144   5.666   3.809
   32DPPC  H16T 4117   3.301   5.631   3.730
   32DPPC   C33 4118   2.950   6.160   4.632
   32DPPC   H3X 4119   2.889   6.096   4.699
   32DPPC   H3Y 4120   3.053   6.163   4.673
   32DPPC   C34 4121   2.957   6.094   4.492
   32DPPC   H4X 4122   2.856   6.098   4.446
   32DPPC   H4Y 4123   2.985   5.988   4.506
   32DPPC   C35 4124   3.060   6.160   4.399
   32DPPC   H5X 4125   3.159   6.158   4.450
   32DPPC   H5Y 4126   3.033   6.266   4.381
   32DPPC   C36 4127   3.075   6.091   4.262
   32DPPC   H6X 4128   3.101   5.984   4.277
   32DPPC   H6Y 4129   3.161   6.139   4.209
   32DPPC   C37 4130   2.951   6.102   4.172
   32DPPC   H7X 4131   2.921   6.208   4.165
   32DPPC   H7Y 4132   2.867   6.044   4.216
   32DPPC   C38 4133   2.978   6.050   4.029
   32DPPC   H8X 4134   3.065   6.106   3.988
   32DPPC   H8Y 4135   3.005   5.943   4.033
   32DPPC   C39 4136   2.859   6.069   3.933
   32DPPC   H9X 4137   2.827   6.175   3.937
   32DPPC   H9Y 4138   2.775   6.006   3.966
   32DPPC  C310 4139   2.896   6.033   3.788
   32DPPC  H10X 4140   2.933   5.928   3.785
   32DPPC  H10Y 4141   2.980   6.099   3.757
   32DPPC  C311 4142   2.782   6.049   3.686
   32DPPC  H11X 4143   2.705   5.970   3.704
   32DPPC  H11Y 4144   2.825   6.031   3.585
   32DPPC  C312 4145   2.714   6.187   3.686
   32DPPC  H12X 4146   2.791   6.265   3.703
   32DPPC  H12Y 4147   2.641   6.192   3.771
   32DPPC  C313 4148   2.642   6.221   3.555
   32DPPC  H13X 4149   2.717   6.226   3.473
   32DPPC  H13Y 4150   2.596   6.322   3.565
   32DPPC  C314 4151   2.531   6.122   3.514
   32DPPC  H14X 4152   2.457   6.115   3.597
   32DPPC  H14Y 4153   2.576   6.021   3.499
   32DPPC  C315 4154   2.458   6.164   3.385
   32DPPC  H15X 4155   2.533   6.172   3.303
   32DPPC  H15Y 4156   2.415   6.265   3.400
   32DPPC  C316 4157   2.348   6.068   3.342
   32DPPC  H16X 4158   2.272   6.057   3.422
   32DPPC  H16Y 4159   2.391   5.968   3.321
   32DPPC  H16Z 4160   2.298   6.105   3.250
   33DPPC     N 4161   4.851   1.247   4.748
   33DPPC   C13 4162   4.951   1.237   4.858
   33DPPC  H13A 4163   5.047   1.270   4.821
   33DPPC  H13B 4164   4.959   1.135   4.892
   33DPPC  H13C 4165   4.921   1.301   4.940
   33DPPC   C14 4166   4.839   1.389   4.707
   33DPPC  H14A 4167   4.802   1.447   4.791
   33DPPC  H14B 4168   4.769   1.397   4.625
   33DPPC  H14C 4169   4.936   1.426   4.677
   33DPPC   C15 4170   4.903   1.172   4.630
   33DPPC  H15A 4171   4.917   1.069   4.656
   33DPPC  H15B 4172   4.998   1.216   4.601
   33DPPC  H15C 4173   4.833   1.181   4.549
   33DPPC   C12 4174   4.718   1.189   4.789
   33DPPC  H12A 4175   4.731   1.082   4.800
   33DPPC  H12B 4176   4.649   1.205   4.706
   33DPPC   C11 4177   4.651   1.241   4.918
   33DPPC  H11A 4178   4.718   1.217   5.005
   33DPPC  H11B 4179   4.556   1.185   4.930
   33DPPC     P 4180   4.568   1.448   5.037
   33DPPC   O13 4181   4.676   1.522   5.106
   33DPPC   O14 4182   4.492   1.349   5.117
   33DPPC   O11 4183   4.465   1.552   4.979
   33DPPC   O12 4184   4.627   1.381   4.908
   33DPPC    C1 4185   4.498   1.641   4.872
   33DPPC    HA 4186   4.597   1.618   4.825
   33DPPC    HB 4187   4.504   1.745   4.912
   33DPPC    C2 4188   4.393   1.641   4.756
   33DPPC    HS 4189   4.297   1.683   4.794
   33DPPC   O21 4190   4.377   1.508   4.704
   33DPPC   C21 4191   4.285   1.437   4.766
   33DPPC   O22 4192   4.211   1.477   4.854
   33DPPC   C22 4193   4.283   1.295   4.709
   33DPPC   H2R 4194   4.214   1.233   4.772
   33DPPC   H2S 4195   4.385   1.251   4.715
   33DPPC    C3 4196   4.440   1.736   4.642
   33DPPC    HX 4197   4.548   1.716   4.622
   33DPPC    HY 4198   4.435   1.839   4.682
   33DPPC   O31 4199   4.358   1.728   4.523
   33DPPC   C31 4200   4.407   1.651   4.425
   33DPPC   O32 4201   4.511   1.586   4.432
   33DPPC   C32 4202   4.313   1.655   4.305
   33DPPC   H2X 4203   4.267   1.756   4.299
   33DPPC   H2Y 4204   4.232   1.580   4.319
   33DPPC   C23 4205   4.233   1.295   4.564
   33DPPC   H3R 4206   4.306   1.349   4.500
   33DPPC   H3S 4207   4.135   1.347   4.557
   33DPPC   C24 4208   4.217   1.152   4.509
   33DPPC   H4R 4209   4.136   1.100   4.565
   33DPPC   H4S 4210   4.312   1.097   4.528
   33DPPC   C25 4211   4.188   1.144   4.358
   33DPPC   H5R 4212   4.195   1.038   4.327
   33DPPC   H5S 4213   4.266   1.201   4.304
   33DPPC   C26 4214   4.049   1.196   4.318
   33DPPC   H6R 4215   4.043   1.306   4.337
   33DPPC   H6S 4216   3.972   1.147   4.382
   33DPPC   C27 4217   4.012   1.169   4.171
   33DPPC   H7R 4218   3.910   1.209   4.152
   33DPPC   H7S 4219   4.009   1.059   4.155
   33DPPC   C28 4220   4.110   1.232   4.071
   33DPPC   H8R 4221   4.212   1.191   4.088
   33DPPC   H8S 4222   4.113   1.342   4.088
   33DPPC   C29 4223   4.073   1.206   3.924
   33DPPC   H9R 4224   3.973   1.249   3.902
   33DPPC   H9S 4225   4.068   1.096   3.907
   33DPPC  C210 4226   4.176   1.267   3.828
   33DPPC  H10R 4227   4.277   1.227   3.853
   33DPPC  H10S 4228   4.179   1.377   3.844
   33DPPC  C211 4229   4.149   1.241   3.679
   33DPPC  H11R 4230   4.050   1.285   3.650
   33DPPC  H11S 4231   4.227   1.296   3.622
   33DPPC  C212 4232   4.152   1.093   3.640
   33DPPC  H12R 4233   4.049   1.052   3.646
   33DPPC  H12S 4234   4.214   1.038   3.714
   33DPPC  C213 4235   4.211   1.065   3.500
   33DPPC  H13R 4236   4.159   1.128   3.425
   33DPPC  H13S 4237   4.190   0.958   3.475
   33DPPC  C214 4238   4.363   1.087   3.492
   33DPPC  H14R 4239   4.413   1.022   3.567
   33DPPC  H14S 4240   4.386   1.193   3.518
   33DPPC  C215 4241   4.423   1.057   3.354
   33DPPC  H15R 4242   4.375   1.123   3.278
   33DPPC  H15S 4243   4.399   0.951   3.327
   33DPPC  C216 4244   4.575   1.076   3.348
   33DPPC  H16R 4245   4.601   1.182   3.369
   33DPPC  H16S 4246   4.613   1.050   3.247
   33DPPC  H16T 4247   4.625   1.011   3.422
   33DPPC   C33 4248   4.389   1.628   4.174
   33DPPC   H3X 4249   4.482   1.687   4.172
   33DPPC   H3Y 4250   4.325   1.664   4.090
   33DPPC   C34 4251   4.418   1.479   4.147
   33DPPC   H4X 4252   4.322   1.422   4.150
   33DPPC   H4Y 4253   4.483   1.439   4.227
   33DPPC   C35 4254   4.486   1.452   4.012
   33DPPC   H5X 4255   4.418   1.485   3.930
   33DPPC   H5Y 4256   4.502   1.343   4.001
   33DPPC   C36 4257   4.621   1.524   3.996
   33DPPC   H6X 4258   4.689   1.495   4.079
   33DPPC   H6Y 4259   4.605   1.634   4.001
   33DPPC   C37 4260   4.691   1.494   3.862
   33DPPC   H7X 4261   4.619   1.509   3.780
   33DPPC   H7Y 4262   4.724   1.388   3.860
   33DPPC   C38 4263   4.812   1.586   3.838
   33DPPC   H8X 4264   4.888   1.571   3.918
   33DPPC   H8Y 4265   4.775   1.691   3.845
   33DPPC   C39 4266   4.877   1.569   3.700
   33DPPC   H9X 4267   4.798   1.563   3.623
   33DPPC   H9Y 4268   4.934   1.473   3.698
   33DPPC  C310 4269   4.971   1.686   3.665
   33DPPC  H10X 4270   5.052   1.692   3.741
   33DPPC  H10Y 4271   4.912   1.780   3.670
   33DPPC  C311 4272   5.034   1.673   3.525
   33DPPC  H11X 4273   4.953   1.659   3.449
   33DPPC  H11Y 4274   5.097   1.582   3.524
   33DPPC  C312 4275   5.120   1.794   3.486
   33DPPC  H12X 4276   5.181   1.766   3.397
   33DPPC  H12Y 4277   5.190   1.818   3.569
   33DPPC  C313 4278   5.037   1.919   3.450
   33DPPC  H13X 4279   4.973   1.947   3.537
   33DPPC  H13Y 4280   4.971   1.893   3.365
   33DPPC  C314 4281   5.124   2.040   3.414
   33DPPC  H14X 4282   5.190   2.014   3.329
   33DPPC  H14Y 4283   5.188   2.065   3.501
   33DPPC  C315 4284   5.043   2.166   3.376
   33DPPC  H15X 4285   5.114   2.251   3.366
   33DPPC  H15Y 4286   4.973   2.190   3.460
   33DPPC  C316 4287   4.962   2.154   3.246
   33DPPC  H16X 4288   5.029   2.129   3.161
   33DPPC  H16Y 4289   4.911   2.250   3.224
   33DPPC  H16Z 4290   4.884   2.075   3.255
   34DPPC     N 4291   5.404   4.501   5.580
   34DPPC   C13 4292   5.504   4.593   5.642
   34DPPC  H13A 4293   5.559   4.644   5.564
   34DPPC  H13B 4294   5.573   4.536   5.703
   34DPPC  H13C 4295   5.453   4.666   5.703
   34DPPC   C14 4296   5.476   4.400   5.498
   34DPPC  H14A 4297   5.530   4.450   5.418
   34DPPC  H14B 4298   5.406   4.330   5.456
   34DPPC  H14C 4299   5.546   4.346   5.560
   34DPPC   C15 4300   5.332   4.431   5.689
   34DPPC  H15A 4301   5.285   4.503   5.755
   34DPPC  H15B 4302   5.400   4.370   5.746
   34DPPC  H15C 4303   5.255   4.369   5.647
   34DPPC   C12 4304   5.309   4.582   5.496
   34DPPC  H12A 4305   5.369   4.640   5.426
   34DPPC  H12B 4306   5.259   4.653   5.561
   34DPPC   C11 4307   5.200   4.508   5.415
   34DPPC  H11A 4308   5.251   4.441   5.342
   34DPPC  H11B 4309   5.142   4.584   5.359
   34DPPC     P 4310   5.019   4.331   5.439
   34DPPC   O13 4311   4.910   4.303   5.535
   34DPPC   O14 4312   5.097   4.215   5.394
   34DPPC   O11 4313   4.961   4.405   5.312
   34DPPC   O12 4314   5.115   4.437   5.503
   34DPPC    C1 4315   4.837   4.478   5.316
   34DPPC    HA 4316   4.844   4.562   5.245
   34DPPC    HB 4317   4.816   4.521   5.417
   34DPPC    C2 4318   4.712   4.393   5.275
   34DPPC    HS 4319   4.689   4.325   5.360
   34DPPC   O21 4320   4.742   4.326   5.151
   34DPPC   C21 4321   4.745   4.195   5.159
   34DPPC   O22 4322   4.719   4.128   5.258
   34DPPC   C22 4323   4.784   4.135   5.024
   34DPPC   H2R 4324   4.698   4.143   4.954
   34DPPC   H2S 4325   4.806   4.027   5.040
   34DPPC    C3 4326   4.588   4.485   5.256
   34DPPC    HX 4327   4.621   4.567   5.187
   34DPPC    HY 4328   4.564   4.531   5.355
   34DPPC   O31 4329   4.473   4.414   5.203
   34DPPC   C31 4330   4.376   4.499   5.167
   34DPPC   O32 4331   4.382   4.620   5.181
   34DPPC   C32 4332   4.259   4.424   5.105
   34DPPC   H2X 4333   4.177   4.419   5.179
   34DPPC   H2Y 4334   4.289   4.321   5.077
   34DPPC   C23 4335   4.908   4.205   4.966
   34DPPC   H3R 4336   4.984   4.220   5.046
   34DPPC   H3S 4337   4.879   4.305   4.928
   34DPPC   C24 4338   4.976   4.126   4.853
   34DPPC   H4R 4339   5.017   4.031   4.895
   34DPPC   H4S 4340   5.063   4.185   4.816
   34DPPC   C25 4341   4.885   4.091   4.734
   34DPPC   H5R 4342   4.846   4.186   4.692
   34DPPC   H5S 4343   4.799   4.030   4.769
   34DPPC   C26 4344   4.960   4.013   4.625
   34DPPC   H6R 4345   4.999   3.918   4.669
   34DPPC   H6S 4346   5.047   4.073   4.592
   34DPPC   C27 4347   4.875   3.977   4.502
   34DPPC   H7R 4348   4.798   3.902   4.530
   34DPPC   H7S 4349   4.942   3.931   4.427
   34DPPC   C28 4350   4.805   4.098   4.437
   34DPPC   H8R 4351   4.876   4.185   4.437
   34DPPC   H8S 4352   4.717   4.127   4.498
   34DPPC   C29 4353   4.762   4.073   4.292
   34DPPC   H9R 4354   4.694   3.984   4.289
   34DPPC   H9S 4355   4.853   4.048   4.232
   34DPPC  C210 4356   4.691   4.193   4.228
   34DPPC  H10R 4357   4.752   4.284   4.245
   34DPPC  H10S 4358   4.593   4.207   4.278
   34DPPC  C211 4359   4.671   4.176   4.076
   34DPPC  H11R 4360   4.617   4.080   4.058
   34DPPC  H11S 4361   4.771   4.166   4.029
   34DPPC  C212 4362   4.596   4.291   4.008
   34DPPC  H12R 4363   4.595   4.272   3.898
   34DPPC  H12S 4364   4.653   4.386   4.025
   34DPPC  C213 4365   4.451   4.312   4.054
   34DPPC  H13R 4366   4.406   4.394   3.993
   34DPPC  H13S 4367   4.450   4.345   4.160
   34DPPC  C214 4368   4.363   4.186   4.040
   34DPPC  H14R 4369   4.397   4.109   4.112
   34DPPC  H14S 4370   4.375   4.145   3.937
   34DPPC  C215 4371   4.212   4.211   4.063
   34DPPC  H15R 4372   4.159   4.114   4.052
   34DPPC  H15S 4373   4.176   4.278   3.982
   34DPPC  C216 4374   4.176   4.273   4.198
   34DPPC  H16R 4375   4.215   4.212   4.281
   34DPPC  H16S 4376   4.065   4.281   4.208
   34DPPC  H16T 4377   4.218   4.375   4.206
   34DPPC   C33 4378   4.212   4.501   4.980
   34DPPC   H3X 4379   4.297   4.505   4.908
   34DPPC   H3Y 4380   4.186   4.606   5.008
   34DPPC   C34 4381   4.090   4.439   4.912
   34DPPC   H4X 4382   4.005   4.439   4.984
   34DPPC   H4Y 4383   4.112   4.333   4.885
   34DPPC   C35 4384   4.045   4.514   4.785
   34DPPC   H5X 4385   4.027   4.621   4.811
   34DPPC   H5Y 4386   3.948   4.471   4.751
   34DPPC   C36 4387   4.146   4.506   4.670
   34DPPC   H6X 4388   4.163   4.399   4.644
   34DPPC   H6Y 4389   4.243   4.549   4.703
   34DPPC   C37 4390   4.102   4.580   4.543
   34DPPC   H7X 4391   4.076   4.685   4.570
   34DPPC   H7Y 4392   4.010   4.532   4.502
   34DPPC   C38 4393   4.211   4.583   4.435
   34DPPC   H8X 4394   4.239   4.478   4.410
   34DPPC   H8Y 4395   4.301   4.632   4.478
   34DPPC   C39 4396   4.169   4.656   4.306
   34DPPC   H9X 4397   4.137   4.759   4.331
   34DPPC   H9Y 4398   4.082   4.602   4.263
   34DPPC  C310 4399   4.280   4.662   4.200
   34DPPC  H10X 4400   4.234   4.688   4.102
   34DPPC  H10Y 4401   4.326   4.561   4.190
   34DPPC  C311 4402   4.391   4.764   4.230
   34DPPC  H11X 4403   4.424   4.752   4.336
   34DPPC  H11Y 4404   4.350   4.867   4.220
   34DPPC  C312 4405   4.516   4.749   4.141
   34DPPC  H12X 4406   4.559   4.648   4.160
   34DPPC  H12Y 4407   4.591   4.824   4.173
   34DPPC  C313 4408   4.491   4.764   3.990
   34DPPC  H13X 4409   4.415   4.690   3.957
   34DPPC  H13Y 4410   4.587   4.739   3.938
   34DPPC  C314 4411   4.450   4.905   3.946
   34DPPC  H14X 4412   4.523   4.977   3.988
   34DPPC  H14Y 4413   4.350   4.930   3.988
   34DPPC  C315 4414   4.447   4.924   3.794
   34DPPC  H15X 4415   4.546   4.895   3.752
   34DPPC  H15Y 4416   4.432   5.033   3.772
   34DPPC  C316 4417   4.337   4.846   3.721
   34DPPC  H16X 4418   4.349   4.737   3.737
   34DPPC  H16Y 4419   4.341   4.866   3.611
   34DPPC  H16Z 4420   4.237   4.877   3.758
   35DPPC     N 4421   5.310   2.593   5.478
   35DPPC   C13 4422   5.186   2.523   5.520
   35DPPC  H13A 4423   5.201   2.477   5.617
   35DPPC  H13B 4424   5.162   2.445   5.449
   35DPPC  H13C 4425   5.104   2.592   5.526
   35DPPC   C14 4426   5.283   2.667   5.351
   35DPPC  H14A 4427   5.371   2.723   5.322
   35DPPC  H14B 4428   5.200   2.734   5.365
   35DPPC  H14C 4429   5.259   2.595   5.274
   35DPPC   C15 4430   5.345   2.693   5.582
   35DPPC  H15A 4431   5.438   2.742   5.557
   35DPPC  H15B 4432   5.358   2.643   5.677
   35DPPC  H15C 4433   5.266   2.766   5.592
   35DPPC   C12 4434   5.423   2.496   5.459
   35DPPC  H12A 4435   5.461   2.471   5.558
   35DPPC  H12B 4436   5.503   2.547   5.406
   35DPPC   C11 4437   5.394   2.362   5.387
   35DPPC  H11A 4438   5.337   2.297   5.458
   35DPPC  H11B 4439   5.490   2.310   5.368
   35DPPC     P 4440   5.367   2.357   5.128
   35DPPC   O13 4441   5.271   2.270   5.057
   35DPPC   O14 4442   5.508   2.313   5.128
   35DPPC   O11 4443   5.358   2.503   5.067
   35DPPC   O12 4444   5.313   2.381   5.272
   35DPPC    C1 4445   5.230   2.557   5.027
   35DPPC    HA 4446   5.228   2.666   5.049
   35DPPC    HB 4447   5.145   2.511   5.082
   35DPPC    C2 4448   5.205   2.540   4.874
   35DPPC    HS 4449   5.222   2.432   4.853
   35DPPC   O21 4450   5.297   2.626   4.805
   35DPPC   C21 4451   5.334   2.579   4.687
   35DPPC   O22 4452   5.304   2.468   4.644
   35DPPC   C22 4453   5.419   2.683   4.615
   35DPPC   H2R 4454   5.525   2.656   4.629
   35DPPC   H2S 4455   5.401   2.784   4.658
   35DPPC    C3 4456   5.057   2.573   4.834
   35DPPC    HX 4457   5.036   2.678   4.863
   35DPPC    HY 4458   4.991   2.506   4.893
   35DPPC   O31 4459   5.038   2.558   4.692
   35DPPC   C31 4460   4.917   2.524   4.650
   35DPPC   O32 4461   4.817   2.517   4.720
   35DPPC   C32 4462   4.926   2.491   4.501
   35DPPC   H2X 4463   4.933   2.381   4.489
   35DPPC   H2Y 4464   5.018   2.537   4.458
   35DPPC   C23 4465   5.387   2.686   4.464
   35DPPC   H3R 4466   5.292   2.741   4.447
   35DPPC   H3S 4467   5.375   2.583   4.426
   35DPPC   C24 4468   5.500   2.751   4.383
   35DPPC   H4R 4469   5.594   2.693   4.401
   35DPPC   H4S 4470   5.518   2.855   4.419
   35DPPC   C25 4471   5.473   2.753   4.232
   35DPPC   H5R 4472   5.393   2.827   4.210
   35DPPC   H5S 4473   5.436   2.653   4.202
   35DPPC   C26 4474   5.598   2.784   4.148
   35DPPC   H6R 4475   5.675   2.707   4.170
   35DPPC   H6S 4476   5.639   2.883   4.177
   35DPPC   C27 4477   5.569   2.783   3.997
   35DPPC   H7R 4478   5.506   2.871   3.971
   35DPPC   H7S 4479   5.512   2.691   3.972
   35DPPC   C28 4480   5.696   2.783   3.911
   35DPPC   H8R 4481   5.756   2.693   3.935
   35DPPC   H8S 4482   5.758   2.872   3.936
   35DPPC   C29 4483   5.666   2.783   3.760
   35DPPC   H9R 4484   5.618   2.880   3.734
   35DPPC   H9S 4485   5.594   2.702   3.737
   35DPPC  C210 4486   5.792   2.762   3.675
   35DPPC  H10R 4487   5.835   2.662   3.699
   35DPPC  H10S 4488   5.868   2.839   3.703
   35DPPC  C211 4489   5.768   2.770   3.523
   35DPPC  H11R 4490   5.691   2.696   3.494
   35DPPC  H11S 4491   5.863   2.742   3.472
   35DPPC  C212 4492   5.728   2.910   3.474
   35DPPC  H12R 4493   5.800   2.984   3.517
   35DPPC  H12S 4494   5.627   2.936   3.512
   35DPPC  C213 4495   5.730   2.926   3.321
   35DPPC  H13R 4496   5.830   2.894   3.283
   35DPPC  H13S 4497   5.717   3.033   3.297
   35DPPC  C214 4498   5.622   2.846   3.248
   35DPPC  H14R 4499   5.522   2.878   3.285
   35DPPC  H14S 4500   5.633   2.737   3.271
   35DPPC  C215 4501   5.628   2.865   3.096
   35DPPC  H15R 4502   5.724   2.823   3.059
   35DPPC  H15S 4503   5.628   2.974   3.074
   35DPPC  C216 4504   5.513   2.800   3.019
   35DPPC  H16R 4505   5.505   2.693   3.045
   35DPPC  H16S 4506   5.528   2.809   2.910
   35DPPC  H16T 4507   5.417   2.850   3.045
   35DPPC   C33 4508   4.804   2.544   4.424
   35DPPC   H3X 4509   4.788   2.651   4.448
   35DPPC   H3Y 4510   4.714   2.487   4.455
   35DPPC   C34 4511   4.822   2.531   4.271
   35DPPC   H4X 4512   4.839   2.424   4.245
   35DPPC   H4Y 4513   4.913   2.588   4.242
   35DPPC   C35 4514   4.704   2.584   4.189
   35DPPC   H5X 4515   4.733   2.583   4.081
   35DPPC   H5Y 4516   4.683   2.689   4.218
   35DPPC   C36 4517   4.576   2.500   4.204
   35DPPC   H6X 4518   4.542   2.501   4.310
   35DPPC   H6Y 4519   4.600   2.395   4.177
   35DPPC   C37 4520   4.459   2.546   4.114
   35DPPC   H7X 4521   4.373   2.478   4.131
   35DPPC   H7Y 4522   4.491   2.534   4.008
   35DPPC   C38 4523   4.412   2.691   4.136
   35DPPC   H8X 4524   4.324   2.708   4.070
   35DPPC   H8Y 4525   4.492   2.761   4.103
   35DPPC   C39 4526   4.374   2.723   4.281
   35DPPC   H9X 4527   4.465   2.713   4.345
   35DPPC   H9Y 4528   4.300   2.648   4.317
   35DPPC  C310 4529   4.317   2.864   4.302
   35DPPC  H10X 4530   4.385   2.939   4.255
   35DPPC  H10Y 4531   4.315   2.884   4.412
   35DPPC  C311 4532   4.174   2.882   4.249
   35DPPC  H11X 4533   4.109   2.803   4.293
   35DPPC  H11Y 4534   4.174   2.869   4.138
   35DPPC  C312 4535   4.115   3.020   4.284
   35DPPC  H12X 4536   4.169   3.098   4.227
   35DPPC  H12Y 4537   4.132   3.039   4.392
   35DPPC  C313 4538   3.964   3.033   4.257
   35DPPC  H13X 4539   3.932   3.135   4.287
   35DPPC  H13Y 4540   3.910   2.960   4.322
   35DPPC  C314 4541   3.922   3.008   4.111
   35DPPC  H14X 4542   3.953   2.905   4.081
   35DPPC  H14Y 4543   3.976   3.080   4.045
   35DPPC  C315 4544   3.771   3.020   4.087
   35DPPC  H15X 4545   3.719   2.951   4.157
   35DPPC  H15Y 4546   3.749   2.986   3.983
   35DPPC  C316 4547   3.713   3.161   4.104
   35DPPC  H16X 4548   3.732   3.199   4.206
   35DPPC  H16Y 4549   3.603   3.159   4.087
   35DPPC  H16Z 4550   3.759   3.231   4.031
   36DPPC     N 4551   6.059   2.986   5.156
   36DPPC   C13 4552   6.020   3.050   5.285
   36DPPC  H13A 4553   6.078   3.008   5.365
   36DPPC  H13B 4554   5.914   3.034   5.303
   36DPPC  H13C 4555   6.041   3.156   5.278
   36DPPC   C14 4556   6.036   2.839   5.169
   36DPPC  H14A 4557   5.934   2.820   5.198
   36DPPC  H14B 4558   6.102   2.798   5.244
   36DPPC  H14C 4559   6.053   2.790   5.074
   36DPPC   C15 4560   5.972   3.038   5.047
   36DPPC  H15A 4561   5.868   3.019   5.072
   36DPPC  H15B 4562   5.996   2.988   4.954
   36DPPC  H15C 4563   5.985   3.145   5.037
   36DPPC   C12 4564   6.204   3.013   5.126
   36DPPC  H12A 4565   6.229   2.961   5.034
   36DPPC  H12B 4566   6.263   2.968   5.205
   36DPPC   C11 4567   6.251   3.160   5.112
   36DPPC  H11A 4568   6.192   3.210   5.032
   36DPPC  H11B 4569   0.055   3.156   5.080
   36DPPC     P 4570   6.275   3.378   5.243
   36DPPC   O13 4571   0.062   3.399   5.358
   36DPPC   O14 4572   6.147   3.453   5.242
   36DPPC   O11 4573   0.048   3.404   5.107
   36DPPC   O12 4574   6.239   3.226   5.237
   36DPPC    C1 4575   0.169   3.479   5.098
   36DPPC    HA 4576   0.252   3.422   5.145
   36DPPC    HB 4577   0.160   3.577   5.151
   36DPPC    C2 4578   0.210   3.508   4.950
   36DPPC    HS 4579   0.137   3.581   4.907
   36DPPC   O21 4580   0.216   3.384   4.877
   36DPPC   C21 4581   0.102   3.352   4.821
   36DPPC   O22 4582   0.003   3.423   4.815
   36DPPC   C22 4583   0.109   3.210   4.764
   36DPPC   H2R 4584   0.133   3.139   4.846
   36DPPC   H2S 4585   0.189   3.206   4.688
   36DPPC    C3 4586   0.349   3.579   4.941
   36DPPC    HX 4587   0.426   3.508   4.978
   36DPPC    HY 4588   0.346   3.667   5.009
   36DPPC   O31 4589   0.377   3.620   4.805
   36DPPC   C31 4590   0.495   3.680   4.790
   36DPPC   O32 4591   0.575   3.700   4.880
   36DPPC   C32 4592   0.513   3.719   4.643
   36DPPC   H2X 4593   0.533   3.828   4.638
   36DPPC   H2Y 4594   0.419   3.698   4.587
   36DPPC   C23 4595   6.276   3.175   4.701
   36DPPC   H3R 4596   6.253   3.249   4.621
   36DPPC   H3S 4597   6.196   3.181   4.778
   36DPPC   C24 4598   6.271   3.035   4.637
   36DPPC   H4R 4599   6.289   2.958   4.715
   36DPPC   H4S 4600   0.049   3.027   4.562
   36DPPC   C25 4601   6.136   3.008   4.570
   36DPPC   H5R 4602   6.111   3.094   4.503
   36DPPC   H5S 4603   6.057   3.003   4.648
   36DPPC   C26 4604   6.131   2.880   4.486
   36DPPC   H6R 4605   6.162   2.793   4.549
   36DPPC   H6S 4606   6.205   2.889   4.403
   36DPPC   C27 4607   5.991   2.852   4.428
   36DPPC   H7R 4608   5.955   2.942   4.374
   36DPPC   H7S 4609   5.922   2.834   4.513
   36DPPC   C28 4610   5.984   2.731   4.333
   36DPPC   H8R 4611   5.877   2.704   4.319
   36DPPC   H8S 4612   6.035   2.645   4.380
   36DPPC   C29 4613   6.045   2.758   4.194
   36DPPC   H9R 4614   5.993   2.845   4.148
   36DPPC   H9S 4615   6.152   2.784   4.205
   36DPPC  C210 4616   6.032   2.638   4.099
   36DPPC  H10R 4617   5.925   2.610   4.089
   36DPPC  H10S 4618   6.086   2.552   4.144
   36DPPC  C211 4619   6.090   2.666   3.959
   36DPPC  H11R 4620   6.031   2.747   3.910
   36DPPC  H11S 4621   6.195   2.701   3.971
   36DPPC  C212 4622   6.090   2.542   3.869
   36DPPC  H12R 4623   5.986   2.509   3.851
   36DPPC  H12S 4624   6.143   2.459   3.922
   36DPPC  C213 4625   6.160   2.564   3.734
   36DPPC  H13R 4626   6.263   2.601   3.754
   36DPPC  H13S 4627   6.106   2.642   3.677
   36DPPC  C214 4628   6.170   2.435   3.650
   36DPPC  H14R 4629   6.068   2.403   3.621
   36DPPC  H14S 4630   6.214   2.355   3.714
   36DPPC  C215 4631   6.257   2.449   3.524
   36DPPC  H15R 4632   0.057   2.478   3.554
   36DPPC  H15S 4633   6.263   2.349   3.476
   36DPPC  C216 4634   6.206   2.550   3.420
   36DPPC  H16R 4635   6.102   2.524   3.390
   36DPPC  H16S 4636   6.271   2.548   3.330
   36DPPC  H16T 4637   6.206   2.652   3.462
   36DPPC   C33 4638   0.629   3.640   4.581
   36DPPC   H3X 4639   0.614   3.532   4.602
   36DPPC   H3Y 4640   0.725   3.671   4.627
   36DPPC   C34 4641   0.640   3.656   4.428
   36DPPC   H4X 4642   0.547   3.618   4.381
   36DPPC   H4Y 4643   0.724   3.592   4.393
   36DPPC   C35 4644   0.665   3.800   4.380
   36DPPC   H5X 4645   0.760   3.836   4.424
   36DPPC   H5Y 4646   0.583   3.866   4.418
   36DPPC   C36 4647   0.671   3.816   4.227
   36DPPC   H6X 4648   0.691   3.923   4.205
   36DPPC   H6Y 4649   0.572   3.790   4.183
   36DPPC   C37 4650   0.779   3.731   4.159
   36DPPC   H7X 4651   0.749   3.624   4.160
   36DPPC   H7Y 4652   0.873   3.741   4.217
   36DPPC   C38 4653   0.809   3.774   4.014
   36DPPC   H8X 4654   0.850   3.877   4.018
   36DPPC   H8Y 4655   0.714   3.777   3.956
   36DPPC   C39 4656   0.909   3.682   3.942
   36DPPC   H9X 4657   0.857   3.587   3.918
   36DPPC   H9Y 4658   0.993   3.658   4.010
   36DPPC  C310 4659   0.968   3.742   3.813
   36DPPC  H10X 4660   0.886   3.786   3.753
   36DPPC  H10Y 4661   1.014   3.660   3.754
   36DPPC  C311 4662   1.077   3.847   3.840
   36DPPC  H11X 4663   1.160   3.798   3.896
   36DPPC  H11Y 4664   1.035   3.928   3.904
   36DPPC  C312 4665   1.134   3.909   3.711
   36DPPC  H12X 4666   1.054   3.969   3.662
   36DPPC  H12Y 4667   1.163   3.827   3.641
   36DPPC  C313 4668   1.258   3.998   3.734
   36DPPC  H13X 4669   1.289   4.041   3.635
   36DPPC  H13Y 4670   1.341   3.935   3.771
   36DPPC  C314 4671   1.236   4.114   3.832
   36DPPC  H14X 4672   1.209   4.073   3.932
   36DPPC  H14Y 4673   1.152   4.177   3.797
   36DPPC  C315 4674   1.361   4.202   3.849
   36DPPC  H15X 4675   1.389   4.243   3.749
   36DPPC  H15Y 4676   1.445   4.138   3.884
   36DPPC  C316 4677   1.343   4.319   3.946
   36DPPC  H16X 4678   1.438   4.376   3.956
   36DPPC  H16Y 4679   1.315   4.281   4.047
   36DPPC  H16Z 4680   1.264   4.388   3.910
   37DPPC     N 4681   0.914   4.032   5.150
   37DPPC   C13 4682   0.839   3.903   5.148
   37DPPC  H13A 4683   0.845   3.856   5.245
   37DPPC  H13B 4684   0.883   3.837   5.074
   37DPPC  H13C 4685   0.736   3.921   5.123
   37DPPC   C14 4686   0.857   4.118   5.256
   37DPPC  H14A 4687   0.753   4.136   5.236
   37DPPC  H14B 4688   0.910   4.213   5.256
   37DPPC  H14C 4689   0.868   4.070   5.352
   37DPPC   C15 4690   1.057   4.003   5.182
   37DPPC  H15A 4691   1.097   3.934   5.108
   37DPPC  H15B 4692   1.064   3.959   5.280
   37DPPC  H15C 4693   1.114   4.095   5.180
   37DPPC   C12 4694   0.902   4.094   5.013
   37DPPC  H12A 4695   0.797   4.113   4.994
   37DPPC  H12B 4696   0.935   4.020   4.941
   37DPPC   C11 4697   0.979   4.225   4.986
   37DPPC  H11A 4698   0.969   4.253   4.878
   37DPPC  H11B 4699   1.088   4.206   5.001
   37DPPC     P 4700   0.815   4.414   5.034
   37DPPC   O13 4701   0.799   4.518   5.137
   37DPPC   O14 4702   0.698   4.326   5.009
   37DPPC   O11 4703   0.862   4.481   4.899
   37DPPC   O12 4704   0.938   4.327   5.075
   37DPPC    C1 4705   0.775   4.542   4.804
   37DPPC    HA 4706   0.828   4.631   4.763
   37DPPC    HB 4707   0.680   4.579   4.850
   37DPPC    C2 4708   0.741   4.449   4.684
   37DPPC    HS 4709   0.660   4.381   4.720
   37DPPC   O21 4710   0.861   4.378   4.647
   37DPPC   C21 4711   0.838   4.256   4.604
   37DPPC   O22 4712   0.728   4.204   4.593
   37DPPC   C22 4713   0.971   4.188   4.570
   37DPPC   H2R 4714   1.028   4.169   4.663
   37DPPC   H2S 4715   1.031   4.256   4.505
   37DPPC    C3 4716   0.686   4.531   4.562
   37DPPC    HX 4717   0.767   4.601   4.533
   37DPPC    HY 4718   0.601   4.593   4.595
   37DPPC   O31 4719   0.655   4.449   4.447
   37DPPC   C31 4720   0.530   4.401   4.444
   37DPPC   O32 4721   0.441   4.435   4.520
   37DPPC   C32 4722   0.516   4.299   4.331
   37DPPC   H2X 4723   0.610   4.240   4.324
   37DPPC   H2Y 4724   0.498   4.353   4.236
   37DPPC   C23 4725   0.946   4.055   4.495
   37DPPC   H3R 4726   0.880   4.076   4.408
   37DPPC   H3S 4727   0.894   3.983   4.561
   37DPPC   C24 4728   1.075   3.992   4.440
   37DPPC   H4R 4729   1.138   4.073   4.396
   37DPPC   H4S 4730   1.048   3.924   4.356
   37DPPC   C25 4731   1.160   3.914   4.543
   37DPPC   H5R 4732   1.175   3.979   4.632
   37DPPC   H5S 4733   1.260   3.896   4.499
   37DPPC   C26 4734   1.102   3.779   4.588
   37DPPC   H6R 4735   1.010   3.797   4.648
   37DPPC   H6S 4736   1.176   3.730   4.655
   37DPPC   C27 4737   1.066   3.679   4.476
   37DPPC   H7R 4738   0.980   3.720   4.419
   37DPPC   H7S 4739   1.033   3.584   4.522
   37DPPC   C28 4740   1.181   3.649   4.377
   37DPPC   H8R 4741   1.265   3.601   4.430
   37DPPC   H8S 4742   1.217   3.746   4.336
   37DPPC   C29 4743   1.138   3.563   4.257
   37DPPC   H9R 4744   1.213   3.576   4.176
   37DPPC   H9S 4745   1.040   3.601   4.219
   37DPPC  C210 4746   1.125   3.413   4.286
   37DPPC  H10R 4747   1.059   3.396   4.374
   37DPPC  H10S 4748   1.226   3.374   4.311
   37DPPC  C211 4749   1.069   3.335   4.166
   37DPPC  H11R 4750   1.113   3.376   4.073
   37DPPC  H11S 4751   0.959   3.351   4.161
   37DPPC  C212 4752   1.099   3.184   4.172
   37DPPC  H12R 4753   1.074   3.147   4.274
   37DPPC  H12S 4754   1.208   3.171   4.156
   37DPPC  C213 4755   1.023   3.098   4.070
   37DPPC  H13R 4756   0.915   3.097   4.097
   37DPPC  H13S 4757   1.060   2.993   4.079
   37DPPC  C214 4758   1.036   3.142   3.923
   37DPPC  H14R 4759   0.991   3.243   3.911
   37DPPC  H14S 4760   0.976   3.072   3.861
   37DPPC  C215 4761   1.180   3.143   3.869
   37DPPC  H15R 4762   1.225   3.044   3.889
   37DPPC  H15S 4763   1.239   3.219   3.925
   37DPPC  C216 4764   1.190   3.173   3.719
   37DPPC  H16R 4765   1.296   3.173   3.687
   37DPPC  H16S 4766   1.146   3.272   3.697
   37DPPC  H16T 4767   1.135   3.096   3.661
   37DPPC   C33 4768   0.399   4.203   4.362
   37DPPC   H3X 4769   0.303   4.260   4.365
   37DPPC   H3Y 4770   0.415   4.158   4.462
   37DPPC   C34 4771   0.385   4.088   4.261
   37DPPC   H4X 4772   0.312   4.015   4.302
   37DPPC   H4Y 4773   0.483   4.036   4.252
   37DPPC   C35 4774   0.337   4.131   4.122
   37DPPC   H5X 4775   0.410   4.201   4.077
   37DPPC   H5Y 4776   0.240   4.185   4.134
   37DPPC   C36 4777   0.316   4.013   4.026
   37DPPC   H6X 4778   0.247   3.940   4.074
   37DPPC   H6Y 4779   0.413   3.962   4.008
   37DPPC   C37 4780   0.255   4.055   3.891
   37DPPC   H7X 4781   0.323   4.129   3.843
   37DPPC   H7Y 4782   0.158   4.106   3.910
   37DPPC   C38 4783   0.232   3.939   3.794
   37DPPC   H8X 4784   0.175   3.858   3.845
   37DPPC   H8Y 4785   0.331   3.898   3.764
   37DPPC   C39 4786   0.155   3.981   3.668
   37DPPC   H9X 4787   0.201   4.075   3.629
   37DPPC   H9Y 4788   0.050   4.004   3.695
   37DPPC  C310 4789   0.158   3.877   3.555
   37DPPC  H10X 4790   0.109   3.783   3.589
   37DPPC  H10Y 4791   0.265   3.854   3.533
   37DPPC  C311 4792   0.090   3.927   3.426
   37DPPC  H11X 4793   0.132   4.027   3.401
   37DPPC  H11Y 4794   6.284   3.941   3.447
   37DPPC  C312 4795   0.106   3.836   3.303
   37DPPC  H12X 4796   0.054   3.884   3.218
   37DPPC  H12Y 4797   0.058   3.738   3.323
   37DPPC  C313 4798   0.253   3.813   3.263
   37DPPC  H13X 4799   0.300   3.745   3.338
   37DPPC  H13Y 4800   0.307   3.910   3.267
   37DPPC  C314 4801   0.271   3.752   3.123
   37DPPC  H14X 4802   0.232   3.824   3.048
   37DPPC  H14Y 4803   0.212   3.659   3.116
   37DPPC  C315 4804   0.418   3.722   3.091
   37DPPC  H15X 4805   0.456   3.646   3.163
   37DPPC  H15Y 4806   0.478   3.814   3.105
   37DPPC  C316 4807   0.442   3.669   2.948
   37DPPC  H16X 4808   0.414   3.747   2.874
   37DPPC  H16Y 4809   0.549   3.644   2.934
   37DPPC  H16Z 4810   0.381   3.579   2.930
   38DPPC     N 4811   3.088   4.084   5.542
   38DPPC   C13 4812   3.012   4.212   5.534
   38DPPC  H13A 4813   2.906   4.190   5.530
   38DPPC  H13B 4814   3.041   4.266   5.446
   38DPPC  H13C 4815   3.031   4.272   5.622
   38DPPC   C14 4816   3.233   4.117   5.557
   38DPPC  H14A 4817   3.246   4.182   5.643
   38DPPC  H14B 4818   3.267   4.169   5.468
   38DPPC  H14C 4819   3.290   4.027   5.569
   38DPPC   C15 4820   3.045   4.008   5.662
   38DPPC  H15A 4821   3.057   4.069   5.751
   38DPPC  H15B 4822   3.103   3.917   5.672
   38DPPC  H15C 4823   2.941   3.981   5.651
   38DPPC   C12 4824   3.069   4.002   5.418
   38DPPC  H12A 4825   3.120   3.907   5.433
   38DPPC  H12B 4826   3.119   4.052   5.336
   38DPPC   C11 4827   2.925   3.971   5.372
   38DPPC  H11A 4828   2.932   3.901   5.286
   38DPPC  H11B 4829   2.879   4.067   5.338
   38DPPC     P 4830   2.695   3.905   5.460
   38DPPC   O13 4831   2.640   4.030   5.518
   38DPPC   O14 4832   2.645   3.777   5.516
   38DPPC   O11 4833   2.678   3.907   5.303
   38DPPC   O12 4834   2.851   3.910   5.477
   38DPPC    C1 4835   2.581   3.830   5.231
   38DPPC    HA 4836   2.560   3.882   5.135
   38DPPC    HB 4837   2.484   3.825   5.285
   38DPPC    C2 4838   2.625   3.684   5.193
   38DPPC    HS 4839   2.603   3.621   5.282
   38DPPC   O21 4840   2.767   3.684   5.166
   38DPPC   C21 4841   2.819   3.563   5.168
   38DPPC   O22 4842   2.757   3.460   5.187
   38DPPC   C22 4843   2.970   3.573   5.143
   38DPPC   H2R 4844   3.022   3.504   5.212
   38DPPC   H2S 4845   3.004   3.676   5.163
   38DPPC    C3 4846   2.541   3.630   5.071
   38DPPC    HX 4847   2.434   3.642   5.100
   38DPPC    HY 4848   2.557   3.521   5.059
   38DPPC   O31 4849   2.563   3.706   4.950
   38DPPC   C31 4850   2.626   3.645   4.851
   38DPPC   O32 4851   2.676   3.533   4.857
   38DPPC   C32 4852   2.627   3.735   4.727
   38DPPC   H2X 4853   2.685   3.827   4.751
   38DPPC   H2Y 4854   2.522   3.764   4.704
   38DPPC   C23 4855   3.002   3.534   4.997
   38DPPC   H3R 4856   2.937   3.593   4.929
   38DPPC   H3S 4857   2.980   3.426   4.981
   38DPPC   C24 4858   3.148   3.562   4.960
   38DPPC   H4R 4859   3.214   3.509   5.032
   38DPPC   H4S 4860   3.167   3.671   4.971
   38DPPC   C25 4861   3.188   3.519   4.817
   38DPPC   H5R 4862   3.184   3.408   4.811
   38DPPC   H5S 4863   3.293   3.550   4.800
   38DPPC   C26 4864   3.100   3.575   4.705
   38DPPC   H6R 4865   3.090   3.685   4.717
   38DPPC   H6S 4866   2.998   3.531   4.712
   38DPPC   C27 4867   3.156   3.547   4.565
   38DPPC   H7R 4868   3.175   3.438   4.554
   38DPPC   H7S 4869   3.253   3.601   4.553
   38DPPC   C28 4870   3.060   3.591   4.453
   38DPPC   H8R 4871   3.035   3.699   4.467
   38DPPC   H8S 4872   2.966   3.533   4.463
   38DPPC   C29 4873   3.115   3.572   4.311
   38DPPC   H9R 4874   3.150   3.467   4.299
   38DPPC   H9S 4875   3.202   3.639   4.296
   38DPPC  C210 4876   3.008   3.602   4.205
   38DPPC  H10R 4877   2.967   3.704   4.222
   38DPPC  H10S 4878   2.925   3.529   4.219
   38DPPC  C211 4879   3.057   3.592   4.060
   38DPPC  H11R 4880   3.106   3.494   4.043
   38DPPC  H11S 4881   3.132   3.672   4.041
   38DPPC  C212 4882   2.940   3.607   3.960
   38DPPC  H12R 4883   2.885   3.701   3.982
   38DPPC  H12S 4884   2.871   3.522   3.977
   38DPPC  C213 4885   2.983   3.608   3.813
   38DPPC  H13R 4886   3.039   3.515   3.790
   38DPPC  H13S 4887   3.051   3.694   3.796
   38DPPC  C214 4888   2.865   3.620   3.715
   38DPPC  H14R 4889   2.905   3.638   3.613
   38DPPC  H14S 4890   2.803   3.708   3.743
   38DPPC  C215 4891   2.775   3.495   3.710
   38DPPC  H15R 4892   2.733   3.476   3.811
   38DPPC  H15S 4893   2.838   3.408   3.682
   38DPPC  C216 4894   2.659   3.506   3.610
   38DPPC  H16R 4895   2.697   3.524   3.508
   38DPPC  H16S 4896   2.591   3.590   3.638
   38DPPC  H16T 4897   2.600   3.412   3.610
   38DPPC   C33 4898   2.689   3.663   4.606
   38DPPC   H3X 4899   2.633   3.569   4.588
   38DPPC   H3Y 4900   2.795   3.637   4.630
   38DPPC   C34 4901   2.687   3.745   4.476
   38DPPC   H4X 4902   2.581   3.766   4.447
   38DPPC   H4Y 4903   2.733   3.684   4.395
   38DPPC   C35 4904   2.763   3.879   4.484
   38DPPC   H5X 4905   2.865   3.859   4.525
   38DPPC   H5Y 4906   2.711   3.947   4.555
   38DPPC   C36 4907   2.778   3.950   4.349
   38DPPC   H6X 4908   2.677   3.967   4.306
   38DPPC   H6Y 4909   2.834   3.884   4.279
   38DPPC   C37 4910   2.851   4.084   4.361
   38DPPC   H7X 4911   2.949   4.068   4.410
   38DPPC   H7Y 4912   2.791   4.151   4.427
   38DPPC   C38 4913   2.874   4.157   4.227
   38DPPC   H8X 4914   2.776   4.168   4.175
   38DPPC   H8Y 4915   2.940   4.095   4.163
   38DPPC   C39 4916   2.937   4.295   4.247
   38DPPC   H9X 4917   3.032   4.283   4.303
   38DPPC   H9Y 4918   2.869   4.357   4.308
   38DPPC  C310 4919   2.968   4.371   4.116
   38DPPC  H10X 4920   2.875   4.380   4.056
   38DPPC  H10Y 4921   3.041   4.311   4.058
   38DPPC  C311 4922   3.027   4.510   4.142
   38DPPC  H11X 4923   3.105   4.501   4.221
   38DPPC  H11Y 4924   2.947   4.576   4.182
   38DPPC  C312 4925   3.091   4.577   4.019
   38DPPC  H12X 4926   3.176   4.514   3.985
   38DPPC  H12Y 4927   3.133   4.675   4.051
   38DPPC  C313 4928   2.996   4.600   3.901
   38DPPC  H13X 4929   2.911   4.664   3.935
   38DPPC  H13Y 4930   2.954   4.503   3.867
   38DPPC  C314 4931   3.064   4.668   3.782
   38DPPC  H14X 4932   3.148   4.604   3.747
   38DPPC  H14Y 4933   3.108   4.765   3.816
   38DPPC  C315 4934   2.969   4.696   3.664
   38DPPC  H15X 4935   2.887   4.761   3.700
   38DPPC  H15Y 4936   2.924   4.599   3.632
   38DPPC  C316 4937   3.036   4.762   3.544
   38DPPC  H16X 4938   3.079   4.860   3.573
   38DPPC  H16Y 4939   2.962   4.779   3.463
   38DPPC  H16Z 4940   3.118   4.698   3.504
   39DPPC     N 4941   0.635   6.125   5.197
   39DPPC   C13 4942   0.500   6.097   5.252
   39DPPC  H13A 4943   0.455   6.014   5.199
   39DPPC  H13B 4944   0.437   6.184   5.243
   39DPPC  H13C 4945   0.508   6.068   5.356
   39DPPC   C14 4946   0.717   6.000   5.204
   39DPPC  H14A 4947   0.812   6.017   5.156
   39DPPC  H14B 4948   0.667   5.920   5.152
   39DPPC  H14C 4949   0.731   5.971   5.307
   39DPPC   C15 4950   0.623   6.164   5.054
   39DPPC  H15A 4951   0.572   6.259   5.046
   39DPPC  H15B 4952   0.569   6.088   4.999
   39DPPC  H15C 4953   0.722   6.173   5.011
   39DPPC   C12 4954   0.706   6.231   5.278
   39DPPC  H12A 4955   0.806   6.242   5.237
   39DPPC  H12B 4956   0.715   6.193   5.379
   39DPPC   C11 4957   0.644   6.373   5.287
   39DPPC  H11A 4958   0.707   0.007   5.362
   39DPPC  H11B 4959   0.540   6.366   5.325
   39DPPC     P 4960   0.612   0.172   5.165
   39DPPC   O13 4961   0.703   0.243   5.258
   39DPPC   O14 4962   0.467   0.188   5.190
   39DPPC   O11 4963   0.644   0.221   5.018
   39DPPC   O12 4964   0.649   0.019   5.160
   39DPPC    C1 4965   0.756   0.165   4.948
   39DPPC    HA 4966   0.736   0.059   4.922
   39DPPC    HB 4967   0.848   0.167   5.011
   39DPPC    C2 4968   0.784   0.240   4.814
   39DPPC    HS 4969   0.865   0.186   4.760
   39DPPC   O21 4970   0.819   0.378   4.836
   39DPPC   C21 4971   0.941   0.394   4.885
   39DPPC   O22 4972   1.018   0.303   4.913
   39DPPC   C22 4973   0.971   0.543   4.901
   39DPPC   H2R 4974   0.972   0.566   5.010
   39DPPC   H2S 4975   0.893   0.604   4.852
   39DPPC    C3 4976   0.656   0.235   4.724
   39DPPC    HX 4977   0.582   0.310   4.760
   39DPPC    HY 4978   0.610   0.135   4.741
   39DPPC   O31 4979   0.683   0.245   4.582
   39DPPC   C31 4980   0.682   0.368   4.531
   39DPPC   O32 4981   0.660   0.470   4.594
   39DPPC   C32 4982   0.705   0.361   4.381
   39DPPC   H2X 4983   0.610   0.385   4.329
   39DPPC   H2Y 4984   0.735   0.258   4.352
   39DPPC   C23 4985   1.108   0.576   4.840
   39DPPC   H3R 4986   1.185   0.505   4.877
   39DPPC   H3S 4987   1.138   0.678   4.873
   39DPPC   C24 4988   1.108   0.575   4.686
   39DPPC   H4R 4989   1.041   0.656   4.649
   39DPPC   H4S 4990   1.068   0.478   4.651
   39DPPC   C25 4991   1.248   0.594   4.626
   39DPPC   H5R 4992   1.316   0.518   4.669
   39DPPC   H5S 4993   1.287   0.695   4.653
   39DPPC   C26 4994   1.247   0.579   4.473
   39DPPC   H6R 4995   1.184   0.658   4.428
   39DPPC   H6S 4996   1.201   0.481   4.449
   39DPPC   C27 4997   1.387   0.582   4.410
   39DPPC   H7R 4998   1.453   0.510   4.462
   39DPPC   H7S 4999   1.430   0.684   4.422
   39DPPC   C28 5000   1.382   0.545   4.261
   39DPPC   H8R 5001   1.312   0.614   4.210
   39DPPC   H8S 5002   1.339   0.442   4.253
   39DPPC   C29 5003   1.517   0.547   4.189
   39DPPC   H9R 5004   1.504   0.491   4.093
   39DPPC   H9S 5005   1.594   0.494   4.249
   39DPPC  C210 5006   1.566   0.688   4.154
   39DPPC  H10R 5007   1.597   0.741   4.246
   39DPPC  H10S 5008   1.480   0.744   4.109
   39DPPC  C211 5009   1.681   0.689   4.052
   39DPPC  H11R 5010   1.656   0.617   3.971
   39DPPC  H11S 5011   1.775   0.654   4.101
   39DPPC  C212 5012   1.703   0.827   3.988
   39DPPC  H12R 5013   1.737   0.899   4.065
   39DPPC  H12S 5014   1.605   0.861   3.950
   39DPPC  C213 5015   1.804   0.823   3.872
   39DPPC  H13R 5016   1.783   0.734   3.808
   39DPPC  H13S 5017   1.906   0.812   3.913
   39DPPC  C214 5018   1.800   0.948   3.781
   39DPPC  H14R 5019   1.883   0.939   3.707
   39DPPC  H14S 5020   1.817   1.039   3.841
   39DPPC  C215 5021   1.668   0.963   3.702
   39DPPC  H15R 5022   1.586   0.987   3.773
   39DPPC  H15S 5023   1.644   0.865   3.654
   39DPPC  C216 5024   1.671   1.070   3.593
   39DPPC  H16R 5025   1.572   1.078   3.544
   39DPPC  H16S 5026   1.746   1.044   3.516
   39DPPC  H16T 5027   1.697   1.169   3.637
   39DPPC   C33 5028   0.815   0.460   4.336
   39DPPC   H3X 5029   0.907   0.441   4.396
   39DPPC   H3Y 5030   0.782   0.564   4.354
   39DPPC   C34 5031   0.850   0.442   4.187
   39DPPC   H4X 5032   0.760   0.464   4.125
   39DPPC   H4Y 5033   0.877   0.336   4.171
   39DPPC   C35 5034   0.967   0.529   4.138
   39DPPC   H5X 5035   1.052   0.519   4.210
   39DPPC   H5Y 5036   0.935   0.636   4.137
   39DPPC   C36 5037   1.017   0.488   3.999
   39DPPC   H6X 5038   0.933   0.494   3.926
   39DPPC   H6Y 5039   1.050   0.382   4.004
   39DPPC   C37 5040   1.134   0.573   3.946
   39DPPC   H7X 5041   1.212   0.578   4.025
   39DPPC   H7Y 5042   1.098   0.677   3.927
   39DPPC   C38 5043   1.198   0.514   3.820
   39DPPC   H8X 5044   1.122   0.511   3.739
   39DPPC   H8Y 5045   1.228   0.409   3.842
   39DPPC   C39 5046   1.324   0.589   3.771
   39DPPC   H9X 5047   1.362   0.536   3.681
   39DPPC   H9Y 5048   1.402   0.582   3.849
   39DPPC  C310 5049   1.302   0.737   3.735
   39DPPC  H10X 5050   1.399   0.779   3.699
   39DPPC  H10Y 5051   1.274   0.793   3.827
   39DPPC  C311 5052   1.196   0.762   3.627
   39DPPC  H11X 5053   1.098   0.722   3.663
   39DPPC  H11Y 5054   1.223   0.706   3.535
   39DPPC  C312 5055   1.178   0.911   3.594
   39DPPC  H12X 5056   1.270   0.950   3.547
   39DPPC  H12Y 5057   1.163   0.965   3.690
   39DPPC  C313 5058   1.057   0.941   3.504
   39DPPC  H13X 5059   1.046   1.052   3.496
   39DPPC  H13Y 5060   0.965   0.902   3.553
   39DPPC  C314 5061   1.068   0.884   3.361
   39DPPC  H14X 5062   1.075   0.774   3.366
   39DPPC  H14Y 5063   1.161   0.924   3.315
   39DPPC  C315 5064   0.949   0.922   3.271
   39DPPC  H15X 5065   0.972   0.888   3.167
   39DPPC  H15Y 5066   0.941   1.033   3.267
   39DPPC  C316 5067   0.815   0.863   3.312
   39DPPC  H16X 5068   0.821   0.752   3.316
   39DPPC  H16Y 5069   0.736   0.891   3.239
   39DPPC  H16Z 5070   0.784   0.901   3.412
   40DPPC     N 5071   1.673   2.029   5.680
   40DPPC   C13 5072   1.800   1.982   5.618
   40DPPC  H13A 5073   1.847   2.065   5.567
   40DPPC  H13B 5074   1.778   1.903   5.547
   40DPPC  H13C 5075   1.866   1.945   5.695
   40DPPC   C14 5076   1.612   1.918   5.758
   40DPPC  H14A 5077   1.522   1.955   5.807
   40DPPC  H14B 5078   1.681   1.882   5.832
   40DPPC  H14C 5079   1.584   1.837   5.691
   40DPPC   C15 5080   1.706   2.139   5.775
   40DPPC  H15A 5081   1.777   2.104   5.848
   40DPPC  H15B 5082   1.615   2.171   5.824
   40DPPC  H15C 5083   1.748   2.222   5.720
   40DPPC   C12 5084   1.577   2.080   5.576
   40DPPC  H12A 5085   1.628   2.157   5.519
   40DPPC  H12B 5086   1.495   2.128   5.629
   40DPPC   C11 5087   1.515   1.979   5.477
   40DPPC  H11A 5088   1.449   2.037   5.407
   40DPPC  H11B 5089   1.451   1.909   5.535
   40DPPC     P 5090   1.569   1.789   5.320
   40DPPC   O13 5091   1.426   1.806   5.286
   40DPPC   O14 5092   1.605   1.665   5.393
   40DPPC   O11 5093   1.655   1.800   5.188
   40DPPC   O12 5094   1.617   1.912   5.405
   40DPPC    C1 5095   1.679   1.927   5.125
   40DPPC    HA 5096   1.754   1.911   5.044
   40DPPC    HB 5097   1.723   2.000   5.196
   40DPPC    C2 5098   1.552   1.989   5.058
   40DPPC    HS 5099   1.486   2.020   5.142
   40DPPC   O21 5100   1.491   1.886   4.978
   40DPPC   C21 5101   1.365   1.911   4.953
   40DPPC   O22 5102   1.305   2.011   4.989
   40DPPC   C22 5103   1.304   1.798   4.871
   40DPPC   H2R 5104   1.378   1.718   4.853
   40DPPC   H2S 5105   1.272   1.840   4.773
   40DPPC    C3 5106   1.587   2.116   4.974
   40DPPC    HX 5107   1.641   2.183   5.045
   40DPPC    HY 5108   1.494   2.167   4.943
   40DPPC   O31 5109   1.666   2.084   4.856
   40DPPC   C31 5110   1.747   2.182   4.816
   40DPPC   O32 5111   1.766   2.286   4.878
   40DPPC   C32 5112   1.810   2.146   4.682
   40DPPC   H2X 5113   1.731   2.107   4.614
   40DPPC   H2Y 5114   1.885   2.066   4.698
   40DPPC   C23 5115   1.181   1.741   4.944
   40DPPC   H3R 5116   1.107   1.822   4.963
   40DPPC   H3S 5117   1.213   1.699   5.042
   40DPPC   C24 5118   1.113   1.631   4.862
   40DPPC   H4R 5119   1.185   1.548   4.845
   40DPPC   H4S 5120   1.084   1.672   4.763
   40DPPC   C25 5121   0.988   1.574   4.931
   40DPPC   H5R 5122   0.911   1.653   4.938
   40DPPC   H5S 5123   1.015   1.543   5.034
   40DPPC   C26 5124   0.928   1.452   4.859
   40DPPC   H6R 5125   0.840   1.417   4.917
   40DPPC   H6S 5126   1.003   1.369   4.859
   40DPPC   C27 5127   0.884   1.478   4.714
   40DPPC   H7R 5128   0.972   1.504   4.652
   40DPPC   H7S 5129   0.814   1.565   4.713
   40DPPC   C28 5130   0.813   1.357   4.654
   40DPPC   H8R 5131   0.731   1.329   4.723
   40DPPC   H8S 5132   0.884   1.271   4.650
   40DPPC   C29 5133   0.752   1.379   4.515
   40DPPC   H9R 5134   0.689   1.471   4.515
   40DPPC   H9S 5135   0.684   1.293   4.497
   40DPPC  C210 5136   0.852   1.384   4.399
   40DPPC  H10R 5137   0.926   1.302   4.412
   40DPPC  H10S 5138   0.906   1.481   4.399
   40DPPC  C211 5139   0.781   1.363   4.264
   40DPPC  H11R 5140   0.705   1.443   4.250
   40DPPC  H11S 5141   0.726   1.266   4.268
   40DPPC  C212 5142   0.874   1.361   4.142
   40DPPC  H12R 5143   0.954   1.286   4.160
   40DPPC  H12S 5144   0.921   1.460   4.130
   40DPPC  C213 5145   0.799   1.323   4.014
   40DPPC  H13R 5146   0.715   1.394   3.998
   40DPPC  H13S 5147   0.755   1.221   4.028
   40DPPC  C214 5148   0.886   1.321   3.888
   40DPPC  H14R 5149   0.973   1.255   3.905
   40DPPC  H14S 5150   0.925   1.424   3.869
   40DPPC  C215 5151   0.811   1.272   3.763
   40DPPC  H15R 5152   0.722   1.337   3.747
   40DPPC  H15S 5153   0.773   1.169   3.784
   40DPPC  C216 5154   0.895   1.269   3.636
   40DPPC  H16R 5155   0.837   1.226   3.551
   40DPPC  H16S 5156   0.985   1.206   3.651
   40DPPC  H16T 5157   0.927   1.371   3.608
   40DPPC   C33 5158   1.876   2.270   4.620
   40DPPC   H3X 5159   1.958   2.306   4.686
   40DPPC   H3Y 5160   1.800   2.351   4.612
   40DPPC   C34 5161   1.932   2.245   4.479
   40DPPC   H4X 5162   1.849   2.209   4.415
   40DPPC   H4Y 5163   2.009   2.165   4.484
   40DPPC   C35 5164   1.994   2.372   4.417
   40DPPC   H5X 5165   2.079   2.405   4.481
   40DPPC   H5Y 5166   1.918   2.453   4.418
   40DPPC   C36 5167   2.046   2.354   4.273
   40DPPC   H6X 5168   2.131   2.282   4.275
   40DPPC   H6Y 5169   2.086   2.451   4.238
   40DPPC   C37 5170   1.942   2.304   4.171
   40DPPC   H7X 5171   1.911   2.200   4.198
   40DPPC   H7Y 5172   1.991   2.298   4.071
   40DPPC   C38 5173   1.816   2.391   4.159
   40DPPC   H8X 5174   1.845   2.492   4.122
   40DPPC   H8Y 5175   1.771   2.404   4.259
   40DPPC   C39 5176   1.707   2.332   4.067
   40DPPC   H9X 5177   1.618   2.399   4.070
   40DPPC   H9Y 5178   1.675   2.234   4.110
   40DPPC  C310 5179   1.748   2.310   3.921
   40DPPC  H10X 5180   1.662   2.262   3.868
   40DPPC  H10Y 5181   1.834   2.240   3.916
   40DPPC  C311 5182   1.783   2.440   3.846
   40DPPC  H11X 5183   1.875   2.485   3.890
   40DPPC  H11Y 5184   1.699   2.512   3.860
   40DPPC  C312 5185   1.804   2.421   3.694
   40DPPC  H12X 5186   1.813   2.522   3.648
   40DPPC  H12Y 5187   1.714   2.372   3.651
   40DPPC  C313 5188   1.929   2.340   3.657
   40DPPC  H13X 5189   1.923   2.239   3.703
   40DPPC  H13Y 5190   2.018   2.391   3.701
   40DPPC  C314 5191   1.949   2.327   3.505
   40DPPC  H14X 5192   1.945   2.428   3.460
   40DPPC  H14Y 5193   1.865   2.267   3.463
   40DPPC  C315 5194   2.082   2.261   3.464
   40DPPC  H15X 5195   2.166   2.320   3.507
   40DPPC  H15Y 5196   2.090   2.266   3.353
   40DPPC  C316 5197   2.098   2.115   3.507
   40DPPC  H16X 5198   2.195   2.074   3.469
   40DPPC  H16Y 5199   2.016   2.053   3.465
   40DPPC  H16Z 5200   2.097   2.106   3.617
   41DPPC     N 5201   1.819   4.884   5.212
   41DPPC   C13 5202   1.767   4.763   5.281
   41DPPC  H13A 5203   1.681   4.789   5.342
   41DPPC  H13B 5204   1.844   4.720   5.344
   41DPPC  H13C 5205   1.737   4.689   5.208
   41DPPC   C14 5206   1.713   4.935   5.121
   41DPPC  H14A 5207   1.623   4.956   5.178
   41DPPC  H14B 5208   1.691   4.859   5.047
   41DPPC  H14C 5209   1.745   5.024   5.071
   41DPPC   C15 5210   1.851   4.987   5.315
   41DPPC  H15A 5211   1.761   5.013   5.370
   41DPPC  H15B 5212   1.891   5.075   5.266
   41DPPC  H15C 5213   1.925   4.949   5.384
   41DPPC   C12 5214   1.942   4.847   5.133
   41DPPC  H12A 5215   1.915   4.765   5.069
   41DPPC  H12B 5216   2.016   4.810   5.203
   41DPPC   C11 5217   2.009   4.956   5.046
   41DPPC  H11A 5218   1.934   4.994   4.973
   41DPPC  H11B 5219   2.089   4.908   4.984
   41DPPC     P 5220   2.202   5.057   5.179
   41DPPC   O13 5221   2.218   4.936   5.264
   41DPPC   O14 5222   2.238   5.186   5.243
   41DPPC   O11 5223   2.290   5.037   5.050
   41DPPC   O12 5224   2.055   5.065   5.124
   41DPPC    C1 5225   2.330   5.149   4.970
   41DPPC    HA 5226   2.411   5.116   4.902
   41DPPC    HB 5227   2.373   5.231   5.032
   41DPPC    C2 5228   2.218   5.210   4.879
   41DPPC    HS 5229   2.140   5.253   4.946
   41DPPC   O21 5230   2.164   5.103   4.799
   41DPPC   C21 5231   2.050   5.136   4.740
   41DPPC   O22 5232   1.992   5.242   4.757
   41DPPC   C22 5233   2.006   5.025   4.645
   41DPPC   H2R 5234   2.064   4.933   4.668
   41DPPC   H2S 5235   2.029   5.054   4.540
   41DPPC    C3 5236   2.279   5.324   4.792
   41DPPC    HX 5237   2.323   5.399   4.861
   41DPPC    HY 5238   2.198   5.373   4.734
   41DPPC   O31 5239   2.381   5.270   4.706
   41DPPC   C31 5240   2.427   5.355   4.615
   41DPPC   O32 5241   2.388   5.470   4.600
   41DPPC   C32 5242   2.534   5.283   4.534
   41DPPC   H2X 5243   2.499   5.181   4.507
   41DPPC   H2Y 5244   2.624   5.273   4.598
   41DPPC   C23 5245   1.856   4.993   4.660
   41DPPC   H3R 5246   1.827   4.993   4.767
   41DPPC   H3S 5247   1.839   4.890   4.622
   41DPPC   C24 5248   1.762   5.086   4.581
   41DPPC   H4R 5249   1.785   5.078   4.472
   41DPPC   H4S 5250   1.779   5.191   4.612
   41DPPC   C25 5251   1.614   5.051   4.604
   41DPPC   H5R 5252   1.595   5.058   4.714
   41DPPC   H5S 5253   1.593   4.947   4.573
   41DPPC   C26 5254   1.514   5.146   4.535
   41DPPC   H6R 5255   1.546   5.251   4.549
   41DPPC   H6S 5256   1.416   5.133   4.585
   41DPPC   C27 5257   1.492   5.118   4.385
   41DPPC   H7R 5258   1.468   5.010   4.374
   41DPPC   H7S 5259   1.585   5.139   4.328
   41DPPC   C28 5260   1.375   5.198   4.327
   41DPPC   H8R 5261   1.404   5.305   4.316
   41DPPC   H8S 5262   1.293   5.194   4.403
   41DPPC   C29 5263   1.317   5.144   4.195
   41DPPC   H9R 5264   1.220   5.195   4.178
   41DPPC   H9S 5265   1.297   5.035   4.205
   41DPPC  C210 5266   1.405   5.170   4.072
   41DPPC  H10R 5267   1.502   5.117   4.084
   41DPPC  H10S 5268   1.426   5.279   4.066
   41DPPC  C211 5269   1.338   5.124   3.941
   41DPPC  H11R 5270   1.233   5.163   3.941
   41DPPC  H11S 5271   1.332   5.013   3.939
   41DPPC  C212 5272   1.408   5.175   3.814
   41DPPC  H12R 5273   1.511   5.135   3.810
   41DPPC  H12S 5274   1.414   5.286   3.820
   41DPPC  C213 5275   1.333   5.136   3.685
   41DPPC  H13R 5276   1.226   5.161   3.698
   41DPPC  H13S 5277   1.342   5.026   3.670
   41DPPC  C214 5278   1.385   5.210   3.561
   41DPPC  H14R 5279   1.493   5.189   3.546
   41DPPC  H14S 5280   1.374   5.320   3.579
   41DPPC  C215 5281   1.308   5.176   3.432
   41DPPC  H15R 5282   1.335   5.251   3.354
   41DPPC  H15S 5283   1.199   5.187   3.451
   41DPPC  C216 5284   1.336   5.036   3.375
   41DPPC  H16R 5285   1.277   5.020   3.283
   41DPPC  H16S 5286   1.309   4.958   3.449
   41DPPC  H16T 5287   1.444   5.026   3.350
   41DPPC   C33 5288   2.571   5.361   4.407
   41DPPC   H3X 5289   2.662   5.314   4.363
   41DPPC   H3Y 5290   2.596   5.466   4.431
   41DPPC   C34 5291   2.461   5.357   4.300
   41DPPC   H4X 5292   2.366   5.398   4.341
   41DPPC   H4Y 5293   2.444   5.251   4.272
   41DPPC   C35 5294   2.499   5.439   4.176
   41DPPC   H5X 5295   2.596   5.400   4.136
   41DPPC   H5Y 5296   2.515   5.545   4.206
   41DPPC   C36 5297   2.395   5.434   4.063
   41DPPC   H6X 5298   2.435   5.492   3.977
   41DPPC   H6Y 5299   2.301   5.484   4.097
   41DPPC   C37 5300   2.364   5.291   4.018
   41DPPC   H7X 5301   2.300   5.241   4.093
   41DPPC   H7Y 5302   2.461   5.236   4.012
   41DPPC   C38 5303   2.298   5.285   3.880
   41DPPC   H8X 5304   2.296   5.179   3.847
   41DPPC   H8Y 5305   2.360   5.342   3.808
   41DPPC   C39 5306   2.154   5.338   3.879
   41DPPC   H9X 5307   2.150   5.441   3.920
   41DPPC   H9Y 5308   2.092   5.272   3.944
   41DPPC  C310 5309   2.094   5.337   3.738
   41DPPC  H10X 5310   1.983   5.335   3.745
   41DPPC  H10Y 5311   2.127   5.244   3.686
   41DPPC  C311 5312   2.136   5.458   3.653
   41DPPC  H11X 5313   2.247   5.458   3.647
   41DPPC  H11Y 5314   2.103   5.552   3.703
   41DPPC  C312 5315   2.077   5.453   3.510
   41DPPC  H12X 5316   1.966   5.459   3.517
   41DPPC  H12Y 5317   2.104   5.356   3.464
   41DPPC  C313 5318   2.127   5.567   3.419
   41DPPC  H13X 5319   2.096   5.664   3.463
   41DPPC  H13Y 5320   2.077   5.557   3.320
   41DPPC  C314 5321   2.279   5.567   3.398
   41DPPC  H14X 5322   2.311   5.469   3.358
   41DPPC  H14Y 5323   2.330   5.582   3.496
   41DPPC  C315 5324   2.327   5.678   3.304
   41DPPC  H15X 5325   2.285   5.775   3.340
   41DPPC  H15Y 5326   2.286   5.660   3.202
   41DPPC  C316 5327   2.480   5.690   3.296
   41DPPC  H16X 5328   2.509   5.772   3.227
   41DPPC  H16Y 5329   2.522   5.712   3.397
   41DPPC  H16Z 5330   2.524   5.595   3.260
   42DPPC     N 5331   4.127   0.168   5.326
   42DPPC   C13 5332   4.171   0.310   5.315
   42DPPC  H13A 5333   4.235   0.335   5.398
   42DPPC  H13B 5334   4.084   0.374   5.317
   42DPPC  H13C 5335   4.224   0.325   5.223
   42DPPC   C14 5336   4.045   0.138   5.206
   42DPPC  H14A 5337   3.960   0.205   5.202
   42DPPC  H14B 5338   4.009   0.036   5.212
   42DPPC  H14C 5339   4.105   0.149   5.116
   42DPPC   C15 5340   4.249   0.082   5.328
   42DPPC  H15A 5341   4.310   0.106   5.414
   42DPPC  H15B 5342   4.306   0.098   5.238
   42DPPC  H15C 5343   4.219   6.396   5.333
   42DPPC   C12 5344   4.046   0.150   5.452
   42DPPC  H12A 5345   3.958   0.212   5.443
   42DPPC  H12B 5346   4.105   0.189   5.535
   42DPPC   C11 5347   4.000   0.007   5.490
   42DPPC  H11A 5348   3.938   0.015   5.583
   42DPPC  H11B 5349   4.090   6.366   5.516
   42DPPC     P 5350   3.932   6.217   5.360
   42DPPC   O13 5351   3.883   6.141   5.478
   42DPPC   O14 5352   4.070   6.186   5.314
   42DPPC   O11 5353   3.835   6.192   5.239
   42DPPC   O12 5354   3.921   6.370   5.386
   42DPPC    C1 5355   3.720   6.273   5.214
   42DPPC    HA 5356   3.748   6.381   5.203
   42DPPC    HB 5357   3.648   6.264   5.297
   42DPPC    C2 5358   3.651   6.228   5.082
   42DPPC    HS 5359   3.630   6.119   5.092
   42DPPC   O21 5360   3.738   6.259   4.971
   42DPPC   C21 5361   3.816   6.159   4.936
   42DPPC   O22 5362   3.812   6.046   4.982
   42DPPC   C22 5363   3.907   6.206   4.823
   42DPPC   H2R 5364   3.987   6.270   4.865
   42DPPC   H2S 5365   3.847   6.266   4.751
   42DPPC    C3 5366   3.513   6.297   5.058
   42DPPC    HX 5367   3.530   6.406   5.058
   42DPPC    HY 5368   3.446   6.274   5.144
   42DPPC   O31 5369   3.451   6.259   4.932
   42DPPC   C31 5370   3.400   6.135   4.933
   42DPPC   O32 5371   3.402   6.061   5.030
   42DPPC   C32 5372   3.352   6.097   4.794
   42DPPC   H2X 5373   3.438   6.104   4.724
   42DPPC   H2Y 5374   3.273   6.167   4.761
   42DPPC   C23 5375   3.967   6.085   4.750
   42DPPC   H3R 5376   3.885   6.016   4.722
   42DPPC   H3S 5377   4.037   6.030   4.817
   42DPPC   C24 5378   4.039   6.124   4.620
   42DPPC   H4R 5379   3.972   6.191   4.561
   42DPPC   H4S 5380   4.056   6.032   4.561
   42DPPC   C25 5381   4.175   6.193   4.640
   42DPPC   H5R 5382   4.243   6.124   4.694
   42DPPC   H5S 5383   4.163   6.285   4.701
   42DPPC   C26 5384   4.237   6.229   4.504
   42DPPC   H6R 5385   4.178   6.312   4.459
   42DPPC   H6S 5386   4.227   6.141   4.437
   42DPPC   C27 5387   4.385   6.270   4.507
   42DPPC   H7R 5388   4.444   6.185   4.548
   42DPPC   H7S 5389   4.399   6.357   4.574
   42DPPC   C28 5390   4.434   6.304   4.366
   42DPPC   H8R 5391   4.383   6.396   4.332
   42DPPC   H8S 5392   4.404   6.221   4.298
   42DPPC   C29 5393   4.586   6.321   4.353
   42DPPC   H9R 5394   4.635   6.228   4.391
   42DPPC   H9S 5395   4.621   6.406   4.415
   42DPPC  C210 5396   4.629   6.342   4.207
   42DPPC  H10R 5397   4.582   6.263   4.144
   42DPPC  H10S 5398   4.739   6.329   4.200
   42DPPC  C211 5399   4.594   0.063   4.152
   42DPPC  H11R 5400   4.645   0.139   4.215
   42DPPC  H11S 5401   4.484   0.080   4.160
   42DPPC  C212 5402   4.636   0.084   4.005
   42DPPC  H12R 5403   4.742   0.053   3.993
   42DPPC  H12S 5404   4.630   0.193   3.984
   42DPPC  C213 5405   4.547   0.009   3.904
   42DPPC  H13R 5406   4.443   0.048   3.912
   42DPPC  H13S 5407   4.545   6.320   3.930
   42DPPC  C214 5408   4.594   0.022   3.758
   42DPPC  H14R 5409   4.522   6.385   3.693
   42DPPC  H14S 5410   4.693   6.392   3.747
   42DPPC  C215 5411   4.604   0.167   3.706
   42DPPC  H15R 5412   4.681   0.221   3.765
   42DPPC  H15S 5413   4.506   0.218   3.723
   42DPPC  C216 5414   4.640   0.178   3.558
   42DPPC  H16R 5415   4.650   0.285   3.529
   42DPPC  H16S 5416   4.562   0.131   3.495
   42DPPC  H16T 5417   4.737   0.128   3.538
   42DPPC   C33 5418   3.298   5.952   4.795
   42DPPC   H3X 5419   3.198   5.950   4.843
   42DPPC   H3Y 5420   3.366   5.887   4.854
   42DPPC   C34 5421   3.290   5.890   4.655
   42DPPC   H4X 5422   3.393   5.894   4.611
   42DPPC   H4Y 5423   3.223   5.950   4.590
   42DPPC   C35 5424   3.244   5.743   4.657
   42DPPC   H5X 5425   3.133   5.739   4.665
   42DPPC   H5Y 5426   3.286   5.694   4.748
   42DPPC   C36 5427   3.292   5.661   4.536
   42DPPC   H6X 5428   3.260   5.556   4.548
   42DPPC   H6Y 5429   3.404   5.662   4.536
   42DPPC   C37 5430   3.246   5.713   4.398
   42DPPC   H7X 5431   3.297   5.653   4.320
   42DPPC   H7Y 5432   3.278   5.819   4.386
   42DPPC   C38 5433   3.094   5.704   4.372
   42DPPC   H8X 5434   3.075   5.749   4.273
   42DPPC   H8Y 5435   3.040   5.764   4.448
   42DPPC   C39 5436   3.040   5.560   4.373
   42DPPC   H9X 5437   3.054   5.517   4.474
   42DPPC   H9Y 5438   3.098   5.498   4.301
   42DPPC  C310 5439   2.890   5.550   4.338
   42DPPC  H10X 5440   2.834   5.614   4.410
   42DPPC  H10Y 5441   2.858   5.445   4.355
   42DPPC  C311 5442   2.852   5.590   4.194
   42DPPC  H11X 5443   2.878   5.696   4.176
   42DPPC  H11Y 5444   2.742   5.580   4.186
   42DPPC  C312 5445   2.916   5.501   4.086
   42DPPC  H12X 5446   2.912   5.395   4.121
   42DPPC  H12Y 5447   3.023   5.529   4.074
   42DPPC  C313 5448   2.846   5.507   3.949
   42DPPC  H13X 5449   2.742   5.469   3.959
   42DPPC  H13Y 5450   2.900   5.438   3.881
   42DPPC  C314 5451   2.843   5.646   3.883
   42DPPC  H14X 5452   2.938   5.699   3.906
   42DPPC  H14Y 5453   2.760   5.705   3.927
   42DPPC  C315 5454   2.828   5.641   3.730
   42DPPC  H15X 5455   2.923   5.602   3.687
   42DPPC  H15Y 5456   2.815   5.745   3.692
   42DPPC  C316 5457   2.713   5.554   3.677
   42DPPC  H16X 5458   2.729   5.447   3.704
   42DPPC  H16Y 5459   2.708   5.561   3.566
   42DPPC  H16Z 5460   2.616   5.587   3.719
   43DPPC     N 5461   6.149   2.262   5.345
   43DPPC   C13 5462   6.210   2.299   5.475
   43DPPC  H13A 5463   0.012   2.271   5.476
   43DPPC  H13B 5464   6.159   2.248   5.556
   43DPPC  H13C 5465   6.203   2.406   5.490
   43DPPC   C14 5466   6.162   2.115   5.326
   43DPPC  H14A 5467   6.110   2.084   5.237
   43DPPC  H14B 5468   6.117   2.064   5.411
   43DPPC  H14C 5469   6.266   2.088   5.318
   43DPPC   C15 5470   6.004   2.297   5.352
   43DPPC  H15A 5471   5.992   2.402   5.374
   43DPPC  H15B 5472   5.957   2.238   5.429
   43DPPC  H15C 5473   5.957   2.275   5.256
   43DPPC   C12 5474   6.221   2.336   5.235
   43DPPC  H12A 5475   0.022   2.307   5.240
   43DPPC  H12B 5476   6.215   2.442   5.257
   43DPPC   C11 5477   6.172   2.314   5.090
   43DPPC  H11A 5478   6.177   2.205   5.067
   43DPPC  H11B 5479   6.242   2.368   5.022
   43DPPC     P 5480   5.954   2.317   4.958
   43DPPC   O13 5481   5.863   2.427   4.914
   43DPPC   O14 5482   5.888   2.191   4.998
   43DPPC   O11 5483   6.060   2.287   4.846
   43DPPC   O12 5484   6.041   2.369   5.077
   43DPPC    C1 5485   6.053   2.351   4.718
   43DPPC    HA 5486   6.151   2.337   4.667
   43DPPC    HB 5487   6.038   2.461   4.728
   43DPPC    C2 5488   5.944   2.291   4.625
   43DPPC    HS 5489   5.847   2.304   4.679
   43DPPC   O21 5490   5.979   2.153   4.601
   43DPPC   C21 5491   5.875   2.072   4.602
   43DPPC   O22 5492   5.759   2.107   4.619
   43DPPC   C22 5493   5.920   1.929   4.575
   43DPPC   H2R 5494   5.973   1.891   4.665
   43DPPC   H2S 5495   5.990   1.928   4.489
   43DPPC    C3 5496   5.937   2.370   4.491
   43DPPC    HX 5497   6.038   2.366   4.445
   43DPPC    HY 5498   5.916   2.478   4.513
   43DPPC   O31 5499   5.843   2.317   4.396
   43DPPC   C31 5500   5.715   2.345   4.422
   43DPPC   O32 5501   5.677   2.412   4.516
   43DPPC   C32 5502   5.629   2.279   4.314
   43DPPC   H2X 5503   5.650   2.170   4.314
   43DPPC   H2Y 5504   5.658   2.320   4.215
   43DPPC   C23 5505   5.800   1.838   4.544
   43DPPC   H3R 5506   5.726   1.840   4.627
   43DPPC   H3S 5507   5.838   1.733   4.537
   43DPPC   C24 5508   5.729   1.870   4.411
   43DPPC   H4R 5509   5.805   1.878   4.330
   43DPPC   H4S 5510   5.679   1.969   4.420
   43DPPC   C25 5511   5.624   1.766   4.370
   43DPPC   H5R 5512   5.554   1.749   4.455
   43DPPC   H5S 5513   5.676   1.669   4.349
   43DPPC   C26 5514   5.543   1.808   4.247
   43DPPC   H6R 5515   5.614   1.839   4.167
   43DPPC   H6S 5516   5.481   1.895   4.273
   43DPPC   C27 5517   5.454   1.695   4.193
   43DPPC   H7R 5518   5.392   1.655   4.277
   43DPPC   H7S 5519   5.520   1.613   4.157
   43DPPC   C28 5520   5.358   1.736   4.079
   43DPPC   H8R 5521   5.279   1.803   4.119
   43DPPC   H8S 5522   5.307   1.642   4.045
   43DPPC   C29 5523   5.424   1.802   3.956
   43DPPC   H9R 5524   5.366   1.772   3.866
   43DPPC   H9S 5525   5.527   1.764   3.944
   43DPPC  C210 5526   5.424   1.956   3.962
   43DPPC  H10R 5527   5.475   1.989   4.055
   43DPPC  H10S 5528   5.318   1.992   3.967
   43DPPC  C211 5529   5.494   2.025   3.844
   43DPPC  H11R 5530   5.601   1.994   3.842
   43DPPC  H11S 5531   5.491   2.135   3.863
   43DPPC  C212 5532   5.432   1.996   3.706
   43DPPC  H12R 5533   5.322   2.015   3.710
   43DPPC  H12S 5534   5.447   1.889   3.683
   43DPPC  C213 5535   5.493   2.080   3.592
   43DPPC  H13R 5536   5.461   2.035   3.495
   43DPPC  H13S 5537   5.604   2.073   3.598
   43DPPC  C214 5538   5.449   2.227   3.592
   43DPPC  H14R 5539   5.476   2.274   3.689
   43DPPC  H14S 5540   5.339   2.232   3.581
   43DPPC  C215 5541   5.515   2.309   3.479
   43DPPC  H15R 5542   5.496   2.257   3.383
   43DPPC  H15S 5543   5.625   2.309   3.497
   43DPPC  C216 5544   5.466   2.454   3.468
   43DPPC  H16R 5545   5.357   2.456   3.446
   43DPPC  H16S 5546   5.520   2.506   3.387
   43DPPC  H16T 5547   5.484   2.508   3.564
   43DPPC   C33 5548   5.479   2.301   4.337
   43DPPC   H3X 5549   5.457   2.410   4.331
   43DPPC   H3Y 5550   5.450   2.265   4.438
   43DPPC   C34 5551   5.394   2.227   4.232
   43DPPC   H4X 5552   5.426   2.121   4.232
   43DPPC   H4Y 5553   5.416   2.269   4.131
   43DPPC   C35 5554   5.242   2.231   4.257
   43DPPC   H5X 5555   5.221   2.178   4.352
   43DPPC   H5Y 5556   5.192   2.174   4.175
   43DPPC   C36 5557   5.180   2.371   4.265
   43DPPC   H6X 5558   5.222   2.424   4.354
   43DPPC   H6Y 5559   5.071   2.359   4.282
   43DPPC   C37 5560   5.200   2.461   4.141
   43DPPC   H7X 5561   5.308   2.479   4.126
   43DPPC   H7Y 5562   5.152   2.559   4.163
   43DPPC   C38 5563   5.138   2.405   4.012
   43DPPC   H8X 5564   5.037   2.366   4.036
   43DPPC   H8Y 5565   5.200   2.320   3.975
   43DPPC   C39 5566   5.123   2.509   3.899
   43DPPC   H9X 5567   5.058   2.591   3.937
   43DPPC   H9Y 5568   5.071   2.461   3.814
   43DPPC  C310 5569   5.255   2.569   3.849
   43DPPC  H10X 5570   5.312   2.492   3.793
   43DPPC  H10Y 5571   5.316   2.600   3.937
   43DPPC  C311 5572   5.238   2.695   3.761
   43DPPC  H11X 5573   5.339   2.737   3.741
   43DPPC  H11Y 5574   5.181   2.771   3.819
   43DPPC  C312 5575   5.167   2.671   3.627
   43DPPC  H12X 5576   5.071   2.618   3.646
   43DPPC  H12Y 5577   5.230   2.604   3.564
   43DPPC  C313 5578   5.135   2.799   3.548
   43DPPC  H13X 5579   5.062   2.859   3.606
   43DPPC  H13Y 5580   5.087   2.771   3.452
   43DPPC  C314 5581   5.257   2.888   3.517
   43DPPC  H14X 5582   5.332   2.829   3.460
   43DPPC  H14Y 5583   5.304   2.920   3.613
   43DPPC  C315 5584   5.221   3.014   3.437
   43DPPC  H15X 5585   5.139   3.067   3.491
   43DPPC  H15Y 5586   5.183   2.984   3.337
   43DPPC  C316 5587   5.337   3.112   3.418
   43DPPC  H16X 5588   5.302   3.202   3.361
   43DPPC  H16Y 5589   5.419   3.065   3.361
   43DPPC  H16Z 5590   5.377   3.146   3.516
   44DPPC     N 5591   5.876   0.729   5.096
   44DPPC   C13 5592   5.838   0.588   5.119
   44DPPC  H13A 5593   5.828   0.570   5.225
   44DPPC  H13B 5594   5.912   0.521   5.078
   44DPPC  H13C 5595   5.742   0.569   5.073
   44DPPC   C14 5596   6.001   0.758   5.172
   44DPPC  H14A 5597   6.027   0.862   5.159
   44DPPC  H14B 5598   6.082   0.697   5.136
   44DPPC  H14C 5599   5.985   0.739   5.277
   44DPPC   C15 5600   5.903   0.752   4.951
   44DPPC  H15A 5601   5.817   0.722   4.893
   44DPPC  H15B 5602   5.989   0.694   4.920
   44DPPC  H15C 5603   5.923   0.857   4.935
   44DPPC   C12 5604   5.769   0.823   5.144
   44DPPC  H12A 5605   5.807   0.924   5.130
   44DPPC  H12B 5606   5.757   0.807   5.251
   44DPPC   C11 5607   5.629   0.817   5.081
   44DPPC  H11A 5608   5.637   0.834   4.971
   44DPPC  H11B 5609   5.571   0.902   5.125
   44DPPC     P 5610   5.422   0.675   5.061
   44DPPC   O13 5611   5.343   0.795   5.097
   44DPPC   O14 5612   5.371   0.544   5.107
   44DPPC   O11 5613   5.443   0.671   4.904
   44DPPC   O12 5614   5.569   0.692   5.111
   44DPPC    C1 5615   5.521   0.566   4.845
   44DPPC    HA 5616   5.482   0.466   4.875
   44DPPC    HB 5617   5.627   0.572   4.878
   44DPPC    C2 5618   5.514   0.571   4.689
   44DPPC    HS 5619   5.563   0.480   4.648
   44DPPC   O21 5620   5.577   0.690   4.636
   44DPPC   C21 5621   5.708   0.685   4.640
   44DPPC   O22 5622   5.774   0.593   4.685
   44DPPC   C22 5623   5.767   0.812   4.579
   44DPPC   H2R 5624   5.785   0.884   4.662
   44DPPC   H2S 5625   5.695   0.858   4.508
   44DPPC    C3 5626   5.365   0.567   4.643
   44DPPC    HX 5627   5.310   0.641   4.706
   44DPPC    HY 5628   5.321   0.467   4.667
   44DPPC   O31 5629   5.344   0.604   4.505
   44DPPC   C31 5630   5.372   0.510   4.416
   44DPPC   O32 5631   5.416   0.400   4.443
   44DPPC   C32 5632   5.341   0.564   4.277
   44DPPC   H2X 5633   5.235   0.596   4.275
   44DPPC   H2Y 5634   5.354   0.483   4.202
   44DPPC   C23 5635   5.901   0.783   4.508
   44DPPC   H3R 5636   5.969   0.727   4.575
   44DPPC   H3S 5637   5.949   0.881   4.485
   44DPPC   C24 5638   5.884   0.708   4.374
   44DPPC   H4R 5639   5.817   0.767   4.308
   44DPPC   H4S 5640   5.835   0.610   4.394
   44DPPC   C25 5641   6.016   0.683   4.299
   44DPPC   H5R 5642   6.083   0.621   4.364
   44DPPC   H5S 5643   6.067   0.780   4.280
   44DPPC   C26 5644   5.994   0.609   4.166
   44DPPC   H6R 5645   5.928   0.671   4.101
   44DPPC   H6S 5646   5.940   0.515   4.189
   44DPPC   C27 5647   6.122   0.573   4.088
   44DPPC   H7R 5648   6.194   0.525   4.157
   44DPPC   H7S 5649   6.168   0.666   4.049
   44DPPC   C28 5650   6.090   0.476   3.973
   44DPPC   H8R 5651   6.011   0.521   3.909
   44DPPC   H8S 5652   6.048   0.383   4.017
   44DPPC   C29 5653   6.209   0.435   3.884
   44DPPC   H9R 5654   6.172   0.354   3.817
   44DPPC   H9S 5655   6.290   0.393   3.946
   44DPPC  C210 5656   6.263   0.549   3.796
   44DPPC  H10R 5657   0.036   0.606   3.855
   44DPPC  H10S 5658   6.181   0.619   3.770
   44DPPC  C211 5659   0.023   0.500   3.665
   44DPPC  H11R 5660   0.090   0.414   3.685
   44DPPC  H11S 5661   0.086   0.582   3.624
   44DPPC  C212 5662   6.222   0.461   3.558
   44DPPC  H12R 5663   6.155   0.547   3.540
   44DPPC  H12S 5664   6.160   0.378   3.598
   44DPPC  C213 5665   6.283   0.416   3.424
   44DPPC  H13R 5666   6.200   0.376   3.361
   44DPPC  H13S 5667   0.051   0.334   3.442
   44DPPC  C214 5668   0.049   0.530   3.346
   44DPPC  H14R 5669   0.137   0.565   3.403
   44DPPC  H14S 5670   6.281   0.615   3.336
   44DPPC  C215 5671   0.095   0.489   3.205
   44DPPC  H15R 5672   0.141   0.578   3.156
   44DPPC  H15S 5673   0.006   0.460   3.145
   44DPPC  C216 5674   0.196   0.374   3.201
   44DPPC  H16R 5675   0.151   0.281   3.242
   44DPPC  H16S 5676   0.286   0.399   3.261
   44DPPC  H16T 5677   0.228   0.354   3.096
   44DPPC   C33 5678   5.432   0.684   4.243
   44DPPC   H3X 5679   5.532   0.647   4.213
   44DPPC   H3Y 5680   5.446   0.748   4.333
   44DPPC   C34 5681   5.373   0.776   4.133
   44DPPC   H4X 5682   5.444   0.859   4.115
   44DPPC   H4Y 5683   5.279   0.820   4.173
   44DPPC   C35 5684   5.340   0.706   4.000
   44DPPC   H5X 5685   5.294   0.780   3.932
   44DPPC   H5Y 5686   5.263   0.628   4.021
   44DPPC   C36 5687   5.458   0.638   3.928
   44DPPC   H6X 5688   5.413   0.572   3.851
   44DPPC   H6Y 5689   5.515   0.573   3.997
   44DPPC   C37 5690   5.553   0.733   3.853
   44DPPC   H7X 5691   5.494   0.816   3.808
   44DPPC   H7Y 5692   5.598   0.675   3.770
   44DPPC   C38 5693   5.669   0.790   3.936
   44DPPC   H8X 5694   5.716   0.706   3.992
   44DPPC   H8Y 5695   5.631   0.863   4.010
   44DPPC   C39 5696   5.778   0.857   3.851
   44DPPC   H9X 5697   5.818   0.781   3.780
   44DPPC   H9Y 5698   5.862   0.889   3.917
   44DPPC  C310 5699   5.729   0.980   3.772
   44DPPC  H10X 5700   5.692   1.056   3.845
   44DPPC  H10Y 5701   5.644   0.951   3.707
   44DPPC  C311 5702   5.835   1.046   3.683
   44DPPC  H11X 5703   5.920   1.082   3.746
   44DPPC  H11Y 5704   5.789   1.135   3.634
   44DPPC  C312 5705   5.890   0.953   3.573
   44DPPC  H12X 5706   5.805   0.905   3.520
   44DPPC  H12Y 5707   5.951   0.873   3.620
   44DPPC  C313 5708   5.977   1.026   3.469
   44DPPC  H13X 5709   6.059   1.079   3.521
   44DPPC  H13Y 5710   5.914   1.103   3.417
   44DPPC  C314 5711   6.036   0.931   3.364
   44DPPC  H14X 5712   5.954   0.879   3.310
   44DPPC  H14Y 5713   6.097   0.853   3.416
   44DPPC  C315 5714   6.125   1.003   3.261
   44DPPC  H15X 5715   6.204   1.058   3.316
   44DPPC  H15Y 5716   6.063   1.077   3.206
   44DPPC  C316 5717   6.193   0.909   3.160
   44DPPC  H16X 5718   6.259   0.837   3.213
   44DPPC  H16Y 5719   6.254   0.968   3.089
   44DPPC  H16Z 5720   6.116   0.852   3.103
   45DPPC     N 5721   4.440   5.448   5.161
   45DPPC   C13 5722   4.549   5.444   5.262
   45DPPC  H13A 5723   4.506   5.437   5.361
   45DPPC  H13B 5724   4.610   5.533   5.255
   45DPPC  H13C 5725   4.612   5.357   5.245
   45DPPC   C14 5726   4.500   5.455   5.025
   45DPPC  H14A 5727   4.555   5.548   5.016
   45DPPC  H14B 5728   4.423   5.452   4.950
   45DPPC  H14C 5729   4.568   5.372   5.010
   45DPPC   C15 5730   4.360   5.323   5.170
   45DPPC  H15A 5731   4.280   5.326   5.098
   45DPPC  H15B 5732   4.322   5.313   5.270
   45DPPC  H15C 5733   4.423   5.237   5.148
   45DPPC   C12 5734   4.350   5.567   5.185
   45DPPC  H12A 5735   4.289   5.545   5.272
   45DPPC  H12B 5736   4.284   5.576   5.100
   45DPPC   C11 5737   4.418   5.703   5.210
   45DPPC  H11A 5738   4.462   5.700   5.313
   45DPPC  H11B 5739   4.340   5.782   5.210
   45DPPC     P 5740   4.641   5.808   5.150
   45DPPC   O13 5741   4.728   5.715   5.226
   45DPPC   O14 5742   4.600   5.931   5.220
   45DPPC   O11 5743   4.709   5.842   5.012
   45DPPC   O12 5744   4.512   5.731   5.106
   45DPPC    C1 5745   4.643   5.925   4.914
   45DPPC    HA 5746   4.720   5.988   4.864
   45DPPC    HB 5747   4.570   5.995   4.960
   45DPPC    C2 5748   4.571   5.844   4.802
   45DPPC    HS 5749   4.490   5.786   4.853
   45DPPC   O21 5750   4.669   5.759   4.740
   45DPPC   C21 5751   4.618   5.647   4.690
   45DPPC   O22 5752   4.502   5.613   4.702
   45DPPC   C22 5753   4.726   5.567   4.618
   45DPPC   H2R 5754   4.767   5.493   4.690
   45DPPC   H2S 5755   4.808   5.634   4.584
   45DPPC    C3 5756   4.505   5.941   4.698
   45DPPC    HX 5757   4.587   6.003   4.656
   45DPPC    HY 5758   4.437   6.012   4.751
   45DPPC   O31 5759   4.439   5.874   4.588
   45DPPC   C31 5760   4.315   5.832   4.614
   45DPPC   O32 5761   4.256   5.854   4.719
   45DPPC   C32 5762   4.264   5.746   4.498
   45DPPC   H2X 5763   4.275   5.640   4.529
   45DPPC   H2Y 5764   4.325   5.763   4.407
   45DPPC   C23 5765   4.665   5.493   4.497
   45DPPC   H3R 5766   4.642   5.566   4.417
   45DPPC   H3S 5767   4.569   5.444   4.527
   45DPPC   C24 5768   4.754   5.380   4.441
   45DPPC   H4R 5769   4.697   5.327   4.361
   45DPPC   H4S 5770   4.774   5.307   4.522
   45DPPC   C25 5771   4.888   5.427   4.382
   45DPPC   H5R 5772   4.945   5.482   4.460
   45DPPC   H5S 5773   4.868   5.498   4.299
   45DPPC   C26 5774   4.973   5.311   4.330
   45DPPC   H6R 5775   4.916   5.258   4.250
   45DPPC   H6S 5776   4.992   5.239   4.413
   45DPPC   C27 5777   5.109   5.355   4.272
   45DPPC   H7R 5778   5.168   5.404   4.352
   45DPPC   H7S 5779   5.090   5.431   4.193
   45DPPC   C28 5780   5.190   5.239   4.212
   45DPPC   H8R 5781   5.125   5.183   4.142
   45DPPC   H8S 5782   5.220   5.170   4.294
   45DPPC   C29 5783   5.316   5.286   4.138
   45DPPC   H9R 5784   5.373   5.355   4.204
   45DPPC   H9S 5785   5.286   5.344   4.048
   45DPPC  C210 5786   5.411   5.172   4.095
   45DPPC  H10R 5787   5.456   5.129   4.187
   45DPPC  H10S 5788   5.494   5.216   4.035
   45DPPC  C211 5789   5.347   5.058   4.015
   45DPPC  H11R 5790   5.274   5.004   4.080
   45DPPC  H11S 5791   5.427   4.985   3.989
   45DPPC  C212 5792   5.276   5.098   3.885
   45DPPC  H12R 5793   5.187   5.161   3.908
   45DPPC  H12S 5794   5.239   5.005   3.836
   45DPPC  C213 5795   5.365   5.174   3.785
   45DPPC  H13R 5796   5.461   5.118   3.774
   45DPPC  H13S 5797   5.388   5.275   3.825
   45DPPC  C214 5798   5.301   5.187   3.646
   45DPPC  H14R 5799   5.203   5.239   3.655
   45DPPC  H14S 5800   5.282   5.084   3.607
   45DPPC  C215 5801   5.388   5.261   3.542
   45DPPC  H15R 5802   5.339   5.251   3.443
   45DPPC  H15S 5803   5.487   5.211   3.536
   45DPPC  C216 5804   5.409   5.410   3.571
   45DPPC  H16R 5805   5.311   5.463   3.576
   45DPPC  H16S 5806   5.470   5.456   3.490
   45DPPC  H16T 5807   5.462   5.424   3.668
   45DPPC   C33 5808   4.116   5.774   4.467
   45DPPC   H3X 5809   4.107   5.868   4.408
   45DPPC   H3Y 5810   4.060   5.788   4.562
   45DPPC   C34 5811   4.045   5.659   4.393
   45DPPC   H4X 5812   3.936   5.681   4.386
   45DPPC   H4Y 5813   4.056   5.567   4.454
   45DPPC   C35 5814   4.097   5.628   4.251
   45DPPC   H5X 5815   4.062   5.526   4.224
   45DPPC   H5Y 5816   4.208   5.626   4.251
   45DPPC   C36 5817   4.047   5.724   4.142
   45DPPC   H6X 5818   4.085   5.827   4.161
   45DPPC   H6Y 5819   3.936   5.727   4.146
   45DPPC   C37 5820   4.089   5.679   4.001
   45DPPC   H7X 5821   4.060   5.573   3.988
   45DPPC   H7Y 5822   4.200   5.686   3.992
   45DPPC   C38 5823   4.025   5.759   3.886
   45DPPC   H8X 5824   4.052   5.867   3.896
   45DPPC   H8Y 5825   3.914   5.751   3.893
   45DPPC   C39 5826   4.070   5.708   3.748
   45DPPC   H9X 5827   4.046   5.600   3.741
   45DPPC   H9Y 5828   4.180   5.720   3.740
   45DPPC  C310 5829   4.004   5.779   3.629
   45DPPC  H10X 5830   4.020   5.888   3.637
   45DPPC  H10Y 5831   3.894   5.759   3.632
   45DPPC  C311 5832   4.059   5.730   3.494
   45DPPC  H11X 5833   4.052   5.619   3.491
   45DPPC  H11Y 5834   4.167   5.757   3.488
   45DPPC  C312 5835   3.986   5.787   3.371
   45DPPC  H12X 5836   3.990   5.898   3.374
   45DPPC  H12Y 5837   3.880   5.756   3.376
   45DPPC  C313 5838   4.046   5.738   3.238
   45DPPC  H13X 5839   4.055   5.627   3.243
   45DPPC  H13Y 5840   4.148   5.780   3.227
   45DPPC  C314 5841   3.962   5.776   3.116
   45DPPC  H14X 5842   3.948   5.886   3.115
   45DPPC  H14Y 5843   3.861   5.729   3.125
   45DPPC  C315 5844   4.023   5.734   2.980
   45DPPC  H15X 5845   4.118   5.790   2.967
   45DPPC  H15Y 5846   3.953   5.767   2.900
   45DPPC  C316 5847   4.050   5.585   2.964
   45DPPC  H16X 5848   4.087   5.564   2.861
   45DPPC  H16Y 5849   3.958   5.526   2.981
   45DPPC  H16Z 5850   4.128   5.551   3.036
   46DPPC     N 5851   5.779   3.409   5.452
   46DPPC   C13 5852   5.690   3.297   5.495
   46DPPC  H13A 5853   5.719   3.265   5.594
   46DPPC  H13B 5854   5.699   3.215   5.426
   46DPPC  H13C 5855   5.588   3.331   5.497
   46DPPC   C14 5856   5.766   3.521   5.549
   46DPPC  H14A 5857   5.787   3.484   5.649
   46DPPC  H14B 5858   5.666   3.561   5.545
   46DPPC  H14C 5859   5.837   3.598   5.525
   46DPPC   C15 5860   5.920   3.362   5.452
   46DPPC  H15A 5861   5.929   3.276   5.387
   46DPPC  H15B 5862   5.948   3.335   5.553
   46DPPC  H15C 5863   5.985   3.441   5.417
   46DPPC   C12 5864   5.744   3.454   5.313
   46DPPC  H12A 5865   5.781   3.379   5.244
   46DPPC  H12B 5866   5.799   3.546   5.294
   46DPPC   C11 5867   5.595   3.478   5.279
   46DPPC  H11A 5868   5.543   3.379   5.277
   46DPPC  H11B 5869   5.594   3.519   5.175
   46DPPC     P 5870   5.384   3.598   5.345
   46DPPC   O13 5871   5.344   3.721   5.416
   46DPPC   O14 5872   5.304   3.476   5.374
   46DPPC   O11 5873   5.383   3.627   5.190
   46DPPC   O12 5874   5.536   3.567   5.373
   46DPPC    C1 5875   5.413   3.758   5.141
   46DPPC    HA 5876   5.461   3.747   5.041
   46DPPC    HB 5877   5.485   3.814   5.205
   46DPPC    C2 5878   5.285   3.845   5.120
   46DPPC    HS 5879   5.245   3.867   5.221
   46DPPC   O21 5880   5.194   3.764   5.044
   46DPPC   C21 5881   5.068   3.798   5.059
   46DPPC   O22 5882   5.029   3.897   5.118
   46DPPC   C22 5883   4.982   3.688   4.996
   46DPPC   H2R 5884   4.969   3.608   5.072
   46DPPC   H2S 5885   5.035   3.646   4.908
   46DPPC    C3 5886   5.319   3.980   5.050
   46DPPC    HX 5887   5.392   4.031   5.116
   46DPPC    HY 5888   5.227   4.043   5.043
   46DPPC   O31 5889   5.375   3.960   4.918
   46DPPC   C31 5890   5.441   4.064   4.868
   46DPPC   O32 5891   5.459   4.170   4.926
   46DPPC   C32 5892   5.489   4.031   4.727
   46DPPC   H2X 5893   5.566   3.951   4.732
   46DPPC   H2Y 5894   5.536   4.122   4.684
   46DPPC   C23 5895   4.844   3.740   4.953
   46DPPC   H3R 5896   4.856   3.813   4.870
   46DPPC   H3S 5897   4.796   3.794   5.038
   46DPPC   C24 5898   4.748   3.628   4.909
   46DPPC   H4R 5899   4.652   3.673   4.877
   46DPPC   H4S 5900   4.727   3.564   4.998
   46DPPC   C25 5901   4.801   3.536   4.797
   46DPPC   H5R 5902   4.729   3.453   4.783
   46DPPC   H5S 5903   4.898   3.491   4.829
   46DPPC   C26 5904   4.820   3.608   4.663
   46DPPC   H6R 5905   4.886   3.696   4.675
   46DPPC   H6S 5906   4.720   3.643   4.629
   46DPPC   C27 5907   4.879   3.517   4.553
   46DPPC   H7R 5908   4.832   3.417   4.558
   46DPPC   H7S 5909   4.988   3.505   4.573
   46DPPC   C28 5910   4.858   3.573   4.412
   46DPPC   H8R 5911   4.886   3.681   4.410
   46DPPC   H8S 5912   4.749   3.566   4.389
   46DPPC   C29 5913   4.937   3.499   4.303
   46DPPC   H9R 5914   4.938   3.391   4.328
   46DPPC   H9S 5915   5.042   3.536   4.304
   46DPPC  C210 5916   4.878   3.515   4.162
   46DPPC  H10R 5917   4.782   3.459   4.157
   46DPPC  H10S 5918   4.947   3.469   4.088
   46DPPC  C211 5919   4.849   3.661   4.121
   46DPPC  H11R 5920   4.942   3.721   4.128
   46DPPC  H11S 5921   4.775   3.704   4.192
   46DPPC  C212 5922   4.791   3.673   3.979
   46DPPC  H12R 5923   4.710   3.598   3.967
   46DPPC  H12S 5924   4.870   3.650   3.905
   46DPPC  C213 5925   4.732   3.812   3.952
   46DPPC  H13R 5926   4.810   3.890   3.964
   46DPPC  H13S 5927   4.652   3.832   4.027
   46DPPC  C214 5928   4.670   3.825   3.812
   46DPPC  H14R 5929   4.602   3.739   3.795
   46DPPC  H14S 5930   4.751   3.819   3.735
   46DPPC  C215 5931   4.591   3.955   3.793
   46DPPC  H15R 5932   4.660   4.041   3.807
   46DPPC  H15S 5933   4.514   3.960   3.873
   46DPPC  C216 5934   4.521   3.968   3.658
   46DPPC  H16R 5935   4.455   3.882   3.640
   46DPPC  H16S 5936   4.596   3.974   3.576
   46DPPC  H16T 5937   4.460   4.061   3.656
   46DPPC   C33 5938   5.371   3.986   4.640
   46DPPC   H3X 5939   5.291   4.063   4.644
   46DPPC   H3Y 5940   5.328   3.891   4.680
   46DPPC   C34 5941   5.409   3.964   4.493
   46DPPC   H4X 5942   5.484   3.882   4.486
   46DPPC   H4Y 5943   5.455   4.057   4.455
   46DPPC   C35 5944   5.288   3.929   4.404
   46DPPC   H5X 5945   5.208   4.004   4.424
   46DPPC   H5Y 5946   5.248   3.829   4.433
   46DPPC   C36 5947   5.321   3.931   4.254
   46DPPC   H6X 5948   5.389   3.846   4.230
   46DPPC   H6Y 5949   5.376   4.026   4.232
   46DPPC   C37 5950   5.197   3.926   4.165
   46DPPC   H7X 5951   5.127   4.007   4.195
   46DPPC   H7Y 5952   5.144   3.829   4.180
   46DPPC   C38 5953   5.230   3.943   4.016
   46DPPC   H8X 5954   5.291   3.857   3.982
   46DPPC   H8Y 5955   5.292   4.035   4.004
   46DPPC   C39 5956   5.107   3.957   3.926
   46DPPC   H9X 5957   5.047   4.044   3.960
   46DPPC   H9Y 5958   5.044   3.866   3.936
   46DPPC  C310 5959   5.143   3.976   3.778
   46DPPC  H10X 5960   5.198   3.886   3.743
   46DPPC  H10Y 5961   5.212   4.064   3.769
   46DPPC  C311 5962   5.023   4.000   3.685
   46DPPC  H11X 5963   4.971   4.093   3.717
   46DPPC  H11Y 5964   4.952   3.915   3.696
   46DPPC  C312 5965   5.065   4.011   3.538
   46DPPC  H12X 5966   5.117   3.916   3.510
   46DPPC  H12Y 5967   5.139   4.094   3.528
   46DPPC  C313 5968   4.951   4.034   3.438
   46DPPC  H13X 5969   4.873   3.955   3.452
   46DPPC  H13Y 5970   4.993   4.022   3.336
   46DPPC  C314 5971   4.886   4.173   3.447
   46DPPC  H14X 5972   4.966   4.250   3.450
   46DPPC  H14Y 5973   4.827   4.181   3.540
   46DPPC  C315 5974   4.795   4.203   3.326
   46DPPC  H15X 5975   4.716   4.125   3.320
   46DPPC  H15Y 5976   4.857   4.194   3.234
   46DPPC  C316 5977   4.730   4.341   3.327
   46DPPC  H16X 5978   4.662   4.351   3.414
   46DPPC  H16Y 5979   4.671   4.357   3.235
   46DPPC  H16Z 5980   4.807   4.420   3.334
   47DPPC     N 5981   0.111   3.114   5.922
   47DPPC   C13 5982   0.071   3.239   5.992
   47DPPC  H13A 5983   6.286   3.221   6.051
   47DPPC  H13B 5984   0.049   3.316   5.919
   47DPPC  H13C 5985   0.151   3.273   6.056
   47DPPC   C14 5986   0.139   3.009   6.025
   47DPPC  H14A 5987   0.051   2.993   6.085
   47DPPC  H14B 5988   0.221   3.042   6.088
   47DPPC  H14C 5989   0.167   2.917   5.975
   47DPPC   C15 5990   6.300   3.069   5.838
   47DPPC  H15A 5991   0.026   2.980   5.783
   47DPPC  H15B 5992   6.275   3.147   5.767
   47DPPC  H15C 5993   6.214   3.048   5.901
   47DPPC   C12 5994   0.233   3.142   5.838
   47DPPC  H12A 5995   0.303   3.196   5.901
   47DPPC  H12B 5996   0.203   3.209   5.759
   47DPPC   C11 5997   0.309   3.023   5.776
   47DPPC  H11A 5998   0.357   2.963   5.856
   47DPPC  H11B 5999   0.389   3.067   5.711
   47DPPC     P 6000   0.276   2.836   5.605
   47DPPC   O13 6001   0.158   2.776   5.538
   47DPPC   O14 6002   0.363   2.743   5.681
   47DPPC   O11 6003   0.365   2.918   5.504
   47DPPC   O12 6004   0.219   2.944   5.702
   47DPPC    C1 6005   0.313   3.021   5.418
   47DPPC    HA 6006   0.372   3.114   5.434
   47DPPC    HB 6007   0.207   3.046   5.439
   47DPPC    C2 6008   0.326   2.983   5.267
   47DPPC    HS 6009   0.290   3.073   5.210
   47DPPC   O21 6010   0.246   2.866   5.242
   47DPPC   C21 6011   0.199   2.860   5.119
   47DPPC   O22 6012   0.211   2.948   5.036
   47DPPC   C22 6013   0.125   2.728   5.098
   47DPPC   H2R 6014   0.043   2.722   5.172
   47DPPC   H2S 6015   0.194   2.643   5.115
   47DPPC    C3 6016   0.476   2.957   5.231
   47DPPC    HX 6017   0.510   2.873   5.295
   47DPPC    HY 6018   0.535   3.046   5.262
   47DPPC   O31 6019   0.500   2.922   5.093
   47DPPC   C31 6020   0.510   3.026   5.010
   47DPPC   O32 6021   0.497   3.143   5.043
   47DPPC   C32 6022   0.543   2.977   4.869
   47DPPC   H2X 6023   0.531   2.866   4.865
   47DPPC   H2Y 6024   0.648   3.002   4.846
   47DPPC   C23 6025   0.066   2.721   4.955
   47DPPC   H3R 6026   0.012   2.816   4.933
   47DPPC   H3S 6027   6.293   2.640   4.952
   47DPPC   C24 6028   0.170   2.695   4.845
   47DPPC   H4R 6029   0.262   2.753   4.868
   47DPPC   H4S 6030   0.131   2.734   4.748
   47DPPC   C25 6031   0.209   2.547   4.828
   47DPPC   H5R 6032   0.225   2.503   4.929
   47DPPC   H5S 6033   0.306   2.543   4.774
   47DPPC   C26 6034   0.107   2.460   4.751
   47DPPC   H6R 6035   0.013   2.454   4.810
   47DPPC   H6S 6036   0.149   2.357   4.744
   47DPPC   C27 6037   0.073   2.508   4.609
   47DPPC   H7R 6038   0.013   2.601   4.615
   47DPPC   H7S 6039   0.009   2.431   4.560
   47DPPC   C28 6040   0.195   2.533   4.520
   47DPPC   H8R 6041   0.255   2.439   4.512
   47DPPC   H8S 6042   0.259   2.610   4.568
   47DPPC   C29 6043   0.162   2.583   4.378
   47DPPC   H9R 6044   0.258   2.613   4.331
   47DPPC   H9S 6045   0.098   2.673   4.384
   47DPPC  C210 6046   0.094   2.478   4.288
   47DPPC  H10R 6047   6.293   2.462   4.324
   47DPPC  H10S 6048   0.149   2.382   4.297
   47DPPC  C211 6049   0.090   2.518   4.139
   47DPPC  H11R 6050   0.046   2.619   4.131
   47DPPC  H11S 6051   0.024   2.446   4.085
   47DPPC  C212 6052   0.228   2.516   4.072
   47DPPC  H12R 6053   0.298   2.582   4.127
   47DPPC  H12S 6054   0.269   2.413   4.076
   47DPPC  C213 6055   0.227   2.563   3.926
   47DPPC  H13R 6056   0.188   2.667   3.923
   47DPPC  H13S 6057   0.158   2.499   3.866
   47DPPC  C214 6058   0.367   2.559   3.862
   47DPPC  H14R 6059   0.399   2.453   3.855
   47DPPC  H14S 6060   0.439   2.611   3.929
   47DPPC  C215 6061   0.376   2.623   3.723
   47DPPC  H15R 6062   0.301   2.576   3.656
   47DPPC  H15S 6063   0.477   2.600   3.681
   47DPPC  C216 6064   0.357   2.775   3.721
   47DPPC  H16R 6065   0.430   2.824   3.791
   47DPPC  H16S 6066   0.254   2.803   3.752
   47DPPC  H16T 6067   0.375   2.815   3.619
   47DPPC   C33 6068   0.450   3.044   4.767
   47DPPC   H3X 6069   0.463   3.155   4.773
   47DPPC   H3Y 6070   0.344   3.021   4.792
   47DPPC   C34 6071   0.476   3.000   4.622
   47DPPC   H4X 6072   0.580   3.027   4.594
   47DPPC   H4Y 6073   0.407   3.057   4.556
   47DPPC   C35 6074   0.455   2.850   4.598
   47DPPC   H5X 6075   0.355   2.822   4.639
   47DPPC   H5Y 6076   0.532   2.791   4.654
   47DPPC   C36 6077   0.458   2.808   4.450
   47DPPC   H6X 6078   0.382   2.867   4.395
   47DPPC   H6Y 6079   0.430   2.701   4.444
   47DPPC   C37 6080   0.594   2.824   4.382
   47DPPC   H7X 6081   0.669   2.761   4.436
   47DPPC   H7Y 6082   0.627   2.930   4.388
   47DPPC   C38 6083   0.591   2.782   4.234
   47DPPC   H8X 6084   0.522   2.850   4.180
   47DPPC   H8Y 6085   0.550   2.679   4.227
   47DPPC   C39 6086   0.728   2.786   4.167
   47DPPC   H9X 6087   0.795   2.711   4.215
   47DPPC   H9Y 6088   0.774   2.886   4.182
   47DPPC  C310 6089   0.721   2.758   4.016
   47DPPC  H10X 6090   0.656   2.835   3.969
   47DPPC  H10Y 6091   0.675   2.658   3.999
   47DPPC  C311 6092   0.858   2.761   3.947
   47DPPC  H11X 6093   0.920   2.677   3.985
   47DPPC  H11Y 6094   0.909   2.856   3.975
   47DPPC  C312 6095   0.850   2.753   3.794
   47DPPC  H12X 6096   0.788   2.838   3.758
   47DPPC  H12Y 6097   0.798   2.659   3.767
   47DPPC  C313 6098   0.987   2.758   3.726
   47DPPC  H13X 6099   1.045   2.668   3.756
   47DPPC  H13Y 6100   1.042   2.848   3.763
   47DPPC  C314 6101   0.981   2.764   3.573
   47DPPC  H14X 6102   1.085   2.772   3.534
   47DPPC  H14Y 6103   0.927   2.857   3.543
   47DPPC  C315 6104   0.913   2.643   3.508
   47DPPC  H15X 6105   0.965   2.551   3.541
   47DPPC  H15Y 6106   0.808   2.637   3.544
   47DPPC  C316 6107   0.911   2.648   3.355
   47DPPC  H16X 6108   0.859   2.559   3.314
   47DPPC  H16Y 6109   1.015   2.650   3.316
   47DPPC  H16Z 6110   0.858   2.739   3.320
   48DPPC     N 6111   4.710   3.206   5.694
   48DPPC   C13 6112   4.624   3.321   5.733
   48DPPC  H13A 6113   4.620   3.394   5.653
   48DPPC  H13B 6114   4.664   3.368   5.822
   48DPPC  H13C 6115   4.524   3.286   5.754
   48DPPC   C14 6116   4.709   3.106   5.804
   48DPPC  H14A 6117   4.607   3.078   5.827
   48DPPC  H14B 6118   4.754   3.148   5.893
   48DPPC  H14C 6119   4.764   3.018   5.774
   48DPPC   C15 6120   4.653   3.145   5.571
   48DPPC  H15A 6121   4.717   3.063   5.539
   48DPPC  H15B 6122   4.651   3.219   5.491
   48DPPC  H15C 6123   4.553   3.108   5.589
   48DPPC   C12 6124   4.851   3.255   5.669
   48DPPC  H12A 6125   4.880   3.316   5.754
   48DPPC  H12B 6126   4.848   3.319   5.582
   48DPPC   C11 6127   4.962   3.149   5.647
   48DPPC  H11A 6128   4.976   3.092   5.742
   48DPPC  H11B 6129   5.056   3.206   5.626
   48DPPC     P 6130   5.041   2.974   5.483
   48DPPC   O13 6131   4.984   2.887   5.378
   48DPPC   O14 6132   5.109   2.904   5.595
   48DPPC   O11 6133   5.138   3.081   5.417
   48DPPC   O12 6134   4.926   3.062   5.542
   48DPPC    C1 6135   5.087   3.184   5.331
   48DPPC    HA 6136   5.141   3.279   5.352
   48DPPC    HB 6137   4.979   3.205   5.349
   48DPPC    C2 6138   5.105   3.156   5.179
   48DPPC    HS 6139   5.038   3.070   5.157
   48DPPC   O21 6140   5.244   3.128   5.153
   48DPPC   C21 6141   5.261   3.047   5.050
   48DPPC   O22 6142   5.172   2.981   4.999
   48DPPC   C22 6143   5.406   3.055   5.002
   48DPPC   H2R 6144   5.473   3.028   5.086
   48DPPC   H2S 6145   5.428   3.159   4.971
   48DPPC    C3 6146   5.060   3.280   5.094
   48DPPC    HX 6147   5.128   3.363   5.121
   48DPPC    HY 6148   4.958   3.311   5.126
   48DPPC   O31 6149   5.067   3.262   4.950
   48DPPC   C31 6150   4.964   3.194   4.898
   48DPPC   O32 6151   4.872   3.148   4.964
   48DPPC   C32 6152   4.979   3.182   4.746
   48DPPC   H2X 6153   4.889   3.131   4.707
   48DPPC   H2Y 6154   4.984   3.284   4.702
   48DPPC   C23 6155   5.427   2.959   4.885
   48DPPC   H3R 6156   5.356   2.982   4.802
   48DPPC   H3S 6157   5.404   2.856   4.920
   48DPPC   C24 6158   5.570   2.958   4.828
   48DPPC   H4R 6159   5.583   2.864   4.770
   48DPPC   H4S 6160   5.643   2.956   4.912
   48DPPC   C25 6161   5.601   3.075   4.733
   48DPPC   H5R 6162   5.605   3.170   4.791
   48DPPC   H5S 6163   5.520   3.084   4.658
   48DPPC   C26 6164   5.734   3.054   4.658
   48DPPC   H6R 6165   5.726   2.958   4.601
   48DPPC   H6S 6166   5.816   3.042   4.732
   48DPPC   C27 6167   5.773   3.165   4.559
   48DPPC   H7R 6168   5.693   3.178   4.483
   48DPPC   H7S 6169   5.865   3.131   4.507
   48DPPC   C28 6170   5.803   3.300   4.626
   48DPPC   H8R 6171   5.833   3.282   4.731
   48DPPC   H8S 6172   5.711   3.363   4.628
   48DPPC   C29 6173   5.918   3.378   4.559
   48DPPC   H9R 6174   6.010   3.316   4.565
   48DPPC   H9S 6175   5.936   3.471   4.618
   48DPPC  C210 6176   5.894   3.418   4.412
   48DPPC  H10R 6177   5.806   3.486   4.406
   48DPPC  H10S 6178   5.873   3.327   4.352
   48DPPC  C211 6179   6.017   3.489   4.352
   48DPPC  H11R 6180   6.104   3.421   4.360
   48DPPC  H11S 6181   6.039   3.581   4.411
   48DPPC  C212 6182   5.999   3.528   4.204
   48DPPC  H12R 6183   5.920   3.606   4.196
   48DPPC  H12S 6184   5.966   3.438   4.147
   48DPPC  C213 6185   6.129   3.581   4.140
   48DPPC  H13R 6186   6.207   3.503   4.152
   48DPPC  H13S 6187   6.162   3.672   4.195
   48DPPC  C214 6188   6.113   3.615   3.991
   48DPPC  H14R 6189   6.036   3.694   3.980
   48DPPC  H14S 6190   6.077   3.524   3.938
   48DPPC  C215 6191   6.243   3.663   3.923
   48DPPC  H15R 6192   6.278   3.755   3.974
   48DPPC  H15S 6193   6.218   3.691   3.818
   48DPPC  C216 6194   0.054   3.562   3.921
   48DPPC  H16R 6195   0.022   3.468   3.871
   48DPPC  H16S 6196   0.088   3.538   4.024
   48DPPC  H16T 6197   0.141   3.603   3.865
   48DPPC   C33 6198   5.105   3.102   4.709
   48DPPC   H3X 6199   5.101   3.001   4.755
   48DPPC   H3Y 6200   5.194   3.155   4.751
   48DPPC   C34 6201   5.127   3.085   4.558
   48DPPC   H4X 6202   5.233   3.056   4.542
   48DPPC   H4Y 6203   5.111   3.183   4.508
   48DPPC   C35 6204   5.038   2.977   4.494
   48DPPC   H5X 6205   4.931   3.005   4.505
   48DPPC   H5Y 6206   5.054   2.882   4.549
   48DPPC   C36 6207   5.069   2.951   4.345
   48DPPC   H6X 6208   5.008   2.865   4.310
   48DPPC   H6Y 6209   5.176   2.921   4.337
   48DPPC   C37 6210   5.046   3.071   4.251
   48DPPC   H7X 6211   5.080   3.043   4.149
   48DPPC   H7Y 6212   5.110   3.156   4.285
   48DPPC   C38 6213   4.900   3.120   4.243
   48DPPC   H8X 6214   4.898   3.214   4.183
   48DPPC   H8Y 6215   4.865   3.146   4.345
   48DPPC   C39 6216   4.801   3.021   4.180
   48DPPC   H9X 6217   4.698   3.061   4.195
   48DPPC   H9Y 6218   4.807   2.923   4.231
   48DPPC  C310 6219   4.822   3.003   4.029
   48DPPC  H10X 6220   4.924   2.963   4.010
   48DPPC  H10Y 6221   4.815   3.102   3.979
   48DPPC  C311 6222   4.720   2.908   3.964
   48DPPC  H11X 6223   4.617   2.948   3.980
   48DPPC  H11Y 6224   4.727   2.809   4.015
   48DPPC  C312 6225   4.745   2.888   3.814
   48DPPC  H12X 6226   4.852   2.860   3.800
   48DPPC  H12Y 6227   4.728   2.984   3.760
   48DPPC  C313 6228   4.659   2.778   3.750
   48DPPC  H13X 6229   4.673   2.684   3.808
   48DPPC  H13Y 6230   4.696   2.761   3.647
   48DPPC  C314 6231   4.510   2.812   3.742
   48DPPC  H14X 6232   4.499   2.910   3.691
   48DPPC  H14Y 6233   4.467   2.822   3.844
   48DPPC  C315 6234   4.429   2.707   3.663
   48DPPC  H15X 6235   4.483   2.687   3.567
   48DPPC  H15Y 6236   4.331   2.751   3.637
   48DPPC  C316 6237   4.406   2.575   3.736
   48DPPC  H16X 6238   4.349   2.505   3.671
   48DPPC  H16Y 6239   4.347   2.592   3.829
   48DPPC  H16Z 6240   4.502   2.527   3.764
   49DPPC     N 6241   0.465   0.571   5.142
   49DPPC   C13 6242   0.547   0.536   5.261
   49DPPC  H13A 6243   0.589   0.437   5.250
   49DPPC  H13B 6244   0.485   0.539   5.350
   49DPPC  H13C 6245   0.627   0.608   5.272
   49DPPC   C14 6246   0.360   0.468   5.122
   49DPPC  H14A 6247   0.297   0.495   5.038
   49DPPC  H14B 6248   0.300   0.459   5.212
   49DPPC  H14C 6249   0.406   0.372   5.103
   49DPPC   C15 6250   0.398   0.702   5.165
   49DPPC  H15A 6251   0.332   0.695   5.250
   49DPPC  H15B 6252   0.343   0.730   5.077
   49DPPC  H15C 6253   0.473   0.778   5.186
   49DPPC   C12 6254   0.552   0.575   5.019
   49DPPC  H12A 6255   0.487   0.568   4.932
   49DPPC  H12B 6256   0.615   0.486   5.019
   49DPPC   C11 6257   0.641   0.699   4.997
   49DPPC  H11A 6258   0.571   0.783   4.975
   49DPPC  H11B 6259   0.702   0.682   4.906
   49DPPC     P 6260   0.749   0.869   5.154
   49DPPC   O13 6261   0.887   0.889   5.205
   49DPPC   O14 6262   0.640   0.902   5.249
   49DPPC   O11 6263   0.733   0.951   5.020
   49DPPC   O12 6264   0.728   0.720   5.108
   49DPPC    C1 6265   0.646   1.064   5.005
   49DPPC    HA 6266   0.705   1.157   5.020
   49DPPC    HB 6267   0.563   1.064   5.079
   49DPPC    C2 6268   0.581   1.070   4.863
   49DPPC    HS 6269   0.512   0.983   4.854
   49DPPC   O21 6270   0.685   1.074   4.763
   49DPPC   C21 6271   0.697   0.963   4.694
   49DPPC   O22 6272   0.634   0.860   4.712
   49DPPC   C22 6273   0.801   0.983   4.583
   49DPPC   H2R 6274   0.896   1.015   4.629
   49DPPC   H2S 6275   0.765   1.064   4.515
   49DPPC    C3 6276   0.493   1.197   4.848
   49DPPC    HX 6277   0.560   1.283   4.874
   49DPPC    HY 6278   0.410   1.194   4.922
   49DPPC   O31 6279   0.440   1.207   4.713
   49DPPC   C31 6280   0.419   1.332   4.673
   49DPPC   O32 6281   0.432   1.431   4.743
   49DPPC   C32 6282   0.381   1.336   4.524
   49DPPC   H2X 6283   0.439   1.418   4.478
   49DPPC   H2Y 6284   0.273   1.361   4.516
   49DPPC   C23 6285   0.822   0.853   4.503
   49DPPC   H3R 6286   0.728   0.824   4.453
   49DPPC   H3S 6287   0.850   0.772   4.574
   49DPPC   C24 6288   0.934   0.862   4.398
   49DPPC   H4R 6289   0.950   0.761   4.355
   49DPPC   H4S 6290   1.028   0.893   4.450
   49DPPC   C25 6291   0.905   0.960   4.283
   49DPPC   H5R 6292   0.808   0.931   4.236
   49DPPC   H5S 6293   0.893   1.063   4.324
   49DPPC   C26 6294   1.013   0.964   4.173
   49DPPC   H6R 6295   0.979   1.035   4.094
   49DPPC   H6S 6296   1.022   0.863   4.126
   49DPPC   C27 6297   1.151   1.008   4.224
   49DPPC   H7R 6298   1.189   0.932   4.296
   49DPPC   H7S 6299   1.140   1.104   4.279
   49DPPC   C28 6300   1.259   1.027   4.116
   49DPPC   H8R 6301   1.279   0.930   4.065
   49DPPC   H8S 6302   1.352   1.058   4.168
   49DPPC   C29 6303   1.224   1.134   4.011
   49DPPC   H9R 6304   1.162   1.213   4.059
   49DPPC   H9S 6305   1.164   1.088   3.930
   49DPPC  C210 6306   1.349   1.202   3.952
   49DPPC  H10R 6307   1.416   1.126   3.907
   49DPPC  H10S 6308   1.404   1.250   4.037
   49DPPC  C211 6309   1.318   1.312   3.849
   49DPPC  H11R 6310   1.229   1.370   3.882
   49DPPC  H11S 6311   1.405   1.381   3.844
   49DPPC  C212 6312   1.295   1.257   3.707
   49DPPC  H12R 6313   1.210   1.185   3.708
   49DPPC  H12S 6314   1.387   1.202   3.676
   49DPPC  C213 6315   1.267   1.367   3.603
   49DPPC  H13R 6316   1.342   1.448   3.615
   49DPPC  H13S 6317   1.166   1.411   3.624
   49DPPC  C214 6318   1.272   1.316   3.458
   49DPPC  H14R 6319   1.374   1.276   3.439
   49DPPC  H14S 6320   1.200   1.232   3.446
   49DPPC  C215 6321   1.241   1.425   3.355
   49DPPC  H15R 6322   1.306   1.513   3.374
   49DPPC  H15S 6323   1.135   1.457   3.368
   49DPPC  C216 6324   1.262   1.381   3.210
   49DPPC  H16R 6325   1.369   1.356   3.192
   49DPPC  H16S 6326   1.232   1.462   3.140
   49DPPC  H16T 6327   1.202   1.290   3.187
   49DPPC   C33 6328   0.411   1.205   4.448
   49DPPC   H3X 6329   0.342   1.125   4.481
   49DPPC   H3Y 6330   0.515   1.171   4.471
   49DPPC   C34 6331   0.400   1.224   4.296
   49DPPC   H4X 6332   0.469   1.306   4.265
   49DPPC   H4Y 6333   0.296   1.255   4.272
   49DPPC   C35 6334   0.434   1.098   4.214
   49DPPC   H5X 6335   0.364   1.017   4.242
   49DPPC   H5Y 6336   0.537   1.065   4.240
   49DPPC   C36 6337   0.425   1.124   4.063
   49DPPC   H6X 6338   0.499   1.202   4.035
   49DPPC   H6Y 6339   0.323   1.166   4.043
   49DPPC   C37 6340   0.445   1.001   3.973
   49DPPC   H7X 6341   0.427   1.034   3.868
   49DPPC   H7Y 6342   0.369   0.924   3.998
   49DPPC   C38 6343   0.585   0.939   3.981
   49DPPC   H8X 6344   0.597   0.886   4.078
   49DPPC   H8Y 6345   0.661   1.020   3.977
   49DPPC   C39 6346   0.613   0.842   3.865
   49DPPC   H9X 6347   0.603   0.899   3.770
   49DPPC   H9Y 6348   0.535   0.762   3.865
   49DPPC  C310 6349   0.752   0.777   3.869
   49DPPC  H10X 6350   0.758   0.708   3.956
   49DPPC  H10Y 6351   0.828   0.858   3.886
   49DPPC  C311 6352   0.791   0.703   3.740
   49DPPC  H11X 6353   0.896   0.667   3.751
   49DPPC  H11Y 6354   0.789   0.775   3.656
   49DPPC  C312 6355   0.701   0.583   3.706
   49DPPC  H12X 6356   0.595   0.618   3.700
   49DPPC  H12Y 6357   0.707   0.508   3.787
   49DPPC  C313 6358   0.734   0.516   3.572
   49DPPC  H13X 6359   0.730   0.592   3.491
   49DPPC  H13Y 6360   0.655   0.440   3.550
   49DPPC  C314 6361   0.871   0.444   3.569
   49DPPC  H14X 6362   0.873   0.371   3.653
   49DPPC  H14Y 6363   0.952   0.519   3.585
   49DPPC  C315 6364   0.899   0.369   3.438
   49DPPC  H15X 6365   0.814   0.299   3.418
   49DPPC  H15Y 6366   0.990   0.306   3.453
   49DPPC  C316 6367   0.921   0.457   3.315
   49DPPC  H16X 6368   1.006   0.526   3.332
   49DPPC  H16Y 6369   0.830   0.518   3.294
   49DPPC  H16Z 6370   0.943   0.395   3.226
   50DPPC     N 6371   1.940   5.443   5.377
   50DPPC   C13 6372   1.951   5.590   5.353
   50DPPC  H13A 6373   1.858   5.625   5.309
   50DPPC  H13B 6374   2.032   5.609   5.284
   50DPPC  H13C 6375   1.969   5.641   5.447
   50DPPC   C14 6376   2.070   5.395   5.432
   50DPPC  H14A 6377   2.066   5.288   5.447
   50DPPC  H14B 6378   2.090   5.444   5.526
   50DPPC  H14C 6379   2.149   5.418   5.362
   50DPPC   C15 6380   1.833   5.416   5.476
   50DPPC  H15A 6381   1.825   5.310   5.496
   50DPPC  H15B 6382   1.738   5.453   5.439
   50DPPC  H15C 6383   1.856   5.466   5.569
   50DPPC   C12 6384   1.913   5.369   5.248
   50DPPC  H12A 6385   1.930   5.264   5.266
   50DPPC  H12B 6386   1.988   5.402   5.176
   50DPPC   C11 6387   1.774   5.386   5.184
   50DPPC  H11A 6388   1.697   5.338   5.249
   50DPPC  H11B 6389   1.779   5.329   5.088
   50DPPC     P 6390   1.617   5.556   5.078
   50DPPC   O13 6391   1.617   5.701   5.048
   50DPPC   O14 6392   1.498   5.504   5.150
   50DPPC   O11 6393   1.642   5.474   4.945
   50DPPC   O12 6394   1.744   5.523   5.164
   50DPPC    C1 6395   1.759   5.498   4.864
   50DPPC    HA 6396   1.847   5.532   4.924
   50DPPC    HB 6397   1.789   5.403   4.814
   50DPPC    C2 6398   1.734   5.603   4.751
   50DPPC    HS 6399   1.693   5.693   4.801
   50DPPC   O21 6400   1.640   5.547   4.657
   50DPPC   C21 6401   1.584   5.637   4.580
   50DPPC   O22 6402   1.595   5.758   4.595
   50DPPC   C22 6403   1.505   5.569   4.469
   50DPPC   H2R 6404   1.412   5.625   4.451
   50DPPC   H2S 6405   1.477   5.466   4.503
   50DPPC    C3 6406   1.867   5.645   4.678
   50DPPC    HX 6407   1.937   5.682   4.756
   50DPPC    HY 6408   1.842   5.730   4.611
   50DPPC   O31 6409   1.929   5.534   4.608
   50DPPC   C31 6410   2.004   5.568   4.503
   50DPPC   O32 6411   2.018   5.682   4.462
   50DPPC   C32 6412   2.075   5.445   4.447
   50DPPC   H2X 6413   2.129   5.397   4.530
   50DPPC   H2Y 6414   2.149   5.478   4.371
   50DPPC   C23 6415   1.590   5.558   4.342
   50DPPC   H3R 6416   1.545   5.480   4.277
   50DPPC   H3S 6417   1.693   5.523   4.367
   50DPPC   C24 6418   1.600   5.688   4.258
   50DPPC   H4R 6419   1.659   5.664   4.167
   50DPPC   H4S 6420   1.656   5.765   4.316
   50DPPC   C25 6421   1.465   5.748   4.213
   50DPPC   H5R 6422   1.487   5.831   4.141
   50DPPC   H5S 6423   1.413   5.792   4.300
   50DPPC   C26 6424   1.371   5.648   4.144
   50DPPC   H6R 6425   1.340   5.571   4.219
   50DPPC   H6S 6426   1.426   5.596   4.063
   50DPPC   C27 6427   1.244   5.712   4.086
   50DPPC   H7R 6428   1.272   5.774   3.999
   50DPPC   H7S 6429   1.200   5.780   4.163
   50DPPC   C28 6430   1.136   5.610   4.045
   50DPPC   H8R 6431   1.050   5.664   3.999
   50DPPC   H8S 6432   1.098   5.562   4.139
   50DPPC   C29 6433   1.183   5.498   3.951
   50DPPC   H9R 6434   1.102   5.422   3.941
   50DPPC   H9S 6435   1.269   5.446   3.998
   50DPPC  C210 6436   1.224   5.545   3.810
   50DPPC  H10R 6437   1.288   5.465   3.765
   50DPPC  H10S 6438   1.286   5.637   3.817
   50DPPC  C211 6439   1.105   5.567   3.715
   50DPPC  H11R 6440   1.037   5.644   3.757
   50DPPC  H11S 6441   1.049   5.471   3.709
   50DPPC  C212 6442   1.149   5.607   3.573
   50DPPC  H12R 6443   1.237   5.545   3.545
   50DPPC  H12S 6444   1.182   5.713   3.574
   50DPPC  C213 6445   1.041   5.587   3.466
   50DPPC  H13R 6446   1.022   5.477   3.457
   50DPPC  H13S 6447   1.081   5.621   3.368
   50DPPC  C214 6448   0.907   5.657   3.492
   50DPPC  H14R 6449   0.865   5.622   3.589
   50DPPC  H14S 6450   0.836   5.627   3.412
   50DPPC  C215 6451   0.916   5.811   3.493
   50DPPC  H15R 6452   0.960   5.844   3.396
   50DPPC  H15S 6453   0.984   5.842   3.574
   50DPPC  C216 6454   0.781   5.880   3.512
   50DPPC  H16R 6455   0.736   5.850   3.610
   50DPPC  H16S 6456   0.710   5.851   3.431
   50DPPC  H16T 6457   0.793   5.990   3.511
   50DPPC   C33 6458   1.976   5.344   4.386
   50DPPC   H3X 6459   1.886   5.333   4.450
   50DPPC   H3Y 6460   2.028   5.245   4.386
   50DPPC   C34 6461   1.936   5.375   4.241
   50DPPC   H4X 6462   2.027   5.380   4.178
   50DPPC   H4Y 6463   1.887   5.475   4.239
   50DPPC   C35 6464   1.839   5.272   4.179
   50DPPC   H5X 6465   1.809   5.310   4.078
   50DPPC   H5Y 6466   1.747   5.268   4.242
   50DPPC   C36 6467   1.897   5.130   4.165
   50DPPC   H6X 6468   1.932   5.095   4.264
   50DPPC   H6Y 6469   1.986   5.134   4.098
   50DPPC   C37 6470   1.798   5.025   4.112
   50DPPC   H7X 6471   1.712   5.020   4.183
   50DPPC   H7Y 6472   1.847   4.925   4.114
   50DPPC   C38 6473   1.743   5.050   3.971
   50DPPC   H8X 6474   1.697   5.151   3.966
   50DPPC   H8Y 6475   1.662   4.975   3.952
   50DPPC   C39 6476   1.847   5.036   3.859
   50DPPC   H9X 6477   1.891   4.935   3.862
   50DPPC   H9Y 6478   1.928   5.110   3.875
   50DPPC  C310 6479   1.786   5.059   3.719
   50DPPC  H10X 6480   1.739   5.160   3.718
   50DPPC  H10Y 6481   1.706   4.984   3.701
   50DPPC  C311 6482   1.890   5.052   3.607
   50DPPC  H11X 6483   1.932   4.949   3.602
   50DPPC  H11Y 6484   1.973   5.120   3.633
   50DPPC  C312 6485   1.837   5.095   3.469
   50DPPC  H12X 6486   1.923   5.107   3.400
   50DPPC  H12Y 6487   1.788   5.195   3.479
   50DPPC  C313 6488   1.738   4.997   3.405
   50DPPC  H13X 6489   1.705   5.040   3.308
   50DPPC  H13Y 6490   1.649   4.985   3.470
   50DPPC  C314 6491   1.800   4.859   3.379
   50DPPC  H14X 6492   1.821   4.808   3.475
   50DPPC  H14Y 6493   1.897   4.872   3.325
   50DPPC  C315 6494   1.710   4.767   3.294
   50DPPC  H15X 6495   1.687   4.817   3.198
   50DPPC  H15Y 6496   1.614   4.753   3.348
   50DPPC  C316 6497   1.773   4.631   3.266
   50DPPC  H16X 6498   1.793   4.577   3.361
   50DPPC  H16Y 6499   1.870   4.645   3.213
   50DPPC  H16Z 6500   1.706   4.569   3.202
   51DPPC     N 6501   6.222   0.144   5.166
   51DPPC   C13 6502   6.271   0.136   5.026
   51DPPC  H13A 6503   0.028   0.223   5.004
   51DPPC  H13B 6504   6.186   0.133   4.959
   51DPPC  H13C 6505   0.027   0.047   5.013
   51DPPC   C14 6506   6.136   0.025   5.190
   51DPPC  H14A 6507   6.052   0.028   5.121
   51DPPC  H14B 6508   6.099   0.025   5.292
   51DPPC  H14C 6509   6.194   6.354   5.173
   51DPPC   C15 6510   0.034   0.139   5.260
   51DPPC  H15A 6511   6.303   0.140   5.362
   51DPPC  H15B 6512   0.099   0.224   5.243
   51DPPC  H15C 6513   0.091   0.049   5.242
   51DPPC   C12 6514   6.139   0.269   5.189
   51DPPC  H12A 6515   6.098   0.263   5.289
   51DPPC  H12B 6516   6.056   0.265   5.120
   51DPPC   C11 6517   6.207   0.406   5.175
   51DPPC  H11A 6518   6.284   0.418   5.254
   51DPPC  H11B 6519   6.127   0.483   5.191
   51DPPC     P 6520   6.296   0.560   4.990
   51DPPC   O13 6521   0.115   0.552   4.907
   51DPPC   O14 6522   6.296   0.659   5.100
   51DPPC   O11 6523   6.169   0.585   4.899
   51DPPC   O12 6524   6.269   0.417   5.048
   51DPPC    C1 6525   6.091   0.478   4.843
   51DPPC    HA 6526   6.001   0.522   4.797
   51DPPC    HB 6527   6.055   0.407   4.922
   51DPPC    C2 6528   6.163   0.397   4.730
   51DPPC    HS 6529   6.240   0.334   4.781
   51DPPC   O21 6530   6.220   0.492   4.639
   51DPPC   C21 6531   0.034   0.456   4.590
   51DPPC   O22 6532   0.092   0.352   4.614
   51DPPC   C22 6533   0.084   0.568   4.499
   51DPPC   H2R 6534   0.088   0.663   4.558
   51DPPC   H2S 6535   0.013   0.582   4.415
   51DPPC    C3 6536   6.062   0.303   4.657
   51DPPC    HX 6537   5.983   0.368   4.614
   51DPPC    HY 6538   6.012   0.237   4.731
   51DPPC   O31 6539   6.121   0.228   4.548
   51DPPC   C31 6540   6.181   0.114   4.584
   51DPPC   O32 6541   6.188   0.072   4.698
   51DPPC   C32 6542   6.236   0.042   4.461
   51DPPC   H2X 6543   6.166   6.378   4.436
   51DPPC   H2Y 6544   0.031   6.417   4.488
   51DPPC   C23 6545   0.225   0.538   4.445
   51DPPC   H3R 6546   0.221   0.451   4.376
   51DPPC   H3S 6547   0.291   0.511   4.530
   51DPPC   C24 6548   0.290   0.658   4.374
   51DPPC   H4R 6549   0.396   0.634   4.350
   51DPPC   H4S 6550   0.291   0.744   4.445
   51DPPC   C25 6551   0.218   0.705   4.245
   51DPPC   H5R 6552   0.262   0.803   4.215
   51DPPC   H5S 6553   0.111   0.723   4.267
   51DPPC   C26 6554   0.229   0.610   4.125
   51DPPC   H6R 6555   0.170   0.654   4.042
   51DPPC   H6S 6556   0.184   0.512   4.151
   51DPPC   C27 6557   0.374   0.589   4.076
   51DPPC   H7R 6558   0.430   0.529   4.150
   51DPPC   H7S 6559   0.422   0.689   4.068
   51DPPC   C28 6560   0.385   0.521   3.938
   51DPPC   H8R 6561   0.492   0.520   3.909
   51DPPC   H8S 6562   0.330   0.581   3.863
   51DPPC   C29 6563   0.333   0.376   3.935
   51DPPC   H9R 6564   0.224   0.376   3.956
   51DPPC   H9S 6565   0.384   0.318   4.015
   51DPPC  C210 6566   0.358   0.306   3.800
   51DPPC  H10R 6567   0.467   0.308   3.778
   51DPPC  H10S 6568   0.307   0.364   3.720
   51DPPC  C211 6569   0.309   0.161   3.799
   51DPPC  H11R 6570   0.199   0.159   3.817
   51DPPC  H11S 6571   0.358   0.107   3.884
   51DPPC  C212 6572   0.340   0.084   3.670
   51DPPC  H12R 6573   0.311   6.396   3.685
   51DPPC  H12S 6574   0.449   0.087   3.651
   51DPPC  C213 6575   0.266   0.136   3.545
   51DPPC  H13R 6576   0.303   0.238   3.520
   51DPPC  H13S 6577   0.158   0.145   3.570
   51DPPC  C214 6578   0.278   0.044   3.423
   51DPPC  H14R 6579   0.218   0.087   3.340
   51DPPC  H14S 6580   0.234   6.363   3.448
   51DPPC  C215 6581   0.422   0.021   3.371
   51DPPC  H15R 6582   0.416   6.371   3.284
   51DPPC  H15S 6583   0.480   6.387   3.450
   51DPPC  C216 6584   0.498   0.147   3.329
   51DPPC  H16R 6585   0.598   0.120   3.289
   51DPPC  H16S 6586   0.512   0.215   3.415
   51DPPC  H16T 6587   0.441   0.201   3.250
   51DPPC   C33 6588   6.253   0.136   4.340
   51DPPC   H3X 6589   0.018   0.219   4.368
   51DPPC   H3Y 6590   6.154   0.181   4.313
   51DPPC   C34 6591   0.006   0.068   4.214
   51DPPC   H4X 6592   0.109   0.031   4.236
   51DPPC   H4Y 6593   0.015   0.145   4.134
   51DPPC   C35 6594   6.225   6.370   4.160
   51DPPC   H5X 6595   6.233   6.284   4.230
   51DPPC   H5Y 6596   6.270   6.337   4.063
   51DPPC   C36 6597   6.076   6.403   4.137
   51DPPC   H6X 6598   6.069   0.084   4.087
   51DPPC   H6Y 6599   6.026   6.411   4.236
   51DPPC   C37 6600   6.000   6.301   4.051
   51DPPC   H7X 6601   6.038   6.309   3.947
   51DPPC   H7Y 6602   5.893   6.328   4.050
   51DPPC   C38 6603   6.015   6.155   4.097
   51DPPC   H8X 6604   5.980   6.147   4.203
   51DPPC   H8Y 6605   6.122   6.126   4.095
   51DPPC   C39 6606   5.935   6.053   4.012
   51DPPC   H9X 6607   5.827   6.072   4.027
   51DPPC   H9Y 6608   5.957   5.951   4.051
   51DPPC  C310 6609   5.965   6.056   3.861
   51DPPC  H10X 6610   5.925   6.150   3.817
   51DPPC  H10Y 6611   5.910   5.971   3.814
   51DPPC  C311 6612   6.114   6.044   3.827
   51DPPC  H11X 6613   6.157   5.956   3.879
   51DPPC  H11Y 6614   6.167   6.135   3.862
   51DPPC  C312 6615   6.141   6.028   3.676
   51DPPC  H12X 6616   6.093   6.113   3.622
   51DPPC  H12Y 6617   6.095   5.934   3.641
   51DPPC  C313 6618   6.291   6.027   3.643
   51DPPC  H13X 6619   0.037   5.946   3.701
   51DPPC  H13Y 6620   0.033   6.124   3.675
   51DPPC  C314 6621   0.017   6.006   3.494
   51DPPC  H14X 6622   6.269   6.086   3.435
   51DPPC  H14Y 6623   6.279   5.908   3.462
   51DPPC  C315 6624   0.167   6.010   3.461
   51DPPC  H15X 6625   0.218   5.931   3.522
   51DPPC  H15Y 6626   0.208   6.109   3.493
   51DPPC  C316 6627   0.201   5.988   3.314
   51DPPC  H16X 6628   0.166   5.888   3.281
   51DPPC  H16Y 6629   0.311   5.994   3.298
   51DPPC  H16Z 6630   0.152   6.065   3.251
   52DPPC     N 6631   0.678   1.586   5.534
   52DPPC   C13 6632   0.532   1.562   5.555
   52DPPC  H13A 6633   0.478   1.656   5.544
   52DPPC  H13B 6634   0.516   1.525   5.655
   52DPPC  H13C 6635   0.495   1.490   5.484
   52DPPC   C14 6636   0.748   1.457   5.558
   52DPPC  H14A 6637   0.855   1.470   5.548
   52DPPC  H14B 6638   0.715   1.382   5.488
   52DPPC  H14C 6639   0.726   1.424   5.659
   52DPPC   C15 6640   0.700   1.628   5.393
   52DPPC  H15A 6641   0.806   1.646   5.376
   52DPPC  H15B 6642   0.645   1.718   5.373
   52DPPC  H15C 6643   0.667   1.551   5.325
   52DPPC   C12 6644   0.733   1.689   5.629
   52DPPC  H12A 6645   0.840   1.689   5.619
   52DPPC  H12B 6646   0.710   1.655   5.730
   52DPPC   C11 6647   0.683   1.835   5.617
   52DPPC  H11A 6648   0.717   1.879   5.520
   52DPPC  H11B 6649   0.733   1.892   5.699
   52DPPC     P 6650   0.471   1.959   5.691
   52DPPC   O13 6651   0.504   1.962   5.836
   52DPPC   O14 6652   0.328   1.952   5.655
   52DPPC   O11 6653   0.539   2.082   5.620
   52DPPC   O12 6654   0.542   1.838   5.624
   52DPPC    C1 6655   0.464   2.164   5.528
   52DPPC    HA 6656   0.520   2.259   5.513
   52DPPC    HB 6657   0.365   2.191   5.570
   52DPPC    C2 6658   0.444   2.100   5.387
   52DPPC    HS 6659   0.389   2.004   5.402
   52DPPC   O21 6660   0.575   2.080   5.328
   52DPPC   C21 6661   0.581   1.977   5.246
   52DPPC   O22 6662   0.492   1.895   5.229
   52DPPC   C22 6663   0.716   1.976   5.175
   52DPPC   H2R 6664   0.794   1.947   5.249
   52DPPC   H2S 6665   0.739   2.078   5.138
   52DPPC    C3 6666   0.357   2.193   5.297
   52DPPC    HX 6667   0.405   2.293   5.299
   52DPPC    HY 6668   0.257   2.205   5.344
   52DPPC   O31 6669   0.349   2.151   5.158
   52DPPC   C31 6670   0.245   2.074   5.126
   52DPPC   O32 6671   0.153   2.045   5.201
   52DPPC   C32 6672   0.261   2.026   4.982
   52DPPC   H2X 6673   0.279   1.917   4.982
   52DPPC   H2Y 6674   0.348   2.077   4.935
   52DPPC   C23 6675   0.716   1.875   5.058
   52DPPC   H3R 6676   0.680   1.776   5.093
   52DPPC   H3S 6677   0.821   1.862   5.025
   52DPPC   C24 6678   0.634   1.922   4.936
   52DPPC   H4R 6679   0.678   2.016   4.896
   52DPPC   H4S 6680   0.531   1.944   4.969
   52DPPC   C25 6681   0.627   1.818   4.823
   52DPPC   H5R 6682   0.582   1.724   4.864
   52DPPC   H5S 6683   0.730   1.793   4.788
   52DPPC   C26 6684   0.542   1.865   4.704
   52DPPC   H6R 6685   0.594   1.949   4.654
   52DPPC   H6S 6686   0.445   1.903   4.743
   52DPPC   C27 6687   0.513   1.755   4.601
   52DPPC   H7R 6688   0.459   1.672   4.653
   52DPPC   H7S 6689   0.608   1.715   4.561
   52DPPC   C28 6690   0.426   1.804   4.484
   52DPPC   H8R 6691   0.482   1.881   4.428
   52DPPC   H8S 6692   0.334   1.852   4.525
   52DPPC   C29 6693   0.383   1.693   4.387
   52DPPC   H9R 6694   0.323   1.618   4.441
   52DPPC   H9S 6695   0.475   1.643   4.348
   52DPPC  C210 6696   0.301   1.747   4.269
   52DPPC  H10R 6697   0.362   1.823   4.216
   52DPPC  H10S 6698   0.210   1.797   4.308
   52DPPC  C211 6699   0.259   1.640   4.167
   52DPPC  H11R 6700   0.194   1.565   4.216
   52DPPC  H11S 6701   0.350   1.587   4.131
   52DPPC  C212 6702   0.186   1.701   4.046
   52DPPC  H12R 6703   0.254   1.776   4.000
   52DPPC  H12S 6704   0.096   1.754   4.082
   52DPPC  C213 6705   0.146   1.599   3.938
   52DPPC  H13R 6706   0.072   1.528   3.980
   52DPPC  H13S 6707   0.236   1.541   3.908
   52DPPC  C214 6708   0.088   1.667   3.813
   52DPPC  H14R 6709   0.163   1.739   3.773
   52DPPC  H14S 6710   6.301   1.725   3.842
   52DPPC  C215 6711   0.051   1.569   3.701
   52DPPC  H15R 6712   6.278   1.497   3.739
   52DPPC  H15S 6713   0.142   1.510   3.674
   52DPPC  C216 6714   6.300   1.636   3.575
   52DPPC  H16R 6715   0.072   1.707   3.533
   52DPPC  H16S 6716   6.208   1.693   3.598
   52DPPC  H16T 6717   6.276   1.560   3.497
   52DPPC   C33 6718   0.136   2.058   4.898
   52DPPC   H3X 6719   0.109   2.165   4.910
   52DPPC   H3Y 6720   0.050   1.997   4.934
   52DPPC   C34 6721   0.159   2.030   4.748
   52DPPC   H4X 6722   0.184   1.923   4.734
   52DPPC   H4Y 6723   0.247   2.091   4.716
   52DPPC   C35 6724   0.040   2.067   4.659
   52DPPC   H5X 6725   0.008   2.170   4.683
   52DPPC   H5Y 6726   6.258   1.998   4.681
   52DPPC   C36 6727   0.073   2.060   4.509
   52DPPC   H6X 6728   0.103   1.956   4.482
   52DPPC   H6Y 6729   0.159   2.127   4.489
   52DPPC   C37 6730   6.258   2.103   4.420
   52DPPC   H7X 6731   6.225   2.204   4.453
   52DPPC   H7Y 6732   6.174   2.033   4.437
   52DPPC   C38 6733   6.291   2.109   4.270
   52DPPC   H8X 6734   0.017   2.008   4.233
   52DPPC   H8Y 6735   0.075   2.176   4.257
   52DPPC   C39 6736   6.174   2.164   4.186
   52DPPC   H9X 6737   6.213   2.199   4.089
   52DPPC   H9Y 6738   6.130   2.251   4.239
   52DPPC  C310 6739   6.064   2.059   4.159
   52DPPC  H10X 6740   6.046   2.000   4.252
   52DPPC  H10Y 6741   6.100   1.989   4.081
   52DPPC  C311 6742   5.928   2.118   4.117
   52DPPC  H11X 6743   5.883   2.167   4.207
   52DPPC  H11Y 6744   5.860   2.035   4.088
   52DPPC  C312 6745   5.933   2.223   4.005
   52DPPC  H12X 6746   5.994   2.309   4.039
   52DPPC  H12Y 6747   5.830   2.261   3.988
   52DPPC  C313 6748   5.989   2.171   3.871
   52DPPC  H13X 6749   6.091   2.132   3.886
   52DPPC  H13Y 6750   5.996   2.258   3.802
   52DPPC  C314 6751   5.901   2.065   3.805
   52DPPC  H14X 6752   5.797   2.105   3.797
   52DPPC  H14Y 6753   5.897   1.973   3.868
   52DPPC  C315 6754   5.947   2.025   3.663
   52DPPC  H15X 6755   5.951   2.117   3.601
   52DPPC  H15Y 6756   5.871   1.958   3.619
   52DPPC  C316 6757   6.084   1.956   3.657
   52DPPC  H16X 6758   6.082   1.863   3.719
   52DPPC  H16Y 6759   6.164   2.022   3.695
   52DPPC  H16Z 6760   6.108   1.928   3.553
   53DPPC     N 6761   3.491   5.807   5.234
   53DPPC   C13 6762   3.457   5.934   5.304
   53DPPC  H13A 6763   3.385   5.915   5.382
   53DPPC  H13B 6764   3.415   6.004   5.233
   53DPPC  H13C 6765   3.547   5.976   5.347
   53DPPC   C14 6766   3.590   5.838   5.128
   53DPPC  H14A 6767   3.548   5.913   5.062
   53DPPC  H14B 6768   3.615   5.750   5.073
   53DPPC  H14C 6769   3.680   5.878   5.174
   53DPPC   C15 6770   3.553   5.713   5.331
   53DPPC  H15A 6771   3.481   5.690   5.409
   53DPPC  H15B 6772   3.640   5.760   5.376
   53DPPC  H15C 6773   3.583   5.621   5.283
   53DPPC   C12 6774   3.367   5.749   5.171
   53DPPC  H12A 6775   3.393   5.654   5.125
   53DPPC  H12B 6776   3.336   5.817   5.091
   53DPPC   C11 6777   3.244   5.727   5.262
   53DPPC  H11A 6778   3.159   5.687   5.200
   53DPPC  H11B 6779   3.209   5.825   5.300
   53DPPC     P 6780   3.259   5.490   5.356
   53DPPC   O13 6781   3.117   5.462   5.328
   53DPPC   O14 6782   3.320   5.425   5.474
   53DPPC   O11 6783   3.345   5.459   5.226
   53DPPC   O12 6784   3.276   5.645   5.373
   53DPPC    C1 6785   3.372   5.325   5.184
   53DPPC    HA 6786   3.290   5.255   5.210
   53DPPC    HB 6787   3.464   5.289   5.236
   53DPPC    C2 6788   3.396   5.314   5.030
   53DPPC    HS 6789   3.450   5.219   5.009
   53DPPC   O21 6790   3.470   5.427   4.979
   53DPPC   C21 6791   3.597   5.425   5.009
   53DPPC   O22 6792   3.655   5.339   5.074
   53DPPC   C22 6793   3.664   5.547   4.946
   53DPPC   H2R 6794   3.731   5.593   5.022
   53DPPC   H2S 6795   3.588   5.623   4.917
   53DPPC    C3 6796   3.261   5.309   4.950
   53DPPC    HX 6797   3.202   5.397   4.985
   53DPPC    HY 6798   3.204   5.218   4.979
   53DPPC   O31 6799   3.277   5.320   4.806
   53DPPC   C31 6800   3.323   5.209   4.747
   53DPPC   O32 6801   3.351   5.106   4.806
   53DPPC   C32 6802   3.342   5.232   4.597
   53DPPC   H2X 6803   3.447   5.206   4.573
   53DPPC   H2Y 6804   3.324   5.338   4.571
   53DPPC   C23 6805   3.748   5.507   4.824
   53DPPC   H3R 6806   3.818   5.426   4.849
   53DPPC   H3S 6807   3.808   5.596   4.794
   53DPPC   C24 6808   3.662   5.467   4.702
   53DPPC   H4R 6809   3.582   5.542   4.688
   53DPPC   H4S 6810   3.614   5.369   4.723
   53DPPC   C25 6811   3.743   5.457   4.572
   53DPPC   H5R 6812   3.827   5.385   4.585
   53DPPC   H5S 6813   3.787   5.557   4.549
   53DPPC   C26 6814   3.657   5.412   4.453
   53DPPC   H6R 6815   3.568   5.479   4.445
   53DPPC   H6S 6816   3.620   5.309   4.474
   53DPPC   C27 6817   3.731   5.411   4.319
   53DPPC   H7R 6818   3.822   5.349   4.328
   53DPPC   H7S 6819   3.762   5.515   4.293
   53DPPC   C28 6820   3.643   5.355   4.206
   53DPPC   H8R 6821   3.552   5.417   4.196
   53DPPC   H8S 6822   3.612   5.252   4.235
   53DPPC   C29 6823   3.714   5.347   4.070
   53DPPC   H9R 6824   3.809   5.290   4.083
   53DPPC   H9S 6825   3.740   5.449   4.034
   53DPPC  C210 6826   3.628   5.276   3.965
   53DPPC  H10R 6827   3.540   5.340   3.939
   53DPPC  H10S 6828   3.589   5.182   4.011
   53DPPC  C211 6829   3.703   5.237   3.837
   53DPPC  H11R 6830   3.733   5.328   3.781
   53DPPC  H11S 6831   3.797   5.185   3.867
   53DPPC  C212 6832   3.621   5.144   3.747
   53DPPC  H12R 6833   3.538   5.201   3.700
   53DPPC  H12S 6834   3.576   5.064   3.811
   53DPPC  C213 6835   3.705   5.074   3.639
   53DPPC  H13R 6836   3.788   5.021   3.689
   53DPPC  H13S 6837   3.749   5.151   3.571
   53DPPC  C214 6838   3.623   4.974   3.555
   53DPPC  H14R 6839   3.546   5.031   3.498
   53DPPC  H14S 6840   3.570   4.905   3.624
   53DPPC  C215 6841   3.707   4.890   3.458
   53DPPC  H15R 6842   3.760   4.958   3.388
   53DPPC  H15S 6843   3.637   4.828   3.398
   53DPPC  C216 6844   3.809   4.797   3.524
   53DPPC  H16R 6845   3.759   4.731   3.598
   53DPPC  H16S 6846   3.888   4.855   3.576
   53DPPC  H16T 6847   3.858   4.733   3.447
   53DPPC   C33 6848   3.248   5.141   4.516
   53DPPC   H3X 6849   3.143   5.173   4.532
   53DPPC   H3Y 6850   3.257   5.035   4.552
   53DPPC   C34 6851   3.277   5.143   4.365
   53DPPC   H4X 6852   3.380   5.105   4.348
   53DPPC   H4Y 6853   3.272   5.248   4.330
   53DPPC   C35 6854   3.178   5.057   4.284
   53DPPC   H5X 6855   3.076   5.099   4.294
   53DPPC   H5Y 6856   3.178   4.955   4.328
   53DPPC   C36 6857   3.214   5.045   4.135
   53DPPC   H6X 6858   3.153   4.963   4.090
   53DPPC   H6Y 6859   3.321   5.016   4.128
   53DPPC   C37 6860   3.194   5.173   4.053
   53DPPC   H7X 6861   3.238   5.259   4.108
   53DPPC   H7Y 6862   3.085   5.192   4.041
   53DPPC   C38 6863   3.261   5.165   3.915
   53DPPC   H8X 6864   3.220   5.080   3.857
   53DPPC   H8Y 6865   3.369   5.144   3.932
   53DPPC   C39 6866   3.251   5.295   3.834
   53DPPC   H9X 6867   3.335   5.299   3.761
   53DPPC   H9Y 6868   3.264   5.381   3.904
   53DPPC  C310 6869   3.120   5.311   3.756
   53DPPC  H10X 6870   3.111   5.417   3.725
   53DPPC  H10Y 6871   3.034   5.287   3.823
   53DPPC  C311 6872   3.112   5.224   3.630
   53DPPC  H11X 6873   3.099   5.117   3.659
   53DPPC  H11Y 6874   3.208   5.233   3.574
   53DPPC  C312 6875   2.998   5.265   3.536
   53DPPC  H12X 6876   3.012   5.372   3.510
   53DPPC  H12Y 6877   2.900   5.255   3.588
   53DPPC  C313 6878   2.995   5.184   3.405
   53DPPC  H13X 6879   2.957   5.082   3.426
   53DPPC  H13Y 6880   3.100   5.174   3.369
   53DPPC  C314 6881   2.913   5.249   3.293
   53DPPC  H14X 6882   2.922   5.186   3.201
   53DPPC  H14Y 6883   2.957   5.349   3.271
   53DPPC  C315 6884   2.764   5.267   3.325
   53DPPC  H15X 6885   2.753   5.327   3.418
   53DPPC  H15Y 6886   2.719   5.167   3.344
   53DPPC  C316 6887   2.685   5.337   3.214
   53DPPC  H16X 6888   2.579   5.350   3.243
   53DPPC  H16Y 6889   2.689   5.278   3.120
   53DPPC  H16Z 6890   2.728   5.437   3.194
   54DPPC     N 6891   2.122   1.890   5.181
   54DPPC   C13 6892   2.168   2.030   5.162
   54DPPC  H13A 6893   2.235   2.034   5.077
   54DPPC  H13B 6894   2.222   2.063   5.250
   54DPPC  H13C 6895   2.085   2.096   5.144
   54DPPC   C14 6896   2.241   1.805   5.203
   54DPPC  H14A 6897   2.211   1.702   5.218
   54DPPC  H14B 6898   2.295   1.839   5.290
   54DPPC  H14C 6899   2.307   1.811   5.117
   54DPPC   C15 6900   2.034   1.884   5.301
   54DPPC  H15A 6901   2.092   1.913   5.388
   54DPPC  H15B 6902   1.998   1.783   5.313
   54DPPC  H15C 6903   1.950   1.951   5.289
   54DPPC   C12 6904   2.047   1.847   5.057
   54DPPC  H12A 6905   2.105   1.879   4.971
   54DPPC  H12B 6906   1.953   1.901   5.055
   54DPPC   C11 6907   2.017   1.696   5.039
   54DPPC  H11A 6908   2.114   1.645   5.018
   54DPPC  H11B 6909   1.952   1.687   4.949
   54DPPC     P 6910   1.916   1.491   5.153
   54DPPC   O13 6911   1.776   1.475   5.107
   54DPPC   O14 6912   1.944   1.436   5.288
   54DPPC   O11 6913   2.012   1.425   5.047
   54DPPC   O12 6914   1.953   1.644   5.153
   54DPPC    C1 6915   1.970   1.405   4.911
   54DPPC    HA 6916   2.056   1.419   4.843
   54DPPC    HB 6917   1.894   1.480   4.879
   54DPPC    C2 6918   1.910   1.263   4.885
   54DPPC    HS 6919   1.894   1.217   4.985
   54DPPC   O21 6920   2.006   1.187   4.809
   54DPPC   C21 6921   1.985   1.057   4.816
   54DPPC   O22 6922   1.895   1.005   4.880
   54DPPC   C22 6923   2.088   0.982   4.731
   54DPPC   H2R 6924   2.084   0.874   4.756
   54DPPC   H2S 6925   2.189   1.021   4.756
   54DPPC    C3 6926   1.771   1.273   4.813
   54DPPC    HX 6927   1.704   1.319   4.890
   54DPPC    HY 6928   1.733   1.172   4.788
   54DPPC   O31 6929   1.778   1.356   4.694
   54DPPC   C31 6930   1.658   1.399   4.654
   54DPPC   O32 6931   1.552   1.361   4.702
   54DPPC   C32 6932   1.671   1.504   4.543
   54DPPC   H2X 6933   1.598   1.584   4.566
   54DPPC   H2Y 6934   1.644   1.457   4.447
   54DPPC   C23 6935   2.058   1.003   4.582
   54DPPC   H3R 6936   2.044   1.112   4.561
   54DPPC   H3S 6937   1.963   0.952   4.556
   54DPPC   C24 6938   2.169   0.952   4.488
   54DPPC   H4R 6939   2.180   0.842   4.500
   54DPPC   H4S 6940   2.264   1.000   4.518
   54DPPC   C25 6941   2.142   0.984   4.340
   54DPPC   H5R 6942   2.112   1.091   4.332
   54DPPC   H5S 6943   2.057   0.922   4.304
   54DPPC   C26 6944   2.264   0.961   4.250
   54DPPC   H6R 6945   2.295   0.855   4.256
   54DPPC   H6S 6946   2.348   1.023   4.289
   54DPPC   C27 6947   2.240   0.999   4.103
   54DPPC   H7R 6948   2.203   1.103   4.098
   54DPPC   H7S 6949   2.162   0.932   4.061
   54DPPC   C28 6950   2.368   0.988   4.017
   54DPPC   H8R 6951   2.408   0.885   4.024
   54DPPC   H8S 6952   2.444   1.057   4.060
   54DPPC   C29 6953   2.348   1.024   3.869
   54DPPC   H9R 6954   2.297   1.122   3.861
   54DPPC   H9S 6955   2.448   1.034   3.822
   54DPPC  C210 6956   2.269   0.918   3.790
   54DPPC  H10R 6957   2.168   0.905   3.834
   54DPPC  H10S 6958   2.323   0.821   3.801
   54DPPC  C211 6959   2.254   0.948   3.640
   54DPPC  H11R 6960   2.354   0.963   3.594
   54DPPC  H11S 6961   2.208   0.858   3.593
   54DPPC  C212 6962   2.165   1.069   3.609
   54DPPC  H12R 6963   2.219   1.163   3.634
   54DPPC  H12S 6964   2.074   1.063   3.674
   54DPPC  C213 6965   2.119   1.073   3.463
   54DPPC  H13R 6966   2.070   0.976   3.439
   54DPPC  H13S 6967   2.207   1.084   3.396
   54DPPC  C214 6968   2.018   1.185   3.433
   54DPPC  H14R 6969   2.069   1.284   3.443
   54DPPC  H14S 6970   1.937   1.181   3.509
   54DPPC  C215 6971   1.956   1.174   3.293
   54DPPC  H15R 6972   1.909   1.073   3.283
   54DPPC  H15S 6973   2.037   1.180   3.217
   54DPPC  C216 6974   1.850   1.280   3.263
   54DPPC  H16R 6975   1.893   1.382   3.274
   54DPPC  H16S 6976   1.764   1.270   3.332
   54DPPC  H16T 6977   1.813   1.269   3.158
   54DPPC   C33 6978   1.812   1.567   4.534
   54DPPC   H3X 6979   1.884   1.493   4.494
   54DPPC   H3Y 6980   1.845   1.596   4.637
   54DPPC   C34 6981   1.815   1.696   4.449
   54DPPC   H4X 6982   1.915   1.743   4.459
   54DPPC   H4Y 6983   1.740   1.767   4.491
   54DPPC   C35 6984   1.786   1.674   4.300
   54DPPC   H5X 6985   1.700   1.604   4.288
   54DPPC   H5Y 6986   1.875   1.627   4.253
   54DPPC   C36 6987   1.750   1.804   4.226
   54DPPC   H6X 6988   1.826   1.882   4.248
   54DPPC   H6Y 6989   1.652   1.840   4.264
   54DPPC   C37 6990   1.742   1.786   4.073
   54DPPC   H7X 6991   1.691   1.691   4.051
   54DPPC   H7Y 6992   1.846   1.779   4.034
   54DPPC   C38 6993   1.670   1.901   4.000
   54DPPC   H8X 6994   1.696   1.898   3.892
   54DPPC   H8Y 6995   1.707   1.998   4.041
   54DPPC   C39 6996   1.516   1.897   4.011
   54DPPC   H9X 6997   1.476   1.994   3.975
   54DPPC   H9Y 6998   1.487   1.886   4.118
   54DPPC  C310 6999   1.451   1.784   3.929
   54DPPC  H10X 7000   1.499   1.687   3.956
   54DPPC  H10Y 7001   1.472   1.802   3.821
   54DPPC  C311 7002   1.300   1.768   3.949
   54DPPC  H11X 7003   1.279   1.741   4.055
   54DPPC  H11Y 7004   1.267   1.682   3.886
   54DPPC  C312 7005   1.217   1.892   3.912
   54DPPC  H12X 7006   1.245   1.926   3.810
   54DPPC  H12Y 7007   1.243   1.975   3.983
   54DPPC  C313 7008   1.065   1.871   3.919
   54DPPC  H13X 7009   1.015   1.968   3.895
   54DPPC  H13Y 7010   1.037   1.843   4.023
   54DPPC  C314 7011   1.009   1.764   3.823
   54DPPC  H14X 7012   0.898   1.764   3.833
   54DPPC  H14Y 7013   1.045   1.664   3.854
   54DPPC  C315 7014   1.045   1.787   3.675
   54DPPC  H15X 7015   1.155   1.779   3.663
   54DPPC  H15Y 7016   1.015   1.891   3.648
   54DPPC  C316 7017   0.978   1.689   3.578
   54DPPC  H16X 7018   0.867   1.696   3.586
   54DPPC  H16Y 7019   1.009   1.585   3.601
   54DPPC  H16Z 7020   1.007   1.713   3.474
   55DPPC     N 7021   3.632   2.330   4.929
   55DPPC   C13 7022   3.759   2.406   4.918
   55DPPC  H13A 7023   3.831   2.369   4.989
   55DPPC  H13B 7024   3.740   2.511   4.936
   55DPPC  H13C 7025   3.799   2.394   4.818
   55DPPC   C14 7026   3.661   2.189   4.892
   55DPPC  H14A 7027   3.733   2.149   4.962
   55DPPC  H14B 7028   3.704   2.186   4.792
   55DPPC  H14C 7029   3.571   2.130   4.895
   55DPPC   C15 7030   3.585   2.332   5.070
   55DPPC  H15A 7031   3.564   2.434   5.101
   55DPPC  H15B 7032   3.661   2.291   5.134
   55DPPC  H15C 7033   3.495   2.273   5.081
   55DPPC   C12 7034   3.527   2.386   4.836
   55DPPC  H12A 7035   3.448   2.313   4.827
   55DPPC  H12B 7036   3.573   2.397   4.739
   55DPPC   C11 7037   3.461   2.521   4.875
   55DPPC  H11A 7038   3.389   2.501   4.957
   55DPPC  H11B 7039   3.405   2.556   4.785
   55DPPC     P 7040   3.508   2.757   4.952
   55DPPC   O13 7041   3.624   2.845   4.981
   55DPPC   O14 7042   3.408   2.745   5.060
   55DPPC   O11 7043   3.437   2.805   4.820
   55DPPC   O12 7044   3.561   2.614   4.914
   55DPPC    C1 7045   3.318   2.885   4.825
   55DPPC    HA 7046   3.319   2.955   4.738
   55DPPC    HB 7047   3.314   2.948   4.917
   55DPPC    C2 7048   3.188   2.800   4.817
   55DPPC    HS 7049   3.204   2.715   4.887
   55DPPC   O21 7050   3.172   2.754   4.682
   55DPPC   C21 7051   3.099   2.645   4.672
   55DPPC   O22 7052   3.053   2.581   4.765
   55DPPC   C22 7053   3.083   2.611   4.524
   55DPPC   H2R 7054   3.051   2.702   4.471
   55DPPC   H2S 7055   3.005   2.533   4.512
   55DPPC    C3 7056   3.061   2.879   4.867
   55DPPC    HX 7057   2.980   2.804   4.882
   55DPPC    HY 7058   3.083   2.921   4.968
   55DPPC   O31 7059   3.013   2.979   4.775
   55DPPC   C31 7060   3.060   3.102   4.789
   55DPPC   O32 7061   3.152   3.134   4.863
   55DPPC   C32 7062   2.985   3.199   4.697
   55DPPC   H2X 7063   3.041   3.209   4.602
   55DPPC   H2Y 7064   2.983   3.298   4.747
   55DPPC   C23 7065   3.217   2.562   4.467
   55DPPC   H3R 7066   3.301   2.624   4.507
   55DPPC   H3S 7067   3.216   2.577   4.357
   55DPPC   C24 7068   3.246   2.414   4.494
   55DPPC   H4R 7069   3.184   2.353   4.424
   55DPPC   H4S 7070   3.217   2.387   4.598
   55DPPC   C25 7071   3.394   2.378   4.475
   55DPPC   H5R 7072   3.450   2.414   4.564
   55DPPC   H5S 7073   3.434   2.432   4.386
   55DPPC   C26 7074   3.420   2.228   4.456
   55DPPC   H6R 7075   3.352   2.169   4.521
   55DPPC   H6S 7076   3.525   2.207   4.490
   55DPPC   C27 7077   3.409   2.184   4.310
   55DPPC   H7R 7078   3.472   2.253   4.249
   55DPPC   H7S 7079   3.304   2.194   4.274
   55DPPC   C28 7080   3.458   2.040   4.284
   55DPPC   H8R 7081   3.384   1.967   4.323
   55DPPC   H8S 7082   3.553   2.026   4.340
   55DPPC   C29 7083   3.487   2.013   4.135
   55DPPC   H9R 7084   3.552   2.096   4.099
   55DPPC   H9S 7085   3.393   2.017   4.077
   55DPPC  C210 7086   3.559   1.879   4.111
   55DPPC  H10R 7087   3.482   1.800   4.099
   55DPPC  H10S 7088   3.620   1.854   4.200
   55DPPC  C211 7089   3.653   1.879   3.989
   55DPPC  H11R 7090   3.597   1.913   3.899
   55DPPC  H11S 7091   3.685   1.774   3.971
   55DPPC  C212 7092   3.778   1.967   4.008
   55DPPC  H12R 7093   3.829   1.935   4.102
   55DPPC  H12S 7094   3.747   2.073   4.021
   55DPPC  C213 7095   3.880   1.962   3.892
   55DPPC  H13R 7096   3.965   2.028   3.920
   55DPPC  H13S 7097   3.833   2.006   3.801
   55DPPC  C214 7098   3.935   1.823   3.857
   55DPPC  H14R 7099   4.011   1.836   3.776
   55DPPC  H14S 7100   3.853   1.761   3.816
   55DPPC  C215 7101   4.000   1.750   3.975
   55DPPC  H15R 7102   3.924   1.731   4.053
   55DPPC  H15S 7103   4.079   1.815   4.018
   55DPPC  C216 7104   4.063   1.615   3.937
   55DPPC  H16R 7105   4.143   1.630   3.861
   55DPPC  H16S 7106   3.986   1.547   3.895
   55DPPC  H16T 7107   4.109   1.568   4.026
   55DPPC   C33 7108   2.840   3.153   4.670
   55DPPC   H3X 7109   2.791   3.135   4.769
   55DPPC   H3Y 7110   2.839   3.057   4.614
   55DPPC   C34 7111   2.756   3.257   4.595
   55DPPC   H4X 7112   2.781   3.359   4.632
   55DPPC   H4Y 7113   2.649   3.238   4.616
   55DPPC   C35 7114   2.775   3.251   4.442
   55DPPC   H5X 7115   2.740   3.151   4.407
   55DPPC   H5Y 7116   2.883   3.261   4.417
   55DPPC   C36 7117   2.697   3.360   4.367
   55DPPC   H6X 7118   2.746   3.458   4.387
   55DPPC   H6Y 7119   2.593   3.365   4.408
   55DPPC   C37 7120   2.690   3.336   4.216
   55DPPC   H7X 7121   2.625   3.248   4.196
   55DPPC   H7Y 7122   2.792   3.312   4.179
   55DPPC   C38 7123   2.638   3.456   4.135
   55DPPC   H8X 7124   2.632   3.426   4.028
   55DPPC   H8Y 7125   2.712   3.539   4.143
   55DPPC   C39 7126   2.501   3.510   4.180
   55DPPC   H9X 7127   2.512   3.556   4.281
   55DPPC   H9Y 7128   2.429   3.426   4.188
   55DPPC  C310 7129   2.442   3.616   4.085
   55DPPC  H10X 7130   2.353   3.662   4.134
   55DPPC  H10Y 7131   2.406   3.565   3.992
   55DPPC  C311 7132   2.539   3.728   4.044
   55DPPC  H11X 7133   2.620   3.684   3.981
   55DPPC  H11Y 7134   2.586   3.770   4.136
   55DPPC  C312 7135   2.472   3.841   3.966
   55DPPC  H12X 7136   2.401   3.894   4.033
   55DPPC  H12Y 7137   2.413   3.797   3.882
   55DPPC  C313 7138   2.573   3.942   3.908
   55DPPC  H13X 7139   2.635   3.891   3.831
   55DPPC  H13Y 7140   2.642   3.974   3.990
   55DPPC  C314 7141   2.510   4.068   3.847
   55DPPC  H14X 7142   2.591   4.132   3.807
   55DPPC  H14Y 7143   2.458   4.125   3.927
   55DPPC  C315 7144   2.409   4.041   3.734
   55DPPC  H15X 7145   2.321   3.986   3.776
   55DPPC  H15Y 7146   2.456   3.975   3.658
   55DPPC  C316 7147   2.358   4.168   3.665
   55DPPC  H16X 7148   2.285   4.142   3.585
   55DPPC  H16Y 7149   2.443   4.223   3.619
   55DPPC  H16Z 7150   2.308   4.234   3.739
   56DPPC     N 7151   5.460   2.061   4.779
   56DPPC   C13 7152   5.327   2.069   4.844
   56DPPC  H13A 7153   5.272   1.977   4.828
   56DPPC  H13B 7154   5.270   2.150   4.799
   56DPPC  H13C 7155   5.337   2.088   4.950
   56DPPC   C14 7156   5.536   2.185   4.811
   56DPPC  H14A 7157   5.547   2.195   4.918
   56DPPC  H14B 7158   5.484   2.271   4.772
   56DPPC  H14C 7159   5.633   2.179   4.765
   56DPPC   C15 7160   5.534   1.944   4.833
   56DPPC  H15A 7161   5.540   1.950   4.941
   56DPPC  H15B 7162   5.634   1.943   4.791
   56DPPC  H15C 7163   5.483   1.853   4.803
   56DPPC   C12 7164   5.444   2.048   4.630
   56DPPC  H12A 7165   5.539   2.017   4.590
   56DPPC  H12B 7166   5.423   2.147   4.591
   56DPPC   C11 7167   5.333   1.954   4.578
   56DPPC  H11A 7168   5.352   1.938   4.469
   56DPPC  H11B 7169   5.235   2.009   4.588
   56DPPC     P 7170   5.210   1.737   4.621
   56DPPC   O13 7171   5.101   1.771   4.716
   56DPPC   O14 7172   5.257   1.596   4.622
   56DPPC   O11 7173   5.166   1.776   4.475
   56DPPC   O12 7174   5.332   1.831   4.649
   56DPPC    C1 7175   5.032   1.813   4.439
   56DPPC    HA 7176   5.038   1.878   4.350
   56DPPC    HB 7177   4.981   1.872   4.519
   56DPPC    C2 7178   4.944   1.690   4.400
   56DPPC    HS 7179   4.919   1.637   4.495
   56DPPC   O21 7180   5.023   1.606   4.315
   56DPPC   C21 7181   4.977   1.484   4.303
   56DPPC   O22 7182   4.875   1.441   4.355
   56DPPC   C22 7183   5.073   1.405   4.213
   56DPPC   H2R 7184   5.172   1.400   4.263
   56DPPC   H2S 7185   5.085   1.459   4.117
   56DPPC    C3 7186   4.811   1.736   4.332
   56DPPC    HX 7187   4.762   1.806   4.403
   56DPPC    HY 7188   4.743   1.649   4.318
   56DPPC   O31 7189   4.836   1.799   4.204
   56DPPC   C31 7190   4.737   1.874   4.158
   56DPPC   O32 7191   4.633   1.897   4.217
   56DPPC   C32 7192   4.772   1.921   4.016
   56DPPC   H2X 7193   4.702   1.871   3.946
   56DPPC   H2Y 7194   4.875   1.890   3.991
   56DPPC   C23 7195   5.020   1.263   4.187
   56DPPC   H3R 7196   4.922   1.269   4.136
   56DPPC   H3S 7197   5.006   1.210   4.284
   56DPPC   C24 7198   5.118   1.181   4.101
   56DPPC   H4R 7199   5.218   1.183   4.151
   56DPPC   H4S 7200   5.130   1.228   4.002
   56DPPC   C25 7201   5.078   1.033   4.084
   56DPPC   H5R 7202   5.071   0.989   4.186
   56DPPC   H5S 7203   5.159   0.980   4.030
   56DPPC   C26 7204   4.945   1.007   4.011
   56DPPC   H6R 7205   4.863   1.069   4.053
   56DPPC   H6S 7206   4.919   0.901   4.032
   56DPPC   C27 7207   4.951   1.022   3.858
   56DPPC   H7R 7208   4.882   0.948   3.813
   56DPPC   H7S 7209   5.054   0.997   3.823
   56DPPC   C28 7210   4.908   1.161   3.806
   56DPPC   H8R 7211   4.970   1.240   3.854
   56DPPC   H8S 7212   4.803   1.177   3.837
   56DPPC   C29 7213   4.918   1.175   3.654
   56DPPC   H9R 7214   4.867   1.270   3.624
   56DPPC   H9S 7215   4.863   1.092   3.606
   56DPPC  C210 7216   5.063   1.180   3.601
   56DPPC  H10R 7217   5.112   1.083   3.623
   56DPPC  H10S 7218   5.118   1.259   3.657
   56DPPC  C211 7219   5.075   1.211   3.451
   56DPPC  H11R 7220   5.183   1.210   3.425
   56DPPC  H11S 7221   5.037   1.314   3.432
   56DPPC  C212 7222   5.002   1.114   3.357
   56DPPC  H12R 7223   5.028   1.142   3.253
   56DPPC  H12S 7224   4.892   1.126   3.369
   56DPPC  C213 7225   5.039   0.966   3.379
   56DPPC  H13R 7226   5.002   0.935   3.480
   56DPPC  H13S 7227   5.149   0.955   3.379
   56DPPC  C214 7228   4.979   0.870   3.275
   56DPPC  H14R 7229   4.870   0.889   3.266
   56DPPC  H14S 7230   4.992   0.766   3.312
   56DPPC  C215 7231   5.045   0.880   3.137
   56DPPC  H15R 7232   5.154   0.866   3.149
   56DPPC  H15S 7233   5.028   0.981   3.095
   56DPPC  C216 7234   4.994   0.776   3.036
   56DPPC  H16R 7235   4.884   0.788   3.022
   56DPPC  H16S 7236   5.014   0.674   3.073
   56DPPC  H16T 7237   5.044   0.789   2.938
   56DPPC   C33 7238   4.758   2.073   4.000
   56DPPC   H3X 7239   4.823   2.125   4.075
   56DPPC   H3Y 7240   4.653   2.104   4.018
   56DPPC   C34 7241   4.800   2.119   3.859
   56DPPC   H4X 7242   4.740   2.063   3.784
   56DPPC   H4Y 7243   4.907   2.092   3.844
   56DPPC   C35 7244   4.782   2.269   3.833
   56DPPC   H5X 7245   4.841   2.326   3.908
   56DPPC   H5Y 7246   4.675   2.295   3.847
   56DPPC   C36 7247   4.826   2.311   3.692
   56DPPC   H6X 7248   4.769   2.251   3.618
   56DPPC   H6Y 7249   4.934   2.287   3.678
   56DPPC   C37 7250   4.803   2.460   3.664
   56DPPC   H7X 7251   4.867   2.520   3.733
   56DPPC   H7Y 7252   4.697   2.484   3.686
   56DPPC   C38 7253   4.833   2.505   3.520
   56DPPC   H8X 7254   4.937   2.479   3.492
   56DPPC   H8Y 7255   4.824   2.616   3.517
   56DPPC   C39 7256   4.735   2.446   3.416
   56DPPC   H9X 7257   4.634   2.444   3.462
   56DPPC   H9Y 7258   4.765   2.342   3.392
   56DPPC  C310 7259   4.726   2.529   3.287
   56DPPC  H10X 7260   4.826   2.538   3.240
   56DPPC  H10Y 7261   4.693   2.632   3.316
   56DPPC  C311 7262   4.626   2.472   3.185
   56DPPC  H11X 7263   4.542   2.426   3.242
   56DPPC  H11Y 7264   4.674   2.393   3.125
   56DPPC  C312 7265   4.565   2.579   3.093
   56DPPC  H12X 7266   4.516   2.656   3.158
   56DPPC  H12Y 7267   4.485   2.532   3.031
   56DPPC  C313 7268   4.664   2.651   3.001
   56DPPC  H13X 7269   4.708   2.577   2.930
   56DPPC  H13Y 7270   4.746   2.694   3.062
   56DPPC  C314 7271   4.597   2.764   2.921
   56DPPC  H14X 7272   4.550   2.835   2.992
   56DPPC  H14Y 7273   4.517   2.721   2.857
   56DPPC  C315 7274   4.696   2.843   2.832
   56DPPC  H15X 7275   4.742   2.773   2.759
   56DPPC  H15Y 7276   4.777   2.882   2.898
   56DPPC  C316 7277   4.633   2.960   2.757
   56DPPC  H16X 7278   4.585   3.031   2.828
   56DPPC  H16Y 7279   4.556   2.923   2.686
   56DPPC  H16Z 7280   4.710   3.015   2.699
   57DPPC     N 7281   3.610   0.681   5.626
   57DPPC   C13 7282   3.643   0.804   5.549
   57DPPC  H13A 7283   3.635   0.891   5.614
   57DPPC  H13B 7284   3.573   0.815   5.466
   57DPPC  H13C 7285   3.744   0.798   5.511
   57DPPC   C14 7286   3.701   0.673   5.743
   57DPPC  H14A 7287   3.804   0.669   5.710
   57DPPC  H14B 7288   3.679   0.583   5.799
   57DPPC  H14C 7289   3.687   0.759   5.806
   57DPPC   C15 7290   3.471   0.688   5.677
   57DPPC  H15A 7291   3.403   0.693   5.594
   57DPPC  H15B 7292   3.460   0.774   5.740
   57DPPC  H15C 7293   3.451   0.598   5.735
   57DPPC   C12 7294   3.629   0.558   5.539
   57DPPC  H12A 7295   3.591   0.474   5.596
   57DPPC  H12B 7296   3.735   0.544   5.526
   57DPPC   C11 7297   3.563   0.558   5.400
   57DPPC  H11A 7298   3.577   0.457   5.356
   57DPPC  H11B 7299   3.619   0.630   5.335
   57DPPC     P 7300   3.360   0.682   5.306
   57DPPC   O13 7301   3.417   0.816   5.328
   57DPPC   O14 7302   3.212   0.672   5.317
   57DPPC   O11 7303   3.407   0.626   5.166
   57DPPC   O12 7304   3.423   0.583   5.409
   57DPPC    C1 7305   3.387   0.490   5.126
   57DPPC    HA 7306   3.296   0.484   5.062
   57DPPC    HB 7307   3.374   0.421   5.212
   57DPPC    C2 7308   3.508   0.438   5.042
   57DPPC    HS 7309   3.597   0.442   5.109
   57DPPC   O21 7310   3.519   0.520   4.925
   57DPPC   C21 7311   3.634   0.580   4.909
   57DPPC   O22 7312   3.726   0.580   4.989
   57DPPC   C22 7313   3.639   0.643   4.770
   57DPPC   H2R 7314   3.746   0.658   4.744
   57DPPC   H2S 7315   3.588   0.741   4.771
   57DPPC    C3 7316   3.490   0.289   4.998
   57DPPC    HX 7317   3.390   0.284   4.949
   57DPPC    HY 7318   3.485   0.224   5.088
   57DPPC   O31 7319   3.588   0.243   4.902
   57DPPC   C31 7320   3.704   0.206   4.957
   57DPPC   O32 7321   3.730   0.213   5.075
   57DPPC   C32 7322   3.799   0.152   4.850
   57DPPC   H2X 7323   3.761   0.055   4.813
   57DPPC   H2Y 7324   3.899   0.136   4.897
   57DPPC   C23 7325   3.574   0.549   4.665
   57DPPC   H3R 7326   3.464   0.560   4.669
   57DPPC   H3S 7327   3.599   0.444   4.691
   57DPPC   C24 7328   3.624   0.572   4.522
   57DPPC   H4R 7329   3.736   0.569   4.523
   57DPPC   H4S 7330   3.593   0.672   4.486
   57DPPC   C25 7331   3.574   0.464   4.424
   57DPPC   H5R 7332   3.464   0.473   4.413
   57DPPC   H5S 7333   3.596   0.364   4.468
   57DPPC   C26 7334   3.641   0.472   4.286
   57DPPC   H6R 7335   3.751   0.477   4.301
   57DPPC   H6S 7336   3.609   0.566   4.235
   57DPPC   C27 7337   3.610   0.351   4.197
   57DPPC   H7R 7338   3.500   0.345   4.180
   57DPPC   H7S 7339   3.641   0.259   4.251
   57DPPC   C28 7340   3.682   0.357   4.061
   57DPPC   H8R 7341   3.791   0.369   4.078
   57DPPC   H8S 7342   3.646   0.447   4.006
   57DPPC   C29 7343   3.658   0.233   3.973
   57DPPC   H9R 7344   3.694   0.256   3.870
   57DPPC   H9S 7345   3.549   0.212   3.968
   57DPPC  C210 7346   3.734   0.108   4.023
   57DPPC  H10R 7347   3.698   0.080   4.125
   57DPPC  H10S 7348   3.842   0.133   4.031
   57DPPC  C211 7349   3.720   6.404   3.931
   57DPPC  H11R 7350   3.754   0.012   3.829
   57DPPC  H11S 7351   3.788   6.324   3.969
   57DPPC  C212 7352   3.577   6.346   3.924
   57DPPC  H12R 7353   3.510   0.002   3.876
   57DPPC  H12S 7354   3.541   6.330   4.028
   57DPPC  C213 7355   3.568   6.213   3.849
   57DPPC  H13R 7356   3.465   6.173   3.860
   57DPPC  H13S 7357   3.638   6.140   3.897
   57DPPC  C214 7358   3.600   6.224   3.699
   57DPPC  H14R 7359   3.706   6.255   3.686
   57DPPC  H14S 7360   3.535   6.303   3.656
   57DPPC  C215 7361   3.578   6.093   3.620
   57DPPC  H15R 7362   3.599   6.114   3.513
   57DPPC  H15S 7363   3.471   6.065   3.628
   57DPPC  C216 7364   3.664   5.975   3.664
   57DPPC  H16R 7365   3.641   5.947   3.769
   57DPPC  H16S 7366   3.772   6.000   3.657
   57DPPC  H16T 7367   3.644   5.887   3.600
   57DPPC   C33 7368   3.813   0.251   4.733
   57DPPC   H3X 7369   3.843   0.351   4.771
   57DPPC   H3Y 7370   3.714   0.261   4.682
   57DPPC   C34 7371   3.915   0.204   4.629
   57DPPC   H4X 7372   3.887   0.101   4.598
   57DPPC   H4Y 7373   4.016   0.200   4.675
   57DPPC   C35 7374   3.920   0.295   4.505
   57DPPC   H5X 7375   3.947   0.398   4.536
   57DPPC   H5Y 7376   3.818   0.298   4.460
   57DPPC   C36 7377   4.019   0.249   4.397
   57DPPC   H6X 7378   4.121   0.247   4.440
   57DPPC   H6Y 7379   4.018   0.323   4.314
   57DPPC   C37 7380   3.986   0.110   4.338
   57DPPC   H7X 7381   3.883   0.111   4.297
   57DPPC   H7Y 7382   3.991   0.034   4.419
   57DPPC   C38 7383   4.084   0.068   4.228
   57DPPC   H8X 7384   4.188   0.075   4.267
   57DPPC   H8Y 7385   4.074   0.138   4.143
   57DPPC   C39 7386   4.060   6.343   4.178
   57DPPC   H9X 7387   3.960   6.337   4.131
   57DPPC   H9Y 7388   4.060   6.275   4.266
   57DPPC  C310 7389   4.166   6.295   4.078
   57DPPC  H10X 7390   4.267   6.313   4.121
   57DPPC  H10Y 7391   4.157   6.355   3.985
   57DPPC  C311 7392   4.153   6.146   4.045
   57DPPC  H11X 7393   4.054   6.127   3.997
   57DPPC  H11Y 7394   4.155   6.088   4.140
   57DPPC  C312 7395   4.265   6.092   3.954
   57DPPC  H12X 7396   4.252   5.982   3.946
   57DPPC  H12Y 7397   4.363   6.111   4.003
   57DPPC  C313 7398   4.266   6.154   3.813
   57DPPC  H13X 7399   4.281   6.264   3.822
   57DPPC  H13Y 7400   4.167   6.137   3.766
   57DPPC  C314 7401   4.376   6.098   3.722
   57DPPC  H14X 7402   4.474   6.113   3.771
   57DPPC  H14Y 7403   4.376   6.157   3.627
   57DPPC  C315 7404   4.358   5.950   3.686
   57DPPC  H15X 7405   4.258   5.937   3.639
   57DPPC  H15Y 7406   4.360   5.889   3.779
   57DPPC  C316 7407   4.464   5.894   3.591
   57DPPC  H16X 7408   4.566   5.907   3.634
   57DPPC  H16Y 7409   4.460   5.947   3.493
   57DPPC  H16Z 7410   4.447   5.786   3.573
   58DPPC     N 7411   2.249   4.303   5.448
   58DPPC   C13 7412   2.106   4.296   5.488
   58DPPC  H13A 7413   2.075   4.193   5.497
   58DPPC  H13B 7414   2.045   4.346   5.414
   58DPPC  H13C 7415   2.093   4.345   5.584
   58DPPC   C14 7416   2.287   4.447   5.447
   58DPPC  H14A 7417   2.279   4.487   5.548
   58DPPC  H14B 7418   2.221   4.502   5.382
   58DPPC  H14C 7419   2.388   4.457   5.412
   58DPPC   C15 7420   2.331   4.230   5.548
   58DPPC  H15A 7421   2.315   4.272   5.647
   58DPPC  H15B 7422   2.436   4.238   5.523
   58DPPC  H15C 7423   2.302   4.125   5.549
   58DPPC   C12 7424   2.267   4.241   5.311
   58DPPC  H12A 7425   2.207   4.299   5.241
   58DPPC  H12B 7426   2.225   4.141   5.315
   58DPPC   C11 7427   2.410   4.230   5.255
   58DPPC  H11A 7428   2.400   4.189   5.152
   58DPPC  H11B 7429   2.469   4.158   5.316
   58DPPC     P 7430   2.608   4.379   5.182
   58DPPC   O13 7431   2.719   4.349   5.277
   58DPPC   O14 7432   2.607   4.516   5.125
   58DPPC   O11 7433   2.608   4.274   5.066
   58DPPC   O12 7434   2.472   4.357   5.255
   58DPPC    C1 7435   2.670   4.145   5.076
   58DPPC    HA 7436   2.601   4.072   5.028
   58DPPC    HB 7437   2.684   4.112   5.181
   58DPPC    C2 7438   2.807   4.134   5.002
   58DPPC    HS 7439   2.882   4.183   5.068
   58DPPC   O21 7440   2.794   4.201   4.875
   58DPPC   C21 7441   2.906   4.256   4.834
   58DPPC   O22 7442   3.012   4.253   4.894
   58DPPC   C22 7443   2.884   4.317   4.696
   58DPPC   H2R 7444   2.819   4.407   4.705
   58DPPC   H2S 7445   2.831   4.242   4.633
   58DPPC    C3 7446   2.846   3.984   4.982
   58DPPC    HX 7447   2.754   3.933   4.944
   58DPPC    HY 7448   2.866   3.938   5.081
   58DPPC   O31 7449   2.950   3.961   4.886
   58DPPC   C31 7450   3.074   3.955   4.934
   58DPPC   O32 7451   3.103   3.962   5.053
   58DPPC   C32 7452   3.172   3.932   4.819
   58DPPC   H2X 7453   3.116   3.925   4.724
   58DPPC   H2Y 7454   3.224   3.835   4.836
   58DPPC   C23 7455   3.017   4.355   4.629
   58DPPC   H3R 7456   2.997   4.368   4.520
   58DPPC   H3S 7457   3.090   4.272   4.638
   58DPPC   C24 7458   3.078   4.486   4.680
   58DPPC   H4R 7459   3.102   4.477   4.788
   58DPPC   H4S 7460   3.003   4.567   4.668
   58DPPC   C25 7461   3.206   4.526   4.604
   58DPPC   H5R 7462   3.184   4.525   4.495
   58DPPC   H5S 7463   3.285   4.450   4.624
   58DPPC   C26 7464   3.258   4.665   4.643
   58DPPC   H6R 7465   3.269   4.668   4.754
   58DPPC   H6S 7466   3.182   4.741   4.614
   58DPPC   C27 7467   3.393   4.702   4.580
   58DPPC   H7R 7468   3.470   4.630   4.614
   58DPPC   H7S 7469   3.422   4.803   4.617
   58DPPC   C28 7470   3.391   4.705   4.426
   58DPPC   H8R 7471   3.306   4.768   4.393
   58DPPC   H8S 7472   3.374   4.602   4.387
   58DPPC   C29 7473   3.520   4.761   4.365
   58DPPC   H9R 7474   3.540   4.860   4.413
   58DPPC   H9S 7475   3.606   4.694   4.389
   58DPPC  C210 7476   3.512   4.784   4.213
   58DPPC  H10R 7477   3.598   4.846   4.182
   58DPPC  H10S 7478   3.419   4.841   4.192
   58DPPC  C211 7479   3.511   4.655   4.128
   58DPPC  H11R 7480   3.607   4.602   4.144
   58DPPC  H11S 7481   3.428   4.589   4.161
   58DPPC  C212 7482   3.494   4.686   3.979
   58DPPC  H12R 7483   3.572   4.759   3.949
   58DPPC  H12S 7484   3.395   4.733   3.962
   58DPPC  C213 7485   3.507   4.562   3.888
   58DPPC  H13R 7486   3.427   4.489   3.913
   58DPPC  H13S 7487   3.605   4.514   3.909
   58DPPC  C214 7488   3.499   4.598   3.739
   58DPPC  H14R 7489   3.564   4.686   3.719
   58DPPC  H14S 7490   3.394   4.627   3.715
   58DPPC  C215 7491   3.543   4.485   3.645
   58DPPC  H15R 7492   3.486   4.393   3.669
   58DPPC  H15S 7493   3.651   4.463   3.663
   58DPPC  C216 7494   3.525   4.516   3.496
   58DPPC  H16R 7495   3.417   4.532   3.473
   58DPPC  H16S 7496   3.562   4.433   3.434
   58DPPC  H16T 7497   3.581   4.608   3.468
   58DPPC   C33 7498   3.278   4.044   4.810
   58DPPC   H3X 7499   3.342   4.040   4.901
   58DPPC   H3Y 7500   3.230   4.144   4.806
   58DPPC   C34 7501   3.367   4.028   4.686
   58DPPC   H4X 7502   3.398   3.921   4.679
   58DPPC   H4Y 7503   3.459   4.089   4.697
   58DPPC   C35 7504   3.298   4.068   4.554
   58DPPC   H5X 7505   3.303   4.179   4.542
   58DPPC   H5Y 7506   3.191   4.040   4.559
   58DPPC   C36 7507   3.358   3.999   4.430
   58DPPC   H6X 7508   3.353   3.889   4.447
   58DPPC   H6Y 7509   3.464   4.028   4.418
   58DPPC   C37 7510   3.281   4.031   4.301
   58DPPC   H7X 7511   3.297   4.139   4.275
   58DPPC   H7Y 7512   3.172   4.016   4.319
   58DPPC   C38 7513   3.323   3.943   4.182
   58DPPC   H8X 7514   3.308   3.836   4.211
   58DPPC   H8Y 7515   3.432   3.957   4.163
   58DPPC   C39 7516   3.244   3.969   4.052
   58DPPC   H9X 7517   3.136   3.958   4.072
   58DPPC   H9Y 7518   3.274   3.891   3.978
   58DPPC  C310 7519   3.271   4.107   3.990
   58DPPC  H10X 7520   3.381   4.118   3.978
   58DPPC  H10Y 7521   3.237   4.187   4.059
   58DPPC  C311 7522   3.205   4.127   3.853
   58DPPC  H11X 7523   3.095   4.126   3.864
   58DPPC  H11Y 7524   3.234   4.041   3.788
   58DPPC  C312 7525   3.251   4.257   3.785
   58DPPC  H12X 7526   3.362   4.262   3.794
   58DPPC  H12Y 7527   3.208   4.344   3.839
   58DPPC  C313 7528   3.216   4.267   3.635
   58DPPC  H13X 7529   3.254   4.177   3.583
   58DPPC  H13Y 7530   3.270   4.355   3.594
   58DPPC  C314 7531   3.067   4.285   3.605
   58DPPC  H14X 7532   3.030   4.374   3.661
   58DPPC  H14Y 7533   3.010   4.197   3.641
   58DPPC  C315 7534   3.039   4.306   3.455
   58DPPC  H15X 7535   3.072   4.215   3.400
   58DPPC  H15Y 7536   3.102   4.391   3.419
   58DPPC  C316 7537   2.893   4.335   3.421
   58DPPC  H16X 7538   2.860   4.429   3.471
   58DPPC  H16Y 7539   2.828   4.252   3.455
   58DPPC  H16Z 7540   2.881   4.347   3.311
   59DPPC     N 7541   1.735   4.138   5.350
   59DPPC   C13 7542   1.618   4.169   5.263
   59DPPC  H13A 7543   1.529   4.184   5.323
   59DPPC  H13B 7544   1.600   4.087   5.194
   59DPPC  H13C 7545   1.637   4.259   5.206
   59DPPC   C14 7546   1.755   4.251   5.445
   59DPPC  H14A 7547   1.833   4.224   5.515
   59DPPC  H14B 7548   1.663   4.270   5.499
   59DPPC  H14C 7549   1.783   4.339   5.390
   59DPPC   C15 7550   1.707   4.015   5.429
   59DPPC  H15A 7551   1.619   4.030   5.490
   59DPPC  H15B 7552   1.792   3.995   5.493
   59DPPC  H15C 7553   1.691   3.931   5.363
   59DPPC   C12 7554   1.858   4.112   5.267
   59DPPC  H12A 7555   1.841   4.020   5.211
   59DPPC  H12B 7556   1.940   4.093   5.335
   59DPPC   C11 7557   1.903   4.219   5.165
   59DPPC  H11A 7558   1.824   4.231   5.088
   59DPPC  H11B 7559   1.996   4.180   5.116
   59DPPC     P 7560   1.975   4.461   5.141
   59DPPC   O13 7561   2.020   4.571   5.229
   59DPPC   O14 7562   1.867   4.492   5.044
   59DPPC   O11 7563   2.099   4.402   5.064
   59DPPC   O12 7564   1.929   4.342   5.233
   59DPPC    C1 7565   2.223   4.475   5.060
   59DPPC    HA 7566   2.303   4.405   5.025
   59DPPC    HB 7567   2.254   4.511   5.160
   59DPPC    C2 7568   2.223   4.596   4.961
   59DPPC    HS 7569   2.145   4.667   4.997
   59DPPC   O21 7570   2.198   4.544   4.829
   59DPPC   C21 7571   2.107   4.609   4.760
   59DPPC   O22 7572   2.041   4.704   4.800
   59DPPC   C22 7573   2.098   4.548   4.620
   59DPPC   H2R 7574   2.056   4.446   4.627
   59DPPC   H2S 7575   2.201   4.542   4.577
   59DPPC    C3 7576   2.359   4.670   4.964
   59DPPC    HX 7577   2.438   4.593   4.946
   59DPPC    HY 7578   2.374   4.710   5.066
   59DPPC   O31 7579   2.363   4.780   4.869
   59DPPC   C31 7580   2.463   4.780   4.782
   59DPPC   O32 7581   2.555   4.700   4.779
   59DPPC   C32 7582   2.442   4.890   4.679
   59DPPC   H2X 7583   2.541   4.928   4.647
   59DPPC   H2Y 7584   2.384   4.974   4.723
   59DPPC   C23 7585   2.011   4.636   4.528
   59DPPC   H3R 7586   2.046   4.741   4.533
   59DPPC   H3S 7587   1.906   4.633   4.563
   59DPPC   C24 7588   2.016   4.594   4.379
   59DPPC   H4R 7589   2.121   4.596   4.344
   59DPPC   H4S 7590   1.958   4.668   4.320
   59DPPC   C25 7591   1.957   4.454   4.351
   59DPPC   H5R 7592   1.853   4.452   4.388
   59DPPC   H5S 7593   2.015   4.377   4.407
   59DPPC   C26 7594   1.957   4.418   4.202
   59DPPC   H6R 7595   2.063   4.412   4.166
   59DPPC   H6S 7596   1.906   4.498   4.145
   59DPPC   C27 7597   1.886   4.284   4.173
   59DPPC   H7R 7598   1.781   4.293   4.208
   59DPPC   H7S 7599   1.935   4.204   4.232
   59DPPC   C28 7600   1.886   4.245   4.025
   59DPPC   H8R 7601   1.991   4.226   3.992
   59DPPC   H8S 7602   1.846   4.330   3.965
   59DPPC   C29 7603   1.799   4.121   3.998
   59DPPC   H9R 7604   1.696   4.145   4.032
   59DPPC   H9S 7605   1.836   4.036   4.058
   59DPPC  C210 7606   1.791   4.079   3.850
   59DPPC  H10R 7607   1.760   4.166   3.788
   59DPPC  H10S 7608   1.712   4.001   3.841
   59DPPC  C211 7609   1.922   4.021   3.793
   59DPPC  H11R 7610   1.954   3.938   3.860
   59DPPC  H11S 7611   2.001   4.099   3.794
   59DPPC  C212 7612   1.905   3.968   3.650
   59DPPC  H12R 7613   1.871   4.052   3.585
   59DPPC  H12S 7614   1.826   3.890   3.649
   59DPPC  C213 7615   2.033   3.908   3.588
   59DPPC  H13R 7616   2.112   3.985   3.586
   59DPPC  H13S 7617   2.010   3.879   3.483
   59DPPC  C214 7618   2.086   3.783   3.661
   59DPPC  H14R 7619   2.004   3.709   3.671
   59DPPC  H14S 7620   2.119   3.812   3.763
   59DPPC  C215 7621   2.204   3.717   3.588
   59DPPC  H15R 7622   2.286   3.791   3.577
   59DPPC  H15S 7623   2.171   3.689   3.486
   59DPPC  C216 7624   2.259   3.592   3.658
   59DPPC  H16R 7625   2.180   3.515   3.668
   59DPPC  H16S 7626   2.297   3.618   3.759
   59DPPC  H16T 7627   2.343   3.549   3.599
   59DPPC   C33 7628   2.368   4.831   4.559
   59DPPC   H3X 7629   2.265   4.802   4.589
   59DPPC   H3Y 7630   2.420   4.738   4.524
   59DPPC   C34 7631   2.359   4.927   4.439
   59DPPC   H4X 7632   2.462   4.951   4.404
   59DPPC   H4Y 7633   2.310   5.021   4.471
   59DPPC   C35 7634   2.280   4.865   4.323
   59DPPC   H5X 7635   2.176   4.847   4.358
   59DPPC   H5Y 7636   2.325   4.767   4.296
   59DPPC   C36 7637   2.274   4.954   4.198
   59DPPC   H6X 7638   2.376   4.962   4.153
   59DPPC   H6Y 7639   2.242   5.056   4.228
   59DPPC   C37 7640   2.176   4.903   4.091
   59DPPC   H7X 7641   2.171   4.977   4.008
   59DPPC   H7Y 7642   2.075   4.898   4.138
   59DPPC   C38 7643   2.209   4.765   4.034
   59DPPC   H8X 7644   2.219   4.690   4.116
   59DPPC   H8Y 7645   2.307   4.771   3.980
   59DPPC   C39 7646   2.101   4.714   3.937
   59DPPC   H9X 7647   2.085   4.790   3.858
   59DPPC   H9Y 7648   2.006   4.701   3.992
   59DPPC  C310 7649   2.138   4.581   3.869
   59DPPC  H10X 7650   2.157   4.503   3.946
   59DPPC  H10Y 7651   2.232   4.596   3.812
   59DPPC  C311 7652   2.029   4.532   3.773
   59DPPC  H11X 7653   1.995   4.619   3.712
   59DPPC  H11Y 7654   1.941   4.496   3.831
   59DPPC  C312 7655   2.076   4.422   3.677
   59DPPC  H12X 7656   2.092   4.328   3.734
   59DPPC  H12Y 7657   2.174   4.453   3.634
   59DPPC  C313 7658   1.979   4.396   3.561
   59DPPC  H13X 7659   1.957   4.493   3.512
   59DPPC  H13Y 7660   1.884   4.355   3.601
   59DPPC  C314 7661   2.037   4.301   3.456
   59DPPC  H14X 7662   2.136   4.339   3.424
   59DPPC  H14Y 7663   2.051   4.200   3.502
   59DPPC  C315 7664   1.948   4.287   3.331
   59DPPC  H15X 7665   1.934   4.388   3.286
   59DPPC  H15Y 7666   1.848   4.250   3.362
   59DPPC  C316 7667   2.005   4.194   3.224
   59DPPC  H16X 7668   2.015   4.091   3.264
   59DPPC  H16Y 7669   2.105   4.229   3.191
   59DPPC  H16Z 7670   1.938   4.191   3.136
   60DPPC     N 7671   1.068   3.493   5.287
   60DPPC   C13 7672   1.019   3.615   5.218
   60DPPC  H13A 7673   1.004   3.694   5.290
   60DPPC  H13B 7674   0.924   3.594   5.169
   60DPPC  H13C 7675   1.089   3.647   5.142
   60DPPC   C14 7676   0.970   3.459   5.393
   60DPPC  H14A 7677   0.965   3.540   5.465
   60DPPC  H14B 7678   1.000   3.367   5.443
   60DPPC  H14C 7679   0.872   3.443   5.349
   60DPPC   C15 7680   1.074   3.381   5.191
   60DPPC  H15A 7681   0.979   3.369   5.142
   60DPPC  H15B 7682   1.100   3.290   5.243
   60DPPC  H15C 7683   1.151   3.401   5.117
   60DPPC   C12 7684   1.203   3.517   5.351
   60DPPC  H12A 7685   1.236   3.423   5.393
   60DPPC  H12B 7686   1.188   3.586   5.433
   60DPPC   C11 7687   1.317   3.573   5.262
   60DPPC  H11A 7688   1.406   3.582   5.329
   60DPPC  H11B 7689   1.288   3.676   5.229
   60DPPC     P 7690   1.469   3.526   5.067
   60DPPC   O13 7691   1.588   3.492   5.148
   60DPPC   O14 7692   1.457   3.668   5.028
   60DPPC   O11 7693   1.461   3.434   4.939
   60DPPC   O12 7694   1.341   3.488   5.151
   60DPPC    C1 7695   1.395   3.306   4.946
   60DPPC    HA 7696   1.287   3.318   4.970
   60DPPC    HB 7697   1.442   3.243   5.025
   60DPPC    C2 7698   1.403   3.228   4.811
   60DPPC    HS 7699   1.367   3.124   4.828
   60DPPC   O21 7700   1.537   3.228   4.758
   60DPPC   C21 7701   1.618   3.146   4.820
   60DPPC   O22 7702   1.588   3.074   4.914
   60DPPC   C22 7703   1.754   3.148   4.750
   60DPPC   H2R 7704   1.830   3.110   4.820
   60DPPC   H2S 7705   1.780   3.251   4.720
   60DPPC    C3 7706   1.310   3.290   4.701
   60DPPC    HX 7707   1.204   3.277   4.730
   60DPPC    HY 7708   1.331   3.400   4.701
   60DPPC   O31 7709   1.336   3.239   4.568
   60DPPC   C31 7710   1.299   3.113   4.549
   60DPPC   O32 7711   1.229   3.049   4.625
   60DPPC   C32 7712   1.363   3.060   4.421
   60DPPC   H2X 7713   1.468   3.098   4.415
   60DPPC   H2Y 7714   1.307   3.098   4.334
   60DPPC   C23 7715   1.747   3.057   4.626
   60DPPC   H3R 7716   1.664   3.089   4.559
   60DPPC   H3S 7717   1.724   2.953   4.660
   60DPPC   C24 7718   1.876   3.053   4.544
   60DPPC   H4R 7719   1.963   3.042   4.612
   60DPPC   H4S 7720   1.887   3.149   4.489
   60DPPC   C25 7721   1.878   2.936   4.443
   60DPPC   H5R 7722   1.784   2.937   4.384
   60DPPC   H5S 7723   1.882   2.841   4.500
   60DPPC   C26 7724   1.996   2.941   4.345
   60DPPC   H6R 7725   2.091   2.955   4.401
   60DPPC   H6S 7726   1.984   3.030   4.279
   60DPPC   C27 7727   2.008   2.816   4.257
   60DPPC   H7R 7728   1.909   2.792   4.213
   60DPPC   H7S 7729   2.039   2.730   4.321
   60DPPC   C28 7730   2.109   2.832   4.142
   60DPPC   H8R 7731   2.206   2.868   4.183
   60DPPC   H8S 7732   2.071   2.909   4.072
   60DPPC   C29 7733   2.134   2.702   4.063
   60DPPC   H9R 7734   2.035   2.659   4.034
   60DPPC   H9S 7735   2.185   2.629   4.130
   60DPPC  C210 7736   2.218   2.720   3.936
   60DPPC  H10R 7737   2.163   2.786   3.865
   60DPPC  H10S 7738   2.230   2.621   3.887
   60DPPC  C211 7739   2.358   2.780   3.961
   60DPPC  H11R 7740   2.410   2.718   4.037
   60DPPC  H11S 7741   2.347   2.883   4.002
   60DPPC  C212 7742   2.445   2.788   3.834
   60DPPC  H12R 7743   2.392   2.850   3.758
   60DPPC  H12S 7744   2.456   2.685   3.792
   60DPPC  C213 7745   2.583   2.848   3.862
   60DPPC  H13R 7746   2.638   2.783   3.934
   60DPPC  H13S 7747   2.570   2.947   3.909
   60DPPC  C214 7748   2.671   2.866   3.736
   60DPPC  H14R 7749   2.763   2.920   3.766
   60DPPC  H14S 7750   2.617   2.930   3.663
   60DPPC  C215 7751   2.712   2.735   3.668
   60DPPC  H15R 7752   2.621   2.682   3.631
   60DPPC  H15S 7753   2.761   2.670   3.743
   60DPPC  C216 7754   2.809   2.754   3.550
   60DPPC  H16R 7755   2.839   2.656   3.509
   60DPPC  H16S 7756   2.900   2.808   3.584
   60DPPC  H16T 7757   2.761   2.814   3.470
   60DPPC   C33 7758   1.365   2.907   4.421
   60DPPC   H3X 7759   1.261   2.868   4.425
   60DPPC   H3Y 7760   1.418   2.872   4.513
   60DPPC   C34 7761   1.436   2.845   4.300
   60DPPC   H4X 7762   1.442   2.735   4.317
   60DPPC   H4Y 7763   1.541   2.883   4.294
   60DPPC   C35 7764   1.365   2.867   4.165
   60DPPC   H5X 7765   1.386   2.969   4.128
   60DPPC   H5Y 7766   1.255   2.857   4.181
   60DPPC   C36 7767   1.407   2.763   4.060
   60DPPC   H6X 7768   1.381   2.662   4.099
   60DPPC   H6Y 7769   1.517   2.766   4.045
   60DPPC   C37 7770   1.337   2.783   3.924
   60DPPC   H7X 7771   1.381   2.873   3.875
   60DPPC   H7Y 7772   1.229   2.803   3.942
   60DPPC   C38 7773   1.348   2.663   3.828
   60DPPC   H8X 7774   1.455   2.637   3.810
   60DPPC   H8Y 7775   1.304   2.695   3.730
   60DPPC   C39 7776   1.271   2.540   3.878
   60DPPC   H9X 7777   1.174   2.577   3.919
   60DPPC   H9Y 7778   1.326   2.491   3.961
   60DPPC  C310 7779   1.237   2.436   3.770
   60DPPC  H10X 7780   1.199   2.488   3.679
   60DPPC  H10Y 7781   1.155   2.373   3.809
   60DPPC  C311 7782   1.353   2.343   3.732
   60DPPC  H11X 7783   1.392   2.295   3.824
   60DPPC  H11Y 7784   1.435   2.401   3.685
   60DPPC  C312 7785   1.306   2.232   3.636
   60DPPC  H12X 7786   1.270   2.279   3.542
   60DPPC  H12Y 7787   1.221   2.179   3.683
   60DPPC  C313 7788   1.415   2.129   3.602
   60DPPC  H13X 7789   1.453   2.084   3.696
   60DPPC  H13Y 7790   1.499   2.180   3.550
   60DPPC  C314 7791   1.360   2.017   3.512
   60DPPC  H14X 7792   1.322   2.062   3.418
   60DPPC  H14Y 7793   1.275   1.968   3.564
   60DPPC  C315 7794   1.464   1.909   3.476
   60DPPC  H15X 7795   1.504   1.865   3.570
   60DPPC  H15Y 7796   1.549   1.958   3.423
   60DPPC  C316 7797   1.408   1.797   3.388
   60DPPC  H16X 7798   1.327   1.743   3.442
   60DPPC  H16Y 7799   1.488   1.725   3.362
   60DPPC  H16Z 7800   1.366   1.839   3.294
   61DPPC     N 7801   0.579   5.340   5.014
   61DPPC   C13 7802   0.519   5.348   5.150
   61DPPC  H13A 7803   0.586   5.305   5.222
   61DPPC  H13B 7804   0.425   5.295   5.150
   61DPPC  H13C 7805   0.499   5.451   5.174
   61DPPC   C14 7806   0.708   5.413   5.015
   61DPPC  H14A 7807   0.691   5.517   5.041
   61DPPC  H14B 7808   0.754   5.408   4.917
   61DPPC  H14C 7809   0.775   5.369   5.088
   61DPPC   C15 7810   0.605   5.197   4.981
   61DPPC  H15A 7811   0.512   5.143   4.976
   61DPPC  H15B 7812   0.669   5.153   5.057
   61DPPC  H15C 7813   0.655   5.190   4.885
   61DPPC   C12 7814   0.486   5.398   4.910
   61DPPC  H12A 7815   0.388   5.354   4.926
   61DPPC  H12B 7816   0.521   5.365   4.813
   61DPPC   C11 7817   0.470   5.552   4.903
   61DPPC  H11A 7818   0.393   5.575   4.826
   61DPPC  H11B 7819   0.567   5.594   4.867
   61DPPC     P 7820   0.483   5.740   5.074
   61DPPC   O13 7821   0.631   5.735   5.069
   61DPPC   O14 7822   0.423   5.779   5.204
   61DPPC   O11 7823   0.433   5.841   4.964
   61DPPC   O12 7824   0.426   5.601   5.029
   61DPPC    C1 7825   0.294   5.855   4.933
   61DPPC    HA 7826   0.237   5.894   5.020
   61DPPC    HB 7827   0.249   5.756   4.907
   61DPPC    C2 7828   0.269   5.952   4.812
   61DPPC    HS 7829   0.164   5.940   4.776
   61DPPC   O21 7830   0.362   5.929   4.705
   61DPPC   C21 7831   0.343   5.815   4.644
   61DPPC   O22 7832   0.251   5.737   4.665
   61DPPC   C22 7833   0.452   5.794   4.538
   61DPPC   H2R 7834   0.549   5.779   4.590
   61DPPC   H2S 7835   0.458   5.886   4.475
   61DPPC    C3 7836   0.284   6.100   4.860
   61DPPC    HX 7837   0.380   6.108   4.915
   61DPPC    HY 7838   0.204   6.119   4.934
   61DPPC   O31 7839   0.271   6.197   4.753
   61DPPC   C31 7840   0.382   6.260   4.716
   61DPPC   O32 7841   0.493   6.242   4.763
   61DPPC   C32 7842   0.352   6.360   4.604
   61DPPC   H2X 7843   0.401   0.038   4.631
   61DPPC   H2Y 7844   0.243   6.378   4.595
   61DPPC   C23 7845   0.419   5.673   4.451
   61DPPC   H3R 7846   0.317   5.685   4.408
   61DPPC   H3S 7847   0.420   5.580   4.513
   61DPPC   C24 7848   0.517   5.654   4.333
   61DPPC   H4R 7849   0.619   5.635   4.373
   61DPPC   H4S 7850   0.519   5.748   4.274
   61DPPC   C25 7851   0.475   5.538   4.241
   61DPPC   H5R 7852   0.369   5.554   4.211
   61DPPC   H5S 7853   0.480   5.442   4.298
   61DPPC   C26 7854   0.559   5.524   4.113
   61DPPC   H6R 7855   0.559   5.621   4.058
   61DPPC   H6S 7856   0.508   5.449   4.049
   61DPPC   C27 7857   0.704   5.479   4.137
   61DPPC   H7R 7858   0.702   5.386   4.199
   61DPPC   H7S 7859   0.757   5.557   4.195
   61DPPC   C28 7860   0.784   5.450   4.009
   61DPPC   H8R 7861   0.887   5.422   4.039
   61DPPC   H8S 7862   0.790   5.543   3.947
   61DPPC   C29 7863   0.725   5.336   3.923
   61DPPC   H9R 7864   0.708   5.249   3.989
   61DPPC   H9S 7865   0.627   5.367   3.882
   61DPPC  C210 7866   0.816   5.293   3.807
   61DPPC  H10R 7867   0.819   5.375   3.732
   61DPPC  H10S 7868   0.920   5.277   3.845
   61DPPC  C211 7869   0.768   5.162   3.741
   61DPPC  H11R 7870   0.777   5.080   3.816
   61DPPC  H11S 7871   0.661   5.172   3.716
   61DPPC  C212 7872   0.846   5.121   3.615
   61DPPC  H12R 7873   0.806   5.022   3.581
   61DPPC  H12S 7874   0.953   5.107   3.641
   61DPPC  C213 7875   0.836   5.219   3.497
   61DPPC  H13R 7876   0.889   5.174   3.410
   61DPPC  H13S 7877   0.889   5.313   3.524
   61DPPC  C214 7878   0.692   5.253   3.454
   61DPPC  H14R 7879   0.642   5.309   3.537
   61DPPC  H14S 7880   0.636   5.159   3.437
   61DPPC  C215 7881   0.686   5.339   3.327
   61DPPC  H15R 7882   0.729   5.281   3.243
   61DPPC  H15S 7883   0.750   5.429   3.342
   61DPPC  C216 7884   0.545   5.385   3.289
   61DPPC  H16R 7885   0.501   5.447   3.371
   61DPPC  H16S 7886   0.479   5.297   3.273
   61DPPC  H16T 7887   0.547   5.445   3.196
   61DPPC   C33 7888   0.411   6.308   4.472
   61DPPC   H3X 7889   0.345   6.229   4.430
   61DPPC   H3Y 7890   0.510   6.261   4.492
   61DPPC   C34 7891   0.436   6.417   4.367
   61DPPC   H4X 7892   0.499   0.078   4.412
   61DPPC   H4Y 7893   0.339   0.044   4.336
   61DPPC   C35 7894   0.509   6.361   4.243
   61DPPC   H5X 7895   0.443   6.287   4.192
   61DPPC   H5Y 7896   0.600   6.308   4.278
   61DPPC   C36 7897   0.552   0.050   4.142
   61DPPC   H6X 7898   0.613   0.126   4.195
   61DPPC   H6Y 7899   0.462   0.101   4.101
   61DPPC   C37 7900   0.635   6.411   4.026
   61DPPC   H7X 7901   0.573   6.336   3.972
   61DPPC   H7Y 7902   0.723   6.358   4.068
   61DPPC   C38 7903   0.684   0.099   3.927
   61DPPC   H8X 7904   0.734   0.180   3.984
   61DPPC   H8Y 7905   0.596   0.144   3.876
   61DPPC   C39 7906   0.783   0.048   3.821
   61DPPC   H9X 7907   0.876   0.016   3.871
   61DPPC   H9Y 7908   0.808   0.134   3.754
   61DPPC  C310 7909   0.730   6.350   3.735
   61DPPC  H10X 7910   0.633   6.377   3.690
   61DPPC  H10Y 7911   0.713   6.262   3.802
   61DPPC  C311 7912   0.827   6.305   3.623
   61DPPC  H11X 7913   0.790   6.209   3.582
   61DPPC  H11Y 7914   0.927   6.287   3.667
   61DPPC  C312 7915   0.839   6.406   3.508
   61DPPC  H12X 7916   0.869   0.087   3.549
   61DPPC  H12Y 7917   0.739   0.000   3.460
   61DPPC  C313 7918   0.943   6.368   3.401
   61DPPC  H13X 7919   1.042   6.361   3.450
   61DPPC  H13Y 7920   0.948   0.032   3.326
   61DPPC  C314 7921   0.918   6.236   3.327
   61DPPC  H14X 7922   0.921   6.151   3.399
   61DPPC  H14Y 7923   1.002   6.221   3.255
   61DPPC  C315 7924   0.786   6.229   3.248
   61DPPC  H15X 7925   0.781   6.316   3.179
   61DPPC  H15Y 7926   0.701   6.237   3.319
   61DPPC  C316 7927   0.770   6.100   3.167
   61DPPC  H16X 7928   0.673   6.099   3.113
   61DPPC  H16Y 7929   0.774   6.011   3.234
   61DPPC  H16Z 7930   0.851   6.091   3.092
   62DPPC     N 7931   4.763   6.312   5.298
   62DPPC   C13 7932   4.772   6.181   5.228
   62DPPC  H13A 7933   4.860   6.182   5.165
   62DPPC  H13B 7934   4.684   6.167   5.167
   62DPPC  H13C 7935   4.780   6.101   5.300
   62DPPC   C14 7936   4.649   6.309   5.394
   62DPPC  H14A 7937   4.557   6.286   5.340
   62DPPC  H14B 7938   4.639   6.404   5.444
   62DPPC  H14C 7939   4.666   6.231   5.467
   62DPPC   C15 7940   4.889   6.330   5.375
   62DPPC  H15A 7941   4.895   6.255   5.453
   62DPPC  H15B 7942   4.891   0.010   5.420
   62DPPC  H15C 7943   4.973   6.319   5.307
   62DPPC   C12 7944   4.748   0.007   5.201
   62DPPC  H12A 7945   4.835   0.005   5.135
   62DPPC  H12B 7946   4.753   0.100   5.258
   62DPPC   C11 7947   4.622   0.014   5.112
   62DPPC  H11A 7948   4.633   0.107   5.051
   62DPPC  H11B 7949   4.532   0.023   5.177
   62DPPC     P 7950   4.494   6.313   4.928
   62DPPC   O13 7951   4.431   0.029   4.918
   62DPPC   O14 7952   4.404   6.203   4.972
   62DPPC   O11 7953   4.561   6.275   4.790
   62DPPC   O12 7954   4.615   6.318   5.028
   62DPPC    C1 7955   4.703   6.277   4.768
   62DPPC    HA 7956   4.723   6.232   4.668
   62DPPC    HB 7957   4.757   6.216   4.843
   62DPPC    C2 7958   4.769   0.001   4.764
   62DPPC    HS 7959   4.767   0.037   4.870
   62DPPC   O21 7960   4.690   0.087   4.679
   62DPPC   C21 7961   4.715   0.214   4.702
   62DPPC   O22 7962   4.785   0.257   4.794
   62DPPC   C22 7963   4.648   0.301   4.597
   62DPPC   H2R 7964   4.679   0.266   4.496
   62DPPC   H2S 7965   4.684   0.406   4.610
   62DPPC    C3 7966   4.919   6.413   4.719
   62DPPC    HX 7967   4.970   6.346   4.791
   62DPPC    HY 7968   4.967   0.094   4.731
   62DPPC   O31 7969   4.939   6.358   4.586
   62DPPC   C31 7970   4.950   0.027   4.487
   62DPPC   O32 7971   4.933   0.148   4.497
   62DPPC   C32 7972   4.986   6.370   4.359
   62DPPC   H2X 7973   4.911   6.290   4.345
   62DPPC   H2Y 7974   5.086   6.323   4.371
   62DPPC   C23 7975   4.495   0.297   4.611
   62DPPC   H3R 7976   4.468   0.320   4.717
   62DPPC   H3S 7977   4.457   0.195   4.588
   62DPPC   C24 7978   4.424   0.400   4.522
   62DPPC   H4R 7979   4.466   0.500   4.543
   62DPPC   H4S 7980   4.316   0.402   4.548
   62DPPC   C25 7981   4.436   0.371   4.371
   62DPPC   H5R 7982   4.379   0.278   4.348
   62DPPC   H5S 7983   4.542   0.355   4.344
   62DPPC   C26 7984   4.383   0.487   4.285
   62DPPC   H6R 7985   4.445   0.577   4.306
   62DPPC   H6S 7986   4.278   0.510   4.316
   62DPPC   C27 7987   4.384   0.461   4.134
   62DPPC   H7R 7988   4.486   0.430   4.102
   62DPPC   H7S 7989   4.360   0.557   4.082
   62DPPC   C28 7990   4.281   0.356   4.089
   62DPPC   H8R 7991   4.183   0.384   4.133
   62DPPC   H8S 7992   4.309   0.256   4.130
   62DPPC   C29 7993   4.264   0.345   3.937
   62DPPC   H9R 7994   4.250   0.448   3.895
   62DPPC   H9S 7995   4.356   0.302   3.892
   62DPPC  C210 7996   4.142   0.260   3.898
   62DPPC  H10R 7997   4.156   0.157   3.936
   62DPPC  H10S 7998   4.052   0.303   3.948
   62DPPC  C211 7999   4.116   0.254   3.747
   62DPPC  H11R 8000   4.112   0.357   3.707
   62DPPC  H11S 8001   4.200   0.200   3.698
   62DPPC  C212 8002   3.982   0.185   3.714
   62DPPC  H12R 8003   3.900   0.247   3.757
   62DPPC  H12S 8004   3.978   0.086   3.766
   62DPPC  C213 8005   3.955   0.166   3.564
   62DPPC  H13R 8006   3.969   0.264   3.513
   62DPPC  H13S 8007   3.849   0.136   3.551
   62DPPC  C214 8008   4.043   0.061   3.494
   62DPPC  H14R 8009   4.150   0.087   3.508
   62DPPC  H14S 8010   4.022   0.064   3.385
   62DPPC  C215 8011   4.021   6.335   3.543
   62DPPC  H15R 8012   3.913   6.310   3.530
   62DPPC  H15S 8013   4.044   6.329   3.652
   62DPPC  C216 8014   4.105   6.231   3.470
   62DPPC  H16R 8015   4.084   6.129   3.509
   62DPPC  H16S 8016   4.213   6.252   3.483
   62DPPC  H16T 8017   4.082   6.232   3.361
   62DPPC   C33 8018   4.986   0.042   4.234
   62DPPC   H3X 8019   4.894   0.105   4.232
   62DPPC   H3Y 8020   4.981   6.393   4.146
   62DPPC   C34 8021   5.111   0.130   4.219
   62DPPC   H4X 8022   5.203   0.068   4.230
   62DPPC   H4Y 8023   5.111   0.206   4.301
   62DPPC   C35 8024   5.117   0.205   4.084
   62DPPC   H5X 8025   5.190   0.288   4.093
   62DPPC   H5Y 8026   5.017   0.249   4.063
   62DPPC   C36 8027   5.159   0.117   3.965
   62DPPC   H6X 8028   5.092   0.028   3.958
   62DPPC   H6Y 8029   5.263   0.081   3.982
   62DPPC   C37 8030   5.154   0.192   3.830
   62DPPC   H7X 8031   5.213   0.286   3.840
   62DPPC   H7Y 8032   5.048   0.220   3.809
   62DPPC   C38 8033   5.211   0.111   3.712
   62DPPC   H8X 8034   5.155   0.015   3.703
   62DPPC   H8Y 8035   5.317   0.087   3.735
   62DPPC   C39 8036   5.206   0.186   3.578
   62DPPC   H9X 8037   5.269   0.131   3.505
   62DPPC   H9Y 8038   5.249   0.287   3.591
   62DPPC  C310 8039   5.065   0.198   3.518
   62DPPC  H10X 8040   4.999   0.251   3.591
   62DPPC  H10Y 8041   5.022   0.097   3.502
   62DPPC  C311 8042   5.061   0.276   3.385
   62DPPC  H11X 8043   5.113   0.216   3.307
   62DPPC  H11Y 8044   5.117   0.371   3.398
   62DPPC  C312 8045   4.918   0.309   3.340
   62DPPC  H12X 8046   4.870   0.368   3.421
   62DPPC  H12Y 8047   4.860   0.215   3.327
   62DPPC  C313 8048   4.910   0.392   3.210
   62DPPC  H13X 8049   4.978   0.479   3.218
   62DPPC  H13Y 8050   4.806   0.431   3.201
   62DPPC  C314 8051   4.942   0.312   3.082
   62DPPC  H14X 8052   4.874   0.224   3.078
   62DPPC  H14Y 8053   5.046   0.275   3.086
   62DPPC  C315 8054   4.922   0.395   2.954
   62DPPC  H15X 8055   4.997   0.478   2.954
   62DPPC  H15Y 8056   4.821   0.440   2.956
   62DPPC  C316 8057   4.938   0.314   2.825
   62DPPC  H16X 8058   4.926   0.381   2.736
   62DPPC  H16Y 8059   4.861   0.234   2.820
   62DPPC  H16Z 8060   5.039   0.267   2.821
   63DPPC     N 8061   0.731   2.845   5.673
   63DPPC   C13 8062   0.873   2.857   5.714
   63DPPC  H13A 8063   0.923   2.929   5.650
   63DPPC  H13B 8064   0.922   2.761   5.704
   63DPPC  H13C 8065   0.880   2.889   5.817
   63DPPC   C14 8066   0.664   2.745   5.761
   63DPPC  H14A 8067   0.559   2.739   5.736
   63DPPC  H14B 8068   0.673   2.774   5.865
   63DPPC  H14C 8069   0.708   2.647   5.746
   63DPPC   C15 8070   0.663   2.975   5.694
   63DPPC  H15A 8071   0.711   3.050   5.633
   63DPPC  H15B 8072   0.667   3.002   5.799
   63DPPC  H15C 8073   0.560   2.966   5.663
   63DPPC   C12 8074   0.720   2.800   5.530
   63DPPC  H12A 8075   0.615   2.794   5.505
   63DPPC  H12B 8076   0.761   2.699   5.524
   63DPPC   C11 8077   0.791   2.885   5.422
   63DPPC  H11A 8078   0.771   2.838   5.323
   63DPPC  H11B 8079   0.901   2.882   5.441
   63DPPC     P 8080   0.816   3.125   5.341
   63DPPC   O13 8081   0.949   3.145   5.402
   63DPPC   O14 8082   0.729   3.245   5.331
   63DPPC   O11 8083   0.831   3.059   5.199
   63DPPC   O12 8084   0.739   3.017   5.424
   63DPPC    C1 8085   0.960   3.019   5.150
   63DPPC    HA 8086   0.999   2.933   5.209
   63DPPC    HB 8087   1.034   3.102   5.160
   63DPPC    C2 8088   0.958   2.977   5.000
   63DPPC    HS 8089   1.062   2.964   4.964
   63DPPC   O21 8090   0.885   3.072   4.921
   63DPPC   C21 8091   0.954   3.180   4.893
   63DPPC   O22 8092   1.068   3.203   4.931
   63DPPC   C22 8093   0.872   3.270   4.802
   63DPPC   H2R 8094   0.917   3.372   4.801
   63DPPC   H2S 8095   0.768   3.277   4.842
   63DPPC    C3 8096   0.887   2.839   4.982
   63DPPC    HX 8097   0.787   2.848   5.031
   63DPPC    HY 8098   0.943   2.760   5.038
   63DPPC   O31 8099   0.866   2.804   4.843
   63DPPC   C31 8100   0.974   2.757   4.782
   63DPPC   O32 8101   1.079   2.730   4.838
   63DPPC   C32 8102   0.947   2.746   4.633
   63DPPC   H2X 8103   0.957   2.847   4.587
   63DPPC   H2Y 8104   0.843   2.709   4.617
   63DPPC   C23 8105   0.870   3.211   4.660
   63DPPC   H3R 8106   0.840   3.103   4.665
   63DPPC   H3S 8107   0.973   3.216   4.617
   63DPPC   C24 8108   0.772   3.281   4.565
   63DPPC   H4R 8109   0.798   3.389   4.557
   63DPPC   H4S 8110   0.670   3.273   4.608
   63DPPC   C25 8111   0.771   3.219   4.424
   63DPPC   H5R 8112   0.763   3.108   4.435
   63DPPC   H5S 8113   0.868   3.241   4.375
   63DPPC   C26 8114   0.655   3.267   4.336
   63DPPC   H6R 8115   0.659   3.377   4.326
   63DPPC   H6S 8116   0.559   3.240   4.386
   63DPPC   C27 8117   0.658   3.203   4.196
   63DPPC   H7R 8118   0.667   3.093   4.208
   63DPPC   H7S 8119   0.748   3.240   4.142
   63DPPC   C28 8120   0.533   3.232   4.112
   63DPPC   H8R 8121   0.525   3.341   4.092
   63DPPC   H8S 8122   0.444   3.202   4.171
   63DPPC   C29 8123   0.528   3.154   3.979
   63DPPC   H9R 8124   0.429   3.169   3.932
   63DPPC   H9S 8125   0.537   3.045   4.003
   63DPPC  C210 8126   0.638   3.190   3.878
   63DPPC  H10R 8127   0.626   3.124   3.789
   63DPPC  H10S 8128   0.738   3.169   3.922
   63DPPC  C211 8129   0.636   3.336   3.828
   63DPPC  H11R 8130   0.715   3.346   3.750
   63DPPC  H11S 8131   0.663   3.404   3.912
   63DPPC  C212 8132   0.501   3.380   3.769
   63DPPC  H12R 8133   0.426   3.383   3.852
   63DPPC  H12S 8134   0.467   3.304   3.696
   63DPPC  C213 8135   0.502   3.518   3.701
   63DPPC  H13R 8136   0.541   3.594   3.771
   63DPPC  H13S 8137   0.396   3.544   3.677
   63DPPC  C214 8138   0.582   3.521   3.570
   63DPPC  H14R 8139   0.558   3.430   3.511
   63DPPC  H14S 8140   0.691   3.519   3.592
   63DPPC  C215 8141   0.549   3.643   3.482
   63DPPC  H15R 8142   0.441   3.639   3.457
   63DPPC  H15S 8143   0.605   3.633   3.386
   63DPPC  C216 8144   0.581   3.779   3.544
   63DPPC  H16R 8145   0.560   3.860   3.471
   63DPPC  H16S 8146   0.689   3.785   3.572
   63DPPC  H16T 8147   0.520   3.796   3.635
   63DPPC   C33 8148   1.047   2.649   4.567
   63DPPC   H3X 8149   1.035   2.548   4.613
   63DPPC   H3Y 8150   1.151   2.684   4.583
   63DPPC   C34 8151   1.022   2.636   4.416
   63DPPC   H4X 8152   1.052   2.731   4.366
   63DPPC   H4Y 8153   0.913   2.622   4.399
   63DPPC   C35 8154   1.096   2.518   4.351
   63DPPC   H5X 8155   1.061   2.425   4.401
   63DPPC   H5Y 8156   1.205   2.528   4.367
   63DPPC   C36 8157   1.066   2.509   4.200
   63DPPC   H6X 8158   1.122   2.591   4.149
   63DPPC   H6Y 8159   0.958   2.529   4.185
   63DPPC   C37 8160   1.101   2.375   4.134
   63DPPC   H7X 8161   1.211   2.357   4.143
   63DPPC   H7Y 8162   1.077   2.383   4.026
   63DPPC   C38 8163   1.027   2.251   4.189
   63DPPC   H8X 8164   1.067   2.227   4.290
   63DPPC   H8Y 8165   1.049   2.165   4.123
   63DPPC   C39 8166   0.874   2.267   4.202
   63DPPC   H9X 8167   0.852   2.342   4.281
   63DPPC   H9Y 8168   0.832   2.170   4.237
   63DPPC  C310 8169   0.799   2.309   4.074
   63DPPC  H10X 8170   0.835   2.409   4.041
   63DPPC  H10Y 8171   0.691   2.320   4.100
   63DPPC  C311 8172   0.810   2.210   3.957
   63DPPC  H11X 8173   0.785   2.108   3.993
   63DPPC  H11Y 8174   0.915   2.209   3.920
   63DPPC  C312 8175   0.715   2.247   3.842
   63DPPC  H12X 8176   0.735   2.351   3.810
   63DPPC  H12Y 8177   0.611   2.243   3.881
   63DPPC  C313 8178   0.725   2.155   3.719
   63DPPC  H13X 8179   0.640   2.180   3.651
   63DPPC  H13Y 8180   0.713   2.049   3.751
   63DPPC  C314 8181   0.856   2.171   3.640
   63DPPC  H14X 8182   0.873   2.279   3.621
   63DPPC  H14Y 8183   0.941   2.133   3.701
   63DPPC  C315 8184   0.854   2.097   3.505
   63DPPC  H15X 8185   0.769   2.135   3.445
   63DPPC  H15Y 8186   0.836   1.989   3.524
   63DPPC  C316 8187   0.983   2.114   3.424
   63DPPC  H16X 8188   1.001   2.221   3.403
   63DPPC  H16Y 8189   0.974   2.060   3.327
   63DPPC  H16Z 8190   1.069   2.073   3.480
   64DPPC     N 8191   4.044   3.466   5.812
   64DPPC   C13 8192   4.157   3.387   5.756
   64DPPC  H13A 8193   4.237   3.453   5.727
   64DPPC  H13B 8194   4.123   3.332   5.669
   64DPPC  H13C 8195   4.192   3.317   5.831
   64DPPC   C14 8196   3.938   3.373   5.859
   64DPPC  H14A 8197   3.897   3.319   5.774
   64DPPC  H14B 8198   3.859   3.429   5.907
   64DPPC  H14C 8199   3.981   3.302   5.929
   64DPPC   C15 8200   4.093   3.542   5.930
   64DPPC  H15A 8201   4.141   3.473   6.000
   64DPPC  H15B 8202   4.010   3.590   5.979
   64DPPC  H15C 8203   4.164   3.616   5.898
   64DPPC   C12 8204   3.986   3.559   5.709
   64DPPC  H12A 8205   3.913   3.623   5.758
   64DPPC  H12B 8206   3.932   3.499   5.637
   64DPPC   C11 8207   4.083   3.650   5.630
   64DPPC  H11A 8208   4.022   3.715   5.563
   64DPPC  H11B 8209   4.147   3.584   5.566
   64DPPC     P 8210   4.280   3.807   5.656
   64DPPC   O13 8211   4.404   3.732   5.687
   64DPPC   O14 8212   4.277   3.949   5.701
   64DPPC   O11 8213   4.254   3.800   5.501
   64DPPC   O12 8214   4.160   3.730   5.719
   64DPPC    C1 8215   4.337   3.867   5.406
   64DPPC    HA 8216   4.332   3.811   5.310
   64DPPC    HB 8217   4.444   3.868   5.436
   64DPPC    C2 8218   4.291   4.013   5.376
   64DPPC    HS 8219   4.317   4.072   5.467
   64DPPC   O21 8220   4.149   4.013   5.357
   64DPPC   C21 8221   4.099   4.135   5.354
   64DPPC   O22 8222   4.162   4.237   5.382
   64DPPC   C22 8223   3.954   4.131   5.307
   64DPPC   H2R 8224   3.888   4.166   5.388
   64DPPC   H2S 8225   3.927   4.027   5.280
   64DPPC    C3 8226   4.368   4.075   5.254
   64DPPC    HX 8227   4.475   4.047   5.263
   64DPPC    HY 8228   4.365   4.185   5.262
   64DPPC   O31 8229   4.308   4.037   5.128
   64DPPC   C31 8230   4.378   3.960   5.047
   64DPPC   O32 8231   4.492   3.922   5.066
   64DPPC   C32 8232   4.290   3.922   4.928
   64DPPC   H2X 8233   4.222   4.006   4.902
   64DPPC   H2Y 8234   4.226   3.836   4.959
   64DPPC   C23 8235   3.939   4.223   5.184
   64DPPC   H3R 8236   4.022   4.205   5.112
   64DPPC   H3S 8237   3.946   4.329   5.218
   64DPPC   C24 8238   3.806   4.205   5.109
   64DPPC   H4R 8239   3.792   4.291   5.040
   64DPPC   H4S 8240   3.723   4.208   5.184
   64DPPC   C25 8241   3.793   4.076   5.027
   64DPPC   H5R 8242   3.688   4.067   4.993
   64DPPC   H5S 8243   3.815   3.988   5.091
   64DPPC   C26 8244   3.884   4.072   4.902
   64DPPC   H6R 8245   3.990   4.079   4.933
   64DPPC   H6S 8246   3.859   4.160   4.839
   64DPPC   C27 8247   3.865   3.943   4.820
   64DPPC   H7R 8248   3.758   3.933   4.792
   64DPPC   H7S 8249   3.892   3.857   4.885
   64DPPC   C28 8250   3.951   3.936   4.692
   64DPPC   H8R 8251   3.941   3.833   4.651
   64DPPC   H8S 8252   4.058   3.952   4.719
   64DPPC   C29 8253   3.910   4.037   4.584
   64DPPC   H9R 8254   3.922   4.140   4.625
   64DPPC   H9S 8255   3.803   4.022   4.559
   64DPPC  C210 8256   3.993   4.028   4.455
   64DPPC  H10R 8257   4.100   4.039   4.481
   64DPPC  H10S 8258   3.965   4.114   4.389
   64DPPC  C211 8259   3.972   3.898   4.376
   64DPPC  H11R 8260   3.998   3.811   4.440
   64DPPC  H11S 8261   3.864   3.890   4.351
   64DPPC  C212 8262   4.052   3.890   4.245
   64DPPC  H12R 8263   4.019   3.972   4.178
   64DPPC  H12S 8264   4.028   3.794   4.194
   64DPPC  C213 8265   4.205   3.898   4.261
   64DPPC  H13R 8266   4.232   3.997   4.303
   64DPPC  H13S 8267   4.251   3.892   4.160
   64DPPC  C214 8268   4.267   3.789   4.350
   64DPPC  H14R 8269   4.243   3.690   4.307
   64DPPC  H14S 8270   4.223   3.795   4.451
   64DPPC  C215 8271   4.419   3.803   4.362
   64DPPC  H15R 8272   4.443   3.905   4.401
   64DPPC  H15S 8273   4.465   3.794   4.261
   64DPPC  C216 8274   4.483   3.700   4.456
   64DPPC  H16R 8275   4.465   3.598   4.418
   64DPPC  H16S 8276   4.441   3.709   4.558
   64DPPC  H16T 8277   4.593   3.718   4.461
   64DPPC   C33 8278   4.373   3.879   4.806
   64DPPC   H3X 8279   4.305   3.832   4.731
   64DPPC   H3Y 8280   4.447   3.801   4.836
   64DPPC   C34 8281   4.447   3.994   4.735
   64DPPC   H4X 8282   4.509   3.952   4.654
   64DPPC   H4Y 8283   4.514   4.043   4.808
   64DPPC   C35 8284   4.352   4.099   4.673
   64DPPC   H5X 8285   4.290   4.145   4.753
   64DPPC   H5Y 8286   4.284   4.048   4.602
   64DPPC   C36 8287   4.424   4.213   4.599
   64DPPC   H6X 8288   4.348   4.283   4.559
   64DPPC   H6Y 8289   4.480   4.171   4.512
   64DPPC   C37 8290   4.522   4.291   4.688
   64DPPC   H7X 8291   4.605   4.224   4.718
   64DPPC   H7Y 8292   4.469   4.323   4.781
   64DPPC   C38 8293   4.582   4.415   4.621
   64DPPC   H8X 8294   4.502   4.491   4.606
   64DPPC   H8Y 8295   4.621   4.386   4.521
   64DPPC   C39 8296   4.695   4.476   4.705
   64DPPC   H9X 8297   4.779   4.402   4.710
   64DPPC   H9Y 8298   4.659   4.493   4.808
   64DPPC  C310 8299   4.751   4.609   4.651
   64DPPC  H10X 8300   4.840   4.634   4.713
   64DPPC  H10Y 8301   4.675   4.689   4.665
   64DPPC  C311 8302   4.793   4.606   4.504
   64DPPC  H11X 8303   4.703   4.593   4.440
   64DPPC  H11Y 8304   4.860   4.519   4.486
   64DPPC  C312 8305   4.866   4.734   4.460
   64DPPC  H12X 8306   4.961   4.744   4.518
   64DPPC  H12Y 8307   4.802   4.822   4.484
   64DPPC  C313 8308   4.898   4.737   4.310
   64DPPC  H13X 8309   4.803   4.723   4.254
   64DPPC  H13Y 8310   4.966   4.652   4.285
   64DPPC  C314 8311   4.965   4.868   4.265
   64DPPC  H14X 8312   5.063   4.878   4.317
   64DPPC  H14Y 8313   4.902   4.954   4.298
   64DPPC  C315 8314   4.988   4.879   4.114
   64DPPC  H15X 8315   5.053   4.795   4.081
   64DPPC  H15Y 8316   5.043   4.974   4.094
   64DPPC  C316 8317   4.860   4.880   4.029
   64DPPC  H16X 8318   4.791   4.960   4.064
   64DPPC  H16Y 8319   4.808   4.783   4.036
   64DPPC  H16Z 8320   4.885   4.899   3.923
   65DPPC     N 8321   2.866   2.656   1.407
   65DPPC   C13 8322   2.815   2.794   1.430
   65DPPC  H13A 8323   2.776   2.802   1.530
   65DPPC  H13B 8324   2.735   2.815   1.360
   65DPPC  H13C 8325   2.895   2.865   1.419
   65DPPC   C14 8326   2.751   2.562   1.422
   65DPPC  H14A 8327   2.782   2.460   1.403
   65DPPC  H14B 8328   2.673   2.589   1.353
   65DPPC  H14C 8329   2.712   2.569   1.523
   65DPPC   C15 8330   2.918   2.645   1.268
   65DPPC  H15A 8331   2.950   2.544   1.248
   65DPPC  H15B 8332   3.002   2.711   1.253
   65DPPC  H15C 8333   2.840   2.671   1.197
   65DPPC   C12 8334   2.974   2.618   1.506
   65DPPC  H12A 8335   3.005   2.517   1.483
   65DPPC  H12B 8336   2.928   2.616   1.604
   65DPPC   C11 8337   3.101   2.706   1.517
   65DPPC  H11A 8338   3.151   2.708   1.417
   65DPPC  H11B 8339   3.174   2.659   1.586
   65DPPC     P 8340   3.039   2.873   1.704
   65DPPC   O13 8341   2.906   2.936   1.708
   65DPPC   O14 8342   3.150   2.952   1.761
   65DPPC   O11 8343   3.032   2.732   1.776
   65DPPC   O12 8344   3.071   2.840   1.554
   65DPPC    C1 8345   2.908   2.681   1.828
   65DPPC    HA 8346   2.922   2.573   1.848
   65DPPC    HB 8347   2.826   2.690   1.754
   65DPPC    C2 8348   2.864   2.748   1.962
   65DPPC    HS 8349   2.819   2.846   1.935
   65DPPC   O21 8350   2.981   2.760   2.045
   65DPPC   C21 8351   2.983   2.870   2.117
   65DPPC   O22 8352   2.892   2.951   2.123
   65DPPC   C22 8353   3.117   2.880   2.188
   65DPPC   H2R 8354   3.195   2.900   2.110
   65DPPC   H2S 8355   3.142   2.783   2.236
   65DPPC    C3 8356   2.755   2.660   2.032
   65DPPC    HX 8357   2.668   2.647   1.964
   65DPPC    HY 8358   2.800   2.559   2.045
   65DPPC   O31 8359   2.716   2.707   2.164
   65DPPC   C31 8360   2.613   2.791   2.166
   65DPPC   O32 8361   2.555   2.833   2.068
   65DPPC   C32 8362   2.574   2.820   2.311
   65DPPC   H2X 8363   2.472   2.864   2.310
   65DPPC   H2Y 8364   2.644   2.895   2.354
   65DPPC   C23 8365   3.119   2.995   2.290
   65DPPC   H3R 8366   3.087   3.090   2.241
   65DPPC   H3S 8367   3.224   3.009   2.323
   65DPPC   C24 8368   3.034   2.972   2.417
   65DPPC   H4R 8369   2.926   2.971   2.391
   65DPPC   H4S 8370   3.052   3.058   2.484
   65DPPC   C25 8371   3.069   2.843   2.492
   65DPPC   H5R 8372   3.179   2.832   2.497
   65DPPC   H5S 8373   3.028   2.755   2.437
   65DPPC   C26 8374   3.015   2.842   2.636
   65DPPC   H6R 8375   2.905   2.853   2.636
   65DPPC   H6S 8376   3.058   2.932   2.688
   65DPPC   C27 8377   3.055   2.718   2.717
   65DPPC   H7R 8378   3.044   2.744   2.825
   65DPPC   H7S 8379   3.161   2.694   2.699
   65DPPC   C28 8380   2.967   2.594   2.691
   65DPPC   H8R 8381   2.983   2.558   2.587
   65DPPC   H8S 8382   2.861   2.624   2.701
   65DPPC   C29 8383   2.997   2.481   2.790
   65DPPC   H9R 8384   3.001   2.525   2.893
   65DPPC   H9S 8385   3.097   2.438   2.768
   65DPPC  C210 8386   2.892   2.369   2.791
   65DPPC  H10R 8387   2.893   2.315   2.694
   65DPPC  H10S 8388   2.791   2.415   2.802
   65DPPC  C211 8389   2.910   2.269   2.907
   65DPPC  H11R 8390   2.823   2.200   2.910
   65DPPC  H11S 8391   2.910   2.326   3.002
   65DPPC  C212 8392   3.040   2.186   2.901
   65DPPC  H12R 8393   3.052   2.133   2.998
   65DPPC  H12S 8394   3.126   2.254   2.891
   65DPPC  C213 8395   3.045   2.082   2.787
   65DPPC  H13R 8396   3.147   2.037   2.787
   65DPPC  H13S 8397   3.033   2.135   2.690
   65DPPC  C214 8398   2.941   1.970   2.795
   65DPPC  H14R 8399   2.957   1.901   2.709
   65DPPC  H14S 8400   2.839   2.013   2.784
   65DPPC  C215 8401   2.944   1.886   2.925
   65DPPC  H15R 8402   2.868   1.805   2.916
   65DPPC  H15S 8403   2.913   1.951   3.010
   65DPPC  C216 8404   3.079   1.823   2.959
   65DPPC  H16R 8405   3.157   1.900   2.974
   65DPPC  H16S 8406   3.112   1.755   2.877
   65DPPC  H16T 8407   3.071   1.764   3.053
   65DPPC   C33 8408   2.574   2.691   2.395
   65DPPC   H3X 8409   2.679   2.660   2.416
   65DPPC   H3Y 8410   2.525   2.610   2.336
   65DPPC   C34 8411   2.497   2.702   2.528
   65DPPC   H4X 8412   2.493   2.601   2.574
   65DPPC   H4Y 8413   2.392   2.732   2.506
   65DPPC   C35 8414   2.556   2.799   2.631
   65DPPC   H5X 8415   2.552   2.903   2.591
   65DPPC   H5Y 8416   2.663   2.773   2.646
   65DPPC   C36 8417   2.483   2.793   2.766
   65DPPC   H6X 8418   2.489   2.689   2.805
   65DPPC   H6Y 8419   2.375   2.815   2.748
   65DPPC   C37 8420   2.533   2.891   2.873
   65DPPC   H7X 8421   2.477   2.872   2.967
   65DPPC   H7Y 8422   2.510   2.995   2.841
   65DPPC   C38 8423   2.684   2.884   2.904
   65DPPC   H8X 8424   2.707   2.954   2.987
   65DPPC   H8Y 8425   2.740   2.919   2.814
   65DPPC   C39 8426   2.738   2.744   2.941
   65DPPC   H9X 8427   2.849   2.751   2.945
   65DPPC   H9Y 8428   2.712   2.672   2.861
   65DPPC  C310 8429   2.690   2.689   3.076
   65DPPC  H10X 8430   2.579   2.682   3.076
   65DPPC  H10Y 8431   2.721   2.758   3.157
   65DPPC  C311 8432   2.749   2.549   3.103
   65DPPC  H11X 8433   2.860   2.555   3.091
   65DPPC  H11Y 8434   2.710   2.479   3.027
   65DPPC  C312 8435   2.720   2.491   3.243
   65DPPC  H12X 8436   2.768   2.556   3.320
   65DPPC  H12Y 8437   2.769   2.391   3.247
   65DPPC  C313 8438   2.571   2.477   3.276
   65DPPC  H13X 8439   2.520   2.427   3.191
   65DPPC  H13Y 8440   2.527   2.579   3.286
   65DPPC  C314 8441   2.541   2.397   3.404
   65DPPC  H14X 8442   2.431   2.402   3.423
   65DPPC  H14Y 8443   2.593   2.445   3.490
   65DPPC  C315 8444   2.581   2.249   3.396
   65DPPC  H15X 8445   2.692   2.241   3.388
   65DPPC  H15Y 8446   2.538   2.206   3.302
   65DPPC  C316 8447   2.533   2.164   3.514
   65DPPC  H16X 8448   2.562   2.058   3.499
   65DPPC  H16Y 8449   2.423   2.170   3.524
   65DPPC  H16Z 8450   2.580   2.200   3.608
   66DPPC     N 8451   1.499   0.143   1.674
   66DPPC   C13 8452   1.462   0.006   1.717
   66DPPC  H13A 8453   1.498   6.406   1.817
   66DPPC  H13B 8454   1.505   6.352   1.649
   66DPPC  H13C 8455   1.354   6.414   1.714
   66DPPC   C14 8456   1.647   0.152   1.667
   66DPPC  H14A 8457   1.691   0.140   1.765
   66DPPC  H14B 8458   1.675   0.250   1.629
   66DPPC  H14C 8459   1.686   0.076   1.601
   66DPPC   C15 8460   1.444   0.169   1.539
   66DPPC  H15A 8461   1.469   0.269   1.508
   66DPPC  H15B 8462   1.336   0.160   1.542
   66DPPC  H15C 8463   1.485   0.099   1.468
   66DPPC   C12 8464   1.448   0.243   1.775
   66DPPC  H12A 8465   1.486   0.341   1.747
   66DPPC  H12B 8466   1.493   0.218   1.871
   66DPPC   C11 8467   1.296   0.256   1.794
   66DPPC  H11A 8468   1.278   0.316   1.886
   66DPPC  H11B 8469   1.252   0.155   1.811
   66DPPC     P 8470   1.087   0.344   1.683
   66DPPC   O13 8471   1.020   0.217   1.720
   66DPPC   O14 8472   1.046   0.404   1.554
   66DPPC   O11 8473   1.069   0.449   1.800
   66DPPC   O12 8474   1.241   0.319   1.679
   66DPPC    C1 8475   1.114   0.585   1.791
   66DPPC    HA 8476   1.057   0.646   1.864
   66DPPC    HB 8477   1.094   0.628   1.690
   66DPPC    C2 8478   1.266   0.608   1.825
   66DPPC    HS 8479   1.323   0.555   1.745
   66DPPC   O21 8480   1.294   0.552   1.955
   66DPPC   C21 8481   1.424   0.536   1.975
   66DPPC   O22 8482   1.511   0.562   1.894
   66DPPC   C22 8483   1.449   0.475   2.112
   66DPPC   H2R 8484   1.357   0.476   2.174
   66DPPC   H2S 8485   1.528   0.535   2.163
   66DPPC    C3 8486   1.303   0.760   1.816
   66DPPC    HX 8487   1.269   0.792   1.715
   66DPPC    HY 8488   1.413   0.773   1.821
   66DPPC   O31 8489   1.240   0.837   1.922
   66DPPC   C31 8490   1.228   0.967   1.894
   66DPPC   O32 8491   1.257   1.017   1.787
   66DPPC   C32 8492   1.174   1.044   2.014
   66DPPC   H2X 8493   1.074   1.005   2.040
   66DPPC   H2Y 8494   1.162   1.150   1.983
   66DPPC   C23 8495   1.499   0.330   2.093
   66DPPC   H3R 8496   1.577   0.329   2.014
   66DPPC   H3S 8497   1.414   0.267   2.059
   66DPPC   C24 8498   1.561   0.268   2.218
   66DPPC   H4R 8499   1.484   0.254   2.296
   66DPPC   H4S 8500   1.638   0.339   2.257
   66DPPC   C25 8501   1.632   0.134   2.190
   66DPPC   H5R 8502   1.685   0.101   2.282
   66DPPC   H5S 8503   1.710   0.151   2.111
   66DPPC   C26 8504   1.541   0.019   2.143
   66DPPC   H6R 8505   1.607   6.353   2.113
   66DPPC   H6S 8506   1.483   0.050   2.053
   66DPPC   C27 8507   1.446   6.387   2.253
   66DPPC   H7R 8508   1.372   0.047   2.279
   66DPPC   H7S 8509   1.508   6.368   2.344
   66DPPC   C28 8510   1.374   6.256   2.219
   66DPPC   H8R 8511   1.337   6.215   2.315
   66DPPC   H8S 8512   1.446   6.183   2.176
   66DPPC   C29 8513   1.253   6.271   2.124
   66DPPC   H9R 8514   1.288   6.312   2.027
   66DPPC   H9S 8515   1.183   6.345   2.169
   66DPPC  C210 8516   1.175   6.140   2.099
   66DPPC  H10R 8517   1.240   6.070   2.043
   66DPPC  H10S 8518   1.087   6.164   2.036
   66DPPC  C211 8519   1.128   6.071   2.228
   66DPPC  H11R 8520   1.070   6.143   2.290
   66DPPC  H11S 8521   1.218   6.041   2.287
   66DPPC  C212 8522   1.044   5.944   2.207
   66DPPC  H12R 8523   1.043   5.890   2.305
   66DPPC  H12S 8524   1.093   5.878   2.132
   66DPPC  C213 8525   0.898   5.972   2.167
   66DPPC  H13R 8526   0.897   6.018   2.066
   66DPPC  H13S 8527   0.855   6.046   2.237
   66DPPC  C214 8528   0.809   5.846   2.165
   66DPPC  H14R 8529   0.849   5.775   2.090
   66DPPC  H14S 8530   0.707   5.877   2.132
   66DPPC  C215 8531   0.795   5.772   2.299
   66DPPC  H15R 8532   0.894   5.728   2.326
   66DPPC  H15S 8533   0.726   5.686   2.283
   66DPPC  C216 8534   0.744   5.856   2.416
   66DPPC  H16R 8535   0.646   5.902   2.392
   66DPPC  H16S 8536   0.816   5.937   2.441
   66DPPC  H16T 8537   0.732   5.792   2.507
   66DPPC   C33 8538   1.268   1.036   2.135
   66DPPC   H3X 8539   1.288   1.141   2.167
   66DPPC   H3Y 8540   1.366   0.992   2.109
   66DPPC   C34 8541   1.208   0.963   2.257
   66DPPC   H4X 8542   1.104   0.999   2.274
   66DPPC   H4Y 8543   1.268   0.991   2.346
   66DPPC   C35 8544   1.208   0.810   2.246
   66DPPC   H5X 8545   1.312   0.775   2.226
   66DPPC   H5Y 8546   1.145   0.778   2.161
   66DPPC   C36 8547   1.158   0.744   2.375
   66DPPC   H6X 8548   1.052   0.774   2.392
   66DPPC   H6Y 8549   1.217   0.783   2.461
   66DPPC   C37 8550   1.168   0.590   2.378
   66DPPC   H7X 8551   1.132   0.556   2.478
   66DPPC   H7Y 8552   1.274   0.560   2.368
   66DPPC   C38 8553   1.084   0.519   2.270
   66DPPC   H8X 8554   1.125   0.542   2.170
   66DPPC   H8Y 8555   0.980   0.558   2.275
   66DPPC   C39 8556   1.079   0.367   2.291
   66DPPC   H9X 8557   1.039   0.348   2.393
   66DPPC   H9Y 8558   1.182   0.325   2.287
   66DPPC  C310 8559   0.990   0.294   2.189
   66DPPC  H10X 8560   1.041   0.292   2.090
   66DPPC  H10Y 8561   0.894   0.349   2.178
   66DPPC  C311 8562   0.958   0.150   2.234
   66DPPC  H11X 8563   0.908   0.157   2.333
   66DPPC  H11Y 8564   1.053   0.094   2.248
   66DPPC  C312 8565   0.868   0.073   2.136
   66DPPC  H12X 8566   0.925   0.057   2.042
   66DPPC  H12Y 8567   0.779   0.134   2.112
   66DPPC  C313 8568   0.821   6.355   2.190
   66DPPC  H13X 8569   0.910   6.297   2.225
   66DPPC  H13Y 8570   0.773   6.299   2.107
   66DPPC  C314 8571   0.720   6.367   2.305
   66DPPC  H14X 8572   0.632   0.007   2.269
   66DPPC  H14Y 8573   0.765   0.005   2.389
   66DPPC  C315 8574   0.671   6.232   2.360
   66DPPC  H15X 8575   0.758   6.177   2.401
   66DPPC  H15Y 8576   0.629   6.172   2.276
   66DPPC  C316 8577   0.565   6.246   2.470
   66DPPC  H16X 8578   0.475   6.297   2.430
   66DPPC  H16Y 8579   0.604   6.305   2.555
   66DPPC  H16Z 8580   0.535   6.146   2.507
   67DPPC     N 8581   1.926   2.006   0.934
   67DPPC   C13 8582   1.997   1.877   0.913
   67DPPC  H13A 8583   1.979   1.841   0.813
   67DPPC  H13B 8584   1.960   1.803   0.984
   67DPPC  H13C 8585   2.103   1.892   0.929
   67DPPC   C14 8586   1.969   2.102   0.829
   67DPPC  H14A 8587   2.076   2.118   0.836
   67DPPC  H14B 8588   1.918   2.196   0.844
   67DPPC  H14C 8589   1.944   2.063   0.731
   67DPPC   C15 8590   1.779   1.984   0.919
   67DPPC  H15A 8591   1.727   2.078   0.927
   67DPPC  H15B 8592   1.745   1.918   0.998
   67DPPC  H15C 8593   1.759   1.939   0.823
   67DPPC   C12 8594   1.959   2.063   1.070
   67DPPC  H12A 8595   1.899   2.153   1.083
   67DPPC  H12B 8596   2.063   2.094   1.067
   67DPPC   C11 8597   1.940   1.973   1.194
   67DPPC  H11A 8598   1.966   2.036   1.283
   67DPPC  H11B 8599   2.014   1.890   1.187
   67DPPC     P 8600   1.780   1.819   1.313
   67DPPC   O13 8601   1.841   1.691   1.270
   67DPPC   O14 8602   1.635   1.813   1.344
   67DPPC   O11 8603   1.858   1.877   1.439
   67DPPC   O12 8604   1.806   1.927   1.202
   67DPPC    C1 8605   1.939   1.795   1.523
   67DPPC    HA 8606   2.022   1.857   1.565
   67DPPC    HB 8607   1.988   1.713   1.466
   67DPPC    C2 8608   1.861   1.733   1.644
   67DPPC    HS 8609   1.755   1.722   1.611
   67DPPC   O21 8610   1.872   1.821   1.757
   67DPPC   C21 8611   1.786   1.791   1.852
   67DPPC   O22 8612   1.696   1.708   1.841
   67DPPC   C22 8613   1.817   1.868   1.980
   67DPPC   H2R 8614   1.755   1.960   1.982
   67DPPC   H2S 8615   1.924   1.897   1.983
   67DPPC    C3 8616   1.916   1.589   1.675
   67DPPC    HX 8617   1.896   1.529   1.583
   67DPPC    HY 8618   1.857   1.545   1.757
   67DPPC   O31 8619   2.057   1.588   1.707
   67DPPC   C31 8620   2.105   1.464   1.717
   67DPPC   O32 8621   2.039   1.363   1.702
   67DPPC   C32 8622   2.255   1.467   1.745
   67DPPC   H2X 8623   2.297   1.568   1.727
   67DPPC   H2Y 8624   2.303   1.397   1.673
   67DPPC   C23 8625   1.784   1.781   2.103
   67DPPC   H3R 8626   1.846   1.689   2.101
   67DPPC   H3S 8627   1.677   1.750   2.098
   67DPPC   C24 8628   1.806   1.853   2.237
   67DPPC   H4R 8629   1.748   1.948   2.233
   67DPPC   H4S 8630   1.913   1.879   2.249
   67DPPC   C25 8631   1.758   1.773   2.360
   67DPPC   H5R 8632   1.658   1.730   2.337
   67DPPC   H5S 8633   1.745   1.843   2.445
   67DPPC   C26 8634   1.853   1.661   2.405
   67DPPC   H6R 8635   1.948   1.708   2.441
   67DPPC   H6S 8636   1.878   1.597   2.318
   67DPPC   C27 8637   1.795   1.573   2.517
   67DPPC   H7R 8638   1.706   1.520   2.476
   67DPPC   H7S 8639   1.761   1.637   2.601
   67DPPC   C28 8640   1.895   1.469   2.571
   67DPPC   H8R 8641   1.976   1.521   2.624
   67DPPC   H8S 8642   1.940   1.415   2.484
   67DPPC   C29 8643   1.830   1.365   2.664
   67DPPC   H9R 8644   1.751   1.311   2.609
   67DPPC   H9S 8645   1.783   1.417   2.750
   67DPPC  C210 8646   1.932   1.262   2.718
   67DPPC  H10R 8647   2.007   1.315   2.781
   67DPPC  H10S 8648   1.985   1.216   2.632
   67DPPC  C211 8649   1.868   1.150   2.801
   67DPPC  H11R 8650   1.794   1.097   2.737
   67DPPC  H11S 8651   1.815   1.194   2.888
   67DPPC  C212 8652   1.972   1.048   2.853
   67DPPC  H12R 8653   2.049   1.102   2.912
   67DPPC  H12S 8654   2.023   1.001   2.766
   67DPPC  C213 8655   1.913   0.936   2.941
   67DPPC  H13R 8656   1.870   0.982   3.034
   67DPPC  H13S 8657   1.996   0.869   2.972
   67DPPC  C214 8658   1.804   0.852   2.873
   67DPPC  H14R 8659   1.843   0.817   2.774
   67DPPC  H14S 8660   1.714   0.914   2.854
   67DPPC  C215 8661   1.763   0.729   2.955
   67DPPC  H15R 8662   1.724   0.763   3.054
   67DPPC  H15S 8663   1.854   0.667   2.974
   67DPPC  C216 8664   1.657   0.641   2.888
   67DPPC  H16R 8665   1.695   0.601   2.792
   67DPPC  H16S 8666   1.565   0.699   2.869
   67DPPC  H16T 8667   1.631   0.554   2.954
   67DPPC   C33 8668   2.287   1.420   1.888
   67DPPC   H3X 8669   2.395   1.393   1.889
   67DPPC   H3Y 8670   2.230   1.328   1.913
   67DPPC   C34 8671   2.265   1.527   1.996
   67DPPC   H4X 8672   2.157   1.543   2.013
   67DPPC   H4Y 8673   2.309   1.623   1.959
   67DPPC   C35 8674   2.336   1.493   2.128
   67DPPC   H5X 8675   2.442   1.471   2.105
   67DPPC   H5Y 8676   2.290   1.402   2.173
   67DPPC   C36 8677   2.334   1.607   2.231
   67DPPC   H6X 8678   2.233   1.617   2.275
   67DPPC   H6Y 8679   2.357   1.702   2.178
   67DPPC   C37 8680   2.439   1.593   2.343
   67DPPC   H7X 8681   2.433   1.681   2.410
   67DPPC   H7Y 8682   2.540   1.594   2.295
   67DPPC   C38 8683   2.429   1.465   2.428
   67DPPC   H8X 8684   2.516   1.462   2.497
   67DPPC   H8Y 8685   2.436   1.375   2.362
   67DPPC   C39 8686   2.300   1.457   2.511
   67DPPC   H9X 8687   2.212   1.463   2.442
   67DPPC   H9Y 8688   2.295   1.544   2.579
   67DPPC  C310 8689   2.285   1.327   2.593
   67DPPC  H10X 8690   2.287   1.240   2.524
   67DPPC  H10Y 8691   2.185   1.331   2.641
   67DPPC  C311 8692   2.390   1.308   2.703
   67DPPC  H11X 8693   2.395   1.400   2.765
   67DPPC  H11Y 8694   2.490   1.291   2.657
   67DPPC  C312 8695   2.355   1.190   2.796
   67DPPC  H12X 8696   2.348   1.097   2.734
   67DPPC  H12Y 8697   2.255   1.209   2.840
   67DPPC  C313 8698   2.456   1.168   2.909
   67DPPC  H13X 8699   2.474   1.266   2.960
   67DPPC  H13Y 8700   2.553   1.135   2.866
   67DPPC  C314 8701   2.410   1.067   3.016
   67DPPC  H14X 8702   2.316   1.105   3.062
   67DPPC  H14Y 8703   2.487   1.063   3.096
   67DPPC  C315 8704   2.386   0.925   2.963
   67DPPC  H15X 8705   2.480   0.888   2.917
   67DPPC  H15Y 8706   2.308   0.928   2.884
   67DPPC  C316 8707   2.341   0.825   3.070
   67DPPC  H16X 8708   2.418   0.817   3.150
   67DPPC  H16Y 8709   2.326   0.724   3.026
   67DPPC  H16Z 8710   2.245   0.858   3.116
   68DPPC     N 8711   4.674   5.490   1.797
   68DPPC   C13 8712   4.816   5.497   1.843
   68DPPC  H13A 8713   4.861   5.591   1.813
   68DPPC  H13B 8714   4.871   5.414   1.800
   68DPPC  H13C 8715   4.818   5.487   1.951
   68DPPC   C14 8716   4.601   5.606   1.856
   68DPPC  H14A 8717   4.607   5.600   1.964
   68DPPC  H14B 8718   4.497   5.603   1.825
   68DPPC  H14C 8719   4.646   5.698   1.823
   68DPPC   C15 8720   4.671   5.501   1.649
   68DPPC  H15A 8721   4.727   5.419   1.606
   68DPPC  H15B 8722   4.716   5.595   1.619
   68DPPC  H15C 8723   4.568   5.497   1.615
   68DPPC   C12 8724   4.607   5.363   1.844
   68DPPC  H12A 8725   4.501   5.374   1.829
   68DPPC  H12B 8726   4.625   5.355   1.951
   68DPPC   C11 8727   4.649   5.229   1.779
   68DPPC  H11A 8728   4.598   5.148   1.836
   68DPPC  H11B 8729   4.612   5.228   1.674
   68DPPC     P 8730   4.848   5.078   1.736
   68DPPC   O13 8731   4.996   5.094   1.733
   68DPPC   O14 8732   4.781   5.037   1.611
   68DPPC   O11 8733   4.808   4.981   1.854
   68DPPC   O12 8734   4.790   5.216   1.782
   68DPPC    C1 8735   4.842   5.012   1.991
   68DPPC    HA 8736   4.827   5.120   2.013
   68DPPC    HB 8737   4.949   4.986   2.009
   68DPPC    C2 8738   4.755   4.932   2.093
   68DPPC    HS 8739   4.783   4.825   2.079
   68DPPC   O21 8740   4.617   4.958   2.060
   68DPPC   C21 8741   4.539   4.854   2.081
   68DPPC   O22 8742   4.574   4.748   2.129
   68DPPC   C22 8743   4.398   4.885   2.031
   68DPPC   H2R 8744   4.338   4.791   2.040
   68DPPC   H2S 8745   4.402   4.914   1.924
   68DPPC    C3 8746   4.789   4.973   2.240
   68DPPC    HX 8747   4.781   5.084   2.245
   68DPPC    HY 8748   4.896   4.948   2.261
   68DPPC   O31 8749   4.700   4.918   2.341
   68DPPC   C31 8750   4.730   4.797   2.386
   68DPPC   O32 8751   4.826   4.731   2.350
   68DPPC   C32 8752   4.624   4.754   2.488
   68DPPC   H2X 8753   4.527   4.750   2.434
   68DPPC   H2Y 8754   4.617   4.830   2.569
   68DPPC   C23 8755   4.333   4.997   2.114
   68DPPC   H3R 8756   4.390   5.092   2.097
   68DPPC   H3S 8757   4.340   4.973   2.222
   68DPPC   C24 8758   4.185   5.023   2.078
   68DPPC   H4R 8759   4.180   5.052   1.970
   68DPPC   H4S 8760   4.149   5.110   2.137
   68DPPC   C25 8761   4.089   4.905   2.101
   68DPPC   H5R 8762   4.117   4.823   2.030
   68DPPC   H5S 8763   3.986   4.937   2.075
   68DPPC   C26 8764   4.089   4.848   2.244
   68DPPC   H6R 8765   4.193   4.818   2.272
   68DPPC   H6S 8766   4.027   4.756   2.245
   68DPPC   C27 8767   4.034   4.945   2.349
   68DPPC   H7R 8768   3.927   4.964   2.326
   68DPPC   H7S 8769   4.087   5.043   2.344
   68DPPC   C28 8770   4.044   4.893   2.494
   68DPPC   H8R 8771   4.008   4.788   2.497
   68DPPC   H8S 8772   3.976   4.954   2.558
   68DPPC   C29 8773   4.186   4.902   2.553
   68DPPC   H9R 8774   4.217   5.009   2.555
   68DPPC   H9S 8775   4.256   4.847   2.487
   68DPPC  C210 8776   4.196   4.844   2.695
   68DPPC  H10R 8777   4.168   4.737   2.690
   68DPPC  H10S 8778   4.125   4.896   2.762
   68DPPC  C211 8779   4.338   4.856   2.753
   68DPPC  H11R 8780   4.362   4.964   2.766
   68DPPC  H11S 8781   4.411   4.814   2.681
   68DPPC  C212 8782   4.358   4.786   2.889
   68DPPC  H12R 8783   4.285   4.827   2.962
   68DPPC  H12S 8784   4.460   4.809   2.926
   68DPPC  C213 8785   4.342   4.633   2.882
   68DPPC  H13R 8786   4.411   4.594   2.803
   68DPPC  H13S 8787   4.238   4.608   2.852
   68DPPC  C214 8788   4.372   4.562   3.015
   68DPPC  H14R 8789   4.312   4.611   3.095
   68DPPC  H14S 8790   4.479   4.575   3.040
   68DPPC  C215 8791   4.337   4.412   3.014
   68DPPC  H15R 8792   4.229   4.401   2.990
   68DPPC  H15S 8793   4.353   4.372   3.117
   68DPPC  C216 8794   4.419   4.327   2.916
   68DPPC  H16R 8795   4.386   4.221   2.921
   68DPPC  H16S 8796   4.527   4.332   2.940
   68DPPC  H16T 8797   4.404   4.363   2.812
   68DPPC   C33 8798   4.653   4.615   2.547
   68DPPC   H3X 8799   4.697   4.547   2.471
   68DPPC   H3Y 8800   4.555   4.571   2.576
   68DPPC   C34 8801   4.738   4.614   2.675
   68DPPC   H4X 8802   4.684   4.674   2.752
   68DPPC   H4Y 8803   4.837   4.661   2.657
   68DPPC   C35 8804   4.759   4.471   2.729
   68DPPC   H5X 8805   4.839   4.421   2.671
   68DPPC   H5Y 8806   4.665   4.414   2.712
   68DPPC   C36 8807   4.789   4.461   2.880
   68DPPC   H6X 8808   4.796   4.354   2.906
   68DPPC   H6Y 8809   4.704   4.505   2.936
   68DPPC   C37 8810   4.919   4.530   2.925
   68DPPC   H7X 8811   4.910   4.640   2.910
   68DPPC   H7Y 8812   5.003   4.493   2.863
   68DPPC   C38 8813   4.951   4.502   3.073
   68DPPC   H8X 8814   4.963   4.392   3.086
   68DPPC   H8Y 8815   4.864   4.534   3.135
   68DPPC   C39 8816   5.077   4.573   3.124
   68DPPC   H9X 8817   5.061   4.683   3.120
   68DPPC   H9Y 8818   5.162   4.548   3.057
   68DPPC  C310 8819   5.114   4.532   3.268
   68DPPC  H10X 8820   5.130   4.422   3.270
   68DPPC  H10Y 8821   5.030   4.556   3.336
   68DPPC  C311 8822   5.241   4.602   3.319
   68DPPC  H11X 8823   5.222   4.711   3.324
   68DPPC  H11Y 8824   5.323   4.585   3.245
   68DPPC  C312 8825   5.288   4.552   3.456
   68DPPC  H12X 8826   5.304   4.442   3.450
   68DPPC  H12Y 8827   5.208   4.571   3.531
   68DPPC  C313 8828   5.419   4.617   3.505
   68DPPC  H13X 8829   5.498   4.599   3.428
   68DPPC  H13Y 8830   5.451   4.567   3.598
   68DPPC  C314 8831   5.407   4.768   3.532
   68DPPC  H14X 8832   5.323   4.784   3.603
   68DPPC  H14Y 8833   5.383   4.821   3.438
   68DPPC  C315 8834   5.533   4.832   3.593
   68DPPC  H15X 8835   5.553   4.785   3.692
   68DPPC  H15Y 8836   5.513   4.940   3.610
   68DPPC  C316 8837   5.660   4.819   3.507
   68DPPC  H16X 8838   5.690   4.713   3.498
   68DPPC  H16Y 8839   5.743   4.875   3.554
   68DPPC  H16Z 8840   5.642   4.860   3.406
   69DPPC     N 8841   4.101   5.403   1.196
   69DPPC   C13 8842   4.156   5.529   1.140
   69DPPC  H13A 8843   4.103   5.554   1.049
   69DPPC  H13B 8844   4.261   5.518   1.117
   69DPPC  H13C 8845   4.143   5.610   1.211
   69DPPC   C14 8846   3.956   5.423   1.222
   69DPPC  H14A 8847   3.914   5.333   1.264
   69DPPC  H14B 8848   3.905   5.447   1.129
   69DPPC  H14C 8849   3.943   5.503   1.293
   69DPPC   C15 8850   4.117   5.294   1.096
   69DPPC  H15A 8851   4.221   5.283   1.069
   69DPPC  H15B 8852   4.060   5.318   1.007
   69DPPC  H15C 8853   4.080   5.201   1.137
   69DPPC   C12 8854   4.176   5.370   1.324
   69DPPC  H12A 8855   4.151   5.446   1.396
   69DPPC  H12B 8856   4.282   5.377   1.302
   69DPPC   C11 8857   4.152   5.232   1.390
   69DPPC  H11A 8858   4.213   5.231   1.483
   69DPPC  H11B 8859   4.190   5.151   1.323
   69DPPC     P 8860   3.974   5.111   1.526
   69DPPC   O13 8861   4.052   4.986   1.511
   69DPPC   O14 8862   3.827   5.097   1.529
   69DPPC   O11 8863   4.022   5.183   1.658
   69DPPC   O12 8864   4.013   5.212   1.413
   69DPPC    C1 8865   3.962   5.305   1.705
   69DPPC    HA 8866   3.864   5.326   1.657
   69DPPC    HB 8867   4.030   5.390   1.682
   69DPPC    C2 8868   3.937   5.301   1.859
   69DPPC    HS 8869   3.881   5.393   1.887
   69DPPC   O21 8870   4.061   5.287   1.930
   69DPPC   C21 8871   4.121   5.404   1.948
   69DPPC   O22 8872   4.073   5.512   1.917
   69DPPC   C22 8873   4.257   5.385   2.013
   69DPPC   H2R 8874   4.325   5.463   1.972
   69DPPC   H2S 8875   4.300   5.286   1.989
   69DPPC    C3 8876   3.843   5.181   1.897
   69DPPC    HX 8877   3.892   5.088   1.861
   69DPPC    HY 8878   3.747   5.190   1.842
   69DPPC   O31 8879   3.822   5.168   2.040
   69DPPC   C31 8880   3.741   5.260   2.092
   69DPPC   O32 8881   3.682   5.346   2.029
   69DPPC   C32 8882   3.737   5.243   2.243
   69DPPC   H2X 8883   3.655   5.305   2.285
   69DPPC   H2Y 8884   3.718   5.137   2.268
   69DPPC   C23 8885   4.246   5.405   2.166
   69DPPC   H3R 8886   4.199   5.316   2.212
   69DPPC   H3S 8887   4.181   5.492   2.187
   69DPPC   C24 8888   4.382   5.432   2.231
   69DPPC   H4R 8889   4.430   5.517   2.178
   69DPPC   H4S 8890   4.448   5.343   2.219
   69DPPC   C25 8891   4.374   5.468   2.381
   69DPPC   H5R 8892   4.338   5.379   2.438
   69DPPC   H5S 8893   4.299   5.549   2.393
   69DPPC   C26 8894   4.508   5.515   2.438
   69DPPC   H6R 8895   4.543   5.601   2.376
   69DPPC   H6S 8896   4.583   5.434   2.428
   69DPPC   C27 8897   4.501   5.560   2.584
   69DPPC   H7R 8898   4.477   5.472   2.648
   69DPPC   H7S 8899   4.419   5.634   2.595
   69DPPC   C28 8900   4.632   5.625   2.632
   69DPPC   H8R 8901   4.654   5.712   2.565
   69DPPC   H8S 8902   4.716   5.552   2.621
   69DPPC   C29 8903   4.629   5.676   2.777
   69DPPC   H9R 8904   4.542   5.744   2.790
   69DPPC   H9S 8905   4.721   5.736   2.794
   69DPPC  C210 8906   4.624   5.565   2.883
   69DPPC  H10R 8907   4.702   5.490   2.857
   69DPPC  H10S 8908   4.525   5.514   2.879
   69DPPC  C211 8909   4.651   5.614   3.026
   69DPPC  H11R 8910   4.746   5.670   3.026
   69DPPC  H11S 8911   4.664   5.525   3.092
   69DPPC  C212 8912   4.541   5.704   3.085
   69DPPC  H12R 8913   4.450   5.643   3.104
   69DPPC  H12S 8914   4.514   5.782   3.010
   69DPPC  C213 8915   4.583   5.776   3.214
   69DPPC  H13R 8916   4.497   5.835   3.252
   69DPPC  H13S 8917   4.664   5.848   3.189
   69DPPC  C214 8918   4.635   5.684   3.327
   69DPPC  H14R 8919   4.662   5.748   3.413
   69DPPC  H14S 8920   4.727   5.632   3.293
   69DPPC  C215 8921   4.533   5.579   3.374
   69DPPC  H15R 8922   4.508   5.512   3.289
   69DPPC  H15S 8923   4.439   5.632   3.404
   69DPPC  C216 8924   4.581   5.495   3.491
   69DPPC  H16R 8925   4.607   5.560   3.578
   69DPPC  H16S 8926   4.672   5.437   3.462
   69DPPC  H16T 8927   4.502   5.423   3.523
   69DPPC   C33 8928   3.872   5.288   2.303
   69DPPC   H3X 8929   3.955   5.233   2.254
   69DPPC   H3Y 8930   3.887   5.397   2.284
   69DPPC   C34 8931   3.881   5.262   2.454
   69DPPC   H4X 8932   3.864   5.153   2.472
   69DPPC   H4Y 8933   3.801   5.318   2.506
   69DPPC   C35 8934   4.018   5.300   2.514
   69DPPC   H5X 8935   4.034   5.409   2.504
   69DPPC   H5Y 8936   4.097   5.248   2.457
   69DPPC   C36 8937   4.031   5.260   2.662
   69DPPC   H6X 8938   4.007   5.152   2.673
   69DPPC   H6Y 8939   3.957   5.318   2.723
   69DPPC   C37 8940   4.172   5.284   2.718
   69DPPC   H7X 8941   4.195   5.393   2.714
   69DPPC   H7Y 8942   4.246   5.232   2.653
   69DPPC   C38 8943   4.190   5.234   2.862
   69DPPC   H8X 8944   4.169   5.124   2.865
   69DPPC   H8Y 8945   4.116   5.285   2.928
   69DPPC   C39 8946   4.332   5.259   2.917
   69DPPC   H9X 8947   4.352   5.368   2.912
   69DPPC   H9Y 8948   4.405   5.207   2.851
   69DPPC  C310 8949   4.351   5.211   3.061
   69DPPC  H10X 8950   4.331   5.101   3.066
   69DPPC  H10Y 8951   4.276   5.262   3.126
   69DPPC  C311 8952   4.492   5.240   3.115
   69DPPC  H11X 8953   4.514   5.347   3.097
   69DPPC  H11Y 8954   4.567   5.180   3.059
   69DPPC  C312 8955   4.508   5.214   3.266
   69DPPC  H12X 8956   4.435   5.279   3.320
   69DPPC  H12Y 8957   4.610   5.246   3.298
   69DPPC  C313 8958   4.486   5.069   3.311
   69DPPC  H13X 8959   4.386   5.035   3.277
   69DPPC  H13Y 8960   4.486   5.067   3.423
   69DPPC  C314 8961   4.592   4.970   3.261
   69DPPC  H14X 8962   4.692   5.004   3.296
   69DPPC  H14Y 8963   4.593   4.969   3.150
   69DPPC  C315 8964   4.567   4.827   3.312
   69DPPC  H15X 8965   4.468   4.793   3.275
   69DPPC  H15Y 8966   4.563   4.829   3.423
   69DPPC  C316 8967   4.673   4.725   3.268
   69DPPC  H16X 8968   4.678   4.719   3.157
   69DPPC  H16Y 8969   4.649   4.625   3.308
   69DPPC  H16Z 8970   4.773   4.755   3.307
   70DPPC     N 8971   3.657   2.501   0.952
   70DPPC   C13 8972   3.509   2.509   0.945
   70DPPC  H13A 8973   3.474   2.587   1.012
   70DPPC  H13B 8974   3.466   2.414   0.975
   70DPPC  H13C 8975   3.478   2.532   0.844
   70DPPC   C14 8976   3.704   2.395   0.858
   70DPPC  H14A 8977   3.667   2.418   0.758
   70DPPC  H14B 8978   3.664   2.299   0.888
   70DPPC  H14C 8979   3.811   2.393   0.855
   70DPPC   C15 8980   3.711   2.632   0.906
   70DPPC  H15A 8981   3.819   2.631   0.916
   70DPPC  H15B 8982   3.670   2.711   0.967
   70DPPC  H15C 8983   3.685   2.648   0.802
   70DPPC   C12 8984   3.699   2.470   1.093
   70DPPC  H12A 8985   3.644   2.382   1.125
   70DPPC  H12B 8986   3.666   2.552   1.155
   70DPPC   C11 8987   3.849   2.444   1.122
   70DPPC  H11A 8988   3.880   2.351   1.068
   70DPPC  H11B 8989   3.859   2.426   1.232
   70DPPC     P 8990   4.081   2.550   1.111
   70DPPC   O13 8991   4.140   2.676   1.062
   70DPPC   O14 8992   4.138   2.422   1.062
   70DPPC   O11 8993   4.086   2.551   1.269
   70DPPC   O12 8994   3.927   2.554   1.080
   70DPPC    C1 8995   4.030   2.661   1.343
   70DPPC    HA 8996   3.996   2.623   1.441
   70DPPC    HB 8997   3.942   2.704   1.291
   70DPPC    C2 8998   4.130   2.777   1.371
   70DPPC    HS 8999   4.183   2.799   1.276
   70DPPC   O21 9000   4.221   2.736   1.476
   70DPPC   C21 9001   4.327   2.813   1.480
   70DPPC   O22 9002   4.364   2.888   1.391
   70DPPC   C22 9003   4.393   2.804   1.617
   70DPPC   H2R 9004   4.498   2.839   1.608
   70DPPC   H2S 9005   4.392   2.700   1.654
   70DPPC    C3 9006   4.051   2.905   1.415
   70DPPC    HX 9007   3.985   2.930   1.328
   70DPPC    HY 9008   4.121   2.989   1.431
   70DPPC   O31 9009   3.972   2.881   1.533
   70DPPC   C31 9010   3.878   2.974   1.556
   70DPPC   O32 9011   3.861   3.074   1.488
   70DPPC   C32 9012   3.795   2.937   1.677
   70DPPC   H2X 9013   3.779   2.827   1.680
   70DPPC   H2Y 9014   3.696   2.986   1.667
   70DPPC   C23 9015   4.315   2.894   1.715
   70DPPC   H3R 9016   4.213   2.850   1.728
   70DPPC   H3S 9017   4.303   2.996   1.672
   70DPPC   C24 9018   4.379   2.907   1.854
   70DPPC   H4R 9019   4.406   2.806   1.892
   70DPPC   H4S 9020   4.301   2.950   1.921
   70DPPC   C25 9021   4.502   2.999   1.857
   70DPPC   H5R 9022   4.473   3.098   1.816
   70DPPC   H5S 9023   4.582   2.957   1.791
   70DPPC   C26 9024   4.561   3.019   1.998
   70DPPC   H6R 9025   4.644   3.093   1.991
   70DPPC   H6S 9026   4.604   2.923   2.035
   70DPPC   C27 9027   4.459   3.070   2.101
   70DPPC   H7R 9028   4.390   2.988   2.128
   70DPPC   H7S 9029   4.399   3.152   2.055
   70DPPC   C28 9030   4.524   3.125   2.229
   70DPPC   H8R 9031   4.583   3.216   2.203
   70DPPC   H8S 9032   4.594   3.049   2.269
   70DPPC   C29 9033   4.421   3.161   2.337
   70DPPC   H9R 9034   4.369   3.067   2.368
   70DPPC   H9S 9035   4.345   3.230   2.295
   70DPPC  C210 9036   4.485   3.226   2.461
   70DPPC  H10R 9037   4.519   3.328   2.434
   70DPPC  H10S 9038   4.574   3.166   2.491
   70DPPC  C211 9039   4.390   3.234   2.581
   70DPPC  H11R 9040   4.362   3.130   2.610
   70DPPC  H11S 9041   4.297   3.287   2.553
   70DPPC  C212 9042   4.453   3.302   2.703
   70DPPC  H12R 9043   4.456   3.412   2.686
   70DPPC  H12S 9044   4.558   3.266   2.714
   70DPPC  C213 9045   4.379   3.271   2.834
   70DPPC  H13R 9046   4.376   3.160   2.847
   70DPPC  H13S 9047   4.274   3.307   2.827
   70DPPC  C214 9048   4.447   3.332   2.957
   70DPPC  H14R 9049   4.433   3.443   2.955
   70DPPC  H14S 9050   4.556   3.311   2.953
   70DPPC  C215 9051   4.393   3.276   3.090
   70DPPC  H15R 9052   4.409   3.166   3.090
   70DPPC  H15S 9053   4.283   3.294   3.095
   70DPPC  C216 9054   4.459   3.337   3.214
   70DPPC  H16R 9055   4.434   3.445   3.222
   70DPPC  H16S 9056   4.424   3.285   3.306
   70DPPC  H16T 9057   4.569   3.326   3.208
   70DPPC   C33 9058   3.865   2.983   1.806
   70DPPC   H3X 9059   3.891   3.091   1.799
   70DPPC   H3Y 9060   3.960   2.926   1.817
   70DPPC   C34 9061   3.780   2.962   1.932
   70DPPC   H4X 9062   3.846   2.970   2.021
   70DPPC   H4Y 9063   3.739   2.859   1.929
   70DPPC   C35 9064   3.666   3.063   1.948
   70DPPC   H5X 9065   3.609   3.071   1.852
   70DPPC   H5Y 9066   3.710   3.163   1.969
   70DPPC   C36 9067   3.565   3.029   2.059
   70DPPC   H6X 9068   3.509   2.937   2.030
   70DPPC   H6Y 9069   3.492   3.112   2.066
   70DPPC   C37 9070   3.628   3.006   2.197
   70DPPC   H7X 9071   3.688   3.096   2.225
   70DPPC   H7Y 9072   3.697   2.919   2.194
   70DPPC   C38 9073   3.522   2.981   2.306
   70DPPC   H8X 9074   3.460   2.893   2.277
   70DPPC   H8Y 9075   3.455   3.070   2.310
   70DPPC   C39 9076   3.581   2.957   2.445
   70DPPC   H9X 9077   3.651   3.040   2.468
   70DPPC   H9Y 9078   3.639   2.862   2.446
   70DPPC  C310 9079   3.474   2.952   2.555
   70DPPC  H10X 9080   3.405   2.867   2.538
   70DPPC  H10Y 9081   3.414   3.046   2.547
   70DPPC  C311 9082   3.531   2.946   2.698
   70DPPC  H11X 9083   3.454   2.985   2.768
   70DPPC  H11Y 9084   3.619   3.014   2.704
   70DPPC  C312 9085   3.571   2.806   2.747
   70DPPC  H12X 9086   3.631   2.819   2.839
   70DPPC  H12Y 9087   3.634   2.755   2.671
   70DPPC  C313 9088   3.449   2.718   2.782
   70DPPC  H13X 9089   3.396   2.689   2.689
   70DPPC  H13Y 9090   3.380   2.778   2.845
   70DPPC  C314 9091   3.487   2.592   2.861
   70DPPC  H14X 9092   3.547   2.621   2.950
   70DPPC  H14Y 9093   3.549   2.526   2.796
   70DPPC  C315 9094   3.365   2.511   2.908
   70DPPC  H15X 9095   3.306   2.480   2.818
   70DPPC  H15Y 9096   3.300   2.578   2.969
   70DPPC  C316 9097   3.400   2.387   2.990
   70DPPC  H16X 9098   3.462   2.317   2.929
   70DPPC  H16Y 9099   3.308   2.334   3.022
   70DPPC  H16Z 9100   3.458   2.415   3.080
   71DPPC     N 9101   6.069   4.323   1.613
   71DPPC   C13 9102   5.954   4.282   1.699
   71DPPC  H13A 9103   5.913   4.367   1.750
   71DPPC  H13B 9104   5.988   4.209   1.771
   71DPPC  H13C 9105   5.877   4.237   1.638
   71DPPC   C14 9106   6.113   4.203   1.537
   71DPPC  H14A 9107   6.032   4.169   1.473
   71DPPC  H14B 9108   6.139   4.124   1.605
   71DPPC  H14C 9109   6.199   4.229   1.477
   71DPPC   C15 9110   6.022   4.428   1.519
   71DPPC  H15A 9111   6.104   4.457   1.454
   71DPPC  H15B 9112   5.989   4.514   1.575
   71DPPC  H15C 9113   5.940   4.390   1.460
   71DPPC   C12 9114   6.181   4.375   1.701
   71DPPC  H12A 9115   6.220   4.291   1.756
   71DPPC  H12B 9116   6.137   4.443   1.773
   71DPPC   C11 9117   6.299   4.449   1.634
   71DPPC  H11A 9118   0.077   4.458   1.710
   71DPPC  H11B 9119   6.267   4.552   1.608
   71DPPC     P 9120   0.186   4.370   1.476
   71DPPC   O13 9121   0.240   4.505   1.446
   71DPPC   O14 9122   0.198   4.270   1.368
   71DPPC   O11 9123   0.257   4.315   1.607
   71DPPC   O12 9124   0.036   4.381   1.515
   71DPPC    C1 9125   0.213   4.195   1.671
   71DPPC    HA 9126   0.225   4.107   1.603
   71DPPC    HB 9127   0.106   4.201   1.699
   71DPPC    C2 9128   0.296   4.164   1.801
   71DPPC    HS 9129   0.248   4.080   1.855
   71DPPC   O21 9130   0.309   4.280   1.886
   71DPPC   C21 9131   0.197   4.308   1.950
   71DPPC   O22 9132   0.091   4.248   1.937
   71DPPC   C22 9133   0.220   4.423   2.048
   71DPPC   H2R 9134   0.122   4.456   2.086
   71DPPC   H2S 9135   0.270   4.507   1.997
   71DPPC    C3 9136   0.440   4.116   1.760
   71DPPC    HX 9137   0.475   4.188   1.682
   71DPPC    HY 9138   0.432   4.017   1.709
   71DPPC   O31 9139   0.539   4.113   1.865
   71DPPC   C31 9140   0.523   4.014   1.953
   71DPPC   O32 9141   0.429   3.936   1.952
   71DPPC   C32 9142   0.641   4.010   2.050
   71DPPC   H2X 9143   0.723   3.953   2.001
   71DPPC   H2Y 9144   0.677   4.112   2.072
   71DPPC   C23 9145   0.306   4.371   2.165
   71DPPC   H3R 9146   0.408   4.348   2.127
   71DPPC   H3S 9147   0.263   4.275   2.202
   71DPPC   C24 9148   0.317   4.465   2.286
   71DPPC   H4R 9149   0.376   4.411   2.363
   71DPPC   H4S 9150   0.216   4.483   2.329
   71DPPC   C25 9151   0.385   4.600   2.260
   71DPPC   H5R 9152   0.313   4.670   2.211
   71DPPC   H5S 9153   0.470   4.585   2.190
   71DPPC   C26 9154   0.440   4.663   2.389
   71DPPC   H6R 9155   0.507   4.588   2.438
   71DPPC   H6S 9156   0.357   4.684   2.459
   71DPPC   C27 9157   0.522   4.791   2.366
   71DPPC   H7R 9158   0.454   4.874   2.337
   71DPPC   H7S 9159   0.592   4.773   2.281
   71DPPC   C28 9160   0.607   4.834   2.488
   71DPPC   H8R 9161   0.668   4.922   2.458
   71DPPC   H8S 9162   0.676   4.751   2.514
   71DPPC   C29 9163   0.524   4.872   2.612
   71DPPC   H9R 9164   0.462   4.787   2.646
   71DPPC   H9S 9165   0.455   4.954   2.582
   71DPPC  C210 9166   0.610   4.922   2.730
   71DPPC  H10R 9167   0.544   4.981   2.798
   71DPPC  H10S 9168   0.688   4.991   2.692
   71DPPC  C211 9169   0.676   4.811   2.812
   71DPPC  H11R 9170   0.739   4.747   2.747
   71DPPC  H11S 9171   0.595   4.747   2.855
   71DPPC  C212 9172   0.761   4.865   2.928
   71DPPC  H12R 9173   0.702   4.942   2.983
   71DPPC  H12S 9174   0.851   4.915   2.886
   71DPPC  C213 9175   0.805   4.757   3.028
   71DPPC  H13R 9176   0.866   4.681   2.976
   71DPPC  H13S 9177   0.714   4.707   3.067
   71DPPC  C214 9178   0.886   4.814   3.146
   71DPPC  H14R 9179   0.831   4.900   3.191
   71DPPC  H14S 9180   0.982   4.853   3.107
   71DPPC  C215 9181   0.916   4.712   3.257
   71DPPC  H15R 9182   0.990   4.758   3.327
   71DPPC  H15S 9183   0.964   4.622   3.212
   71DPPC  C216 9184   0.795   4.668   3.340
   71DPPC  H16R 9185   0.826   4.596   3.419
   71DPPC  H16S 9186   0.719   4.619   3.276
   71DPPC  H16T 9187   0.748   4.756   3.390
   71DPPC   C33 9188   0.602   3.939   2.181
   71DPPC   H3X 9189   0.548   3.845   2.159
   71DPPC   H3Y 9190   0.695   3.910   2.234
   71DPPC   C34 9191   0.517   4.027   2.276
   71DPPC   H4X 9192   0.435   3.965   2.318
   71DPPC   H4Y 9193   0.470   4.109   2.217
   71DPPC   C35 9194   0.596   4.088   2.393
   71DPPC   H5X 9195   0.531   4.165   2.441
   71DPPC   H5Y 9196   0.686   4.139   2.355
   71DPPC   C36 9197   0.635   3.985   2.501
   71DPPC   H6X 9198   0.707   3.912   2.458
   71DPPC   H6Y 9199   0.543   3.930   2.531
   71DPPC   C37 9200   0.697   4.048   2.627
   71DPPC   H7X 9201   0.627   4.125   2.666
   71DPPC   H7Y 9202   0.792   4.099   2.599
   71DPPC   C38 9203   0.724   3.945   2.737
   71DPPC   H8X 9204   0.799   3.871   2.701
   71DPPC   H8Y 9205   0.629   3.890   2.758
   71DPPC   C39 9206   0.773   4.007   2.869
   71DPPC   H9X 9207   0.699   4.083   2.901
   71DPPC   H9Y 9208   0.870   4.058   2.852
   71DPPC  C310 9209   0.788   3.904   2.982
   71DPPC  H10X 9210   0.867   3.830   2.955
   71DPPC  H10Y 9211   0.692   3.849   2.992
   71DPPC  C311 9212   0.821   3.968   3.118
   71DPPC  H11X 9213   0.747   4.050   3.136
   71DPPC  H11Y 9214   0.922   4.015   3.114
   71DPPC  C312 9215   0.813   3.871   3.237
   71DPPC  H12X 9216   0.716   3.817   3.232
   71DPPC  H12Y 9217   0.813   3.931   3.331
   71DPPC  C313 9218   0.928   3.770   3.245
   71DPPC  H13X 9219   1.024   3.826   3.261
   71DPPC  H13Y 9220   0.936   3.714   3.149
   71DPPC  C314 9221   0.909   3.669   3.359
   71DPPC  H14X 9222   0.819   3.608   3.336
   71DPPC  H14Y 9223   0.889   3.725   3.454
   71DPPC  C315 9224   1.028   3.575   3.382
   71DPPC  H15X 9225   1.116   3.636   3.412
   71DPPC  H15Y 9226   1.053   3.524   3.286
   71DPPC  C316 9227   1.001   3.469   3.489
   71DPPC  H16X 9228   0.976   3.517   3.586
   71DPPC  H16Y 9229   1.091   3.405   3.504
   71DPPC  H16Z 9230   0.917   3.404   3.459
   72DPPC     N 9231   2.581   0.865   1.126
   72DPPC   C13 9232   2.620   1.007   1.105
   72DPPC  H13A 9233   2.627   1.057   1.200
   72DPPC  H13B 9234   2.547   1.057   1.042
   72DPPC  H13C 9235   2.716   1.011   1.056
   72DPPC   C14 9236   2.449   0.861   1.194
   72DPPC  H14A 9237   2.415   0.759   1.201
   72DPPC  H14B 9238   2.377   0.918   1.138
   72DPPC  H14C 9239   2.460   0.902   1.294
   72DPPC   C15 9240   2.570   0.796   0.994
   72DPPC  H15A 9241   2.537   0.693   1.010
   72DPPC  H15B 9242   2.667   0.794   0.946
   72DPPC  H15C 9243   2.499   0.847   0.931
   72DPPC   C12 9244   2.684   0.796   1.212
   72DPPC  H12A 9245   2.667   0.689   1.204
   72DPPC  H12B 9246   2.665   0.824   1.315
   72DPPC   C11 9247   2.833   0.825   1.183
   72DPPC  H11A 9248   2.894   0.754   1.242
   72DPPC  H11B 9249   2.854   0.929   1.219
   72DPPC     P 9250   2.993   0.869   0.991
   72DPPC   O13 9251   2.993   1.015   1.015
   72DPPC   O14 9252   3.012   0.824   0.851
   72DPPC   O11 9253   3.099   0.799   1.085
   72DPPC   O12 9254   2.858   0.809   1.044
   72DPPC    C1 9255   3.219   0.868   1.126
   72DPPC    HA 9256   3.257   0.936   1.046
   72DPPC    HB 9257   3.298   0.792   1.143
   72DPPC    C2 9258   3.202   0.949   1.258
   72DPPC    HS 9259   3.130   1.031   1.234
   72DPPC   O21 9260   3.156   0.859   1.362
   72DPPC   C21 9261   3.071   0.919   1.444
   72DPPC   O22 9262   3.016   1.026   1.423
   72DPPC   C22 9263   3.052   0.837   1.571
   72DPPC   H2R 9264   3.137   0.767   1.586
   72DPPC   H2S 9265   2.958   0.778   1.563
   72DPPC    C3 9266   3.337   1.015   1.299
   72DPPC    HX 9267   3.362   1.088   1.219
   72DPPC    HY 9268   3.417   0.937   1.295
   72DPPC   O31 9269   3.332   1.087   1.425
   72DPPC   C31 9270   3.395   1.028   1.527
   72DPPC   O32 9271   3.437   0.913   1.526
   72DPPC   C32 9272   3.408   1.123   1.646
   72DPPC   H2X 9273   3.330   1.100   1.721
   72DPPC   H2Y 9274   3.395   1.228   1.612
   72DPPC   C23 9275   3.043   0.934   1.691
   72DPPC   H3R 9276   2.960   1.007   1.674
   72DPPC   H3S 9277   3.138   0.991   1.699
   72DPPC   C24 9278   3.016   0.865   1.826
   72DPPC   H4R 9279   3.094   0.789   1.845
   72DPPC   H4S 9280   2.917   0.814   1.820
   72DPPC   C25 9281   3.012   0.966   1.942
   72DPPC   H5R 9282   2.944   1.049   1.912
   72DPPC   H5S 9283   3.113   1.009   1.957
   72DPPC   C26 9284   2.960   0.908   2.075
   72DPPC   H6R 9285   2.860   0.862   2.058
   72DPPC   H6S 9286   2.946   0.993   2.146
   72DPPC   C27 9287   3.054   0.806   2.140
   72DPPC   H7R 9288   3.154   0.854   2.152
   72DPPC   H7S 9289   3.066   0.718   2.074
   72DPPC   C28 9290   3.006   0.760   2.279
   72DPPC   H8R 9291   2.981   0.850   2.339
   72DPPC   H8S 9292   2.914   0.698   2.268
   72DPPC   C29 9293   3.114   0.680   2.354
   72DPPC   H9R 9294   3.206   0.743   2.356
   72DPPC   H9S 9295   3.138   0.587   2.298
   72DPPC  C210 9296   3.077   0.645   2.499
   72DPPC  H10R 9297   2.999   0.566   2.500
   72DPPC  H10S 9298   3.033   0.736   2.547
   72DPPC  C211 9299   3.200   0.602   2.579
   72DPPC  H11R 9300   3.279   0.678   2.564
   72DPPC  H11S 9301   3.238   0.505   2.540
   72DPPC  C212 9302   3.176   0.590   2.730
   72DPPC  H12R 9303   3.101   0.510   2.751
   72DPPC  H12S 9304   3.135   0.687   2.768
   72DPPC  C213 9305   3.307   0.559   2.806
   72DPPC  H13R 9306   3.383   0.635   2.775
   72DPPC  H13S 9307   3.344   0.459   2.774
   72DPPC  C214 9308   3.292   0.563   2.958
   72DPPC  H14R 9309   3.212   0.491   2.988
   72DPPC  H14S 9310   3.260   0.664   2.989
   72DPPC  C215 9311   3.421   0.526   3.034
   72DPPC  H15R 9312   3.448   0.421   3.009
   72DPPC  H15S 9313   3.400   0.531   3.142
   72DPPC  C216 9314   3.542   0.616   3.004
   72DPPC  H16R 9315   3.572   0.608   2.897
   72DPPC  H16S 9316   3.629   0.585   3.066
   72DPPC  H16T 9317   3.518   0.722   3.026
   72DPPC   C33 9318   3.547   1.104   1.707
   72DPPC   H3X 9319   3.624   1.109   1.626
   72DPPC   H3Y 9320   3.554   1.004   1.755
   72DPPC   C34 9321   3.585   1.211   1.811
   72DPPC   H4X 9322   3.514   1.205   1.897
   72DPPC   H4Y 9323   3.575   1.311   1.764
   72DPPC   C35 9324   3.730   1.195   1.862
   72DPPC   H5X 9325   3.796   1.187   1.773
   72DPPC   H5Y 9326   3.739   1.101   1.920
   72DPPC   C36 9327   3.779   1.313   1.946
   72DPPC   H6X 9328   3.764   1.407   1.888
   72DPPC   H6Y 9329   3.888   1.302   1.965
   72DPPC   C37 9330   3.708   1.327   2.082
   72DPPC   H7X 9331   3.737   1.243   2.148
   72DPPC   H7Y 9332   3.598   1.322   2.066
   72DPPC   C38 9333   3.740   1.461   2.151
   72DPPC   H8X 9334   3.715   1.543   2.081
   72DPPC   H8Y 9335   3.848   1.467   2.173
   72DPPC   C39 9336   3.660   1.483   2.281
   72DPPC   H9X 9337   3.693   1.408   2.356
   72DPPC   H9Y 9338   3.552   1.465   2.260
   72DPPC  C310 9339   3.675   1.625   2.336
   72DPPC  H10X 9340   3.648   1.697   2.255
   72DPPC  H10Y 9341   3.782   1.643   2.363
   72DPPC  C311 9342   3.586   1.654   2.458
   72DPPC  H11X 9343   3.479   1.643   2.430
   72DPPC  H11Y 9344   3.602   1.760   2.488
   72DPPC  C312 9345   3.617   1.565   2.579
   72DPPC  H12X 9346   3.727   1.568   2.597
   72DPPC  H12Y 9347   3.588   1.460   2.557
   72DPPC  C313 9348   3.548   1.611   2.708
   72DPPC  H13X 9349   3.437   1.609   2.694
   72DPPC  H13Y 9350   3.577   1.716   2.729
   72DPPC  C314 9351   3.585   1.525   2.829
   72DPPC  H14X 9352   3.696   1.519   2.836
   72DPPC  H14Y 9353   3.546   1.421   2.814
   72DPPC  C315 9354   3.532   1.580   2.962
   72DPPC  H15X 9355   3.421   1.585   2.957
   72DPPC  H15Y 9356   3.570   1.684   2.974
   72DPPC  C316 9357   3.573   1.499   3.084
   72DPPC  H16X 9358   3.684   1.493   3.091
   72DPPC  H16Y 9359   3.533   1.396   3.078
   72DPPC  H16Z 9360   3.535   1.547   3.177
   73DPPC     N 9361   0.665   0.019   1.426
   73DPPC   C13 9362   0.554   0.031   1.328
   73DPPC  H13A 9363   0.470   0.081   1.373
   73DPPC  H13B 9364   0.524   6.350   1.295
   73DPPC  H13C 9365   0.588   0.086   1.242
   73DPPC   C14 9366   0.700   0.155   1.474
   73DPPC  H14A 9367   0.781   0.148   1.546
   73DPPC  H14B 9368   0.613   0.199   1.521
   73DPPC  H14C 9369   0.731   0.216   1.390
   73DPPC   C15 9370   0.621   6.357   1.543
   73DPPC  H15A 9371   0.702   6.351   1.615
   73DPPC  H15B 9372   0.597   6.257   1.510
   73DPPC  H15C 9373   0.536   6.403   1.590
   73DPPC   C12 9374   0.787   6.377   1.361
   73DPPC  H12A 9375   0.866   6.373   1.435
   73DPPC  H12B 9376   0.819   0.027   1.283
   73DPPC   C11 9377   0.776   6.237   1.297
   73DPPC  H11A 9378   0.874   6.221   1.247
   73DPPC  H11B 9379   0.697   6.239   1.218
   73DPPC     P 9380   0.785   5.992   1.350
   73DPPC   O13 9381   0.932   5.977   1.368
   73DPPC   O14 9382   0.732   5.968   1.215
   73DPPC   O11 9383   0.710   5.897   1.450
   73DPPC   O12 9384   0.745   6.138   1.395
   73DPPC    C1 9385   0.703   5.922   1.590
   73DPPC    HA 9386   0.609   5.875   1.627
   73DPPC    HB 9387   0.695   6.031   1.614
   73DPPC    C2 9388   0.821   5.861   1.671
   73DPPC    HS 9389   0.908   5.929   1.652
   73DPPC   O21 9390   0.848   5.729   1.619
   73DPPC   C21 9391   0.968   5.686   1.653
   73DPPC   O22 9392   1.054   5.754   1.707
   73DPPC   C22 9393   0.981   5.539   1.618
   73DPPC   H2R 9394   1.088   5.511   1.609
   73DPPC   H2S 9395   0.931   5.520   1.521
   73DPPC    C3 9396   0.792   5.858   1.825
   73DPPC    HX 9397   0.762   5.960   1.857
   73DPPC    HY 9398   0.889   5.837   1.876
   73DPPC   O31 9399   0.697   5.755   1.863
   73DPPC   C31 9400   0.572   5.795   1.886
   73DPPC   O32 9401   0.532   5.910   1.875
   73DPPC   C32 9402   0.485   5.675   1.923
   73DPPC   H2X 9403   0.543   5.601   1.981
   73DPPC   H2Y 9404   0.452   5.627   1.828
   73DPPC   C23 9405   0.913   5.455   1.728
   73DPPC   H3R 9406   0.899   5.352   1.689
   73DPPC   H3S 9407   0.813   5.496   1.752
   73DPPC   C24 9408   0.998   5.444   1.857
   73DPPC   H4R 9409   1.021   5.546   1.895
   73DPPC   H4S 9410   1.094   5.395   1.830
   73DPPC   C25 9411   0.931   5.364   1.970
   73DPPC   H5R 9412   1.010   5.343   2.046
   73DPPC   H5S 9413   0.896   5.266   1.930
   73DPPC   C26 9414   0.814   5.436   2.038
   73DPPC   H6R 9415   0.732   5.448   1.964
   73DPPC   H6S 9416   0.847   5.538   2.068
   73DPPC   C27 9417   0.759   5.365   2.162
   73DPPC   H7R 9418   0.728   5.262   2.135
   73DPPC   H7S 9419   0.668   5.420   2.195
   73DPPC   C28 9420   0.858   5.359   2.280
   73DPPC   H8R 9421   0.888   5.463   2.307
   73DPPC   H8S 9422   0.949   5.304   2.248
   73DPPC   C29 9423   0.804   5.289   2.407
   73DPPC   H9R 9424   0.886   5.287   2.482
   73DPPC   H9S 9425   0.778   5.184   2.382
   73DPPC  C210 9426   0.680   5.357   2.468
   73DPPC  H10R 9427   0.597   5.349   2.396
   73DPPC  H10S 9428   0.701   5.465   2.485
   73DPPC  C211 9429   0.634   5.292   2.600
   73DPPC  H11R 9430   0.630   5.182   2.585
   73DPPC  H11S 9431   0.531   5.326   2.622
   73DPPC  C212 9432   0.722   5.323   2.723
   73DPPC  H12R 9433   0.829   5.309   2.698
   73DPPC  H12S 9434   0.695   5.250   2.803
   73DPPC  C213 9435   0.700   5.465   2.780
   73DPPC  H13R 9436   0.593   5.476   2.807
   73DPPC  H13S 9437   0.723   5.540   2.702
   73DPPC  C214 9438   0.786   5.493   2.904
   73DPPC  H14R 9439   0.893   5.492   2.875
   73DPPC  H14S 9440   0.769   5.412   2.979
   73DPPC  C215 9441   0.754   5.628   2.971
   73DPPC  H15R 9442   0.647   5.629   3.001
   73DPPC  H15S 9443   0.769   5.709   2.896
   73DPPC  C216 9444   0.840   5.658   3.094
   73DPPC  H16R 9445   0.826   5.579   3.171
   73DPPC  H16S 9446   0.812   5.756   3.138
   73DPPC  H16T 9447   0.947   5.661   3.066
   73DPPC   C33 9448   0.360   5.720   2.001
   73DPPC   H3X 9449   0.283   5.640   1.992
   73DPPC   H3Y 9450   0.317   5.812   1.957
   73DPPC   C34 9451   0.385   5.742   2.152
   73DPPC   H4X 9452   0.305   5.808   2.192
   73DPPC   H4Y 9453   0.482   5.795   2.166
   73DPPC   C35 9454   0.384   5.611   2.232
   73DPPC   H5X 9455   0.452   5.539   2.181
   73DPPC   H5Y 9456   0.281   5.568   2.229
   73DPPC   C36 9457   0.430   5.622   2.378
   73DPPC   H6X 9458   0.530   5.669   2.381
   73DPPC   H6Y 9459   0.439   5.519   2.419
   73DPPC   C37 9460   0.335   5.701   2.470
   73DPPC   H7X 9461   0.235   5.654   2.467
   73DPPC   H7Y 9462   0.326   5.806   2.434
   73DPPC   C38 9463   0.386   5.701   2.615
   73DPPC   H8X 9464   0.397   5.595   2.649
   73DPPC   H8Y 9465   0.487   5.748   2.618
   73DPPC   C39 9466   0.295   5.775   2.714
   73DPPC   H9X 9467   0.193   5.730   2.710
   73DPPC   H9Y 9468   0.287   5.881   2.682
   73DPPC  C310 9469   0.347   5.767   2.858
   73DPPC  H10X 9470   0.450   5.808   2.862
   73DPPC  H10Y 9471   0.353   5.660   2.887
   73DPPC  C311 9472   0.259   5.839   2.962
   73DPPC  H11X 9473   0.301   5.820   3.063
   73DPPC  H11Y 9474   0.157   5.794   2.958
   73DPPC  C312 9475   0.246   5.992   2.942
   73DPPC  H12X 9476   0.178   6.031   3.020
   73DPPC  H12Y 9477   0.200   6.013   2.844
   73DPPC  C313 9478   0.379   6.068   2.953
   73DPPC  H13X 9479   0.447   6.036   2.871
   73DPPC  H13Y 9480   0.428   6.043   3.050
   73DPPC  C314 9481   0.361   6.221   2.944
   73DPPC  H14X 9482   0.292   6.253   3.024
   73DPPC  H14Y 9483   0.314   6.245   2.846
   73DPPC  C315 9484   0.493   6.299   2.957
   73DPPC  H15X 9485   0.562   6.265   2.877
   73DPPC  H15Y 9486   0.539   6.275   3.055
   73DPPC  C316 9487   0.476   0.033   2.947
   73DPPC  H16X 9488   0.409   0.070   3.027
   73DPPC  H16Y 9489   0.432   0.060   2.848
   73DPPC  H16Z 9490   0.575   0.083   2.956
   74DPPC     N 9491   2.135   3.070   1.943
   74DPPC   C13 9492   2.062   3.190   1.994
   74DPPC  H13A 9493   1.998   3.164   2.077
   74DPPC  H13B 9494   2.002   3.231   1.914
   74DPPC  H13C 9495   2.134   3.265   2.023
   74DPPC   C14 9496   2.224   3.017   2.049
   74DPPC  H14A 9497   2.297   3.093   2.076
   74DPPC  H14B 9498   2.276   2.929   2.012
   74DPPC  H14C 9499   2.165   2.990   2.136
   74DPPC   C15 9500   2.033   2.966   1.910
   74DPPC  H15A 9501   2.082   2.877   1.874
   74DPPC  H15B 9502   1.970   3.004   1.831
   74DPPC  H15C 9503   1.973   2.943   1.997
   74DPPC   C12 9504   2.213   3.102   1.818
   74DPPC  H12A 9505   2.144   3.149   1.748
   74DPPC  H12B 9506   2.244   3.008   1.774
   74DPPC   C11 9507   2.338   3.192   1.829
   74DPPC  H11A 9508   2.384   3.204   1.728
   74DPPC  H11B 9509   2.414   3.139   1.891
   74DPPC     P 9510   2.248   3.428   1.799
   74DPPC   O13 9511   2.116   3.384   1.750
   74DPPC   O14 9512   2.348   3.466   1.696
   74DPPC   O11 9513   2.232   3.547   1.901
   74DPPC   O12 9514   2.310   3.316   1.892
   74DPPC    C1 9515   2.339   3.640   1.927
   74DPPC    HA 9516   2.297   3.724   1.986
   74DPPC    HB 9517   2.378   3.684   1.832
   74DPPC    C2 9518   2.459   3.583   2.009
   74DPPC    HS 9519   2.511   3.510   1.941
   74DPPC   O21 9520   2.407   3.517   2.126
   74DPPC   C21 9521   2.495   3.434   2.178
   74DPPC   O22 9522   2.602   3.405   2.127
   74DPPC   C22 9523   2.444   3.379   2.311
   74DPPC   H2R 9524   2.338   3.407   2.326
   74DPPC   H2S 9525   2.504   3.426   2.392
   74DPPC    C3 9526   2.561   3.696   2.047
   74DPPC    HX 9527   2.604   3.733   1.952
   74DPPC    HY 9528   2.646   3.654   2.104
   74DPPC   O31 9529   2.498   3.807   2.114
   74DPPC   C31 9530   2.489   3.796   2.246
   74DPPC   O32 9531   2.542   3.709   2.313
   74DPPC   C32 9532   2.403   3.910   2.301
   74DPPC   H2X 9533   2.338   3.950   2.221
   74DPPC   H2Y 9534   2.470   3.991   2.337
   74DPPC   C23 9535   2.461   3.227   2.314
   74DPPC   H3R 9536   2.566   3.199   2.285
   74DPPC   H3S 9537   2.393   3.181   2.240
   74DPPC   C24 9538   2.434   3.163   2.452
   74DPPC   H4R 9539   2.514   3.195   2.523
   74DPPC   H4S 9540   2.441   3.053   2.442
   74DPPC   C25 9541   2.298   3.200   2.513
   74DPPC   H5R 9542   2.218   3.180   2.438
   74DPPC   H5S 9543   2.297   3.308   2.537
   74DPPC   C26 9544   2.267   3.120   2.640
   74DPPC   H6R 9545   2.355   3.127   2.709
   74DPPC   H6S 9546   2.253   3.013   2.614
   74DPPC   C27 9547   2.144   3.172   2.715
   74DPPC   H7R 9548   2.057   3.172   2.646
   74DPPC   H7S 9549   2.163   3.277   2.746
   74DPPC   C28 9550   2.110   3.089   2.840
   74DPPC   H8R 9551   2.200   3.084   2.905
   74DPPC   H8S 9552   2.085   2.986   2.807
   74DPPC   C29 9553   1.994   3.146   2.922
   74DPPC   H9R 9554   1.905   3.158   2.857
   74DPPC   H9S 9555   2.022   3.246   2.961
   74DPPC  C210 9556   1.956   3.055   3.040
   74DPPC  H10R 9557   2.046   3.040   3.104
   74DPPC  H10S 9558   1.925   2.955   3.001
   74DPPC  C211 9559   1.842   3.111   3.127
   74DPPC  H11R 9560   1.750   3.120   3.065
   74DPPC  H11S 9561   1.871   3.213   3.160
   74DPPC  C212 9562   1.813   3.025   3.250
   74DPPC  H12R 9563   1.907   3.015   3.309
   74DPPC  H12S 9564   1.781   2.924   3.218
   74DPPC  C213 9565   1.705   3.086   3.341
   74DPPC  H13R 9566   1.608   3.087   3.287
   74DPPC  H13S 9567   1.733   3.191   3.363
   74DPPC  C214 9568   1.689   3.011   3.474
   74DPPC  H14R 9569   1.788   3.009   3.526
   74DPPC  H14S 9570   1.659   2.906   3.454
   74DPPC  C215 9571   1.586   3.076   3.568
   74DPPC  H15R 9572   1.486   3.073   3.518
   74DPPC  H15S 9573   1.613   3.183   3.582
   74DPPC  C216 9574   1.575   3.010   3.705
   74DPPC  H16R 9575   1.499   3.061   3.767
   74DPPC  H16S 9576   1.673   3.014   3.758
   74DPPC  H16T 9577   1.546   2.903   3.694
   74DPPC   C33 9578   2.315   3.858   2.417
   74DPPC   H3X 9579   2.381   3.830   2.502
   74DPPC   H3Y 9580   2.260   3.767   2.384
   74DPPC   C34 9581   2.212   3.961   2.467
   74DPPC   H4X 9582   2.163   3.920   2.558
   74DPPC   H4Y 9583   2.133   3.974   2.389
   74DPPC   C35 9584   2.272   4.099   2.499
   74DPPC   H5X 9585   2.301   4.147   2.403
   74DPPC   H5Y 9586   2.364   4.085   2.559
   74DPPC   C36 9587   2.177   4.193   2.574
   74DPPC   H6X 9588   2.075   4.186   2.532
   74DPPC   H6Y 9589   2.214   4.297   2.557
   74DPPC   C37 9590   2.175   4.168   2.726
   74DPPC   H7X 9591   2.279   4.180   2.765
   74DPPC   H7Y 9592   2.143   4.063   2.745
   74DPPC   C38 9593   2.082   4.262   2.805
   74DPPC   H8X 9594   2.096   4.240   2.914
   74DPPC   H8Y 9595   1.977   4.239   2.779
   74DPPC   C39 9596   2.108   4.412   2.780
   74DPPC   H9X 9597   2.076   4.435   2.676
   74DPPC   H9Y 9598   2.216   4.434   2.789
   74DPPC  C310 9599   2.029   4.504   2.875
   74DPPC  H10X 9600   1.926   4.463   2.886
   74DPPC  H10Y 9601   2.019   4.605   2.829
   74DPPC  C311 9602   2.092   4.521   3.014
   74DPPC  H11X 9603   2.124   4.422   3.053
   74DPPC  H11Y 9604   2.013   4.559   3.082
   74DPPC  C312 9605   2.210   4.619   3.017
   74DPPC  H12X 9606   2.175   4.719   2.981
   74DPPC  H12Y 9607   2.289   4.583   2.947
   74DPPC  C313 9608   2.275   4.637   3.156
   74DPPC  H13X 9609   2.362   4.706   3.145
   74DPPC  H13Y 9610   2.314   4.539   3.191
   74DPPC  C314 9611   2.181   4.694   3.264
   74DPPC  H14X 9612   2.096   4.624   3.279
   74DPPC  H14Y 9613   2.140   4.791   3.229
   74DPPC  C315 9614   2.251   4.713   3.399
   74DPPC  H15X 9615   2.337   4.782   3.385
   74DPPC  H15Y 9616   2.292   4.615   3.432
   74DPPC  C316 9617   2.160   4.768   3.509
   74DPPC  H16X 9618   2.124   4.869   3.483
   74DPPC  H16Y 9619   2.216   4.774   3.605
   74DPPC  H16Z 9620   2.072   4.702   3.523
   75DPPC     N 9621   0.345   4.980   1.162
   75DPPC   C13 9622   0.353   4.940   1.305
   75DPPC  H13A 9623   0.386   4.837   1.311
   75DPPC  H13B 9624   0.255   4.948   1.351
   75DPPC  H13C 9625   0.422   5.003   1.359
   75DPPC   C14 9626   0.476   4.950   1.098
   75DPPC  H14A 9627   0.553   5.014   1.138
   75DPPC  H14B 9628   0.469   4.965   0.991
   75DPPC  H14C 9629   0.502   4.847   1.118
   75DPPC   C15 9630   0.240   4.898   1.096
   75DPPC  H15A 9631   0.238   4.920   0.990
   75DPPC  H15B 9632   0.144   4.924   1.138
   75DPPC  H15C 9633   0.261   4.793   1.112
   75DPPC   C12 9634   0.317   5.128   1.147
   75DPPC  H12A 9635   0.301   5.148   1.042
   75DPPC  H12B 9636   0.406   5.182   1.178
   75DPPC   C11 9637   0.197   5.186   1.226
   75DPPC  H11A 9638   0.191   5.294   1.198
   75DPPC  H11B 9639   0.221   5.179   1.335
   75DPPC     P 9640   6.250   5.171   1.261
   75DPPC   O13 9641   6.145   5.068   1.246
   75DPPC   O14 9642   6.217   5.306   1.210
   75DPPC   O11 9643   6.293   5.183   1.413
   75DPPC   O12 9644   0.078   5.118   1.193
   75DPPC    C1 9645   0.004   5.068   1.497
   75DPPC    HA 9646   0.101   5.075   1.551
   75DPPC    HB 9647   0.006   4.972   1.440
   75DPPC    C2 9648   6.194   5.058   1.604
   75DPPC    HS 9649   6.098   5.049   1.548
   75DPPC   O21 9650   6.197   5.179   1.681
   75DPPC   C21 9651   6.093   5.195   1.759
   75DPPC   O22 9652   5.997   5.120   1.767
   75DPPC   C22 9653   6.111   5.324   1.839
   75DPPC   H2R 9654   6.049   5.403   1.792
   75DPPC   H2S 9655   6.217   5.357   1.837
   75DPPC    C3 9656   6.212   4.929   1.692
   75DPPC    HX 9657   6.215   4.843   1.622
   75DPPC    HY 9658   6.123   4.918   1.757
   75DPPC   O31 9659   0.029   4.932   1.772
   75DPPC   C31 9660   0.040   4.822   1.847
   75DPPC   O32 9661   6.262   4.731   1.849
   75DPPC   C32 9662   0.167   4.829   1.931
   75DPPC   H2X 9663   0.241   4.893   1.879
   75DPPC   H2Y 9664   0.209   4.727   1.942
   75DPPC   C23 9665   6.064   5.306   1.985
   75DPPC   H3R 9666   5.960   5.267   1.989
   75DPPC   H3S 9667   6.063   5.408   2.031
   75DPPC   C24 9668   6.158   5.218   2.068
   75DPPC   H4R 9669   6.262   5.246   2.043
   75DPPC   H4S 9670   6.143   5.111   2.041
   75DPPC   C25 9671   6.140   5.237   2.220
   75DPPC   H5R 9672   6.159   5.343   2.245
   75DPPC   H5S 9673   6.216   5.175   2.273
   75DPPC   C26 9674   6.000   5.198   2.271
   75DPPC   H6R 9675   5.983   5.090   2.252
   75DPPC   H6S 9676   5.923   5.255   2.214
   75DPPC   C27 9677   5.980   5.228   2.420
   75DPPC   H7R 9678   5.995   5.337   2.436
   75DPPC   H7S 9679   6.057   5.174   2.479
   75DPPC   C28 9680   5.840   5.190   2.470
   75DPPC   H8R 9681   5.830   5.079   2.464
   75DPPC   H8S 9682   5.764   5.236   2.404
   75DPPC   C29 9683   5.816   5.236   2.614
   75DPPC   H9R 9684   5.824   5.347   2.617
   75DPPC   H9S 9685   5.895   5.195   2.680
   75DPPC  C210 9686   5.678   5.198   2.671
   75DPPC  H10R 9687   5.670   5.246   2.771
   75DPPC  H10S 9688   5.599   5.242   2.606
   75DPPC  C211 9689   5.656   5.047   2.684
   75DPPC  H11R 9690   5.742   5.002   2.739
   75DPPC  H11S 9691   5.652   5.002   2.583
   75DPPC  C212 9692   5.526   5.010   2.758
   75DPPC  H12R 9693   5.512   4.900   2.751
   75DPPC  H12S 9694   5.440   5.058   2.707
   75DPPC  C213 9695   5.526   5.049   2.907
   75DPPC  H13R 9696   5.536   5.160   2.916
   75DPPC  H13S 9697   5.614   5.002   2.956
   75DPPC  C214 9698   5.399   5.006   2.981
   75DPPC  H14R 9699   5.387   4.896   2.972
   75DPPC  H14S 9700   5.311   5.054   2.933
   75DPPC  C215 9701   5.401   5.044   3.130
   75DPPC  H15R 9702   5.410   5.154   3.138
   75DPPC  H15S 9703   5.491   4.998   3.177
   75DPPC  C216 9704   5.277   4.998   3.206
   75DPPC  H16R 9705   5.185   5.045   3.164
   75DPPC  H16S 9706   5.285   5.026   3.313
   75DPPC  H16T 9707   5.266   4.888   3.199
   75DPPC   C33 9708   0.137   4.889   2.069
   75DPPC   H3X 9709   0.094   4.991   2.058
   75DPPC   H3Y 9710   0.234   4.899   2.123
   75DPPC   C34 9711   0.043   4.803   2.156
   75DPPC   H4X 9712   0.082   4.699   2.159
   75DPPC   H4Y 9713   6.245   4.802   2.111
   75DPPC   C35 9714   0.032   4.855   2.301
   75DPPC   H5X 9715   6.302   4.962   2.298
   75DPPC   H5Y 9716   0.132   4.851   2.348
   75DPPC   C36 9717   6.235   4.774   2.384
   75DPPC   H6X 9718   6.267   4.668   2.387
   75DPPC   H6Y 9719   6.135   4.779   2.335
   75DPPC   C37 9720   6.219   4.825   2.529
   75DPPC   H7X 9721   6.140   4.764   2.578
   75DPPC   H7Y 9722   6.184   4.930   2.528
   75DPPC   C38 9723   0.044   4.814   2.613
   75DPPC   H8X 9724   0.121   4.883   2.573
   75DPPC   H8Y 9725   0.083   4.710   2.604
   75DPPC   C39 9726   0.021   4.844   2.761
   75DPPC   H9X 9727   6.245   4.776   2.800
   75DPPC   H9Y 9728   6.287   4.949   2.773
   75DPPC  C310 9729   0.148   4.826   2.846
   75DPPC  H10X 9730   0.222   4.904   2.817
   75DPPC  H10Y 9731   0.192   4.726   2.823
   75DPPC  C311 9732   0.120   4.833   2.997
   75DPPC  H11X 9733   0.047   4.754   3.022
   75DPPC  H11Y 9734   0.074   4.931   3.021
   75DPPC  C312 9735   0.245   4.814   3.084
   75DPPC  H12X 9736   0.297   4.720   3.055
   75DPPC  H12Y 9737   0.211   4.802   3.189
   75DPPC  C313 9738   0.344   4.931   3.077
   75DPPC  H13X 9739   0.290   5.025   3.104
   75DPPC  H13Y 9740   0.380   4.943   2.973
   75DPPC  C314 9741   0.467   4.916   3.168
   75DPPC  H14X 9742   0.530   5.008   3.158
   75DPPC  H14Y 9743   0.528   4.830   3.132
   75DPPC  C315 9744   0.437   4.895   3.318
   75DPPC  H15X 9745   0.534   4.893   3.373
   75DPPC  H15Y 9746   0.390   4.795   3.331
   75DPPC  C316 9747   0.346   5.000   3.382
   75DPPC  H16X 9748   0.392   5.101   3.374
   75DPPC  H16Y 9749   0.247   5.003   3.332
   75DPPC  H16Z 9750   0.330   4.976   3.489
   76DPPC     N 9751   0.038   5.644   1.146
   76DPPC   C13 9752   0.118   5.762   1.102
   76DPPC  H13A 9753   0.076   5.852   1.144
   76DPPC  H13B 9754   0.116   5.768   0.994
   76DPPC  H13C 9755   0.220   5.750   1.135
   76DPPC   C14 9756   0.098   5.521   1.088
   76DPPC  H14A 9757   0.041   5.435   1.121
   76DPPC  H14B 9758   0.201   5.511   1.120
   76DPPC  H14C 9759   0.095   5.527   0.980
   76DPPC   C15 9760   0.045   5.634   1.294
   76DPPC  H15A 9761   6.302   5.722   1.337
   76DPPC  H15B 9762   0.148   5.628   1.326
   76DPPC  H15C 9763   6.296   5.545   1.326
   76DPPC   C12 9764   6.198   5.655   1.100
   76DPPC  H12A 9765   6.144   5.573   1.145
   76DPPC  H12B 9766   6.197   5.639   0.992
   76DPPC   C11 9767   6.121   5.786   1.128
   76DPPC  H11A 9768   6.016   5.764   1.098
   76DPPC  H11B 9769   6.163   5.866   1.063
   76DPPC     P 9770   6.045   5.948   1.305
   76DPPC   O13 9771   5.928   5.963   1.216
   76DPPC   O14 9772   6.136   6.065   1.314
   76DPPC   O11 9773   5.997   5.911   1.451
   76DPPC   O12 9774   6.129   5.822   1.265
   76DPPC    C1 9775   6.089   5.856   1.547
   76DPPC    HA 9776   6.074   5.908   1.644
   76DPPC    HB 9777   6.196   5.873   1.519
   76DPPC    C2 9778   6.068   5.704   1.571
   76DPPC    HS 9779   6.067   5.657   1.470
   76DPPC   O21 9780   5.941   5.689   1.636
   76DPPC   C21 9781   5.895   5.567   1.632
   76DPPC   O22 9782   5.946   5.474   1.570
   76DPPC   C22 9783   5.769   5.558   1.718
   76DPPC   H2R 9784   5.718   5.462   1.699
   76DPPC   H2S 9785   5.701   5.641   1.690
   76DPPC    C3 9786   6.184   5.637   1.654
   76DPPC    HX 9787   6.282   5.673   1.617
   76DPPC    HY 9788   6.182   5.528   1.630
   76DPPC   O31 9789   6.167   5.651   1.797
   76DPPC   C31 9790   6.222   5.759   1.851
   76DPPC   O32 9791   6.285   5.843   1.788
   76DPPC   C32 9792   6.188   5.766   1.999
   76DPPC   H2X 9793   6.139   5.671   2.031
   76DPPC   H2Y 9794   6.117   5.850   2.016
   76DPPC   C23 9795   5.806   5.570   1.868
   76DPPC   H3R 9796   5.882   5.650   1.882
   76DPPC   H3S 9797   5.850   5.474   1.902
   76DPPC   C24 9798   5.685   5.604   1.956
   76DPPC   H4R 9799   5.602   5.534   1.934
   76DPPC   H4S 9800   5.650   5.706   1.930
   76DPPC   C25 9801   5.712   5.599   2.108
   76DPPC   H5R 9802   5.737   5.495   2.137
   76DPPC   H5S 9803   5.618   5.627   2.159
   76DPPC   C26 9804   5.825   5.692   2.156
   76DPPC   H6R 9805   5.808   5.794   2.116
   76DPPC   H6S 9806   5.922   5.655   2.113
   76DPPC   C27 9807   5.840   5.700   2.309
   76DPPC   H7R 9808   5.933   5.756   2.332
   76DPPC   H7S 9809   5.851   5.597   2.350
   76DPPC   C28 9810   5.723   5.771   2.378
   76DPPC   H8R 9811   5.629   5.714   2.362
   76DPPC   H8S 9812   5.710   5.871   2.330
   76DPPC   C29 9813   5.741   5.793   2.529
   76DPPC   H9R 9814   5.653   5.850   2.566
   76DPPC   H9S 9815   5.831   5.855   2.548
   76DPPC  C210 9816   5.751   5.663   2.610
   76DPPC  H10R 9817   5.850   5.615   2.591
   76DPPC  H10S 9818   5.672   5.593   2.576
   76DPPC  C211 9819   5.734   5.684   2.762
   76DPPC  H11R 9820   5.635   5.733   2.779
   76DPPC  H11S 9821   5.813   5.753   2.799
   76DPPC  C212 9822   5.739   5.553   2.841
   76DPPC  H12R 9823   5.840   5.509   2.831
   76DPPC  H12S 9824   5.666   5.481   2.797
   76DPPC  C213 9825   5.706   5.569   2.990
   76DPPC  H13R 9826   5.601   5.606   3.000
   76DPPC  H13S 9827   5.774   5.645   3.034
   76DPPC  C214 9828   5.720   5.438   3.069
   76DPPC  H14R 9829   5.826   5.404   3.062
   76DPPC  H14S 9830   5.656   5.360   3.021
   76DPPC  C215 9831   5.681   5.450   3.217
   76DPPC  H15R 9832   5.572   5.473   3.222
   76DPPC  H15S 9833   5.735   5.537   3.261
   76DPPC  C216 9834   5.710   5.325   3.300
   76DPPC  H16R 9835   5.818   5.302   3.297
   76DPPC  H16S 9836   5.653   5.238   3.260
   76DPPC  H16T 9837   5.680   5.342   3.406
   76DPPC   C33 9838   0.012   5.789   2.082
   76DPPC   H3X 9839   0.064   5.880   2.045
   76DPPC   H3Y 9840   0.080   5.702   2.068
   76DPPC   C34 9841   6.290   5.807   2.233
   76DPPC   H4X 9842   6.219   5.891   2.248
   76DPPC   H4Y 9843   0.084   5.834   2.281
   76DPPC   C35 9844   6.236   5.682   2.303
   76DPPC   H5X 9845   0.003   5.597   2.283
   76DPPC   H5Y 9846   6.137   5.654   2.260
   76DPPC   C36 9847   6.221   5.698   2.455
   76DPPC   H6X 9848   6.150   5.780   2.477
   76DPPC   H6Y 9849   0.016   5.725   2.499
   76DPPC   C37 9850   6.170   5.569   2.522
   76DPPC   H7X 9851   6.237   5.485   2.491
   76DPPC   H7Y 9852   6.069   5.546   2.483
   76DPPC   C38 9853   6.166   5.573   2.675
   76DPPC   H8X 9854   6.095   5.652   2.708
   76DPPC   H8Y 9855   6.267   5.598   2.714
   76DPPC   C39 9856   6.122   5.437   2.733
   76DPPC   H9X 9857   6.190   5.359   2.693
   76DPPC   H9Y 9858   6.020   5.415   2.697
   76DPPC  C310 9859   6.124   5.428   2.886
   76DPPC  H10X 9860   6.050   5.499   2.929
   76DPPC  H10Y 9861   6.224   5.458   2.923
   76DPPC  C311 9862   6.093   5.286   2.935
   76DPPC  H11X 9863   6.166   5.216   2.887
   76DPPC  H11Y 9864   5.991   5.258   2.900
   76DPPC  C312 9865   6.103   5.267   3.087
   76DPPC  H12X 9866   6.022   5.326   3.136
   76DPPC  H12Y 9867   6.200   5.308   3.122
   76DPPC  C313 9868   6.093   5.121   3.133
   76DPPC  H13X 9869   6.099   5.118   3.244
   76DPPC  H13Y 9870   6.181   5.066   3.093
   76DPPC  C314 9871   5.964   5.048   3.088
   76DPPC  H14X 9872   5.963   5.041   2.977
   76DPPC  H14Y 9873   5.877   5.110   3.119
   76DPPC  C315 9874   5.948   4.907   3.147
   76DPPC  H15X 9875   5.851   4.866   3.111
   76DPPC  H15Y 9876   5.941   4.915   3.258
   76DPPC  C316 9877   6.060   4.808   3.112
   76DPPC  H16X 9878   6.037   4.708   3.155
   76DPPC  H16Y 9879   6.157   4.842   3.153
   76DPPC  H16Z 9880   6.069   4.798   3.002
   77DPPC     N 9881   6.156   0.314   1.108
   77DPPC   C13 9882   6.247   0.405   1.033
   77DPPC  H13A 9883   6.194   0.494   1.002
   77DPPC  H13B 9884   6.285   0.355   0.945
   77DPPC  H13C 9885   0.028   0.432   1.096
   77DPPC   C14 9886   6.047   0.273   1.016
   77DPPC  H14A 9887   5.996   0.360   0.979
   77DPPC  H14B 9888   5.978   0.210   1.070
   77DPPC  H14C 9889   6.089   0.218   0.933
   77DPPC   C15 9890   6.233   0.193   1.149
   77DPPC  H15A 9891   6.274   0.146   1.061
   77DPPC  H15B 9892   6.167   0.124   1.199
   77DPPC  H15C 9893   0.010   0.222   1.215
   77DPPC   C12 9894   6.102   0.387   1.229
   77DPPC  H12A 9895   6.039   0.467   1.193
   77DPPC  H12B 9896   6.186   0.431   1.281
   77DPPC   C11 9897   6.022   0.305   1.332
   77DPPC  H11A 9898   5.988   0.377   1.411
   77DPPC  H11B 9899   6.089   0.231   1.382
   77DPPC     P 9900   5.777   0.228   1.340
   77DPPC   O13 9901   5.701   0.114   1.282
   77DPPC   O14 9902   5.714   0.362   1.330
   77DPPC   O11 9903   5.816   0.194   1.489
   77DPPC   O12 9904   5.915   0.235   1.269
   77DPPC    C1 9905   5.883   0.069   1.519
   77DPPC    HA 9906   5.978   0.091   1.572
   77DPPC    HB 9907   5.910   0.010   1.428
   77DPPC    C2 9908   5.798   6.394   1.611
   77DPPC    HS 9909   5.698   6.382   1.562
   77DPPC   O21 9910   5.792   0.038   1.740
   77DPPC   C21 9911   5.678   0.020   1.804
   77DPPC   O22 9912   5.580   6.380   1.760
   77DPPC   C22 9913   5.685   0.088   1.941
   77DPPC   H2R 9914   5.634   0.187   1.934
   77DPPC   H2S 9915   5.791   0.104   1.969
   77DPPC    C3 9916   5.867   6.254   1.619
   77DPPC    HX 9917   5.973   6.273   1.644
   77DPPC    HY 9918   5.867   6.206   1.518
   77DPPC   O31 9919   5.813   6.168   1.722
   77DPPC   C31 9920   5.716   6.086   1.683
   77DPPC   O32 9921   5.670   6.080   1.570
   77DPPC   C32 9922   5.671   6.001   1.802
   77DPPC   H2X 9923   5.724   6.034   1.893
   77DPPC   H2Y 9924   5.697   5.895   1.782
   77DPPC   C23 9925   5.617   0.000   2.047
   77DPPC   H3R 9926   5.665   6.318   2.046
   77DPPC   H3S 9927   5.509   6.406   2.024
   77DPPC   C24 9928   5.631   0.056   2.190
   77DPPC   H4R 9929   5.738   0.079   2.209
   77DPPC   H4S 9930   5.601   6.395   2.262
   77DPPC   C25 9931   5.545   0.180   2.217
   77DPPC   H5R 9932   5.438   0.151   2.204
   77DPPC   H5S 9933   5.568   0.260   2.143
   77DPPC   C26 9934   5.562   0.238   2.359
   77DPPC   H6R 9935   5.558   0.156   2.433
   77DPPC   H6S 9936   5.477   0.307   2.379
   77DPPC   C27 9937   5.692   0.318   2.377
   77DPPC   H7R 9938   5.692   0.401   2.304
   77DPPC   H7S 9939   5.779   0.253   2.356
   77DPPC   C28 9940   5.708   0.378   2.518
   77DPPC   H8R 9941   5.713   0.294   2.592
   77DPPC   H8S 9942   5.618   0.439   2.542
   77DPPC   C29 9943   5.833   0.465   2.533
   77DPPC   H9R 9944   5.824   0.553   2.466
   77DPPC   H9S 9945   5.921   0.406   2.498
   77DPPC  C210 9946   5.862   0.513   2.676
   77DPPC  H10R 9947   5.958   0.570   2.674
   77DPPC  H10S 9948   5.877   0.424   2.741
   77DPPC  C211 9949   5.752   0.601   2.738
   77DPPC  H11R 9950   5.658   0.541   2.742
   77DPPC  H11S 9951   5.733   0.688   2.672
   77DPPC  C212 9952   5.783   0.648   2.881
   77DPPC  H12R 9953   5.806   0.559   2.943
   77DPPC  H12S 9954   5.691   0.695   2.924
   77DPPC  C213 9955   5.900   0.748   2.894
   77DPPC  H13R 9956   5.991   0.703   2.847
   77DPPC  H13S 9957   5.923   0.761   3.002
   77DPPC  C214 9958   5.876   0.887   2.833
   77DPPC  H14R 9959   5.844   0.876   2.727
   77DPPC  H14S 9960   5.972   0.942   2.833
   77DPPC  C215 9961   5.772   0.971   2.910
   77DPPC  H15R 9962   5.808   0.982   3.014
   77DPPC  H15S 9963   5.676   0.915   2.912
   77DPPC  C216 9964   5.746   1.110   2.852
   77DPPC  H16R 9965   5.839   1.171   2.853
   77DPPC  H16S 9966   5.669   1.163   2.912
   77DPPC  H16T 9967   5.710   1.103   2.747
   77DPPC   C33 9968   5.519   6.016   1.819
   77DPPC   H3X 9969   5.468   5.966   1.735
   77DPPC   H3Y 9970   5.492   6.124   1.817
   77DPPC   C34 9971   5.464   5.959   1.951
   77DPPC   H4X 9972   5.486   5.851   1.958
   77DPPC   H4Y 9973   5.354   5.971   1.948
   77DPPC   C35 9974   5.515   6.031   2.077
   77DPPC   H5X 9975   5.502   6.141   2.063
   77DPPC   H5Y 9976   5.623   6.011   2.092
   77DPPC   C36 9977   5.438   5.990   2.203
   77DPPC   H6X 9978   5.453   5.881   2.221
   77DPPC   H6Y 9979   5.329   6.007   2.185
   77DPPC   C37 9980   5.477   6.068   2.329
   77DPPC   H7X 9981   5.464   6.177   2.310
   77DPPC   H7Y 9982   5.585   6.051   2.351
   77DPPC   C38 9983   5.393   6.028   2.451
   77DPPC   H8X 9984   5.401   5.918   2.465
   77DPPC   H8Y 9985   5.287   6.053   2.431
   77DPPC   C39 9986   5.438   6.097   2.580
   77DPPC   H9X 9987   5.437   6.207   2.564
   77DPPC   H9Y 9988   5.542   6.067   2.603
   77DPPC  C310 9989   5.346   6.064   2.699
   77DPPC  H10X 9990   5.345   5.954   2.715
   77DPPC  H10Y 9991   5.243   6.097   2.674
   77DPPC  C311 9992   5.388   6.132   2.831
   77DPPC  H11X 9993   5.309   6.114   2.907
   77DPPC  H11Y 9994   5.395   6.242   2.814
   77DPPC  C312 9995   5.522   6.082   2.887
   77DPPC  H12X 9996   5.602   6.097   2.811
   77DPPC  H12Y 9997   5.514   5.973   2.907
   77DPPC  C313 9998   5.564   6.153   3.016
   77DPPC  H13X 9999   5.488   6.134   3.095
   77DPPC  H13Y10000   5.567   6.263   2.998
   77DPPC  C31410001   5.702   6.107   3.066
   77DPPC  H14X10002   5.778   6.131   2.989
   77DPPC  H14Y10003   5.701   5.997   3.079
   77DPPC  C31510004   5.744   6.172   3.199
   77DPPC  H15X10005   5.666   6.150   3.276
   77DPPC  H15Y10006   5.746   6.282   3.186
   77DPPC  C31610007   5.879   6.125   3.251
   77DPPC  H16X10008   5.959   6.148   3.178
   77DPPC  H16Y10009   5.878   6.015   3.269
   77DPPC  H16Z10010   5.904   6.175   3.347
   78DPPC     N10011   4.699   2.694   1.171
   78DPPC   C1310012   4.758   2.809   1.097
   78DPPC  H13A10013   4.766   2.784   0.992
   78DPPC  H13B10014   4.856   2.832   1.136
   78DPPC  H13C10015   4.693   2.894   1.107
   78DPPC   C1410016   4.562   2.670   1.120
   78DPPC  H14A10017   4.565   2.645   1.015
   78DPPC  H14B10018   4.503   2.760   1.133
   78DPPC  H14C10019   4.517   2.589   1.176
   78DPPC   C1510020   4.782   2.573   1.145
   78DPPC  H15A10021   4.735   2.487   1.189
   78DPPC  H15B10022   4.881   2.586   1.187
   78DPPC  H15C10023   4.790   2.557   1.038
   78DPPC   C1210024   4.697   2.726   1.318
   78DPPC  H12A10025   4.622   2.803   1.333
   78DPPC  H12B10026   4.793   2.769   1.344
   78DPPC   C1110027   4.670   2.611   1.418
   78DPPC  H11A10028   4.661   2.656   1.519
   78DPPC  H11B10029   4.759   2.543   1.417
   78DPPC     P10030   4.515   2.417   1.471
   78DPPC   O1310031   4.636   2.334   1.491
   78DPPC   O1410032   4.399   2.347   1.414
   78DPPC   O1110033   4.475   2.478   1.611
   78DPPC   O1210034   4.551   2.542   1.383
   78DPPC    C110035   4.557   2.471   1.728
   78DPPC    HA10036   4.529   2.554   1.796
   78DPPC    HB10037   4.665   2.484   1.703
   78DPPC    C210038   4.541   2.338   1.810
   78DPPC    HS10039   4.572   2.255   1.742
   78DPPC   O2110040   4.403   2.323   1.849
   78DPPC   C2110041   4.375   2.200   1.888
   78DPPC   O2210042   4.454   2.106   1.884
   78DPPC   C2210043   4.233   2.193   1.942
   78DPPC   H2R10044   4.195   2.089   1.932
   78DPPC   H2S10045   4.168   2.260   1.881
   78DPPC    C310046   4.638   2.339   1.934
   78DPPC    HX10047   4.742   2.339   1.893
   78DPPC    HY10048   4.624   2.244   1.991
   78DPPC   O3110049   4.618   2.455   2.018
   78DPPC   C3110050   4.694   2.452   2.127
   78DPPC   O3210051   4.766   2.359   2.159
   78DPPC   C3210052   4.686   2.586   2.200
   78DPPC   H2X10053   4.694   2.668   2.127
   78DPPC   H2Y10054   4.772   2.592   2.269
   78DPPC   C2310055   4.229   2.236   2.090
   78DPPC   H3R10056   4.284   2.333   2.100
   78DPPC   H3S10057   4.282   2.161   2.152
   78DPPC   C2410058   4.086   2.258   2.143
   78DPPC   H4R10059   4.032   2.161   2.145
   78DPPC   H4S10060   4.034   2.325   2.072
   78DPPC   C2510061   4.081   2.324   2.282
   78DPPC   H5R10062   3.980   2.366   2.299
   78DPPC   H5S10063   4.153   2.409   2.282
   78DPPC   C2610064   4.115   2.230   2.399
   78DPPC   H6R10065   4.154   2.291   2.484
   78DPPC   H6S10066   4.196   2.161   2.368
   78DPPC   C2710067   3.995   2.150   2.450
   78DPPC   H7R10068   3.946   2.097   2.366
   78DPPC   H7S10069   3.921   2.220   2.493
   78DPPC   C2810070   4.035   2.046   2.557
   78DPPC   H8R10071   4.103   2.093   2.631
   78DPPC   H8S10072   4.092   1.966   2.505
   78DPPC   C2910073   3.917   1.982   2.632
   78DPPC   H9R10074   3.957   1.892   2.685
   78DPPC   H9S10075   3.839   1.948   2.561
   78DPPC  C21010076   3.856   2.075   2.739
   78DPPC  H10R10077   3.802   2.158   2.690
   78DPPC  H10S10078   3.940   2.118   2.797
   78DPPC  C21110079   3.763   2.003   2.838
   78DPPC  H11R10080   3.815   1.911   2.874
   78DPPC  H11S10081   3.670   1.972   2.786
   78DPPC  C21210082   3.730   2.090   2.960
   78DPPC  H12R10083   3.669   2.177   2.928
   78DPPC  H12S10084   3.826   2.130   3.000
   78DPPC  C21310085   3.660   2.016   3.075
   78DPPC  H13R10086   3.662   2.083   3.164
   78DPPC  H13S10087   3.718   1.925   3.100
   78DPPC  C21410088   3.514   1.978   3.046
   78DPPC  H14R10089   3.510   1.917   2.953
   78DPPC  H14S10090   3.455   2.070   3.028
   78DPPC  C21510091   3.447   1.897   3.159
   78DPPC  H15R10092   3.501   1.801   3.170
   78DPPC  H15S10093   3.343   1.874   3.128
   78DPPC  C21610094   3.444   1.967   3.295
   78DPPC  H16R10095   3.391   2.065   3.288
   78DPPC  H16S10096   3.547   1.984   3.333
   78DPPC  H16T10097   3.390   1.904   3.369
   78DPPC   C3310098   4.556   2.601   2.281
   78DPPC   H3X10099   4.546   2.516   2.353
   78DPPC   H3Y10100   4.469   2.599   2.212
   78DPPC   C3410101   4.556   2.733   2.360
   78DPPC   H4X10102   4.577   2.815   2.287
   78DPPC   H4Y10103   4.638   2.732   2.434
   78DPPC   C3510104   4.424   2.768   2.431
   78DPPC   H5X10105   4.341   2.762   2.358
   78DPPC   H5Y10106   4.433   2.874   2.464
   78DPPC   C3610107   4.392   2.682   2.554
   78DPPC   H6X10108   4.477   2.687   2.625
   78DPPC   H6Y10109   4.382   2.576   2.522
   78DPPC   C3710110   4.263   2.722   2.629
   78DPPC   H7X10111   4.250   2.655   2.716
   78DPPC   H7Y10112   4.177   2.706   2.561
   78DPPC   C3810113   4.261   2.868   2.677
   78DPPC   H8X10114   4.272   2.934   2.588
   78DPPC   H8Y10115   4.348   2.887   2.745
   78DPPC   C3910116   4.131   2.911   2.748
   78DPPC   H9X10117   4.045   2.871   2.690
   78DPPC   H9Y10118   4.125   3.022   2.746
   78DPPC  C31010119   4.119   2.866   2.894
   78DPPC  H10X10120   4.147   2.759   2.901
   78DPPC  H10Y10121   4.012   2.876   2.923
   78DPPC  C31110122   4.202   2.949   2.993
   78DPPC  H11X10123   4.175   3.056   2.980
   78DPPC  H11Y10124   4.310   2.939   2.971
   78DPPC  C31210125   4.176   2.912   3.140
   78DPPC  H12X10126   4.066   2.916   3.160
   78DPPC  H12Y10127   4.225   2.988   3.205
   78DPPC  C31310128   4.230   2.773   3.179
   78DPPC  H13X10129   4.341   2.776   3.166
   78DPPC  H13Y10130   4.189   2.697   3.109
   78DPPC  C31410131   4.197   2.732   3.323
   78DPPC  H14X10132   4.087   2.720   3.332
   78DPPC  H14Y10133   4.229   2.813   3.392
   78DPPC  C31510134   4.265   2.601   3.368
   78DPPC  H15X10135   4.230   2.578   3.471
   78DPPC  H15Y10136   4.375   2.619   3.373
   78DPPC  C31610137   4.241   2.479   3.278
   78DPPC  H16X10138   4.286   2.495   3.178
   78DPPC  H16Y10139   4.133   2.461   3.266
   78DPPC  H16Z10140   4.287   2.389   3.323
   79DPPC     N10141   2.872   3.295   1.956
   79DPPC   C1310142   2.760   3.217   1.897
   79DPPC  H13A10143   2.669   3.241   1.948
   79DPPC  H13B10144   2.781   3.111   1.906
   79DPPC  H13C10145   2.752   3.241   1.792
   79DPPC   C1410146   2.885   3.259   2.100
   79DPPC  H14A10147   2.898   3.153   2.110
   79DPPC  H14B10148   2.795   3.290   2.151
   79DPPC  H14C10149   2.970   3.310   2.143
   79DPPC   C1510150   2.997   3.259   1.883
   79DPPC  H15A10151   2.986   3.286   1.779
   79DPPC  H15B10152   3.015   3.152   1.890
   79DPPC  H15C10153   3.080   3.313   1.926
   79DPPC   C1210154   2.841   3.442   1.941
   79DPPC  H12A10155   2.738   3.455   1.971
   79DPPC  H12B10156   2.848   3.466   1.835
   79DPPC   C1110157   2.926   3.543   2.021
   79DPPC  H11A10158   2.905   3.529   2.129
   79DPPC  H11B10159   2.890   3.646   1.995
   79DPPC     P10160   3.149   3.636   1.936
   79DPPC   O1310161   3.073   3.698   1.825
   79DPPC   O1410162   3.284   3.584   1.904
   79DPPC   O1110163   3.157   3.738   2.057
   79DPPC   O1210164   3.064   3.521   1.998
   79DPPC    C110165   3.250   3.718   2.164
   79DPPC    HA10166   3.265   3.816   2.215
   79DPPC    HB10167   3.350   3.687   2.127
   79DPPC    C210168   3.203   3.616   2.274
   79DPPC    HS10169   3.192   3.517   2.224
   79DPPC   O2110170   3.079   3.664   2.330
   79DPPC   C2110171   3.003   3.568   2.379
   79DPPC   O2210172   3.026   3.449   2.371
   79DPPC   C2210173   2.881   3.631   2.445
   79DPPC   H2R10174   2.821   3.681   2.366
   79DPPC   H2S10175   2.913   3.708   2.518
   79DPPC    C310176   3.314   3.606   2.384
   79DPPC    HX10177   3.330   3.709   2.423
   79DPPC    HY10178   3.410   3.576   2.336
   79DPPC   O3110179   3.281   3.522   2.497
   79DPPC   C3110180   3.301   3.391   2.478
   79DPPC   O3210181   3.343   3.342   2.374
   79DPPC   C3210182   3.268   3.316   2.606
   79DPPC   H2X10183   3.239   3.212   2.580
   79DPPC   H2Y10184   3.181   3.365   2.656
   79DPPC   C2310185   2.792   3.527   2.516
   79DPPC   H3R10186   2.770   3.441   2.450
   79DPPC   H3S10187   2.695   3.577   2.538
   79DPPC   C2410188   2.849   3.478   2.651
   79DPPC   H4R10189   2.885   3.566   2.709
   79DPPC   H4S10190   2.936   3.411   2.632
   79DPPC   C2510191   2.744   3.405   2.736
   79DPPC   H5R10192   2.704   3.318   2.679
   79DPPC   H5S10193   2.659   3.475   2.754
   79DPPC   C2610194   2.795   3.356   2.872
   79DPPC   H6R10195   2.707   3.325   2.932
   79DPPC   H6S10196   2.845   3.440   2.926
   79DPPC   C2710197   2.891   3.236   2.864
   79DPPC   H7R10198   2.985   3.266   2.812
   79DPPC   H7S10199   2.842   3.156   2.803
   79DPPC   C2810200   2.925   3.177   3.002
   79DPPC   H8R10201   2.829   3.151   3.053
   79DPPC   H8S10202   2.977   3.254   3.063
   79DPPC   C2910203   3.012   3.051   2.995
   79DPPC   H9R10204   3.113   3.078   2.958
   79DPPC   H9S10205   2.966   2.981   2.921
   79DPPC  C21010206   3.023   2.977   3.129
   79DPPC  H10R10207   2.920   2.953   3.165
   79DPPC  H10S10208   3.071   3.044   3.204
   79DPPC  C21110209   3.103   2.846   3.119
   79DPPC  H11R10210   3.208   2.870   3.091
   79DPPC  H11S10211   3.059   2.784   3.039
   79DPPC  C21210212   3.103   2.764   3.249
   79DPPC  H12R10213   2.997   2.744   3.278
   79DPPC  H12S10214   3.150   2.823   3.330
   79DPPC  C21310215   3.176   2.630   3.234
   79DPPC  H13R10216   3.283   2.650   3.208
   79DPPC  H13S10217   3.131   2.574   3.150
   79DPPC  C21410218   3.170   2.543   3.360
   79DPPC  H14R10219   3.064   2.524   3.386
   79DPPC  H14S10220   3.217   2.598   3.445
   79DPPC  C21510221   3.241   2.407   3.343
   79DPPC  H15R10222   3.348   2.426   3.318
   79DPPC  H15S10223   3.196   2.354   3.256
   79DPPC  C21610224   3.234   2.317   3.466
   79DPPC  H16R10225   3.282   2.366   3.553
   79DPPC  H16S10226   3.285   2.221   3.446
   79DPPC  H16T10227   3.128   2.295   3.492
   79DPPC   C3310228   3.390   3.315   2.700
   79DPPC   H3X10229   3.427   3.419   2.718
   79DPPC   H3Y10230   3.471   3.259   2.650
   79DPPC   C3410231   3.362   3.248   2.836
   79DPPC   H4X10232   3.449   3.183   2.861
   79DPPC   H4Y10233   3.273   3.182   2.826
   79DPPC   C3510234   3.343   3.343   2.955
   79DPPC   H5X10235   3.440   3.393   2.977
   79DPPC   H5Y10236   3.317   3.282   3.044
   79DPPC   C3610237   3.236   3.452   2.936
   79DPPC   H6X10238   3.142   3.405   2.901
   79DPPC   H6Y10239   3.270   3.523   2.858
   79DPPC   C3710240   3.207   3.530   3.065
   79DPPC   H7X10241   3.304   3.562   3.111
   79DPPC   H7Y10242   3.156   3.463   3.138
   79DPPC   C3810243   3.121   3.655   3.042
   79DPPC   H8X10244   3.028   3.623   2.991
   79DPPC   H8Y10245   3.177   3.723   2.973
   79DPPC   C3910246   3.087   3.731   3.171
   79DPPC   H9X10247   3.180   3.737   3.231
   79DPPC   H9Y10248   3.012   3.675   3.230
   79DPPC  C31010249   3.039   3.876   3.150
   79DPPC  H10X10250   3.110   3.929   3.082
   79DPPC  H10Y10251   3.044   3.927   3.248
   79DPPC  C31110252   2.895   3.894   3.097
   79DPPC  H11X10253   2.872   4.003   3.102
   79DPPC  H11Y10254   2.824   3.842   3.165
   79DPPC  C31210255   2.872   3.848   2.953
   79DPPC  H12X10256   2.854   3.738   2.952
   79DPPC  H12Y10257   2.964   3.869   2.893
   79DPPC  C31310258   2.754   3.917   2.883
   79DPPC  H13X10259   2.776   4.027   2.881
   79DPPC  H13Y10260   2.662   3.901   2.942
   79DPPC  C31410261   2.733   3.866   2.740
   79DPPC  H14X10262   2.707   3.758   2.744
   79DPPC  H14Y10263   2.829   3.876   2.684
   79DPPC  C31510264   2.624   3.940   2.661
   79DPPC  H15X10265   2.526   3.926   2.712
   79DPPC  H15Y10266   2.616   3.893   2.560
   79DPPC  C31610267   2.650   4.090   2.642
   79DPPC  H16X10268   2.644   4.143   2.739
   79DPPC  H16Y10269   2.750   4.106   2.598
   79DPPC  H16Z10270   2.574   4.134   2.574
   80DPPC     N10271   5.324   3.327   1.340
   80DPPC   C1310272   5.179   3.333   1.374
   80DPPC  H13A10273   5.137   3.426   1.341
   80DPPC  H13B10274   5.167   3.322   1.481
   80DPPC  H13C10275   5.128   3.252   1.324
   80DPPC   C1410276   5.341   3.347   1.194
   80DPPC  H14A10277   5.300   3.443   1.165
   80DPPC  H14B10278   5.290   3.269   1.139
   80DPPC  H14C10279   5.446   3.345   1.169
   80DPPC   C1510280   5.395   3.436   1.412
   80DPPC  H15A10281   5.352   3.532   1.387
   80DPPC  H15B10282   5.500   3.437   1.384
   80DPPC  H15C10283   5.388   3.421   1.519
   80DPPC   C1210284   5.384   3.195   1.382
   80DPPC  H12A10285   5.365   3.182   1.488
   80DPPC  H12B10286   5.492   3.203   1.369
   80DPPC   C1110287   5.340   3.065   1.310
   80DPPC  H11A10288   5.398   2.981   1.356
   80DPPC  H11B10289   5.370   3.073   1.202
   80DPPC     P10290   5.147   2.913   1.255
   80DPPC   O1310291   5.201   2.793   1.325
   80DPPC   O1410292   5.176   2.923   1.110
   80DPPC   O1110293   4.991   2.918   1.277
   80DPPC   O1210294   5.200   3.044   1.325
   80DPPC    C110295   4.922   3.038   1.313
   80DPPC    HA10296   4.818   3.031   1.272
   80DPPC    HB10297   4.968   3.128   1.268
   80DPPC    C210298   4.907   3.059   1.467
   80DPPC    HS10299   5.009   3.086   1.504
   80DPPC   O2110300   4.860   2.935   1.523
   80DPPC   C2110301   4.900   2.916   1.648
   80DPPC   O2210302   4.973   2.990   1.711
   80DPPC   C2210303   4.833   2.788   1.700
   80DPPC   H2R10304   4.869   2.701   1.641
   80DPPC   H2S10305   4.723   2.799   1.684
   80DPPC    C310306   4.809   3.177   1.498
   80DPPC    HX10307   4.714   3.153   1.444
   80DPPC    HY10308   4.848   3.270   1.452
   80DPPC   O3110309   4.777   3.193   1.638
   80DPPC   C3110310   4.860   3.271   1.707
   80DPPC   O3210311   4.955   3.331   1.659
   80DPPC   C3210312   4.824   3.264   1.855
   80DPPC   H2X10313   4.831   3.157   1.886
   80DPPC   H2Y10314   4.720   3.299   1.870
   80DPPC   C2310315   4.858   2.766   1.850
   80DPPC   H3R10316   4.781   2.693   1.885
   80DPPC   H3S10317   4.842   2.860   1.906
   80DPPC   C2410318   4.996   2.706   1.880
   80DPPC   H4R10319   5.074   2.779   1.853
   80DPPC   H4S10320   5.010   2.615   1.817
   80DPPC   C2510321   5.016   2.665   2.027
   80DPPC   H5R10322   5.119   2.623   2.035
   80DPPC   H5S10323   4.945   2.583   2.053
   80DPPC   C2610324   4.999   2.781   2.127
   80DPPC   H6R10325   4.893   2.815   2.126
   80DPPC   H6S10326   5.061   2.866   2.091
   80DPPC   C2710327   5.039   2.748   2.272
   80DPPC   H7R10328   4.965   2.678   2.316
   80DPPC   H7S10329   5.034   2.842   2.331
   80DPPC   C2810330   5.179   2.687   2.287
   80DPPC   H8R10331   5.252   2.746   2.228
   80DPPC   H8S10332   5.178   2.583   2.247
   80DPPC   C2910333   5.228   2.683   2.433
   80DPPC   H9R10334   5.154   2.628   2.494
   80DPPC   H9S10335   5.235   2.787   2.472
   80DPPC  C21010336   5.364   2.614   2.446
   80DPPC  H10R10337   5.439   2.670   2.385
   80DPPC  H10S10338   5.356   2.511   2.405
   80DPPC  C21110339   5.415   2.605   2.591
   80DPPC  H11R10340   5.339   2.552   2.652
   80DPPC  H11S10341   5.427   2.708   2.632
   80DPPC  C21210342   5.550   2.531   2.600
   80DPPC  H12R10343   5.624   2.585   2.537
   80DPPC  H12S10344   5.537   2.429   2.559
   80DPPC  C21310345   5.606   2.520   2.743
   80DPPC  H13R10346   5.624   2.622   2.783
   80DPPC  H13S10347   5.705   2.469   2.736
   80DPPC  C21410348   5.517   2.442   2.840
   80DPPC  H14R10349   5.488   2.346   2.792
   80DPPC  H14S10350   5.425   2.499   2.861
   80DPPC  C21510351   5.588   2.410   2.973
   80DPPC  H15R10352   5.619   2.505   3.021
   80DPPC  H15S10353   5.682   2.354   2.949
   80DPPC  C21610354   5.505   2.328   3.071
   80DPPC  H16R10355   5.414   2.384   3.101
   80DPPC  H16S10356   5.564   2.305   3.162
   80DPPC  H16T10357   5.473   2.232   3.025
   80DPPC   C3310358   4.922   3.348   1.938
   80DPPC   H3X10359   4.900   3.455   1.921
   80DPPC   H3Y10360   5.027   3.328   1.906
   80DPPC   C3410361   4.916   3.319   2.089
   80DPPC   H4X10362   4.812   3.332   2.126
   80DPPC   H4Y10363   4.981   3.394   2.140
   80DPPC   C3510364   4.967   3.178   2.126
   80DPPC   H5X10365   5.059   3.158   2.067
   80DPPC   H5Y10366   4.891   3.102   2.098
   80DPPC   C3610367   5.003   3.161   2.275
   80DPPC   H6X10368   5.077   3.240   2.303
   80DPPC   H6Y10369   5.054   3.063   2.287
   80DPPC   C3710370   4.884   3.168   2.371
   80DPPC   H7X10371   4.812   3.087   2.347
   80DPPC   H7Y10372   4.831   3.265   2.356
   80DPPC   C3810373   4.923   3.158   2.520
   80DPPC   H8X10374   4.832   3.176   2.581
   80DPPC   H8Y10375   4.996   3.238   2.543
   80DPPC   C3910376   4.982   3.022   2.561
   80DPPC   H9X10377   5.074   3.002   2.502
   80DPPC   H9Y10378   4.908   2.942   2.537
   80DPPC  C31010379   5.017   3.015   2.710
   80DPPC  H10X10380   4.927   3.042   2.769
   80DPPC  H10Y10381   5.096   3.090   2.731
   80DPPC  C31110382   5.066   2.876   2.757
   80DPPC  H11X10383   5.161   2.851   2.705
   80DPPC  H11Y10384   4.990   2.800   2.729
   80DPPC  C31210385   5.088   2.871   2.909
   80DPPC  H12X10386   4.993   2.897   2.959
   80DPPC  H12Y10387   5.163   2.949   2.936
   80DPPC  C31310388   5.136   2.735   2.963
   80DPPC  H13X10389   5.232   2.710   2.914
   80DPPC  H13Y10390   5.061   2.657   2.936
   80DPPC  C31410391   5.155   2.738   3.115
   80DPPC  H14X10392   5.057   2.751   3.166
   80DPPC  H14Y10393   5.218   2.826   3.141
   80DPPC  C31510394   5.225   2.613   3.172
   80DPPC  H15X10395   5.262   2.637   3.274
   80DPPC  H15Y10396   5.313   2.589   3.109
   80DPPC  C31610397   5.136   2.489   3.183
   80DPPC  H16X10398   5.053   2.506   3.255
   80DPPC  H16Y10399   5.195   2.402   3.218
   80DPPC  H16Z10400   5.092   2.464   3.084
   81DPPC     N10401   4.654   0.641   1.348
   81DPPC   C1310402   4.611   0.669   1.208
   81DPPC  H13A10403   4.518   0.617   1.188
   81DPPC  H13B10404   4.687   0.634   1.138
   81DPPC  H13C10405   4.596   0.775   1.194
   81DPPC   C1410406   4.549   0.692   1.440
   81DPPC  H14A10407   4.581   0.677   1.543
   81DPPC  H14B10408   4.456   0.640   1.424
   81DPPC  H14C10409   4.534   0.798   1.425
   81DPPC   C1510410   4.668   0.494   1.365
   81DPPC  H15A10411   4.573   0.446   1.346
   81DPPC  H15B10412   4.699   0.473   1.467
   81DPPC  H15C10413   4.742   0.456   1.297
   81DPPC   C1210414   4.787   0.708   1.375
   81DPPC  H12A10415   4.769   0.815   1.387
   81DPPC  H12B10416   4.849   0.695   1.287
   81DPPC   C1110417   4.868   0.658   1.496
   81DPPC  H11A10418   4.960   0.719   1.507
   81DPPC  H11B10419   4.904   0.555   1.474
   81DPPC     P10420   4.796   0.766   1.719
   81DPPC   O1310421   4.658   0.806   1.754
   81DPPC   O1410422   4.883   0.876   1.671
   81DPPC   O1110423   4.865   0.696   1.842
   81DPPC   O1210424   4.788   0.651   1.613
   81DPPC    C110425   4.976   0.606   1.827
   81DPPC    HA10426   5.039   0.632   1.738
   81DPPC    HB10427   4.939   0.502   1.813
   81DPPC    C210428   5.070   0.610   1.950
   81DPPC    HS10429   5.160   0.547   1.929
   81DPPC   O2110430   4.999   0.567   2.068
   81DPPC   C2110431   5.006   0.437   2.087
   81DPPC   O2210432   5.071   0.359   2.020
   81DPPC   C2210433   4.924   0.399   2.210
   81DPPC   H2R10434   4.872   0.303   2.188
   81DPPC   H2S10435   4.847   0.476   2.232
   81DPPC    C310436   5.124   0.754   1.975
   81DPPC    HX10437   5.036   0.821   1.984
   81DPPC    HY10438   5.182   0.788   1.886
   81DPPC   O3110439   5.201   0.766   2.097
   81DPPC   C3110440   5.327   0.725   2.088
   81DPPC   O3210441   5.378   0.672   1.990
   81DPPC   C3210442   5.396   0.749   2.222
   81DPPC   H2X10443   5.363   0.672   2.294
   81DPPC   H2Y10444   5.364   0.849   2.259
   81DPPC   C2310445   5.017   0.379   2.331
   81DPPC   H3R10446   5.105   0.317   2.302
   81DPPC   H3S10447   4.961   0.323   2.409
   81DPPC   C2410448   5.066   0.511   2.393
   81DPPC   H4R10449   4.979   0.565   2.435
   81DPPC   H4S10450   5.111   0.574   2.314
   81DPPC   C2510451   5.171   0.491   2.504
   81DPPC   H5R10452   5.259   0.439   2.460
   81DPPC   H5S10453   5.130   0.426   2.584
   81DPPC   C2610454   5.217   0.624   2.566
   81DPPC   H6R10455   5.132   0.669   2.622
   81DPPC   H6S10456   5.243   0.694   2.483
   81DPPC   C2710457   5.340   0.611   2.658
   81DPPC   H7R10458   5.418   0.554   2.603
   81DPPC   H7S10459   5.313   0.552   2.748
   81DPPC   C2810460   5.399   0.747   2.699
   81DPPC   H8R10461   5.421   0.805   2.607
   81DPPC   H8S10462   5.496   0.729   2.752
   81DPPC   C2910463   5.309   0.829   2.792
   81DPPC   H9R10464   5.299   0.776   2.889
   81DPPC   H9S10465   5.208   0.838   2.747
   81DPPC  C21010466   5.362   0.971   2.817
   81DPPC  H10R10467   5.364   1.026   2.720
   81DPPC  H10S10468   5.466   0.966   2.856
   81DPPC  C21110469   5.276   1.050   2.917
   81DPPC  H11R10470   5.285   1.004   3.017
   81DPPC  H11S10471   5.169   1.041   2.885
   81DPPC  C21210472   5.311   1.199   2.926
   81DPPC  H12R10473   5.300   1.244   2.825
   81DPPC  H12S10474   5.417   1.211   2.958
   81DPPC  C21310475   5.220   1.274   3.025
   81DPPC  H13R10476   5.246   1.244   3.128
   81DPPC  H13S10477   5.115   1.242   3.006
   81DPPC  C21410478   5.226   1.427   3.011
   81DPPC  H14R10479   5.192   1.456   2.909
   81DPPC  H14S10480   5.331   1.460   3.022
   81DPPC  C21510481   5.138   1.500   3.115
   81DPPC  H15R10482   5.169   1.467   3.217
   81DPPC  H15S10483   5.033   1.469   3.100
   81DPPC  C21610484   5.146   1.652   3.107
   81DPPC  H16R10485   5.250   1.687   3.127
   81DPPC  H16S10486   5.079   1.698   3.183
   81DPPC  H16T10487   5.116   1.688   3.006
   81DPPC   C3310488   5.549   0.744   2.206
   81DPPC   H3X10489   5.580   0.810   2.122
   81DPPC   H3Y10490   5.579   0.640   2.181
   81DPPC   C3410491   5.625   0.789   2.332
   81DPPC   H4X10492   5.734   0.779   2.310
   81DPPC   H4Y10493   5.601   0.721   2.417
   81DPPC   C3510494   5.594   0.934   2.373
   81DPPC   H5X10495   5.489   0.940   2.408
   81DPPC   H5Y10496   5.603   0.999   2.283
   81DPPC   C3610497   5.683   0.990   2.485
   81DPPC   H6X10498   5.669   0.928   2.576
   81DPPC   H6Y10499   5.648   1.093   2.509
   81DPPC   C3710500   5.834   0.996   2.453
   81DPPC   H7X10501   5.873   0.892   2.449
   81DPPC   H7Y10502   5.885   1.047   2.537
   81DPPC   C3810503   5.871   1.067   2.321
   81DPPC   H8X10504   5.834   1.007   2.235
   81DPPC   H8Y10505   5.982   1.070   2.314
   81DPPC   C3910506   5.818   1.211   2.307
   81DPPC   H9X10507   5.708   1.210   2.300
   81DPPC   H9Y10508   5.858   1.254   2.212
   81DPPC  C31010509   5.859   1.303   2.423
   81DPPC  H10X10510   5.970   1.301   2.433
   81DPPC  H10Y10511   5.816   1.262   2.517
   81DPPC  C31110512   5.813   1.449   2.407
   81DPPC  H11X10513   5.703   1.451   2.393
   81DPPC  H11Y10514   5.860   1.491   2.316
   81DPPC  C31210515   5.849   1.538   2.527
   81DPPC  H12X10516   5.821   1.643   2.502
   81DPPC  H12Y10517   5.959   1.536   2.543
   81DPPC  C31310518   5.779   1.498   2.658
   81DPPC  H13X10519   5.810   1.396   2.687
   81DPPC  H13Y10520   5.669   1.497   2.640
   81DPPC  C31410521   5.810   1.593   2.775
   81DPPC  H14X10522   5.777   1.696   2.747
   81DPPC  H14Y10523   5.920   1.595   2.790
   81DPPC  C31510524   5.744   1.554   2.908
   81DPPC  H15X10525   5.782   1.622   2.987
   81DPPC  H15Y10526   5.775   1.450   2.934
   81DPPC  C31610527   5.591   1.561   2.909
   81DPPC  H16X10528   5.552   1.537   3.010
   81DPPC  H16Y10529   5.547   1.489   2.836
   81DPPC  H16Z10530   5.557   1.663   2.882
   82DPPC     N10531   5.812   0.748   1.517
   82DPPC   C1310532   5.841   0.632   1.429
   82DPPC  H13A10533   5.790   0.544   1.465
   82DPPC  H13B10534   5.947   0.613   1.427
   82DPPC  H13C10535   5.805   0.652   1.328
   82DPPC   C1410536   5.872   0.870   1.458
   82DPPC  H14A10537   5.847   0.956   1.518
   82DPPC  H14B10538   5.834   0.885   1.358
   82DPPC  H14C10539   5.980   0.860   1.453
   82DPPC   C1510540   5.665   0.767   1.522
   82DPPC  H15A10541   5.618   0.681   1.569
   82DPPC  H15B10542   5.626   0.776   1.422
   82DPPC  H15C10543   5.641   0.855   1.579
   82DPPC   C1210544   5.865   0.725   1.657
   82DPPC  H12A10545   5.823   0.632   1.693
   82DPPC  H12B10546   5.827   0.806   1.719
   82DPPC   C1110547   6.018   0.720   1.676
   82DPPC  H11A10548   6.036   0.700   1.784
   82DPPC  H11B10549   6.060   0.820   1.651
   82DPPC     P10550   6.230   0.602   1.608
   82DPPC   O1310551   6.292   0.733   1.581
   82DPPC   O1410552   6.276   0.490   1.523
   82DPPC   O1110553   6.245   0.563   1.760
   82DPPC   O1210554   6.074   0.618   1.594
   82DPPC    C110555   6.232   0.426   1.803
   82DPPC    HA10556   6.274   0.417   1.905
   82DPPC    HB10557   6.293   0.358   1.738
   82DPPC    C210558   6.085   0.372   1.809
   82DPPC    HS10559   6.042   0.385   1.707
   82DPPC   O2110560   6.014   0.449   1.907
   82DPPC   C2110561   5.883   0.436   1.894
   82DPPC   O2210562   5.828   0.376   1.802
   82DPPC   C2210563   5.807   0.509   2.006
   82DPPC   H2R10564   5.724   0.441   2.037
   82DPPC   H2S10565   5.762   0.601   1.964
   82DPPC    C310566   6.084   0.219   1.842
   82DPPC    HX10567   6.128   0.167   1.754
   82DPPC    HY10568   5.980   0.181   1.850
   82DPPC   O3110569   6.164   0.186   1.957
   82DPPC   C3110570   6.102   0.189   2.075
   82DPPC   O3210571   5.984   0.209   2.092
   82DPPC   C3210572   6.206   0.166   2.183
   82DPPC   H2X10573   6.290   0.237   2.168
   82DPPC   H2Y10574   6.247   0.063   2.172
   82DPPC   C2310575   5.892   0.542   2.130
   82DPPC   H3R10576   5.952   0.454   2.162
   82DPPC   H3S10577   5.820   0.564   2.213
   82DPPC   C2410578   5.982   0.666   2.117
   82DPPC   H4R10579   5.921   0.749   2.074
   82DPPC   H4S10580   6.065   0.645   2.047
   82DPPC   C2510581   6.040   0.714   2.251
   82DPPC   H5R10582   5.957   0.744   2.317
   82DPPC   H5S10583   6.103   0.804   2.232
   82DPPC   C2610584   6.125   0.609   2.325
   82DPPC   H6R10585   6.203   0.570   2.257
   82DPPC   H6S10586   6.061   0.524   2.356
   82DPPC   C2710587   6.193   0.668   2.450
   82DPPC   H7R10588   6.116   0.706   2.520
   82DPPC   H7S10589   6.256   0.754   2.417
   82DPPC   C2810590   6.283   0.568   2.524
   82DPPC   H8R10591   0.049   0.521   2.451
   82DPPC   H8S10592   6.221   0.487   2.569
   82DPPC   C2910593   0.064   0.636   2.634
   82DPPC   H9R10594   6.299   0.678   2.711
   82DPPC   H9S10595   0.119   0.720   2.587
   82DPPC  C21010596   0.167   0.544   2.701
   82DPPC  H10R10597   0.223   0.489   2.622
   82DPPC  H10S10598   0.114   0.468   2.764
   82DPPC  C21110599   0.267   0.622   2.787
   82DPPC  H11R10600   0.213   0.676   2.868
   82DPPC  H11S10601   0.315   0.699   2.722
   82DPPC  C21210602   0.378   0.536   2.849
   82DPPC  H12R10603   0.422   0.472   2.769
   82DPPC  H12S10604   0.334   0.470   2.926
   82DPPC  C21310605   0.491   0.621   2.910
   82DPPC  H13R10606   0.449   0.688   2.988
   82DPPC  H13S10607   0.531   0.686   2.829
   82DPPC  C21410608   0.608   0.539   2.967
   82DPPC  H14R10609   0.692   0.609   2.990
   82DPPC  H14S10610   0.644   0.469   2.889
   82DPPC  C21510611   0.577   0.460   3.095
   82DPPC  H15R10612   0.668   0.402   3.122
   82DPPC  H15S10613   0.495   0.388   3.074
   82DPPC  C21610614   0.537   0.546   3.216
   82DPPC  H16R10615   0.616   0.622   3.237
   82DPPC  H16S10616   0.525   0.482   3.306
   82DPPC  H16T10617   0.442   0.599   3.197
   82DPPC   C3310618   6.150   0.182   2.325
   82DPPC   H3X10619   6.072   0.104   2.343
   82DPPC   H3Y10620   6.102   0.282   2.336
   82DPPC   C3410621   6.262   0.168   2.429
   82DPPC   H4X10622   0.029   0.253   2.417
   82DPPC   H4Y10623   0.015   0.074   2.406
   82DPPC   C3510624   6.215   0.161   2.574
   82DPPC   H5X10625   6.146   0.075   2.586
   82DPPC   H5Y10626   6.160   0.254   2.601
   82DPPC   C3610627   0.031   0.142   2.670
   82DPPC   H6X10628   0.096   0.231   2.665
   82DPPC   H6Y10629   0.090   0.054   2.635
   82DPPC   C3710630   6.293   0.117   2.816
   82DPPC   H7X10631   6.223   0.031   2.819
   82DPPC   H7Y10632   6.240   0.207   2.854
   82DPPC   C3810633   0.111   0.088   2.905
   82DPPC   H8X10634   0.179   0.175   2.902
   82DPPC   H8Y10635   0.166   0.001   2.864
   82DPPC   C3910636   0.075   0.058   3.052
   82DPPC   H9X10637   0.019   0.145   3.093
   82DPPC   H9Y10638   0.171   0.050   3.109
   82DPPC  C31010639   6.298   6.348   3.073
   82DPPC  H10X10640   0.047   6.264   3.021
   82DPPC  H10Y10641   6.197   6.359   3.027
   82DPPC  C31110642   6.281   6.309   3.221
   82DPPC  H11X10643   0.078   6.291   3.265
   82DPPC  H11Y10644   6.224   6.213   3.226
   82DPPC  C31210645   6.208   6.414   3.305
   82DPPC  H12X10646   6.107   0.014   3.261
   82DPPC  H12Y10647   6.265   0.092   3.302
   82DPPC  C31310648   6.190   6.374   3.452
   82DPPC  H13X10649   6.291   6.356   3.496
   82DPPC  H13Y10650   6.132   6.280   3.457
   82DPPC  C31410651   6.118   0.064   3.534
   82DPPC  H14X10652   6.016   0.078   3.491
   82DPPC  H14Y10653   6.173   0.160   3.523
   82DPPC  C31510654   6.105   0.032   3.683
   82DPPC  H15X10655   6.053   6.352   3.695
   82DPPC  H15Y10656   6.040   0.110   3.730
   82DPPC  C31610657   6.238   0.029   3.759
   82DPPC  H16X10658   6.291   0.126   3.746
   82DPPC  H16Y10659   6.303   6.366   3.722
   82DPPC  H16Z10660   6.220   0.013   3.867
   83DPPC     N10661   4.702   3.693   1.425
   83DPPC   C1310662   4.736   3.775   1.544
   83DPPC  H13A10663   4.814   3.846   1.520
   83DPPC  H13B10664   4.770   3.710   1.624
   83DPPC  H13C10665   4.648   3.828   1.577
   83DPPC   C1410666   4.672   3.786   1.313
   83DPPC  H14A10667   4.759   3.847   1.293
   83DPPC  H14B10668   4.591   3.851   1.341
   83DPPC  H14C10669   4.645   3.731   1.224
   83DPPC   C1510670   4.821   3.611   1.388
   83DPPC  H15A10671   4.902   3.676   1.361
   83DPPC  H15B10672   4.798   3.545   1.305
   83DPPC  H15C10673   4.851   3.552   1.474
   83DPPC   C1210674   4.581   3.606   1.451
   83DPPC  H12A10675   4.551   3.562   1.357
   83DPPC  H12B10676   4.501   3.670   1.485
   83DPPC   C1110677   4.595   3.490   1.554
   83DPPC  H11A10678   4.664   3.415   1.511
   83DPPC  H11B10679   4.497   3.438   1.565
   83DPPC     P10680   4.549   3.591   1.783
   83DPPC   O1310681   4.439   3.663   1.714
   83DPPC   O1410682   4.626   3.668   1.883
   83DPPC   O1110683   4.495   3.458   1.849
   83DPPC   O1210684   4.650   3.535   1.677
   83DPPC    C110685   4.369   3.451   1.916
   83DPPC    HA10686   4.344   3.344   1.929
   83DPPC    HB10687   4.287   3.496   1.855
   83DPPC    C210688   4.368   3.516   2.059
   83DPPC    HS10689   4.357   3.626   2.041
   83DPPC   O2110690   4.491   3.482   2.126
   83DPPC   C2110691   4.539   3.580   2.200
   83DPPC   O2210692   4.494   3.694   2.205
   83DPPC   C2210693   4.659   3.532   2.281
   83DPPC   H2R10694   4.752   3.567   2.234
   83DPPC   H2S10695   4.660   3.421   2.284
   83DPPC    C310696   4.245   3.466   2.142
   83DPPC    HX10697   4.237   3.357   2.124
   83DPPC    HY10698   4.151   3.511   2.101
   83DPPC   O3110699   4.257   3.486   2.284
   83DPPC   C3110700   4.217   3.604   2.330
   83DPPC   O3210701   4.173   3.695   2.260
   83DPPC   C3210702   4.237   3.609   2.481
   83DPPC   H2X10703   4.305   3.528   2.513
   83DPPC   H2Y10704   4.138   3.593   2.529
   83DPPC   C2310705   4.647   3.587   2.425
   83DPPC   H3R10706   4.545   3.567   2.464
   83DPPC   H3S10707   4.662   3.698   2.423
   83DPPC   C2410708   4.747   3.525   2.524
   83DPPC   H4R10709   4.851   3.543   2.488
   83DPPC   H4S10710   4.730   3.415   2.528
   83DPPC   C2510711   4.731   3.582   2.666
   83DPPC   H5R10712   4.625   3.571   2.698
   83DPPC   H5S10713   4.755   3.691   2.663
   83DPPC   C2610714   4.821   3.515   2.771
   83DPPC   H6R10715   4.927   3.522   2.736
   83DPPC   H6S10716   4.795   3.407   2.778
   83DPPC   C2710717   4.810   3.581   2.909
   83DPPC   H7R10718   4.706   3.571   2.947
   83DPPC   H7S10719   4.832   3.689   2.896
   83DPPC   C2810720   4.907   3.526   3.015
   83DPPC   H8R10721   4.910   3.598   3.100
   83DPPC   H8S10722   5.010   3.522   2.972
   83DPPC   C2910723   4.869   3.389   3.071
   83DPPC   H9R10724   4.865   3.315   2.988
   83DPPC   H9S10725   4.767   3.396   3.115
   83DPPC  C21010726   4.967   3.340   3.179
   83DPPC  H10R10727   4.980   3.421   3.254
   83DPPC  H10S10728   5.066   3.321   3.132
   83DPPC  C21110729   4.921   3.213   3.253
   83DPPC  H11R10730   4.828   3.237   3.310
   83DPPC  H11S10731   5.000   3.186   3.327
   83DPPC  C21210732   4.895   3.093   3.161
   83DPPC  H12R10733   4.982   3.081   3.093
   83DPPC  H12S10734   4.805   3.113   3.098
   83DPPC  C21310735   4.875   2.960   3.236
   83DPPC  H13R10736   4.971   2.932   3.286
   83DPPC  H13S10737   4.852   2.880   3.161
   83DPPC  C21410738   4.765   2.959   3.343
   83DPPC  H14R10739   4.790   3.033   3.423
   83DPPC  H14S10740   4.762   2.858   3.390
   83DPPC  C21510741   4.624   2.991   3.289
   83DPPC  H15R10742   4.600   2.918   3.208
   83DPPC  H15S10743   4.625   3.093   3.244
   83DPPC  C21610744   4.514   2.984   3.395
   83DPPC  H16R10745   4.509   2.882   3.438
   83DPPC  H16S10746   4.416   3.008   3.349
   83DPPC  H16T10747   4.534   3.057   3.476
   83DPPC   C3310748   4.296   3.745   2.523
   83DPPC   H3X10749   4.230   3.827   2.490
   83DPPC   H3Y10750   4.395   3.758   2.473
   83DPPC   C3410751   4.317   3.756   2.675
   83DPPC   H4X10752   4.374   3.667   2.710
   83DPPC   H4Y10753   4.218   3.755   2.724
   83DPPC   C3510754   4.392   3.883   2.716
   83DPPC   H5X10755   4.341   3.970   2.668
   83DPPC   H5Y10756   4.496   3.879   2.677
   83DPPC   C3610757   4.395   3.908   2.867
   83DPPC   H6X10758   4.291   3.913   2.906
   83DPPC   H6Y10759   4.442   4.008   2.884
   83DPPC   C3710760   4.475   3.805   2.948
   83DPPC   H7X10761   4.578   3.798   2.907
   83DPPC   H7Y10762   4.428   3.705   2.939
   83DPPC   C3810763   4.483   3.842   3.097
   83DPPC   H8X10764   4.381   3.840   3.140
   83DPPC   H8Y10765   4.522   3.946   3.105
   83DPPC   C3910766   4.575   3.751   3.180
   83DPPC   H9X10767   4.676   3.751   3.135
   83DPPC   H9Y10768   4.536   3.647   3.177
   83DPPC  C31010769   4.586   3.797   3.326
   83DPPC  H10X10770   4.487   3.791   3.375
   83DPPC  H10Y10771   4.617   3.904   3.326
   83DPPC  C31110772   4.689   3.719   3.410
   83DPPC  H11X10773   4.703   3.772   3.507
   83DPPC  H11Y10774   4.787   3.720   3.357
   83DPPC  C31210775   4.648   3.574   3.440
   83DPPC  H12X10776   4.638   3.518   3.345
   83DPPC  H12Y10777   4.550   3.574   3.492
   83DPPC  C31310778   4.751   3.501   3.528
   83DPPC  H13X10779   4.765   3.559   3.622
   83DPPC  H13Y10780   4.848   3.498   3.474
   83DPPC  C31410781   4.709   3.357   3.564
   83DPPC  H14X10782   4.682   3.304   3.470
   83DPPC  H14Y10783   4.618   3.361   3.627
   83DPPC  C31510784   4.818   3.276   3.636
   83DPPC  H15X10785   4.780   3.173   3.650
   83DPPC  H15Y10786   4.907   3.271   3.569
   83DPPC  C31610787   4.861   3.332   3.772
   83DPPC  H16X10788   4.905   3.433   3.761
   83DPPC  H16Y10789   4.937   3.265   3.818
   83DPPC  H16Z10790   4.774   3.338   3.840
   84DPPC     N10791   2.998   5.979   1.310
   84DPPC   C1310792   3.129   5.910   1.301
   84DPPC  H13A10793   3.198   5.956   1.370
   84DPPC  H13B10794   3.168   5.919   1.201
   84DPPC  H13C10795   3.117   5.805   1.326
   84DPPC   C1410796   2.907   5.920   1.208
   84DPPC  H14A10797   2.812   5.970   1.211
   84DPPC  H14B10798   2.892   5.815   1.230
   84DPPC  H14C10799   2.950   5.931   1.110
   84DPPC   C1510800   2.939   5.954   1.444
   84DPPC  H15A10801   2.922   5.848   1.456
   84DPPC  H15B10802   2.845   6.007   1.453
   84DPPC  H15C10803   3.006   5.988   1.522
   84DPPC   C1210804   3.013   6.127   1.286
   84DPPC  H12A10805   2.914   6.169   1.276
   84DPPC  H12B10806   3.063   6.140   1.190
   84DPPC   C1110807   3.088   6.211   1.391
   84DPPC  H11A10808   3.034   6.207   1.488
   84DPPC  H11B10809   3.083   6.317   1.357
   84DPPC     P10810   3.345   6.252   1.388
   84DPPC   O1310811   3.303   6.392   1.369
   84DPPC   O1410812   3.427   6.191   1.280
   84DPPC   O1110813   3.423   6.239   1.525
   84DPPC   O1210814   3.220   6.161   1.411
   84DPPC    C110815   3.435   6.116   1.599
   84DPPC    HA10816   3.519   6.129   1.671
   84DPPC    HB10817   3.460   6.031   1.533
   84DPPC    C210818   3.309   6.078   1.684
   84DPPC    HS10819   3.238   6.034   1.610
   84DPPC   O2110820   3.255   6.198   1.742
   84DPPC   C2110821   3.127   6.186   1.774
   84DPPC   O2210822   3.058   6.088   1.749
   84DPPC   C2210823   3.078   6.312   1.843
   84DPPC   H2R10824   2.968   6.319   1.826
   84DPPC   H2S10825   3.126   6.402   1.800
   84DPPC    C310826   3.336   5.966   1.790
   84DPPC    HX10827   3.396   5.885   1.742
   84DPPC    HY10828   3.238   5.921   1.815
   84DPPC   O3110829   3.394   6.012   1.915
   84DPPC   C3110830   3.525   5.996   1.930
   84DPPC   O3210831   3.601   5.959   1.842
   84DPPC   C3210832   3.561   6.022   2.076
   84DPPC   H2X10833   3.526   5.934   2.135
   84DPPC   H2Y10834   3.508   6.112   2.113
   84DPPC   C2310835   3.105   6.302   1.994
   84DPPC   H3R10836   3.076   6.201   2.031
   84DPPC   H3S10837   3.042   6.377   2.046
   84DPPC   C2410838   3.252   6.331   2.032
   84DPPC   H4R10839   3.278   0.013   1.993
   84DPPC   H4S10840   3.318   6.256   1.983
   84DPPC   C2510841   3.280   6.328   2.183
   84DPPC   H5R10842   3.222   6.409   2.233
   84DPPC   H5S10843   3.388   6.351   2.197
   84DPPC   C2610844   3.249   6.194   2.251
   84DPPC   H6R10845   3.295   6.111   2.194
   84DPPC   H6S10846   3.138   6.179   2.250
   84DPPC   C2710847   3.296   6.186   2.397
   84DPPC   H7R10848   3.248   6.097   2.444
   84DPPC   H7S10849   3.260   6.276   2.452
   84DPPC   C2810850   3.448   6.173   2.414
   84DPPC   H8R10851   3.499   6.259   2.366
   84DPPC   H8S10852   3.482   6.080   2.364
   84DPPC   C2910853   3.489   6.167   2.562
   84DPPC   H9R10854   3.430   6.088   2.613
   84DPPC   H9S10855   3.464   6.264   2.610
   84DPPC  C21010856   3.638   6.139   2.586
   84DPPC  H10R10857   3.699   6.216   2.535
   84DPPC  H10S10858   3.664   6.040   2.542
   84DPPC  C21110859   3.673   6.137   2.736
   84DPPC  H11R10860   3.609   6.062   2.787
   84DPPC  H11S10861   3.649   6.237   2.778
   84DPPC  C21210862   3.821   6.104   2.766
   84DPPC  H12R10863   3.886   6.180   2.717
   84DPPC  H12S10864   3.844   6.005   2.721
   84DPPC  C21310865   3.853   6.098   2.916
   84DPPC  H13R10866   3.959   6.064   2.927
   84DPPC  H13S10867   3.788   6.022   2.964
   84DPPC  C21410868   3.838   6.232   2.989
   84DPPC  H14R10869   3.732   6.266   2.984
   84DPPC  H14S10870   3.900   6.308   2.936
   84DPPC  C21510871   3.881   6.229   3.137
   84DPPC  H15R10872   3.878   6.334   3.176
   84DPPC  H15S10873   3.987   6.195   3.142
   84DPPC  C21610874   3.796   6.141   3.228
   84DPPC  H16R10875   3.690   6.173   3.225
   84DPPC  H16S10876   3.832   6.149   3.333
   84DPPC  H16T10877   3.802   6.035   3.197
   84DPPC   C3310878   3.713   6.038   2.099
   84DPPC   H3X10879   3.772   5.982   2.023
   84DPPC   H3Y10880   3.737   5.994   2.198
   84DPPC   C3410881   3.759   6.185   2.104
   84DPPC   H4X10882   3.706   6.234   2.188
   84DPPC   H4Y10883   3.728   6.236   2.010
   84DPPC   C3510884   3.911   6.200   2.122
   84DPPC   H5X10885   3.960   6.164   2.029
   84DPPC   H5Y10886   3.944   6.135   2.206
   84DPPC   C3610887   3.957   6.344   2.149
   84DPPC   H6X10888   3.904   6.411   2.078
   84DPPC   H6Y10889   4.065   6.352   2.127
   84DPPC   C3710890   3.931   6.394   2.293
   84DPPC   H7X10891   3.824   6.377   2.319
   84DPPC   H7Y10892   3.949   0.085   2.295
   84DPPC   C3810893   4.019   6.330   2.402
   84DPPC   H8X10894   3.997   6.222   2.411
   84DPPC   H8Y10895   3.990   6.378   2.499
   84DPPC   C3910896   4.170   6.350   2.379
   84DPPC   H9X10897   4.187   0.036   2.346
   84DPPC   H9Y10898   4.202   6.282   2.297
   84DPPC  C31010899   4.258   6.324   2.502
   84DPPC  H10X10900   4.364   6.334   2.470
   84DPPC  H10Y10901   4.244   6.220   2.539
   84DPPC  C31110902   4.236   0.005   2.617
   84DPPC  H11X10903   4.142   6.398   2.671
   84DPPC  H11Y10904   4.224   0.107   2.574
   84DPPC  C31210905   4.352   0.011   2.717
   84DPPC  H12X10906   4.445   0.038   2.662
   84DPPC  H12Y10907   4.367   6.329   2.763
   84DPPC  C31310908   4.329   0.114   2.829
   84DPPC  H13X10909   4.244   0.081   2.892
   84DPPC  H13Y10910   4.301   0.210   2.781
   84DPPC  C31410911   4.452   0.136   2.918
   84DPPC  H14X10912   4.536   0.173   2.854
   84DPPC  H14Y10913   4.483   0.039   2.962
   84DPPC  C31510914   4.429   0.237   3.032
   84DPPC  H15X10915   4.524   0.248   3.089
   84DPPC  H15Y10916   4.353   0.195   3.101
   84DPPC  C31610917   4.382   0.376   2.987
   84DPPC  H16X10918   4.283   0.371   2.938
   84DPPC  H16Y10919   4.455   0.421   2.916
   84DPPC  H16Z10920   4.373   0.443   3.075
   85DPPC     N10921   6.144   2.898   1.438
   85DPPC   C1310922   6.183   2.787   1.529
   85DPPC  H13A10923   6.276   2.809   1.578
   85DPPC  H13B10924   6.192   2.696   1.471
   85DPPC  H13C10925   6.105   2.773   1.604
   85DPPC   C1410926   6.124   3.021   1.520
   85DPPC  H14A10927   6.052   3.001   1.598
   85DPPC  H14B10928   6.087   3.101   1.457
   85DPPC  H14C10929   6.218   3.052   1.564
   85DPPC   C1510930   6.256   2.920   1.344
   85DPPC  H15A10931   6.231   2.998   1.274
   85DPPC  H15B10932   6.278   2.829   1.290
   85DPPC  H15C10933   0.042   2.950   1.398
   85DPPC   C1210934   6.020   2.861   1.362
   85DPPC  H12A10935   5.940   2.846   1.433
   85DPPC  H12B10936   6.039   2.764   1.316
   85DPPC   C1110937   5.971   2.956   1.252
   85DPPC  H11A10938   5.891   2.903   1.194
   85DPPC  H11B10939   6.053   2.973   1.178
   85DPPC     P10940   5.778   3.101   1.331
   85DPPC   O1310941   5.705   3.079   1.204
   85DPPC   O1410942   5.753   3.230   1.400
   85DPPC   O1110943   5.747   2.981   1.430
   85DPPC   O1210944   5.932   3.083   1.305
   85DPPC    C110945   5.660   3.005   1.542
   85DPPC    HA10946   5.564   3.048   1.507
   85DPPC    HB10947   5.707   3.075   1.614
   85DPPC    C210948   5.625   2.874   1.618
   85DPPC    HS10949   5.592   2.800   1.542
   85DPPC   O2110950   5.518   2.909   1.707
   85DPPC   C2110951   5.460   2.804   1.761
   85DPPC   O2210952   5.486   2.688   1.734
   85DPPC   C2210953   5.358   2.851   1.864
   85DPPC   H2R10954   5.311   2.763   1.912
   85DPPC   H2S10955   5.280   2.910   1.812
   85DPPC    C310956   5.751   2.819   1.693
   85DPPC    HX10957   5.830   2.807   1.614
   85DPPC    HY10958   5.729   2.719   1.735
   85DPPC   O3110959   5.793   2.909   1.798
   85DPPC   C3110960   5.920   2.900   1.833
   85DPPC   O3210961   6.001   2.824   1.781
   85DPPC   C3210962   5.954   2.996   1.948
   85DPPC   H2X10963   6.015   3.079   1.907
   85DPPC   H2Y10964   6.015   2.940   2.021
   85DPPC   C2310965   5.427   2.938   1.972
   85DPPC   H3R10966   5.488   3.018   1.924
   85DPPC   H3S10967   5.495   2.874   2.032
   85DPPC   C2410968   5.325   3.007   2.064
   85DPPC   H4R10969   5.259   3.071   2.001
   85DPPC   H4S10970   5.262   2.929   2.111
   85DPPC   C2510971   5.386   3.093   2.175
   85DPPC   H5R10972   5.301   3.138   2.232
   85DPPC   H5S10973   5.445   3.176   2.130
   85DPPC   C2610974   5.474   3.015   2.273
   85DPPC   H6R10975   5.574   2.997   2.228
   85DPPC   H6S10976   5.427   2.916   2.293
   85DPPC   C2710977   5.490   3.088   2.408
   85DPPC   H7R10978   5.389   3.099   2.453
   85DPPC   H7S10979   5.531   3.190   2.391
   85DPPC   C2810980   5.581   3.014   2.508
   85DPPC   H8R10981   5.686   3.023   2.475
   85DPPC   H8S10982   5.554   2.906   2.508
   85DPPC   C2910983   5.564   3.069   2.650
   85DPPC   H9R10984   5.461   3.044   2.683
   85DPPC   H9S10985   5.575   3.179   2.649
   85DPPC  C21010986   5.663   3.011   2.753
   85DPPC  H10R10987   5.670   2.900   2.740
   85DPPC  H10S10988   5.621   3.031   2.854
   85DPPC  C21110989   5.803   3.073   2.748
   85DPPC  H11R10990   5.793   3.183   2.763
   85DPPC  H11S10991   5.846   3.057   2.647
   85DPPC  C21210992   5.897   3.016   2.854
   85DPPC  H12R10993   5.916   2.909   2.829
   85DPPC  H12S10994   5.847   3.019   2.953
   85DPPC  C21310995   6.032   3.090   2.866
   85DPPC  H13R10996   6.097   3.032   2.935
   85DPPC  H13S10997   6.014   3.189   2.911
   85DPPC  C21410998   6.106   3.108   2.733
   85DPPC  H14R10999   6.050   3.180   2.669
   85DPPC  H14S11000   6.109   3.010   2.679
   85DPPC  C21511001   6.251   3.158   2.748
   85DPPC  H15R11002   6.294   3.168   2.645
   85DPPC  H15S11003   0.007   3.080   2.801
   85DPPC  C21611004   6.268   3.291   2.821
   85DPPC  H16R11005   6.211   3.371   2.768
   85DPPC  H16S11006   0.072   3.320   2.824
   85DPPC  H16T11007   6.230   3.284   2.925
   85DPPC   C3311008   5.828   3.053   2.016
   85DPPC   H3X11009   5.763   2.969   2.052
   85DPPC   H3Y11010   5.770   3.113   1.943
   85DPPC   C3411011   5.859   3.143   2.137
   85DPPC   H4X11012   5.763   3.189   2.172
   85DPPC   H4Y11013   5.926   3.226   2.103
   85DPPC   C3511014   5.923   3.070   2.255
   85DPPC   H5X11015   6.022   3.029   2.225
   85DPPC   H5Y11016   5.858   2.983   2.282
   85DPPC   C3611017   5.941   3.156   2.381
   85DPPC   H6X11018   5.984   3.093   2.462
   85DPPC   H6Y11019   5.840   3.189   2.416
   85DPPC   C3711020   6.029   3.281   2.364
   85DPPC   H7X11021   6.025   3.339   2.459
   85DPPC   H7Y11022   5.986   3.346   2.284
   85DPPC   C3811023   6.176   3.250   2.331
   85DPPC   H8X11024   6.180   3.183   2.243
   85DPPC   H8Y11025   6.222   3.197   2.417
   85DPPC   C3911026   6.260   3.375   2.297
   85DPPC   H9X11027   6.218   3.422   2.206
   85DPPC   H9Y11028   0.060   3.341   2.273
   85DPPC  C31011029   6.268   3.479   2.410
   85DPPC  H10X11030   0.012   3.434   2.499
   85DPPC  H10Y11031   6.165   3.511   2.437
   85DPPC  C31111032   0.043   3.605   2.368
   85DPPC  H11X11033   6.300   3.645   2.275
   85DPPC  H11Y11034   0.148   3.578   2.344
   85DPPC  C31211035   0.041   3.717   2.474
   85DPPC  H12X11036   6.239   3.732   2.507
   85DPPC  H12Y11037   0.075   3.811   2.425
   85DPPC  C31311038   0.132   3.690   2.595
   85DPPC  H13X11039   0.236   3.681   2.558
   85DPPC  H13Y11040   0.104   3.594   2.644
   85DPPC  C31411041   0.127   3.803   2.699
   85DPPC  H14X11042   0.131   3.901   2.645
   85DPPC  H14Y11043   0.217   3.797   2.764
   85DPPC  C31511044   0.003   3.800   2.790
   85DPPC  H15X11045   0.008   3.708   2.853
   85DPPC  H15Y11046   6.215   3.792   2.727
   85DPPC  C31611047   6.291   3.922   2.881
   85DPPC  H16X11048   0.080   3.937   2.942
   85DPPC  H16Y11049   6.205   3.908   2.950
   85DPPC  H16Z11050   6.274   4.013   2.821
   86DPPC     N11051   1.841   0.661   1.178
   86DPPC   C1311052   1.972   0.667   1.108
   86DPPC  H13A11053   2.041   0.595   1.150
   86DPPC  H13B11054   2.015   0.766   1.118
   86DPPC  H13C11055   1.959   0.647   1.002
   86DPPC   C1411056   1.752   0.762   1.116
   86DPPC  H14A11057   1.739   0.740   1.011
   86DPPC  H14B11058   1.795   0.860   1.126
   86DPPC  H14C11059   1.656   0.760   1.166
   86DPPC   C1511060   1.783   0.525   1.158
   86DPPC  H15A11061   1.846   0.451   1.206
   86DPPC  H15B11062   1.776   0.503   1.053
   86DPPC  H15C11063   1.684   0.521   1.202
   86DPPC   C1211064   1.862   0.689   1.324
   86DPPC  H12A11065   1.892   0.793   1.333
   86DPPC  H12B11066   1.946   0.629   1.357
   86DPPC   C1111067   1.745   0.662   1.420
   86DPPC  H11A11068   1.780   0.697   1.521
   86DPPC  H11B11069   1.728   0.552   1.425
   86DPPC     P11070   1.512   0.731   1.484
   86DPPC   O1311071   1.497   0.594   1.538
   86DPPC   O1411072   1.390   0.789   1.421
   86DPPC   O1111073   1.565   0.830   1.596
   86DPPC   O1211074   1.628   0.730   1.378
   86DPPC    C111075   1.625   0.955   1.558
   86DPPC    HA11076   1.550   1.021   1.508
   86DPPC    HB11077   1.708   0.939   1.486
   86DPPC    C211078   1.685   1.034   1.679
   86DPPC    HS11079   1.754   1.113   1.638
   86DPPC   O2111080   1.754   0.950   1.772
   86DPPC   C2111081   1.868   0.902   1.726
   86DPPC   O2211082   1.916   0.929   1.617
   86DPPC   C2211083   1.933   0.812   1.831
   86DPPC   H2R11084   1.971   0.875   1.914
   86DPPC   H2S11085   2.020   0.762   1.783
   86DPPC    C311086   1.573   1.109   1.757
   86DPPC    HX11087   1.505   1.030   1.795
   86DPPC    HY11088   1.514   1.173   1.688
   86DPPC   O3111089   1.622   1.185   1.871
   86DPPC   C3111090   1.679   1.301   1.839
   86DPPC   O3211091   1.686   1.347   1.726
   86DPPC   C3211092   1.736   1.365   1.965
   86DPPC   H2X11093   1.654   1.392   2.034
   86DPPC   H2Y11094   1.790   1.457   1.937
   86DPPC   C2311095   1.836   0.705   1.884
   86DPPC   H3R11096   1.878   0.605   1.858
   86DPPC   H3S11097   1.736   0.711   1.835
   86DPPC   C2411098   1.815   0.707   2.037
   86DPPC   H4R11099   1.913   0.693   2.088
   86DPPC   H4S11100   1.751   0.620   2.063
   86DPPC   C2511101   1.747   0.834   2.091
   86DPPC   H5R11102   1.657   0.856   2.030
   86DPPC   H5S11103   1.817   0.920   2.081
   86DPPC   C2611104   1.704   0.819   2.238
   86DPPC   H6R11105   1.792   0.789   2.299
   86DPPC   H6S11106   1.630   0.736   2.243
   86DPPC   C2711107   1.642   0.945   2.299
   86DPPC   H7R11108   1.564   0.983   2.231
   86DPPC   H7S11109   1.720   1.024   2.309
   86DPPC   C2811110   1.579   0.918   2.436
   86DPPC   H8R11111   1.656   0.879   2.506
   86DPPC   H8S11112   1.502   0.839   2.423
   86DPPC   C2911113   1.511   1.041   2.500
   86DPPC   H9R11114   1.449   1.091   2.423
   86DPPC   H9S11115   1.589   1.113   2.533
   86DPPC  C21011116   1.420   1.002   2.618
   86DPPC  H10R11117   1.483   0.962   2.701
   86DPPC  H10S11118   1.353   0.921   2.585
   86DPPC  C21111119   1.331   1.117   2.671
   86DPPC  H11R11120   1.264   1.075   2.748
   86DPPC  H11S11121   1.268   1.153   2.587
   86DPPC  C21211122   1.407   1.237   2.730
   86DPPC  H12R11123   1.332   1.310   2.768
   86DPPC  H12S11124   1.465   1.287   2.649
   86DPPC  C21311125   1.504   1.202   2.845
   86DPPC  H13R11126   1.549   1.297   2.882
   86DPPC  H13S11127   1.586   1.139   2.805
   86DPPC  C21411128   1.440   1.129   2.964
   86DPPC  H14R11129   1.403   1.030   2.930
   86DPPC  H14S11130   1.353   1.188   3.000
   86DPPC  C21511131   1.538   1.107   3.080
   86DPPC  H15R11132   1.574   1.206   3.115
   86DPPC  H15S11133   1.626   1.050   3.042
   86DPPC  C21611134   1.478   1.031   3.199
   86DPPC  H16R11135   1.442   0.931   3.167
   86DPPC  H16S11136   1.393   1.088   3.242
   86DPPC  H16T11137   1.555   1.017   3.278
   86DPPC   C3311138   1.834   1.268   2.036
   86DPPC   H3X11139   1.906   1.227   1.962
   86DPPC   H3Y11140   1.776   1.183   2.078
   86DPPC   C3411141   1.913   1.335   2.149
   86DPPC   H4X11142   1.842   1.396   2.209
   86DPPC   H4Y11143   1.988   1.404   2.105
   86DPPC   C3511144   1.983   1.237   2.244
   86DPPC   H5X11145   1.904   1.177   2.294
   86DPPC   H5Y11146   2.035   1.296   2.323
   86DPPC   C3611147   2.085   1.143   2.178
   86DPPC   H6X11148   2.163   1.206   2.130
   86DPPC   H6Y11149   2.036   1.082   2.099
   86DPPC   C3711150   2.153   1.048   2.279
   86DPPC   H7X11151   2.190   1.109   2.364
   86DPPC   H7Y11152   2.242   1.001   2.230
   86DPPC   C3811153   2.061   0.937   2.331
   86DPPC   H8X11154   2.040   0.866   2.248
   86DPPC   H8Y11155   1.964   0.982   2.363
   86DPPC   C3911156   2.117   0.860   2.451
   86DPPC   H9X11157   2.135   0.931   2.534
   86DPPC   H9Y11158   2.215   0.814   2.424
   86DPPC  C31011159   2.020   0.751   2.499
   86DPPC  H10X11160   2.012   0.672   2.421
   86DPPC  H10Y11161   1.919   0.797   2.511
   86DPPC  C31111162   2.057   0.686   2.633
   86DPPC  H11X11163   1.974   0.617   2.660
   86DPPC  H11Y11164   2.063   0.764   2.712
   86DPPC  C31211165   2.189   0.607   2.632
   86DPPC  H12X11166   2.273   0.678   2.619
   86DPPC  H12Y11167   2.189   0.536   2.546
   86DPPC  C31311168   2.213   0.526   2.761
   86DPPC  H13X11169   2.204   0.594   2.849
   86DPPC  H13Y11170   2.317   0.487   2.759
   86DPPC  C31411171   2.117   0.407   2.777
   86DPPC  H14X11172   2.127   0.344   2.687
   86DPPC  H14Y11173   2.012   0.443   2.782
   86DPPC  C31511174   2.144   0.319   2.901
   86DPPC  H15X11175   2.249   0.286   2.899
   86DPPC  H15Y11176   2.079   0.229   2.893
   86DPPC  C31611177   2.114   0.387   3.035
   86DPPC  H16X11178   2.178   0.477   3.048
   86DPPC  H16Y11179   2.134   0.317   3.119
   86DPPC  H16Z11180   2.008   0.418   3.040
   87DPPC     N11181   1.010   4.553   1.009
   87DPPC   C1311182   1.103   4.456   0.945
   87DPPC  H13A11183   1.116   4.371   1.010
   87DPPC  H13B11184   1.200   4.502   0.928
   87DPPC  H13C11185   1.063   4.422   0.851
   87DPPC   C1411186   1.071   4.598   1.136
   87DPPC  H14A11187   1.097   4.512   1.197
   87DPPC  H14B11188   1.001   4.660   1.191
   87DPPC  H14C11189   1.161   4.656   1.116
   87DPPC   C1511190   0.996   4.671   0.918
   87DPPC  H15A11191   0.927   4.742   0.962
   87DPPC  H15B11192   0.961   4.639   0.821
   87DPPC  H15C11193   1.092   4.719   0.907
   87DPPC   C1211194   0.877   4.486   1.030
   87DPPC  H12A11195   0.893   4.401   1.095
   87DPPC  H12B11196   0.844   4.448   0.934
   87DPPC   C1111197   0.762   4.570   1.090
   87DPPC  H11A11198   0.670   4.508   1.090
   87DPPC  H11B11199   0.744   4.658   1.024
   87DPPC     P11200   0.712   4.723   1.286
   87DPPC   O1311201   0.568   4.700   1.260
   87DPPC   O1411202   0.770   4.851   1.239
   87DPPC   O1111203   0.740   4.705   1.439
   87DPPC   O1211204   0.795   4.606   1.223
   87DPPC    C111205   0.690   4.590   1.510
   87DPPC    HA11206   0.768   4.558   1.583
   87DPPC    HB11207   0.671   4.503   1.443
   87DPPC    C211208   0.561   4.622   1.591
   87DPPC    HS11209   0.485   4.654   1.517
   87DPPC   O2111210   0.594   4.727   1.684
   87DPPC   C2111211   0.487   4.789   1.729
   87DPPC   O2211212   0.373   4.770   1.691
   87DPPC   C2211213   0.527   4.892   1.836
   87DPPC   H2R11214   0.459   4.881   1.923
   87DPPC   H2S11215   0.514   4.993   1.793
   87DPPC    C311216   0.508   4.493   1.664
   87DPPC    HX11217   0.486   4.421   1.583
   87DPPC    HY11218   0.412   4.514   1.714
   87DPPC   O3111219   0.606   4.432   1.752
   87DPPC   C3111220   0.603   4.475   1.878
   87DPPC   O3211221   0.522   4.555   1.922
   87DPPC   C3211222   0.715   4.410   1.958
   87DPPC   H2X11223   0.813   4.440   1.914
   87DPPC   H2Y11224   0.705   4.300   1.952
   87DPPC   C2311225   0.673   4.878   1.886
   87DPPC   H3R11226   0.743   4.880   1.800
   87DPPC   H3S11227   0.685   4.780   1.938
   87DPPC   C2411228   0.714   4.991   1.981
   87DPPC   H4R11229   0.641   4.999   2.065
   87DPPC   H4S11230   0.708   5.087   1.924
   87DPPC   C2511231   0.856   4.978   2.038
   87DPPC   H5R11232   0.924   4.941   1.958
   87DPPC   H5S11233   0.891   5.079   2.068
   87DPPC   C2611234   0.866   4.887   2.162
   87DPPC   H6R11235   0.831   4.785   2.136
   87DPPC   H6S11236   0.799   4.928   2.240
   87DPPC   C2711237   1.009   4.879   2.218
   87DPPC   H7R11238   1.049   4.982   2.230
   87DPPC   H7S11239   1.074   4.825   2.146
   87DPPC   C2811240   1.016   4.809   2.355
   87DPPC   H8R11241   0.970   4.708   2.347
   87DPPC   H8S11242   0.957   4.868   2.428
   87DPPC   C2911243   1.160   4.793   2.407
   87DPPC   H9R11244   1.212   4.891   2.408
   87DPPC   H9S11245   1.215   4.727   2.335
   87DPPC  C21011246   1.169   4.728   2.547
   87DPPC  H10R11247   1.273   4.693   2.564
   87DPPC  H10S11248   1.102   4.639   2.549
   87DPPC  C21111249   1.131   4.822   2.663
   87DPPC  H11R11250   1.119   4.760   2.755
   87DPPC  H11S11251   1.033   4.870   2.643
   87DPPC  C21211252   1.237   4.929   2.693
   87DPPC  H12R11253   1.251   4.995   2.604
   87DPPC  H12S11254   1.334   4.877   2.711
   87DPPC  C21311255   1.207   5.017   2.816
   87DPPC  H13R11256   1.299   5.076   2.839
   87DPPC  H13S11257   1.185   4.951   2.902
   87DPPC  C21411258   1.091   5.116   2.794
   87DPPC  H14R11259   0.997   5.060   2.778
   87DPPC  H14S11260   1.112   5.175   2.702
   87DPPC  C21511261   1.072   5.215   2.911
   87DPPC  H15R11262   0.993   5.288   2.881
   87DPPC  H15S11263   1.167   5.272   2.925
   87DPPC  C21611264   1.032   5.152   3.045
   87DPPC  H16R11265   1.018   5.231   3.122
   87DPPC  H16S11266   1.111   5.082   3.080
   87DPPC  H16T11267   0.937   5.096   3.034
   87DPPC   C3311268   0.707   4.457   2.104
   87DPPC   H3X11269   0.609   4.426   2.146
   87DPPC   H3Y11270   0.713   4.568   2.108
   87DPPC   C3411271   0.816   4.400   2.196
   87DPPC   H4X11272   0.916   4.434   2.162
   87DPPC   H4Y11273   0.813   4.289   2.191
   87DPPC   C3511274   0.794   4.444   2.342
   87DPPC   H5X11275   0.692   4.412   2.374
   87DPPC   H5Y11276   0.798   4.555   2.348
   87DPPC   C3611277   0.896   4.385   2.440
   87DPPC   H6X11278   0.999   4.417   2.412
   87DPPC   H6Y11279   0.892   4.274   2.433
   87DPPC   C3711280   0.868   4.426   2.586
   87DPPC   H7X11281   0.762   4.402   2.609
   87DPPC   H7Y11282   0.881   4.536   2.596
   87DPPC   C3811283   0.959   4.354   2.687
   87DPPC   H8X11284   1.065   4.375   2.661
   87DPPC   H8Y11285   0.943   4.245   2.677
   87DPPC   C3911286   0.935   4.394   2.834
   87DPPC   H9X11287   0.972   4.498   2.850
   87DPPC   H9Y11288   0.995   4.326   2.898
   87DPPC  C31011289   0.788   4.388   2.879
   87DPPC  H10X11290   0.741   4.296   2.839
   87DPPC  H10Y11291   0.734   4.475   2.838
   87DPPC  C31111292   0.774   4.387   3.032
   87DPPC  H11X11293   0.837   4.469   3.074
   87DPPC  H11Y11294   0.813   4.291   3.072
   87DPPC  C31211295   0.630   4.408   3.083
   87DPPC  H12X11296   0.589   4.502   3.040
   87DPPC  H12Y11297   0.634   4.420   3.194
   87DPPC  C31311298   0.535   4.292   3.052
   87DPPC  H13X11299   0.580   4.198   3.091
   87DPPC  H13Y11300   0.522   4.281   2.942
   87DPPC  C31411301   0.397   4.310   3.117
   87DPPC  H14X11302   0.347   4.399   3.073
   87DPPC  H14Y11303   0.411   4.328   3.226
   87DPPC  C31511304   0.305   4.188   3.100
   87DPPC  H15X11305   0.357   4.099   3.141
   87DPPC  H15Y11306   0.288   4.170   2.992
   87DPPC  C31611307   0.169   4.203   3.170
   87DPPC  H16X11308   0.107   4.113   3.153
   87DPPC  H16Y11309   0.115   4.292   3.130
   87DPPC  H16Z11310   0.183   4.217   3.279
   88DPPC     N11311   3.356   5.359   1.811
   88DPPC   C1311312   3.425   5.245   1.876
   88DPPC  H13A11313   3.501   5.282   1.943
   88DPPC  H13B11314   3.471   5.182   1.802
   88DPPC  H13C11315   3.353   5.187   1.934
   88DPPC   C1411316   3.295   5.444   1.916
   88DPPC  H14A11317   3.227   5.385   1.977
   88DPPC  H14B11318   3.238   5.523   1.869
   88DPPC  H14C11319   3.372   5.486   1.979
   88DPPC   C1511320   3.460   5.438   1.738
   88DPPC  H15A11321   3.510   5.374   1.667
   88DPPC  H15B11322   3.532   5.477   1.809
   88DPPC  H15C11323   3.413   5.521   1.687
   88DPPC   C1211324   3.252   5.308   1.715
   88DPPC  H12A11325   3.171   5.268   1.774
   88DPPC  H12B11326   3.296   5.227   1.658
   88DPPC   C1111327   3.194   5.409   1.613
   88DPPC  H11A11328   3.107   5.362   1.562
   88DPPC  H11B11329   3.274   5.425   1.535
   88DPPC     P11330   3.166   5.660   1.595
   88DPPC   O1311331   3.100   5.639   1.464
   88DPPC   O1411332   3.308   5.699   1.591
   88DPPC   O1111333   3.085   5.766   1.678
   88DPPC   O1211334   3.153   5.528   1.679
   88DPPC    C111335   2.966   5.734   1.751
   88DPPC    HA11336   2.943   5.625   1.750
   88DPPC    HB11337   2.879   5.785   1.704
   88DPPC    C211338   2.973   5.778   1.900
   88DPPC    HS11339   2.977   5.889   1.897
   88DPPC   O2111340   3.091   5.721   1.959
   88DPPC   C2111341   3.133   5.789   2.064
   88DPPC   O2211342   3.087   5.896   2.101
   88DPPC   C2211343   3.248   5.716   2.131
   88DPPC   H2R11344   3.338   5.723   2.066
   88DPPC   H2S11345   3.222   5.609   2.144
   88DPPC    C311346   2.843   5.733   1.976
   88DPPC    HX11347   2.850   5.623   1.991
   88DPPC    HY11348   2.755   5.749   1.909
   88DPPC   O3111349   2.822   5.795   2.105
   88DPPC   C3111350   2.786   5.924   2.096
   88DPPC   O3211351   2.758   5.980   1.991
   88DPPC   C3211352   2.784   5.989   2.233
   88DPPC   H2X11353   2.857   5.938   2.300
   88DPPC   H2Y11354   2.682   5.979   2.277
   88DPPC   C2311355   3.279   5.778   2.269
   88DPPC   H3R11356   3.188   5.771   2.333
   88DPPC   H3S11357   3.304   5.885   2.257
   88DPPC   C2411358   3.395   5.708   2.342
   88DPPC   H4R11359   3.487   5.720   2.280
   88DPPC   H4S11360   3.373   5.600   2.351
   88DPPC   C2511361   3.420   5.767   2.481
   88DPPC   H5R11362   3.331   5.747   2.545
   88DPPC   H5S11363   3.431   5.877   2.472
   88DPPC   C2611364   3.546   5.713   2.552
   88DPPC   H6R11365   3.554   5.768   2.649
   88DPPC   H6S11366   3.636   5.738   2.491
   88DPPC   C2711367   3.544   5.562   2.579
   88DPPC   H7R11368   3.546   5.508   2.482
   88DPPC   H7S11369   3.448   5.535   2.630
   88DPPC   C2811370   3.662   5.511   2.665
   88DPPC   H8R11371   3.756   5.529   2.609
   88DPPC   H8S11372   3.651   5.401   2.678
   88DPPC   C2911373   3.675   5.576   2.804
   88DPPC   H9R11374   3.699   5.684   2.791
   88DPPC   H9S11375   3.761   5.529   2.856
   88DPPC  C21011376   3.551   5.560   2.893
   88DPPC  H10R11377   3.533   5.452   2.911
   88DPPC  H10S11378   3.461   5.601   2.841
   88DPPC  C21111379   3.562   5.632   3.029
   88DPPC  H11R11380   3.655   5.598   3.080
   88DPPC  H11S11381   3.475   5.600   3.091
   88DPPC  C21211382   3.562   5.785   3.018
   88DPPC  H12R11383   3.479   5.817   2.951
   88DPPC  H12S11384   3.658   5.817   2.970
   88DPPC  C21311385   3.548   5.858   3.152
   88DPPC  H13R11386   3.571   5.966   3.135
   88DPPC  H13S11387   3.623   5.819   3.224
   88DPPC  C21411388   3.408   5.850   3.214
   88DPPC  H14R11389   3.383   5.744   3.235
   88DPPC  H14S11390   3.334   5.888   3.139
   88DPPC  C21511391   3.393   5.931   3.343
   88DPPC  H15R11392   3.423   6.037   3.322
   88DPPC  H15S11393   3.464   5.890   3.419
   88DPPC  C21611394   3.252   5.931   3.402
   88DPPC  H16R11395   3.180   5.977   3.330
   88DPPC  H16S11396   3.249   5.990   3.496
   88DPPC  H16T11397   3.219   5.828   3.424
   88DPPC   C3311398   2.823   6.138   2.219
   88DPPC   H3X11399   2.748   6.190   2.155
   88DPPC   H3Y11400   2.921   6.143   2.168
   88DPPC   C3411401   2.835   6.213   2.352
   88DPPC   H4X11402   2.879   6.313   2.332
   88DPPC   H4Y11403   2.905   6.158   2.419
   88DPPC   C3511404   2.701   6.232   2.424
   88DPPC   H5X11405   2.655   6.133   2.440
   88DPPC   H5Y11406   2.632   6.290   2.358
   88DPPC   C3611407   2.712   6.303   2.559
   88DPPC   H6X11408   2.743   6.409   2.541
   88DPPC   H6Y11409   2.790   6.254   2.621
   88DPPC   C3711410   2.578   6.302   2.635
   88DPPC   H7X11411   2.555   6.199   2.670
   88DPPC   H7Y11412   2.500   6.331   2.562
   88DPPC   C3811413   2.568   6.401   2.752
   88DPPC   H8X11414   2.460   0.002   2.769
   88DPPC   H8Y11415   2.616   0.078   2.722
   88DPPC   C3911416   2.626   6.353   2.887
   88DPPC   H9X11417   2.582   6.256   2.915
   88DPPC   H9Y11418   2.593   0.010   2.963
   88DPPC  C31011419   2.779   6.345   2.894
   88DPPC  H10X11420   2.821   0.006   2.828
   88DPPC  H10Y11421   2.813   6.247   2.854
   88DPPC  C31111422   2.836   6.369   3.035
   88DPPC  H11X11423   2.806   0.052   3.067
   88DPPC  H11Y11424   2.947   6.368   3.030
   88DPPC  C31211425   2.791   6.269   3.143
   88DPPC  H12X11426   2.680   6.267   3.148
   88DPPC  H12Y11427   2.829   6.307   3.241
   88DPPC  C31311428   2.844   6.126   3.124
   88DPPC  H13X11429   2.954   6.130   3.108
   88DPPC  H13Y11430   2.797   6.080   3.034
   88DPPC  C31411431   2.816   6.036   3.247
   88DPPC  H14X11432   2.707   6.031   3.264
   88DPPC  H14Y11433   2.862   6.084   3.336
   88DPPC  C31511434   2.872   5.894   3.233
   88DPPC  H15X11435   2.980   5.900   3.210
   88DPPC  H15Y11436   2.821   5.844   3.148
   88DPPC  C31611437   2.854   5.808   3.359
   88DPPC  H16X11438   2.746   5.802   3.386
   88DPPC  H16Y11439   2.909   5.852   3.444
   88DPPC  H16Z11440   2.892   5.705   3.341
   89DPPC     N11441   0.510   3.252   1.050
   89DPPC   C1311442   0.422   3.196   0.943
   89DPPC  H13A11443   0.326   3.246   0.945
   89DPPC  H13B11444   0.407   3.091   0.960
   89DPPC  H13C11445   0.468   3.210   0.846
   89DPPC   C1411446   0.522   3.399   1.030
   89DPPC  H14A11447   0.423   3.443   1.031
   89DPPC  H14B11448   0.571   3.421   0.937
   89DPPC  H14C11449   0.578   3.441   1.113
   89DPPC   C1511450   0.444   3.229   1.181
   89DPPC  H15A11451   0.430   3.123   1.197
   89DPPC  H15B11452   0.348   3.279   1.182
   89DPPC  H15C11453   0.507   3.271   1.259
   89DPPC   C1211454   0.646   3.186   1.040
   89DPPC  H12A11455   0.685   3.207   0.941
   89DPPC  H12B11456   0.630   3.079   1.046
   89DPPC   C1111457   0.755   3.223   1.143
   89DPPC  H11A11458   0.772   3.333   1.141
   89DPPC  H11B11459   0.849   3.173   1.108
   89DPPC     P11460   0.830   3.187   1.382
   89DPPC   O1311461   0.891   3.322   1.379
   89DPPC   O1411462   0.922   3.072   1.366
   89DPPC   O1111463   0.750   3.165   1.516
   89DPPC   O1211464   0.717   3.178   1.272
   89DPPC    C111465   0.646   3.253   1.560
   89DPPC    HA11466   0.553   3.238   1.501
   89DPPC    HB11467   0.677   3.360   1.547
   89DPPC    C211468   0.615   3.232   1.711
   89DPPC    HS11469   0.548   3.314   1.747
   89DPPC   O2111470   0.738   3.226   1.786
   89DPPC   C2111471   0.792   3.345   1.801
   89DPPC   O2211472   0.733   3.451   1.782
   89DPPC   C2211473   0.938   3.333   1.844
   89DPPC   H2R11474   0.977   3.434   1.866
   89DPPC   H2S11475   0.996   3.290   1.759
   89DPPC    C311476   0.535   3.100   1.734
   89DPPC    HX11477   0.591   3.015   1.688
   89DPPC    HY11478   0.439   3.108   1.678
   89DPPC   O3111479   0.504   3.077   1.874
   89DPPC   C3111480   0.589   3.000   1.940
   89DPPC   O3211481   0.680   2.936   1.889
   89DPPC   C3211482   0.560   3.005   2.090
   89DPPC   H2X11483   0.540   2.902   2.126
   89DPPC   H2Y11484   0.472   3.069   2.110
   89DPPC   C2311485   0.953   3.242   1.967
   89DPPC   H3R11486   0.910   3.142   1.946
   89DPPC   H3S11487   0.898   3.286   2.053
   89DPPC   C2411488   1.100   3.223   2.008
   89DPPC   H4R11489   1.142   3.321   2.040
   89DPPC   H4S11490   1.157   3.189   1.919
   89DPPC   C2511491   1.121   3.119   2.120
   89DPPC   H5R11492   1.079   3.022   2.087
   89DPPC   H5S11493   1.065   3.152   2.210
   89DPPC   C2611494   1.269   3.100   2.156
   89DPPC   H6R11495   1.309   3.195   2.199
   89DPPC   H6S11496   1.325   3.081   2.062
   89DPPC   C2711497   1.299   2.984   2.253
   89DPPC   H7R11498   1.408   2.983   2.271
   89DPPC   H7S11499   1.271   2.889   2.203
   89DPPC   C2811500   1.227   2.990   2.389
   89DPPC   H8R11501   1.263   2.905   2.450
   89DPPC   H8S11502   1.118   2.978   2.374
   89DPPC   C2911503   1.252   3.120   2.467
   89DPPC   H9R11504   1.206   3.205   2.411
   89DPPC   H9S11505   1.361   3.139   2.474
   89DPPC  C21011506   1.192   3.118   2.609
   89DPPC  H10R11507   1.248   3.044   2.671
   89DPPC  H10S11508   1.087   3.085   2.603
   89DPPC  C21111509   1.197   3.256   2.677
   89DPPC  H11R11510   1.147   3.329   2.610
   89DPPC  H11S11511   1.303   3.287   2.688
   89DPPC  C21211512   1.129   3.261   2.814
   89DPPC  H12R11513   1.186   3.196   2.884
   89DPPC  H12S11514   1.026   3.220   2.805
   89DPPC  C21311515   1.121   3.403   2.872
   89DPPC  H13R11516   1.054   3.465   2.808
   89DPPC  H13S11517   1.222   3.449   2.866
   89DPPC  C21411518   1.075   3.410   3.018
   89DPPC  H14R11519   1.079   3.516   3.052
   89DPPC  H14S11520   1.147   3.353   3.081
   89DPPC  C21511521   0.934   3.356   3.045
   89DPPC  H15R11522   0.915   3.362   3.155
   89DPPC  H15S11523   0.930   3.248   3.017
   89DPPC  C21611524   0.821   3.429   2.973
   89DPPC  H16R11525   0.831   3.419   2.863
   89DPPC  H16S11526   0.822   3.538   2.999
   89DPPC  H16T11527   0.722   3.387   3.002
   89DPPC   C3311528   0.685   3.062   2.160
   89DPPC   H3X11529   0.704   3.165   2.122
   89DPPC   H3Y11530   0.774   3.000   2.134
   89DPPC   C3411531   0.674   3.068   2.313
   89DPPC   H4X11532   0.653   2.965   2.351
   89DPPC   H4Y11533   0.588   3.133   2.341
   89DPPC   C3511534   0.802   3.122   2.378
   89DPPC   H5X11535   0.824   3.223   2.335
   89DPPC   H5Y11536   0.887   3.055   2.352
   89DPPC   C3611537   0.795   3.136   2.531
   89DPPC   H6X11538   0.713   3.207   2.557
   89DPPC   H6Y11539   0.890   3.182   2.566
   89DPPC   C3711540   0.772   3.004   2.606
   89DPPC   H7X11541   0.843   2.927   2.569
   89DPPC   H7Y11542   0.669   2.969   2.584
   89DPPC   C3811543   0.788   3.019   2.758
   89DPPC   H8X11544   0.897   3.027   2.782
   89DPPC   H8Y11545   0.739   3.114   2.789
   89DPPC   C3911546   0.726   2.904   2.837
   89DPPC   H9X11547   0.773   2.808   2.807
   89DPPC   H9Y11548   0.618   2.899   2.812
   89DPPC  C31011549   0.739   2.922   2.989
   89DPPC  H10X11550   0.712   3.027   3.015
   89DPPC  H10Y11551   0.845   2.906   3.019
   89DPPC  C31111552   0.649   2.829   3.072
   89DPPC  H11X11553   0.543   2.847   3.043
   89DPPC  H11Y11554   0.660   2.854   3.179
   89DPPC  C31211555   0.680   2.679   3.054
   89DPPC  H12X11556   0.785   2.660   3.084
   89DPPC  H12Y11557   0.670   2.652   2.947
   89DPPC  C31311558   0.587   2.589   3.137
   89DPPC  H13X11559   0.482   2.611   3.108
   89DPPC  H13Y11560   0.599   2.614   3.244
   89DPPC  C31411561   0.613   2.439   3.116
   89DPPC  H14X11562   0.717   2.416   3.147
   89DPPC  H14Y11563   0.604   2.415   3.008
   89DPPC  C31511564   0.516   2.350   3.195
   89DPPC  H15X11565   0.412   2.375   3.165
   89DPPC  H15Y11566   0.526   2.374   3.304
   89DPPC  C31611567   0.539   2.200   3.176
   89DPPC  H16X11568   0.464   2.142   3.235
   89DPPC  H16Y11569   0.640   2.171   3.210
   89DPPC  H16Z11570   0.528   2.173   3.069
   90DPPC     N11571   3.662   1.078   0.923
   90DPPC   C1311572   3.563   1.164   0.851
   90DPPC  H13A11573   3.512   1.229   0.921
   90DPPC  H13B11574   3.490   1.101   0.801
   90DPPC  H13C11575   3.613   1.224   0.777
   90DPPC   C1411576   3.731   0.993   0.823
   90DPPC  H14A11577   3.804   0.931   0.873
   90DPPC  H14B11578   3.781   1.055   0.750
   90DPPC  H14C11579   3.660   0.930   0.772
   90DPPC   C1511580   3.761   1.166   0.990
   90DPPC  H15A11581   3.710   1.234   1.056
   90DPPC  H15B11582   3.818   1.221   0.916
   90DPPC  H15C11583   3.827   1.103   1.049
   90DPPC   C1211584   3.591   0.992   1.024
   90DPPC  H12A11585   3.500   0.954   0.977
   90DPPC  H12B11586   3.562   1.055   1.106
   90DPPC   C1111587   3.668   0.869   1.079
   90DPPC  H11A11588   3.671   0.793   0.998
   90DPPC  H11B11589   3.607   0.828   1.163
   90DPPC     P11590   3.887   0.785   1.168
   90DPPC   O1311591   4.016   0.834   1.223
   90DPPC   O1411592   3.899   0.691   1.055
   90DPPC   O1111593   3.804   0.716   1.283
   90DPPC   O1211594   3.798   0.906   1.123
   90DPPC    C111595   3.757   0.791   1.395
   90DPPC    HA11596   3.649   0.767   1.411
   90DPPC    HB11597   3.762   0.902   1.380
   90DPPC    C211598   3.832   0.757   1.527
   90DPPC    HS11599   3.937   0.792   1.514
   90DPPC   O2111600   3.823   0.615   1.544
   90DPPC   C2111601   3.925   0.563   1.610
   90DPPC   O2211602   4.021   0.626   1.652
   90DPPC   C2211603   3.905   0.413   1.625
   90DPPC   H2R11604   3.979   0.360   1.561
   90DPPC   H2S11605   3.804   0.387   1.589
   90DPPC    C311606   3.766   0.834   1.646
   90DPPC    HX11607   3.656   0.821   1.634
   90DPPC    HY11608   3.786   0.943   1.635
   90DPPC   O3111609   3.799   0.783   1.778
   90DPPC   C3111610   3.895   0.848   1.843
   90DPPC   O3211611   3.966   0.935   1.796
   90DPPC   C3211612   3.898   0.798   1.987
   90DPPC   H2X11613   3.925   0.690   1.990
   90DPPC   H2Y11614   3.796   0.810   2.029
   90DPPC   C2311615   3.919   0.369   1.772
   90DPPC   H3R11616   3.857   0.278   1.786
   90DPPC   H3S11617   3.878   0.447   1.839
   90DPPC   C2411618   4.063   0.332   1.812
   90DPPC   H4R11619   4.131   0.417   1.791
   90DPPC   H4S11620   4.096   0.246   1.749
   90DPPC   C2511621   4.077   0.293   1.960
   90DPPC   H5R11622   4.178   0.247   1.975
   90DPPC   H5S11623   4.001   0.215   1.985
   90DPPC   C2611624   4.063   0.412   2.055
   90DPPC   H6R11625   3.962   0.456   2.045
   90DPPC   H6S11626   4.137   0.490   2.026
   90DPPC   C2711627   4.086   0.377   2.203
   90DPPC   H7R11628   4.186   0.329   2.215
   90DPPC   H7S11629   4.008   0.304   2.235
   90DPPC   C2811630   4.079   0.501   2.293
   90DPPC   H8R11631   3.982   0.552   2.277
   90DPPC   H8S11632   4.160   0.572   2.262
   90DPPC   C2911633   4.096   0.472   2.443
   90DPPC   H9R11634   4.193   0.420   2.460
   90DPPC   H9S11635   4.014   0.404   2.476
   90DPPC  C21011636   4.091   0.601   2.527
   90DPPC  H10R11637   3.993   0.651   2.509
   90DPPC  H10S11638   4.171   0.669   2.491
   90DPPC  C21111639   4.108   0.579   2.678
   90DPPC  H11R11640   4.208   0.533   2.696
   90DPPC  H11S11641   4.031   0.508   2.714
   90DPPC  C21211642   4.098   0.710   2.757
   90DPPC  H12R11643   3.995   0.750   2.746
   90DPPC  H12S11644   4.168   0.784   2.712
   90DPPC  C21311645   4.130   0.694   2.906
   90DPPC  H13R11646   4.237   0.667   2.917
   90DPPC  H13S11647   4.070   0.610   2.947
   90DPPC  C21411648   4.100   0.820   2.990
   90DPPC  H14R11649   4.129   0.799   3.096
   90DPPC  H14S11650   3.991   0.839   2.988
   90DPPC  C21511651   4.173   0.947   2.944
   90DPPC  H15R11652   4.139   0.973   2.841
   90DPPC  H15S11653   4.282   0.926   2.939
   90DPPC  C21611654   4.149   1.068   3.034
   90DPPC  H16R11655   4.185   1.046   3.137
   90DPPC  H16S11656   4.041   1.093   3.039
   90DPPC  H16T11657   4.205   1.156   2.996
   90DPPC   C3311658   3.996   0.880   2.072
   90DPPC   H3X11659   3.966   0.868   2.179
   90DPPC   H3Y11660   3.988   0.989   2.048
   90DPPC   C3411661   4.142   0.834   2.059
   90DPPC   H4X11662   4.171   0.831   1.952
   90DPPC   H4Y11663   4.149   0.731   2.099
   90DPPC   C3511664   4.243   0.923   2.134
   90DPPC   H5X11665   4.253   1.019   2.079
   90DPPC   H5Y11666   4.342   0.873   2.133
   90DPPC   C3611667   4.203   0.954   2.279
   90DPPC   H6X11668   4.168   0.861   2.329
   90DPPC   H6Y11669   4.119   1.027   2.278
   90DPPC   C3711670   4.318   1.014   2.363
   90DPPC   H7X11671   4.375   1.086   2.301
   90DPPC   H7Y11672   4.387   0.932   2.393
   90DPPC   C3811673   4.266   1.087   2.487
   90DPPC   H8X11674   4.192   1.022   2.540
   90DPPC   H8Y11675   4.214   1.179   2.453
   90DPPC   C3911676   4.376   1.125   2.587
   90DPPC   H9X11677   4.462   1.168   2.532
   90DPPC   H9Y11678   4.410   1.033   2.640
   90DPPC  C31011679   4.329   1.229   2.690
   90DPPC  H10X11680   4.234   1.193   2.738
   90DPPC  H10Y11681   4.307   1.324   2.638
   90DPPC  C31111682   4.432   1.254   2.801
   90DPPC  H11X11683   4.531   1.273   2.753
   90DPPC  H11Y11684   4.440   1.162   2.863
   90DPPC  C31211685   4.398   1.373   2.891
   90DPPC  H12X11686   4.288   1.371   2.912
   90DPPC  H12Y11687   4.420   1.467   2.837
   90DPPC  C31311688   4.470   1.375   3.027
   90DPPC  H13X11689   4.440   1.286   3.086
   90DPPC  H13Y11690   4.433   1.465   3.082
   90DPPC  C31411691   4.624   1.383   3.022
   90DPPC  H14X11692   4.657   1.420   3.122
   90DPPC  H14Y11693   4.655   1.457   2.946
   90DPPC  C31511694   4.695   1.249   2.999
   90DPPC  H15X11695   4.679   1.215   2.894
   90DPPC  H15Y11696   4.649   1.172   3.066
   90DPPC  C31611697   4.845   1.253   3.024
   90DPPC  H16X11698   4.890   1.153   3.005
   90DPPC  H16Y11699   4.866   1.281   3.130
   90DPPC  H16Z11700   4.894   1.327   2.957
   91DPPC     N11701   0.750   2.782   1.274
   91DPPC   C1311702   0.689   2.647   1.258
   91DPPC  H13A11703   0.731   2.599   1.171
   91DPPC  H13B11704   0.582   2.657   1.247
   91DPPC  H13C11705   0.711   2.587   1.345
   91DPPC   C1411706   0.896   2.767   1.297
   91DPPC  H14A11707   0.915   2.703   1.382
   91DPPC  H14B11708   0.939   2.865   1.314
   91DPPC  H14C11709   0.942   2.723   1.209
   91DPPC   C1511710   0.732   2.860   1.149
   91DPPC  H15A11711   0.627   2.873   1.129
   91DPPC  H15B11712   0.779   2.808   1.067
   91DPPC  H15C11713   0.779   2.957   1.161
   91DPPC   C1211714   0.689   2.853   1.392
   91DPPC  H12A11715   0.757   2.933   1.419
   91DPPC  H12B11716   0.687   2.783   1.475
   91DPPC   C1111717   0.549   2.915   1.376
   91DPPC  H11A11718   0.553   2.998   1.303
   91DPPC  H11B11719   0.525   2.960   1.476
   91DPPC     P11720   0.308   2.842   1.379
   91DPPC   O1311721   0.219   2.740   1.319
   91DPPC   O1411722   0.271   2.984   1.359
   91DPPC   O1111723   0.318   2.818   1.533
   91DPPC   O1211724   0.456   2.817   1.332
   91DPPC    C111725   0.358   2.694   1.594
   91DPPC    HA11726   0.453   2.711   1.649
   91DPPC    HB11727   0.375   2.613   1.520
   91DPPC    C211728   0.252   2.646   1.697
   91DPPC    HS11729   0.163   2.616   1.637
   91DPPC   O2111730   0.220   2.756   1.783
   91DPPC   C2111731   0.105   2.741   1.845
   91DPPC   O2211732   0.025   2.652   1.824
   91DPPC   C2211733   0.088   2.855   1.945
   91DPPC   H2R11734   0.031   2.937   1.898
   91DPPC   H2S11735   0.188   2.893   1.973
   91DPPC    C311736   0.302   2.521   1.777
   91DPPC    HX11737   0.315   2.441   1.701
   91DPPC    HY11738   0.223   2.486   1.846
   91DPPC   O3111739   0.430   2.540   1.843
   91DPPC   C3111740   0.421   2.586   1.968
   91DPPC   O3211741   0.318   2.622   2.023
   91DPPC   C3211742   0.560   2.589   2.033
   91DPPC   H2X11743   0.607   2.687   2.010
   91DPPC   H2Y11744   0.623   2.509   1.991
   91DPPC   C2311745   0.015   2.805   2.071
   91DPPC   H3R11746   0.058   2.709   2.106
   91DPPC   H3S11747   6.211   2.788   2.046
   91DPPC   C2411748   0.024   2.905   2.188
   91DPPC   H4R11749   6.251   2.876   2.264
   91DPPC   H4S11750   6.301   3.007   2.151
   91DPPC   C2511751   0.161   2.908   2.258
   91DPPC   H5R11752   0.240   2.937   2.185
   91DPPC   H5S11753   0.184   2.806   2.295
   91DPPC   C2611754   0.163   3.006   2.375
   91DPPC   H6R11755   0.078   2.982   2.442
   91DPPC   H6S11756   0.148   3.110   2.337
   91DPPC   C2711757   0.292   3.004   2.460
   91DPPC   H7R11758   0.379   3.034   2.397
   91DPPC   H7S11759   0.309   2.900   2.496
   91DPPC   C2811760   0.279   3.098   2.580
   91DPPC   H8R11761   0.186   3.070   2.634
   91DPPC   H8S11762   0.267   3.203   2.543
   91DPPC   C2911763   0.394   3.094   2.682
   91DPPC   H9R11764   0.407   2.990   2.718
   91DPPC   H9S11765   0.489   3.127   2.635
   91DPPC  C21011766   0.361   3.185   2.802
   91DPPC  H10R11767   0.361   3.291   2.769
   91DPPC  H10S11768   0.258   3.160   2.835
   91DPPC  C21111769   0.456   3.170   2.923
   91DPPC  H11R11770   0.459   3.064   2.955
   91DPPC  H11S11771   0.558   3.200   2.891
   91DPPC  C21211772   0.414   3.258   3.042
   91DPPC  H12R11773   0.401   3.362   3.004
   91DPPC  H12S11774   0.496   3.261   3.117
   91DPPC  C21311775   0.285   3.213   3.113
   91DPPC  H13R11776   0.310   3.142   3.194
   91DPPC  H13S11777   0.221   3.157   3.040
   91DPPC  C21411778   0.199   3.329   3.166
   91DPPC  H14R11779   0.100   3.288   3.198
   91DPPC  H14S11780   0.180   3.400   3.082
   91DPPC  C21511781   0.259   3.407   3.284
   91DPPC  H15R11782   0.195   3.496   3.303
   91DPPC  H15S11783   0.360   3.443   3.257
   91DPPC  C21611784   0.268   3.327   3.415
   91DPPC  H16R11785   0.306   3.392   3.497
   91DPPC  H16S11786   0.337   3.241   3.404
   91DPPC  H16T11787   0.168   3.289   3.444
   91DPPC   C3311788   0.547   2.571   2.185
   91DPPC   H3X11789   0.507   2.469   2.206
   91DPPC   H3Y11790   0.474   2.645   2.226
   91DPPC   C3411791   0.680   2.589   2.261
   91DPPC   H4X11792   0.710   2.696   2.254
   91DPPC   H4Y11793   0.758   2.529   2.210
   91DPPC   C3511794   0.675   2.547   2.408
   91DPPC   H5X11795   0.774   2.568   2.455
   91DPPC   H5Y11796   0.659   2.437   2.413
   91DPPC   C3611797   0.565   2.615   2.491
   91DPPC   H6X11798   0.466   2.588   2.448
   91DPPC   H6Y11799   0.577   2.726   2.484
   91DPPC   C3711800   0.567   2.574   2.640
   91DPPC   H7X11801   0.665   2.604   2.683
   91DPPC   H7Y11802   0.560   2.464   2.647
   91DPPC   C3811803   0.455   2.637   2.724
   91DPPC   H8X11804   0.463   2.748   2.720
   91DPPC   H8Y11805   0.471   2.606   2.830
   91DPPC   C3911806   0.314   2.595   2.681
   91DPPC   H9X11807   0.309   2.484   2.677
   91DPPC   H9Y11808   0.294   2.633   2.578
   91DPPC  C31011809   0.200   2.645   2.772
   91DPPC  H10X11810   0.104   2.616   2.725
   91DPPC  H10Y11811   0.204   2.756   2.776
   91DPPC  C31111812   0.204   2.588   2.915
   91DPPC  H11X11813   0.291   2.631   2.970
   91DPPC  H11Y11814   0.219   2.478   2.908
   91DPPC  C31211815   0.075   2.613   2.995
   91DPPC  H12X11816   0.084   2.564   3.094
   91DPPC  H12Y11817   6.295   2.563   2.941
   91DPPC  C31311818   0.038   2.761   3.015
   91DPPC  H13X11819   6.242   2.766   3.066
   91DPPC  H13Y11820   0.026   2.810   2.916
   91DPPC  C31411821   0.138   2.843   3.098
   91DPPC  H14X11822   0.104   2.949   3.100
   91DPPC  H14Y11823   0.238   2.841   3.049
   91DPPC  C31511824   0.152   2.795   3.244
   91DPPC  H15X11825   0.190   2.691   3.244
   91DPPC  H15Y11826   0.051   2.794   3.290
   91DPPC  C31611827   0.245   2.881   3.330
   91DPPC  H16X11828   0.348   2.881   3.288
   91DPPC  H16Y11829   0.248   2.841   3.434
   91DPPC  H16Z11830   0.208   2.986   3.334
   92DPPC     N11831   5.349   4.392   1.312
   92DPPC   C1311832   5.209   4.439   1.290
   92DPPC  H13A11833   5.179   4.501   1.373
   92DPPC  H13B11834   5.143   4.353   1.285
   92DPPC  H13C11835   5.203   4.495   1.199
   92DPPC   C1411836   5.385   4.305   1.196
   92DPPC  H14A11837   5.485   4.266   1.209
   92DPPC  H14B11838   5.378   4.361   1.104
   92DPPC  H14C11839   5.316   4.222   1.191
   92DPPC   C1511840   5.439   4.510   1.316
   92DPPC  H15A11841   5.432   4.566   1.224
   92DPPC  H15B11842   5.541   4.478   1.330
   92DPPC  H15C11843   5.410   4.574   1.399
   92DPPC   C1211844   5.357   4.316   1.442
   92DPPC  H12A11845   5.298   4.226   1.431
   92DPPC  H12B11846   5.308   4.376   1.518
   92DPPC   C1111847   5.496   4.276   1.497
   92DPPC  H11A11848   5.480   4.216   1.589
   92DPPC  H11B11849   5.550   4.368   1.528
   92DPPC     P11850   5.709   4.233   1.356
   92DPPC   O1311851   5.729   4.380   1.360
   92DPPC   O1411852   5.730   4.171   1.224
   92DPPC   O1111853   5.800   4.162   1.463
   92DPPC   O1211854   5.564   4.197   1.401
   92DPPC    C111855   5.801   4.020   1.482
   92DPPC    HA11856   5.905   3.989   1.505
   92DPPC    HB11857   5.772   3.964   1.389
   92DPPC    C211858   5.712   3.969   1.600
   92DPPC    HS11859   5.606   3.977   1.565
   92DPPC   O2111860   5.739   4.052   1.714
   92DPPC   C2111861   5.636   4.058   1.797
   92DPPC   O2211862   5.524   4.015   1.773
   92DPPC   C2211863   5.678   4.121   1.929
   92DPPC   H2R11864   5.640   4.225   1.935
   92DPPC   H2S11865   5.789   4.123   1.936
   92DPPC    C311866   5.743   3.818   1.631
   92DPPC    HX11867   5.854   3.812   1.641
   92DPPC    HY11868   5.717   3.757   1.542
   92DPPC   O3111869   5.687   3.766   1.754
   92DPPC   C3111870   5.568   3.707   1.741
   92DPPC   O3211871   5.503   3.702   1.637
   92DPPC   C3211872   5.527   3.646   1.875
   92DPPC   H2X11873   5.509   3.728   1.948
   92DPPC   H2Y11874   5.610   3.583   1.911
   92DPPC   C2311875   5.621   4.037   2.044
   92DPPC   H3R11876   5.641   3.929   2.022
   92DPPC   H3S11877   5.511   4.050   2.050
   92DPPC   C2411878   5.684   4.069   2.181
   92DPPC   H4R11879   5.666   4.176   2.205
   92DPPC   H4S11880   5.794   4.055   2.171
   92DPPC   C2511881   5.635   3.981   2.297
   92DPPC   H5R11882   5.530   4.008   2.323
   92DPPC   H5S11883   5.698   4.004   2.386
   92DPPC   C2611884   5.642   3.831   2.268
   92DPPC   H6R11885   5.729   3.812   2.201
   92DPPC   H6S11886   5.550   3.799   2.214
   92DPPC   C2711887   5.661   3.743   2.393
   92DPPC   H7R11888   5.575   3.758   2.462
   92DPPC   H7S11889   5.753   3.776   2.446
   92DPPC   C2811890   5.675   3.594   2.358
   92DPPC   H8R11891   5.749   3.583   2.277
   92DPPC   H8S11892   5.577   3.557   2.320
   92DPPC   C2911893   5.720   3.504   2.475
   92DPPC   H9R11894   5.824   3.531   2.503
   92DPPC   H9S11895   5.722   3.399   2.437
   92DPPC  C21011896   5.629   3.509   2.599
   92DPPC  H10R11897   5.607   3.404   2.631
   92DPPC  H10S11898   5.532   3.556   2.571
   92DPPC  C21111899   5.688   3.583   2.719
   92DPPC  H11R11900   5.609   3.597   2.795
   92DPPC  H11S11901   5.722   3.684   2.687
   92DPPC  C21211902   5.806   3.509   2.785
   92DPPC  H12R11903   5.885   3.490   2.709
   92DPPC  H12S11904   5.770   3.410   2.821
   92DPPC  C21311905   5.868   3.585   2.903
   92DPPC  H13R11906   5.791   3.602   2.980
   92DPPC  H13S11907   5.903   3.685   2.867
   92DPPC  C21411908   5.988   3.510   2.964
   92DPPC  H14R11909   6.066   3.500   2.886
   92DPPC  H14S11910   5.955   3.408   2.994
   92DPPC  C21511911   6.048   3.581   3.087
   92DPPC  H15R11912   5.971   3.586   3.166
   92DPPC  H15S11913   6.076   3.685   3.058
   92DPPC  C21611914   6.172   3.511   3.144
   92DPPC  H16R11915   6.209   3.566   3.233
   92DPPC  H16S11916   6.253   3.508   3.068
   92DPPC  H16T11917   6.147   3.407   3.174
   92DPPC   C3311918   5.400   3.560   1.860
   92DPPC   H3X11919   5.412   3.492   1.773
   92DPPC   H3Y11920   5.312   3.625   1.842
   92DPPC   C3411921   5.372   3.469   1.982
   92DPPC   H4X11922   5.462   3.405   2.000
   92DPPC   H4Y11923   5.287   3.402   1.957
   92DPPC   C3511924   5.337   3.543   2.112
   92DPPC   H5X11925   5.245   3.603   2.096
   92DPPC   H5Y11926   5.420   3.613   2.138
   92DPPC   C3611927   5.316   3.448   2.231
   92DPPC   H6X11928   5.409   3.391   2.248
   92DPPC   H6Y11929   5.235   3.376   2.205
   92DPPC   C3711930   5.278   3.520   2.362
   92DPPC   H7X11931   5.180   3.572   2.347
   92DPPC   H7Y11932   5.355   3.597   2.384
   92DPPC   C3811933   5.266   3.426   2.484
   92DPPC   H8X11934   5.363   3.372   2.495
   92DPPC   H8Y11935   5.187   3.351   2.464
   92DPPC   C3911936   5.235   3.500   2.615
   92DPPC   H9X11937   5.142   3.561   2.600
   92DPPC   H9Y11938   5.318   3.570   2.637
   92DPPC  C31011939   5.214   3.409   2.738
   92DPPC  H10X11940   5.120   3.351   2.724
   92DPPC  H10Y11941   5.200   3.475   2.827
   92DPPC  C31111942   5.329   3.311   2.765
   92DPPC  H11X11943   5.425   3.366   2.770
   92DPPC  H11Y11944   5.334   3.242   2.678
   92DPPC  C31211945   5.311   3.226   2.892
   92DPPC  H12X11946   5.376   3.136   2.883
   92DPPC  H12Y11947   5.206   3.191   2.896
   92DPPC  C31311948   5.347   3.295   3.024
   92DPPC  H13X11949   5.321   3.224   3.106
   92DPPC  H13Y11950   5.284   3.386   3.038
   92DPPC  C31411951   5.495   3.332   3.038
   92DPPC  H14X11952   5.517   3.422   2.976
   92DPPC  H14Y11953   5.557   3.248   3.001
   92DPPC  C31511954   5.536   3.360   3.184
   92DPPC  H15X11955   5.520   3.267   3.243
   92DPPC  H15Y11956   5.468   3.437   3.225
   92DPPC  C31611957   5.680   3.406   3.203
   92DPPC  H16X11958   5.751   3.332   3.160
   92DPPC  H16Y11959   5.703   3.418   3.311
   92DPPC  H16Z11960   5.696   3.504   3.153
   93DPPC     N11961   5.554   5.394   1.317
   93DPPC   C1311962   5.555   5.467   1.187
   93DPPC  H13A11963   5.652   5.459   1.141
   93DPPC  H13B11964   5.534   5.572   1.205
   93DPPC  H13C11965   5.479   5.426   1.122
   93DPPC   C1411966   5.573   5.248   1.291
   93DPPC  H14A11967   5.575   5.194   1.384
   93DPPC  H14B11968   5.666   5.232   1.238
   93DPPC  H14C11969   5.490   5.212   1.232
   93DPPC   C1511970   5.666   5.444   1.400
   93DPPC  H15A11971   5.662   5.397   1.497
   93DPPC  H15B11972   5.657   5.552   1.412
   93DPPC  H15C11973   5.761   5.424   1.352
   93DPPC   C1211974   5.422   5.419   1.383
   93DPPC  H12A11975   5.346   5.406   1.307
   93DPPC  H12B11976   5.420   5.523   1.413
   93DPPC   C1111977   5.381   5.332   1.503
   93DPPC  H11A11978   5.369   5.227   1.469
   93DPPC  H11B11979   5.281   5.371   1.536
   93DPPC     P11980   5.438   5.268   1.739
   93DPPC   O1311981   5.436   5.121   1.714
   93DPPC   O1411982   5.312   5.325   1.792
   93DPPC   O1111983   5.557   5.306   1.834
   93DPPC   O1211984   5.478   5.343   1.607
   93DPPC    C111985   5.640   5.208   1.898
   93DPPC    HA11986   5.737   5.257   1.923
   93DPPC    HB11987   5.664   5.123   1.831
   93DPPC    C211988   5.580   5.155   2.032
   93DPPC    HS11989   5.484   5.105   2.005
   93DPPC   O2111990   5.561   5.269   2.117
   93DPPC   C2111991   5.456   5.260   2.197
   93DPPC   O2211992   5.383   5.163   2.207
   93DPPC   C2211993   5.441   5.393   2.270
   93DPPC   H2R11994   5.386   5.464   2.205
   93DPPC   H2S11995   5.542   5.434   2.291
   93DPPC    C311996   5.674   5.050   2.098
   93DPPC    HX11997   5.761   5.104   2.140
   93DPPC    HY11998   5.713   4.985   2.016
   93DPPC   O3111999   5.607   4.977   2.203
   93DPPC   C3112000   5.595   4.845   2.186
   93DPPC   O3212001   5.652   4.780   2.101
   93DPPC   C3212002   5.498   4.789   2.289
   93DPPC   H2X12003   5.404   4.761   2.236
   93DPPC   H2Y12004   5.473   4.865   2.366
   93DPPC   C2312005   5.366   5.376   2.403
   93DPPC   H3R12006   5.417   5.299   2.464
   93DPPC   H3S12007   5.262   5.343   2.385
   93DPPC   C2412008   5.364   5.509   2.482
   93DPPC   H4R12009   5.311   5.585   2.421
   93DPPC   H4S12010   5.468   5.543   2.496
   93DPPC   C2512011   5.297   5.502   2.620
   93DPPC   H5R12012   5.189   5.478   2.608
   93DPPC   H5S12013   5.305   5.603   2.666
   93DPPC   C2612014   5.360   5.400   2.717
   93DPPC   H6R12015   5.471   5.412   2.712
   93DPPC   H6S12016   5.335   5.297   2.683
   93DPPC   C2712017   5.317   5.417   2.863
   93DPPC   H7R12018   5.355   5.514   2.902
   93DPPC   H7S12019   5.364   5.336   2.923
   93DPPC   C2812020   5.165   5.412   2.885
   93DPPC   H8R12021   5.124   5.323   2.833
   93DPPC   H8S12022   5.117   5.502   2.839
   93DPPC   C2912023   5.126   5.405   3.034
   93DPPC   H9R12024   5.169   5.493   3.087
   93DPPC   H9S12025   5.174   5.314   3.075
   93DPPC  C21012026   4.974   5.401   3.058
   93DPPC  H10R12027   4.931   5.319   2.996
   93DPPC  H10S12028   4.930   5.496   3.024
   93DPPC  C21112029   4.934   5.376   3.205
   93DPPC  H11R12030   4.823   5.378   3.211
   93DPPC  H11S12031   4.974   5.459   3.268
   93DPPC  C21212032   4.984   5.241   3.258
   93DPPC  H12R12033   5.096   5.243   3.262
   93DPPC  H12S12034   4.954   5.161   3.187
   93DPPC  C21312035   4.934   5.204   3.398
   93DPPC  H13R12036   4.823   5.198   3.397
   93DPPC  H13S12037   4.964   5.283   3.470
   93DPPC  C21412038   4.992   5.070   3.444
   93DPPC  H14R12039   5.103   5.077   3.441
   93DPPC  H14S12040   4.962   4.991   3.371
   93DPPC  C21512041   4.951   5.026   3.585
   93DPPC  H15R12042   4.841   5.015   3.589
   93DPPC  H15S12043   4.980   5.107   3.656
   93DPPC  C21612044   5.018   4.896   3.629
   93DPPC  H16R12045   4.989   4.813   3.561
   93DPPC  H16S12046   4.987   4.869   3.732
   93DPPC  H16T12047   5.128   4.906   3.627
   93DPPC   C3312048   5.558   4.664   2.355
   93DPPC   H3X12049   5.594   4.592   2.279
   93DPPC   H3Y12050   5.476   4.614   2.411
   93DPPC   C3412051   5.671   4.696   2.455
   93DPPC   H4X12052   5.633   4.770   2.529
   93DPPC   H4Y12053   5.756   4.742   2.400
   93DPPC   C3512054   5.722   4.573   2.531
   93DPPC   H5X12055   5.754   4.496   2.458
   93DPPC   H5Y12056   5.638   4.530   2.591
   93DPPC   C3612057   5.839   4.605   2.625
   93DPPC   H6X12058   5.809   4.687   2.694
   93DPPC   H6Y12059   5.925   4.641   2.564
   93DPPC   C3712060   5.885   4.484   2.708
   93DPPC   H7X12061   5.913   4.401   2.640
   93DPPC   H7Y12062   5.800   4.449   2.771
   93DPPC   C3812063   6.005   4.517   2.799
   93DPPC   H8X12064   5.977   4.601   2.866
   93DPPC   H8Y12065   6.089   4.550   2.735
   93DPPC   C3912066   6.049   4.398   2.886
   93DPPC   H9X12067   6.076   4.313   2.820
   93DPPC   H9Y12068   5.963   4.366   2.948
   93DPPC  C31012069   6.168   4.429   2.980
   93DPPC  H10X12070   6.187   4.339   3.043
   93DPPC  H10Y12071   6.137   4.511   3.048
   93DPPC  C31112072   6.298   4.469   2.909
   93DPPC  H11X12073   0.068   4.502   2.987
   93DPPC  H11Y12074   6.279   4.556   2.843
   93DPPC  C31212075   0.060   4.357   2.827
   93DPPC  H12X12076   6.289   4.314   2.757
   93DPPC  H12Y12077   0.093   4.277   2.896
   93DPPC  C31312078   0.182   4.405   2.745
   93DPPC  H13X12079   0.245   4.470   2.810
   93DPPC  H13Y12080   0.145   4.467   2.661
   93DPPC  C31412081   0.271   4.292   2.691
   93DPPC  H14X12082   0.328   4.248   2.776
   93DPPC  H14Y12083   0.346   4.336   2.621
   93DPPC  C31512084   0.197   4.177   2.620
   93DPPC  H15X12085   0.132   4.126   2.693
   93DPPC  H15Y12086   0.274   4.103   2.586
   93DPPC  C31612087   0.113   4.218   2.498
   93DPPC  H16X12088   0.177   4.265   2.421
   93DPPC  H16Y12089   0.033   4.289   2.528
   93DPPC  H16Z12090   0.065   4.128   2.454
   94DPPC     N12091   5.416   1.812   1.420
   94DPPC   C1312092   5.519   1.813   1.313
   94DPPC  H13A12093   5.472   1.827   1.216
   94DPPC  H13B12094   5.574   1.720   1.315
   94DPPC  H13C12095   5.589   1.894   1.331
   94DPPC   C1412096   5.347   1.944   1.420
   94DPPC  H14A12097   5.268   1.944   1.494
   94DPPC  H14B12098   5.305   1.962   1.323
   94DPPC  H14C12099   5.418   2.022   1.444
   94DPPC   C1512100   5.315   1.706   1.390
   94DPPC  H15A12101   5.363   1.610   1.387
   94DPPC  H15B12102   5.271   1.726   1.293
   94DPPC  H15C12103   5.237   1.706   1.465
   94DPPC   C1212104   5.480   1.790   1.556
   94DPPC  H12A12105   5.407   1.816   1.631
   94DPPC  H12B12106   5.562   1.861   1.564
   94DPPC   C1112107   5.535   1.649   1.590
   94DPPC  H11A12108   5.448   1.581   1.604
   94DPPC  H11B12109   5.589   1.659   1.687
   94DPPC     P12110   5.681   1.459   1.508
   94DPPC   O1312111   5.786   1.433   1.407
   94DPPC   O1412112   5.568   1.363   1.509
   94DPPC   O1112113   5.746   1.464   1.652
   94DPPC   O1212114   5.622   1.603   1.487
   94DPPC    C112115   5.795   1.344   1.715
   94DPPC    HA12116   5.888   1.368   1.770
   94DPPC    HB12117   5.821   1.265   1.641
   94DPPC    C212118   5.694   1.283   1.818
   94DPPC    HS12119   5.596   1.276   1.765
   94DPPC   O2112120   5.685   1.374   1.930
   94DPPC   C2112121   5.581   1.350   2.007
   94DPPC   O2212122   5.500   1.260   1.991
   94DPPC   C2212123   5.575   1.452   2.121
   94DPPC   H2R12124   5.674   1.499   2.134
   94DPPC   H2S12125   5.548   1.398   2.214
   94DPPC    C312126   5.734   1.136   1.860
   94DPPC    HX12127   5.740   1.076   1.767
   94DPPC    HY12128   5.650   1.092   1.917
   94DPPC   O3112129   5.853   1.128   1.942
   94DPPC   C3112130   5.964   1.087   1.881
   94DPPC   O3212131   5.975   1.072   1.761
   94DPPC   C3212132   6.071   1.056   1.986
   94DPPC   H2X12133   6.054   0.952   2.021
   94DPPC   H2Y12134   6.060   1.125   2.072
   94DPPC   C2312135   5.468   1.557   2.088
   94DPPC   H3R12136   5.370   1.507   2.074
   94DPPC   H3S12137   5.495   1.606   1.991
   94DPPC   C2412138   5.453   1.667   2.194
   94DPPC   H4R12139   5.389   1.747   2.152
   94DPPC   H4S12140   5.553   1.711   2.216
   94DPPC   C2512141   5.389   1.619   2.325
   94DPPC   H5R12142   5.455   1.545   2.375
   94DPPC   H5S12143   5.293   1.568   2.300
   94DPPC   C2612144   5.357   1.733   2.423
   94DPPC   H6R12145   5.301   1.812   2.368
   94DPPC   H6S12146   5.452   1.778   2.459
   94DPPC   C2712147   5.272   1.689   2.543
   94DPPC   H7R12148   5.332   1.619   2.606
   94DPPC   H7S12149   5.184   1.632   2.505
   94DPPC   C2812150   5.219   1.804   2.630
   94DPPC   H8R12151   5.153   1.761   2.708
   94DPPC   H8S12152   5.158   1.872   2.567
   94DPPC   C2912153   5.329   1.886   2.701
   94DPPC   H9R12154   5.390   1.941   2.626
   94DPPC   H9S12155   5.396   1.814   2.753
   94DPPC  C21012156   5.275   1.984   2.806
   94DPPC  H10R12157   5.359   2.019   2.869
   94DPPC  H10S12158   5.203   1.930   2.871
   94DPPC  C21112159   5.206   2.109   2.747
   94DPPC  H11R12160   5.130   2.077   2.672
   94DPPC  H11S12161   5.282   2.171   2.695
   94DPPC  C21212162   5.136   2.193   2.856
   94DPPC  H12R12163   5.207   2.206   2.941
   94DPPC  H12S12164   5.048   2.136   2.893
   94DPPC  C21312165   5.091   2.333   2.810
   94DPPC  H13R12166   5.180   2.395   2.790
   94DPPC  H13S12167   5.035   2.380   2.894
   94DPPC  C21412168   5.000   2.335   2.686
   94DPPC  H14R12169   4.916   2.263   2.700
   94DPPC  H14S12170   5.059   2.302   2.597
   94DPPC  C21512171   4.941   2.474   2.659
   94DPPC  H15R12172   5.025   2.548   2.657
   94DPPC  H15S12173   4.875   2.502   2.744
   94DPPC  C21612174   4.863   2.486   2.528
   94DPPC  H16R12175   4.928   2.463   2.442
   94DPPC  H16S12176   4.822   2.588   2.517
   94DPPC  H16T12177   4.778   2.414   2.528
   94DPPC   C3312178   6.212   1.069   1.926
   94DPPC   H3X12179   6.233   1.177   1.910
   94DPPC   H3Y12180   6.217   1.018   1.827
   94DPPC   C3412181   0.019   1.009   2.014
   94DPPC   H4X12182   0.004   1.041   2.119
   94DPPC   H4Y12183   0.117   1.050   1.980
   94DPPC   C3512184   0.026   0.856   2.007
   94DPPC   H5X12185   0.044   0.826   1.901
   94DPPC   H5Y12186   6.231   0.813   2.037
   94DPPC   C3612187   0.135   0.795   2.095
   94DPPC   H6X12188   0.113   0.820   2.201
   94DPPC   H6Y12189   0.234   0.839   2.070
   94DPPC   C3712190   0.144   0.642   2.081
   94DPPC   H7X12191   0.177   0.616   1.978
   94DPPC   H7Y12192   0.042   0.600   2.095
   94DPPC   C3812193   0.238   0.576   2.183
   94DPPC   H8X12194   0.212   0.613   2.285
   94DPPC   H8Y12195   0.343   0.605   2.162
   94DPPC   C3912196   0.224   0.422   2.184
   94DPPC   H9X12197   0.255   0.382   2.085
   94DPPC   H9Y12198   0.117   0.399   2.199
   94DPPC  C31012199   0.303   0.351   2.296
   94DPPC  H10X12200   0.272   0.244   2.296
   94DPPC  H10Y12201   0.273   0.396   2.393
   94DPPC  C31112202   0.456   0.358   2.280
   94DPPC  H11X12203   0.489   0.463   2.286
   94DPPC  H11Y12204   0.482   0.319   2.178
   94DPPC  C31212205   0.533   0.275   2.384
   94DPPC  H12X12206   0.641   0.278   2.357
   94DPPC  H12Y12207   0.499   0.169   2.377
   94DPPC  C31312208   0.516   0.323   2.529
   94DPPC  H13X12209   0.408   0.320   2.555
   94DPPC  H13Y12210   0.548   0.430   2.535
   94DPPC  C31412211   0.592   0.240   2.633
   94DPPC  H14X12212   0.555   0.135   2.629
   94DPPC  H14Y12213   0.569   0.281   2.734
   94DPPC  C31512214   0.746   0.238   2.617
   94DPPC  H15X12215   0.771   0.186   2.522
   94DPPC  H15Y12216   0.788   0.176   2.700
   94DPPC  C31612217   0.814   0.375   2.618
   94DPPC  H16X12218   0.781   0.436   2.531
   94DPPC  H16Y12219   0.925   0.362   2.612
   94DPPC  H16Z12220   0.790   0.429   2.712
   95DPPC     N12221   6.213   1.915   1.256
   95DPPC   C1312222   0.000   1.858   1.152
   95DPPC  H13A12223   0.052   1.938   1.101
   95DPPC  H13B12224   6.245   1.802   1.080
   95DPPC  H13C12225   0.071   1.791   1.199
   95DPPC   C1412226   6.113   2.003   1.188
   95DPPC  H14A12227   6.163   2.082   1.134
   95DPPC  H14B12228   6.050   2.048   1.264
   95DPPC  H14C12229   6.052   1.944   1.121
   95DPPC   C1512230   6.142   1.804   1.323
   95DPPC  H15A12231   6.087   1.745   1.250
   95DPPC  H15B12232   6.070   1.844   1.393
   95DPPC  H15C12233   6.212   1.741   1.376
   95DPPC   C1212234   6.295   1.993   1.356
   95DPPC  H12A12235   0.032   2.079   1.304
   95DPPC  H12B12236   0.075   1.930   1.385
   95DPPC   C1112237   6.225   2.042   1.484
   95DPPC  H11A12238   6.300   2.102   1.541
   95DPPC  H11B12239   6.197   1.954   1.546
   95DPPC     P12240   6.062   2.227   1.549
   95DPPC   O1312241   5.917   2.252   1.531
   95DPPC   O1412242   6.153   2.343   1.532
   95DPPC   O1112243   6.088   2.165   1.692
   95DPPC   O1212244   6.107   2.114   1.452
   95DPPC    C112245   5.999   2.067   1.748
   95DPPC    HA12246   6.057   2.002   1.816
   95DPPC    HB12247   5.955   2.001   1.670
   95DPPC    C212248   5.883   2.130   1.831
   95DPPC    HS12249   5.823   2.193   1.761
   95DPPC   O2112250   5.942   2.211   1.935
   95DPPC   C2112251   5.856   2.297   1.987
   95DPPC   O2212252   5.737   2.302   1.961
   95DPPC   C2212253   5.928   2.390   2.085
   95DPPC   H2R12254   6.018   2.432   2.034
   95DPPC   H2S12255   5.961   2.332   2.174
   95DPPC    C312256   5.790   2.017   1.886
   95DPPC    HX12257   5.746   1.968   1.796
   95DPPC    HY12258   5.706   2.061   1.945
   95DPPC   O3112259   5.863   1.922   1.965
   95DPPC   C3112260   5.794   1.811   1.992
   95DPPC   O3212261   5.677   1.793   1.962
   95DPPC   C3212262   5.884   1.712   2.066
   95DPPC   H2X12263   5.823   1.659   2.141
   95DPPC   H2Y12264   5.965   1.768   2.118
   95DPPC   C2312265   5.835   2.505   2.127
   95DPPC   H3R12266   5.751   2.465   2.189
   95DPPC   H3S12267   5.791   2.550   2.035
   95DPPC   C2412268   5.904   2.619   2.203
   95DPPC   H4R12269   5.831   2.703   2.213
   95DPPC   H4S12270   5.990   2.656   2.143
   95DPPC   C2512271   5.953   2.584   2.345
   95DPPC   H5R12272   6.032   2.506   2.338
   95DPPC   H5S12273   5.868   2.542   2.403
   95DPPC   C2612274   6.010   2.707   2.418
   95DPPC   H6R12275   5.930   2.784   2.427
   95DPPC   H6S12276   6.090   2.750   2.354
   95DPPC   C2712277   6.069   2.680   2.557
   95DPPC   H7R12278   6.117   2.774   2.592
   95DPPC   H7S12279   6.147   2.602   2.550
   95DPPC   C2812280   5.966   2.638   2.664
   95DPPC   H8R12281   5.928   2.536   2.640
   95DPPC   H8S12282   5.880   2.708   2.661
   95DPPC   C2912283   6.026   2.639   2.805
   95DPPC   H9R12284   6.061   2.742   2.828
   95DPPC   H9S12285   6.114   2.572   2.808
   95DPPC  C21012286   5.928   2.596   2.915
   95DPPC  H10R12287   5.906   2.487   2.903
   95DPPC  H10S12288   5.832   2.651   2.904
   95DPPC  C21112289   5.982   2.622   3.057
   95DPPC  H11R12290   5.988   2.732   3.072
   95DPPC  H11S12291   6.086   2.582   3.064
   95DPPC  C21212292   5.899   2.561   3.170
   95DPPC  H12R12293   5.792   2.588   3.157
   95DPPC  H12S12294   5.934   2.605   3.266
   95DPPC  C21312295   5.913   2.408   3.180
   95DPPC  H13R12296   6.022   2.383   3.181
   95DPPC  H13S12297   5.868   2.362   3.090
   95DPPC  C21412298   5.847   2.349   3.305
   95DPPC  H14R12299   5.741   2.382   3.308
   95DPPC  H14S12300   5.898   2.389   3.395
   95DPPC  C21512301   5.850   2.195   3.311
   95DPPC  H15R12302   5.789   2.155   3.226
   95DPPC  H15S12303   5.800   2.163   3.405
   95DPPC  C21612304   5.989   2.131   3.305
   95DPPC  H16R12305   6.053   2.170   3.387
   95DPPC  H16S12306   6.038   2.153   3.208
   95DPPC  H16T12307   5.981   2.021   3.317
   95DPPC   C3312308   5.944   1.613   1.965
   95DPPC   H3X12309   6.002   1.669   1.888
   95DPPC   H3Y12310   5.862   1.559   1.913
   95DPPC   C3412311   6.038   1.509   2.029
   95DPPC   H4X12312   6.074   1.441   1.948
   95DPPC   H4Y12313   5.980   1.448   2.102
   95DPPC   C3512314   6.159   1.572   2.099
   95DPPC   H5X12315   6.125   1.630   2.187
   95DPPC   H5Y12316   6.208   1.643   2.028
   95DPPC   C3612317   6.266   1.471   2.145
   95DPPC   H6X12318   0.050   1.529   2.182
   95DPPC   H6Y12319   6.299   1.410   2.058
   95DPPC   C3712320   6.219   1.378   2.258
   95DPPC   H7X12321   6.139   1.311   2.220
   95DPPC   H7Y12322   6.176   1.441   2.339
   95DPPC   C3812323   0.031   1.294   2.315
   95DPPC   H8X12324   0.109   1.362   2.356
   95DPPC   H8Y12325   0.076   1.236   2.232
   95DPPC   C3912326   6.292   1.195   2.425
   95DPPC   H9X12327   0.077   1.131   2.450
   95DPPC   H9Y12328   6.212   1.129   2.386
   95DPPC  C31012329   6.243   1.262   2.554
   95DPPC  H10X12330   6.154   1.325   2.532
   95DPPC  H10Y12331   0.020   1.330   2.593
   95DPPC  C31112332   6.205   1.161   2.663
   95DPPC  H11X12333   6.298   1.116   2.704
   95DPPC  H11Y12334   6.145   1.079   2.617
   95DPPC  C31212335   6.123   1.220   2.779
   95DPPC  H12X12336   6.109   1.142   2.856
   95DPPC  H12Y12337   6.022   1.247   2.740
   95DPPC  C31312338   6.184   1.345   2.844
   95DPPC  H13X12339   6.180   1.430   2.772
   95DPPC  H13Y12340   6.291   1.325   2.868
   95DPPC  C31412341   6.110   1.386   2.973
   95DPPC  H14X12342   6.124   1.306   3.049
   95DPPC  H14Y12343   6.001   1.393   2.951
   95DPPC  C31512344   6.157   1.520   3.031
   95DPPC  H15X12345   6.138   1.600   2.956
   95DPPC  H15Y12346   6.267   1.515   3.048
   95DPPC  C31612347   6.088   1.557   3.162
   95DPPC  H16X12348   6.111   1.483   3.241
   95DPPC  H16Y12349   5.978   1.560   3.147
   95DPPC  H16Z12350   6.121   1.657   3.197
   96DPPC     N12351   5.992   3.393   0.994
   96DPPC   C1312352   6.109   3.444   0.918
   96DPPC  H13A12353   6.152   3.365   0.858
   96DPPC  H13B12354   6.185   3.480   0.987
   96DPPC  H13C12355   6.080   3.526   0.854
   96DPPC   C1412356   5.933   3.504   1.074
   96DPPC  H14A12357   5.909   3.588   1.010
   96DPPC  H14B12358   6.005   3.536   1.149
   96DPPC  H14C12359   5.844   3.471   1.124
   96DPPC   C1512360   5.889   3.346   0.896
   96DPPC  H15A12361   5.930   3.264   0.839
   96DPPC  H15B12362   5.864   3.427   0.829
   96DPPC  H15C12363   5.801   3.314   0.949
   96DPPC   C1212364   6.030   3.278   1.083
   96DPPC  H12A12365   6.053   3.194   1.019
   96DPPC  H12B12366   5.944   3.252   1.143
   96DPPC   C1112367   6.151   3.296   1.179
   96DPPC  H11A12368   6.243   3.307   1.119
   96DPPC  H11B12369   6.158   3.201   1.237
   96DPPC     P12370   6.216   3.412   1.395
   96DPPC   O1312371   6.222   3.551   1.445
   96DPPC   O1412372   0.045   3.346   1.374
   96DPPC   O1112373   6.130   3.323   1.492
   96DPPC   O1212374   6.133   3.410   1.261
   96DPPC    C112375   6.017   3.375   1.564
   96DPPC    HA12376   5.945   3.292   1.581
   96DPPC    HB12377   5.962   3.453   1.506
   96DPPC    C212378   6.056   3.432   1.704
   96DPPC    HS12379   6.117   3.523   1.684
   96DPPC   O2112380   6.127   3.328   1.773
   96DPPC   C2112381   6.235   3.370   1.835
   96DPPC   O2212382   6.269   3.486   1.846
   96DPPC   C2212383   0.008   3.249   1.892
   96DPPC   H2R12384   6.287   3.160   1.829
   96DPPC   H2S12385   6.278   3.229   1.995
   96DPPC    C312386   5.929   3.476   1.785
   96DPPC    HX12387   5.864   3.386   1.790
   96DPPC    HY12388   5.874   3.553   1.728
   96DPPC   O3112389   5.957   3.517   1.921
   96DPPC   C3112390   5.997   3.644   1.934
   96DPPC   O3212391   6.020   3.720   1.842
   96DPPC   C3212392   6.003   3.677   2.083
   96DPPC   H2X12393   6.065   3.602   2.136
   96DPPC   H2Y12394   5.899   3.672   2.123
   96DPPC   C2312395   0.160   3.273   1.887
   96DPPC   H3R12396   0.189   3.319   1.790
   96DPPC   H3S12397   0.210   3.173   1.891
   96DPPC   C2412398   0.215   3.355   2.004
   96DPPC   H4R12399   0.195   3.300   2.098
   96DPPC   H4S12400   0.162   3.453   2.009
   96DPPC   C2512401   0.366   3.383   1.992
   96DPPC   H5R12402   0.385   3.431   1.894
   96DPPC   H5S12403   0.421   3.287   1.995
   96DPPC   C2612404   0.421   3.476   2.102
   96DPPC   H6R12405   0.364   3.571   2.101
   96DPPC   H6S12406   0.527   3.499   2.077
   96DPPC   C2712407   0.417   3.415   2.243
   96DPPC   H7R12408   0.473   3.320   2.243
   96DPPC   H7S12409   0.311   3.393   2.271
   96DPPC   C2812410   0.477   3.508   2.349
   96DPPC   H8R12411   0.418   3.602   2.353
   96DPPC   H8S12412   0.581   3.535   2.318
   96DPPC   C2912413   0.482   3.446   2.490
   96DPPC   H9R12414   0.544   3.354   2.486
   96DPPC   H9S12415   0.378   3.415   2.518
   96DPPC  C21012416   0.536   3.539   2.599
   96DPPC  H10R12417   0.540   3.483   2.695
   96DPPC  H10S12418   0.464   3.623   2.613
   96DPPC  C21112419   0.675   3.599   2.572
   96DPPC  H11R12420   0.703   3.664   2.658
   96DPPC  H11S12421   0.669   3.665   2.482
   96DPPC  C21212422   0.786   3.495   2.551
   96DPPC  H12R12423   0.761   3.429   2.466
   96DPPC  H12S12424   0.791   3.431   2.642
   96DPPC  C21312425   0.926   3.556   2.529
   96DPPC  H13R12426   1.000   3.473   2.528
   96DPPC  H13S12427   0.950   3.622   2.615
   96DPPC  C21412428   0.942   3.636   2.398
   96DPPC  H14R12429   1.046   3.676   2.396
   96DPPC  H14S12430   0.872   3.722   2.398
   96DPPC  C21512431   0.921   3.553   2.270
   96DPPC  H15R12432   0.817   3.514   2.269
   96DPPC  H15S12433   0.990   3.466   2.272
   96DPPC  C21612434   0.945   3.632   2.141
   96DPPC  H16R12435   0.875   3.718   2.135
   96DPPC  H16S12436   0.928   3.567   2.052
   96DPPC  H16T12437   1.049   3.671   2.138
   96DPPC   C3312438   6.060   3.818   2.108
   96DPPC   H3X12439   6.011   3.892   2.041
   96DPPC   H3Y12440   6.169   3.818   2.086
   96DPPC   C3412441   6.037   3.865   2.253
   96DPPC   H4X12442   6.073   3.786   2.323
   96DPPC   H4Y12443   5.927   3.876   2.268
   96DPPC   C3512444   6.105   3.998   2.287
   96DPPC   H5X12445   6.095   4.067   2.201
   96DPPC   H5Y12446   6.213   3.979   2.304
   96DPPC   C3612447   6.046   4.069   2.411
   96DPPC   H6X12448   5.947   4.111   2.383
   96DPPC   H6Y12449   6.113   4.154   2.437
   96DPPC   C3712450   6.027   3.979   2.534
   96DPPC   H7X12451   6.121   3.924   2.554
   96DPPC   H7Y12452   5.948   3.904   2.512
   96DPPC   C3812453   5.987   4.057   2.660
   96DPPC   H8X12454   5.905   4.129   2.634
   96DPPC   H8Y12455   6.075   4.116   2.694
   96DPPC   C3912456   5.939   3.967   2.775
   96DPPC   H9X12457   6.012   3.886   2.791
   96DPPC   H9Y12458   5.842   3.921   2.746
   96DPPC  C31012459   5.920   4.043   2.907
   96DPPC  H10X12460   5.852   4.129   2.891
   96DPPC  H10Y12461   6.019   4.083   2.939
   96DPPC  C31112462   5.864   3.956   3.020
   96DPPC  H11X12463   5.927   3.865   3.032
   96DPPC  H11Y12464   5.762   3.922   2.991
   96DPPC  C31212465   5.855   4.029   3.155
   96DPPC  H12X12466   5.808   4.128   3.138
   96DPPC  H12Y12467   5.958   4.048   3.193
   96DPPC  C31312468   5.773   3.955   3.262
   96DPPC  H13X12469   5.669   3.946   3.224
   96DPPC  H13Y12470   5.769   4.019   3.353
   96DPPC  C31412471   5.822   3.815   3.300
   96DPPC  H14X12472   5.823   3.751   3.209
   96DPPC  H14Y12473   5.749   3.770   3.371
   96DPPC  C31512474   5.961   3.809   3.366
   96DPPC  H15X12475   6.037   3.850   3.295
   96DPPC  H15Y12476   5.987   3.702   3.383
   96DPPC  C31612477   5.973   3.883   3.499
   96DPPC  H16X12478   5.955   3.992   3.486
   96DPPC  H16Y12479   6.074   3.869   3.543
   96DPPC  H16Z12480   5.897   3.844   3.571
   97DPPC     N12481   2.119   4.640   0.887
   97DPPC   C1312482   2.181   4.584   0.763
   97DPPC  H13A12483   2.190   4.477   0.774
   97DPPC  H13B12484   2.279   4.627   0.749
   97DPPC  H13C12485   2.119   4.607   0.678
   97DPPC   C1412486   2.105   4.787   0.869
   97DPPC  H14A12487   2.041   4.808   0.784
   97DPPC  H14B12488   2.202   4.832   0.853
   97DPPC  H14C12489   2.060   4.829   0.958
   97DPPC   C1512490   1.984   4.579   0.902
   97DPPC  H15A12491   1.936   4.621   0.990
   97DPPC  H15B12492   1.993   4.472   0.913
   97DPPC  H15C12493   1.924   4.603   0.815
   97DPPC   C1212494   2.206   4.608   1.006
   97DPPC  H12A12495   2.295   4.669   0.999
   97DPPC  H12B12496   2.238   4.504   0.996
   97DPPC   C1112497   2.146   4.624   1.148
   97DPPC  H11A12498   2.231   4.619   1.220
   97DPPC  H11B12499   2.078   4.538   1.169
   97DPPC     P12500   2.067   4.821   1.292
   97DPPC   O1312501   1.949   4.912   1.290
   97DPPC   O1412502   2.198   4.886   1.316
   97DPPC   O1112503   2.043   4.709   1.400
   97DPPC   O1212504   2.072   4.744   1.156
   97DPPC    C112505   1.913   4.650   1.420
   97DPPC    HA12506   1.927   4.554   1.474
   97DPPC    HB12507   1.864   4.626   1.323
   97DPPC    C212508   1.815   4.736   1.507
   97DPPC    HS12509   1.781   4.820   1.441
   97DPPC   O2112510   1.886   4.786   1.621
   97DPPC   C2112511   1.824   4.888   1.678
   97DPPC   O2212512   1.720   4.938   1.639
   97DPPC   C2212513   1.901   4.931   1.803
   97DPPC   H2R12514   2.001   4.970   1.773
   97DPPC   H2S12515   1.915   4.842   1.868
   97DPPC    C312516   1.687   4.654   1.546
   97DPPC    HX12517   1.646   4.619   1.449
   97DPPC    HY12518   1.613   4.721   1.593
   97DPPC   O3112519   1.717   4.542   1.633
   97DPPC   C3112520   1.612   4.460   1.646
   97DPPC   O3212521   1.505   4.476   1.589
   97DPPC   C3212522   1.644   4.346   1.743
   97DPPC   H2X12523   1.720   4.380   1.816
   97DPPC   H2Y12524   1.685   4.261   1.685
   97DPPC   C2312525   1.822   5.039   1.878
   97DPPC   H3R12526   1.718   5.004   1.895
   97DPPC   H3S12527   1.818   5.131   1.817
   97DPPC   C2412528   1.883   5.071   2.015
   97DPPC   H4R12529   1.987   5.109   2.001
   97DPPC   H4S12530   1.889   4.977   2.074
   97DPPC   C2512531   1.803   5.174   2.096
   97DPPC   H5R12532   1.696   5.143   2.100
   97DPPC   H5S12533   1.807   5.273   2.045
   97DPPC   C2612534   1.855   5.188   2.239
   97DPPC   H6R12535   1.959   5.227   2.235
   97DPPC   H6S12536   1.859   5.087   2.286
   97DPPC   C2712537   1.770   5.280   2.328
   97DPPC   H7R12538   1.676   5.227   2.354
   97DPPC   H7S12539   1.743   5.371   2.270
   97DPPC   C2812540   1.842   5.325   2.456
   97DPPC   H8R12541   1.772   5.383   2.519
   97DPPC   H8S12542   1.925   5.393   2.427
   97DPPC   C2912543   1.902   5.210   2.540
   97DPPC   H9R12544   1.822   5.141   2.573
   97DPPC   H9S12545   1.973   5.153   2.476
   97DPPC  C21012546   1.980   5.262   2.661
   97DPPC  H10R12547   2.039   5.350   2.627
   97DPPC  H10S12548   1.908   5.297   2.739
   97DPPC  C21112549   2.076   5.158   2.722
   97DPPC  H11R12550   2.016   5.074   2.762
   97DPPC  H11S12551   2.140   5.118   2.641
   97DPPC  C21212552   2.167   5.214   2.832
   97DPPC  H12R12553   2.223   5.129   2.878
   97DPPC  H12S12554   2.103   5.258   2.912
   97DPPC  C21312555   2.267   5.319   2.783
   97DPPC  H13R12556   2.213   5.400   2.730
   97DPPC  H13S12557   2.337   5.271   2.711
   97DPPC  C21412558   2.348   5.385   2.896
   97DPPC  H14R12559   2.408   5.308   2.949
   97DPPC  H14S12560   2.277   5.430   2.969
   97DPPC  C21512561   2.441   5.496   2.843
   97DPPC  H15R12562   2.380   5.569   2.786
   97DPPC  H15S12563   2.514   5.450   2.772
   97DPPC  C21612564   2.519   5.572   2.950
   97DPPC  H16R12565   2.448   5.622   3.019
   97DPPC  H16S12566   2.584   5.649   2.904
   97DPPC  H16T12567   2.582   5.502   3.009
   97DPPC   C3312568   1.515   4.302   1.815
   97DPPC   H3X12569   1.437   4.278   1.740
   97DPPC   H3Y12570   1.478   4.387   1.877
   97DPPC   C3412571   1.531   4.179   1.905
   97DPPC   H4X12572   1.562   4.091   1.843
   97DPPC   H4Y12573   1.432   4.156   1.948
   97DPPC   C3512574   1.630   4.196   2.022
   97DPPC   H5X12575   1.605   4.291   2.075
   97DPPC   H5Y12576   1.734   4.204   1.983
   97DPPC   C3612577   1.621   4.080   2.123
   97DPPC   H6X12578   1.649   3.985   2.073
   97DPPC   H6Y12579   1.516   4.072   2.157
   97DPPC   C3712580   1.711   4.101   2.246
   97DPPC   H7X12581   1.691   4.203   2.287
   97DPPC   H7Y12582   1.817   4.096   2.216
   97DPPC   C3812583   1.684   4.000   2.359
   97DPPC   H8X12584   1.705   3.897   2.321
   97DPPC   H8Y12585   1.577   4.005   2.387
   97DPPC   C3912586   1.770   4.027   2.484
   97DPPC   H9X12587   1.754   4.133   2.514
   97DPPC   H9Y12588   1.877   4.014   2.458
   97DPPC  C31012589   1.735   3.937   2.603
   97DPPC  H10X12590   1.753   3.830   2.576
   97DPPC  H10Y12591   1.628   3.949   2.628
   97DPPC  C31112592   1.819   3.972   2.728
   97DPPC  H11X12593   1.804   4.080   2.750
   97DPPC  H11Y12594   1.926   3.956   2.704
   97DPPC  C31212595   1.783   3.891   2.853
   97DPPC  H12X12596   1.800   3.783   2.833
   97DPPC  H12Y12597   1.675   3.905   2.876
   97DPPC  C31312598   1.866   3.935   2.975
   97DPPC  H13X12599   1.849   4.043   2.991
   97DPPC  H13Y12600   1.974   3.922   2.952
   97DPPC  C31412601   1.833   3.861   3.106
   97DPPC  H14X12602   1.725   3.871   3.128
   97DPPC  H14Y12603   1.890   3.910   3.188
   97DPPC  C31512604   1.872   3.712   3.105
   97DPPC  H15X12605   1.976   3.703   3.066
   97DPPC  H15Y12606   1.805   3.658   3.035
   97DPPC  C31612607   1.866   3.645   3.243
   97DPPC  H16X12608   1.936   3.695   3.313
   97DPPC  H16Y12609   1.893   3.538   3.235
   97DPPC  H16Z12610   1.763   3.653   3.285
   98DPPC     N12611   3.747   4.665   1.313
   98DPPC   C1312612   3.772   4.809   1.284
   98DPPC  H13A12613   3.706   4.870   1.345
   98DPPC  H13B12614   3.755   4.829   1.180
   98DPPC  H13C12615   3.875   4.833   1.308
   98DPPC   C1412616   3.843   4.583   1.235
   98DPPC  H14A12617   3.944   4.608   1.264
   98DPPC  H14B12618   3.831   4.601   1.129
   98DPPC  H14C12619   3.825   4.478   1.254
   98DPPC   C1512620   3.773   4.639   1.457
   98DPPC  H15A12621   3.705   4.698   1.517
   98DPPC  H15B12622   3.875   4.667   1.481
   98DPPC  H15C12623   3.759   4.534   1.478
   98DPPC   C1212624   3.606   4.626   1.278
   98DPPC  H12A12625   3.590   4.526   1.317
   98DPPC  H12B12626   3.599   4.619   1.170
   98DPPC   C1112627   3.491   4.717   1.325
   98DPPC  H11A12628   3.395   4.663   1.310
   98DPPC  H11B12629   3.491   4.808   1.261
   98DPPC     P12630   3.403   4.845   1.528
   98DPPC   O1312631   3.309   4.900   1.428
   98DPPC   O1412632   3.477   4.943   1.611
   98DPPC   O1112633   3.327   4.743   1.622
   98DPPC   O1212634   3.509   4.752   1.461
   98DPPC    C112635   3.235   4.791   1.722
   98DPPC    HA12636   3.176   4.703   1.756
   98DPPC    HB12637   3.162   4.863   1.679
   98DPPC    C212638   3.302   4.853   1.849
   98DPPC    HS12639   3.333   4.956   1.821
   98DPPC   O2112640   3.414   4.770   1.885
   98DPPC   C2112641   3.510   4.839   1.945
   98DPPC   O2212642   3.507   4.958   1.970
   98DPPC   C2212643   3.625   4.746   1.983
   98DPPC   H2R12644   3.721   4.800   1.967
   98DPPC   H2S12645   3.625   4.655   1.919
   98DPPC    C312646   3.197   4.864   1.966
   98DPPC    HX12647   3.145   4.766   1.970
   98DPPC    HY12648   3.119   4.938   1.937
   98DPPC   O3112649   3.252   4.888   2.097
   98DPPC   C3112650   3.258   5.016   2.134
   98DPPC   O3212651   3.222   5.110   2.066
   98DPPC   C3212652   3.317   5.023   2.275
   98DPPC   H2X12653   3.419   4.980   2.273
   98DPPC   H2Y12654   3.254   4.962   2.342
   98DPPC   C2312655   3.609   4.709   2.131
   98DPPC   H3R12656   3.516   4.649   2.145
   98DPPC   H3S12657   3.600   4.802   2.191
   98DPPC   C2412658   3.728   4.629   2.188
   98DPPC   H4R12659   3.821   4.688   2.173
   98DPPC   H4S12660   3.739   4.533   2.134
   98DPPC   C2512661   3.710   4.602   2.338
   98DPPC   H5R12662   3.623   4.534   2.353
   98DPPC   H5S12663   3.686   4.699   2.387
   98DPPC   C2612664   3.833   4.543   2.409
   98DPPC   H6R12665   3.920   4.608   2.388
   98DPPC   H6S12666   3.855   4.442   2.369
   98DPPC   C2712667   3.811   4.536   2.561
   98DPPC   H7R12668   3.734   4.458   2.583
   98DPPC   H7S12669   3.771   4.634   2.593
   98DPPC   C2812670   3.939   4.506   2.642
   98DPPC   H8R12671   4.012   4.587   2.624
   98DPPC   H8S12672   3.983   4.411   2.605
   98DPPC   C2912673   3.914   4.492   2.793
   98DPPC   H9R12674   4.011   4.469   2.843
   98DPPC   H9S12675   3.846   4.406   2.810
   98DPPC  C21012676   3.852   4.617   2.860
   98DPPC  H10R12677   3.759   4.644   2.806
   98DPPC  H10S12678   3.922   4.703   2.850
   98DPPC  C21112679   3.814   4.596   3.007
   98DPPC  H11R12680   3.748   4.507   3.013
   98DPPC  H11S12681   3.754   4.683   3.041
   98DPPC  C21212682   3.932   4.576   3.104
   98DPPC  H12R12683   3.989   4.486   3.074
   98DPPC  H12S12684   3.889   4.557   3.205
   98DPPC  C21312685   4.028   4.695   3.115
   98DPPC  H13R12686   4.084   4.708   3.020
   98DPPC  H13S12687   4.102   4.670   3.194
   98DPPC  C21412688   3.960   4.829   3.151
   98DPPC  H14R12689   3.887   4.811   3.233
   98DPPC  H14S12690   3.902   4.864   3.062
   98DPPC  C21512691   4.056   4.940   3.195
   98DPPC  H15R12692   3.996   5.033   3.209
   98DPPC  H15S12693   4.129   4.960   3.114
   98DPPC  C21612694   4.131   4.913   3.326
   98DPPC  H16R12695   4.185   5.004   3.359
   98DPPC  H16S12696   4.204   4.830   3.313
   98DPPC  H16T12697   4.060   4.884   3.406
   98DPPC   C3312698   3.321   5.167   2.329
   98DPPC   H3X12699   3.221   5.215   2.314
   98DPPC   H3Y12700   3.396   5.227   2.272
   98DPPC   C3412701   3.353   5.175   2.479
   98DPPC   H4X12702   3.275   5.118   2.534
   98DPPC   H4Y12703   3.348   5.281   2.512
   98DPPC   C3512704   3.491   5.119   2.518
   98DPPC   H5X12705   3.570   5.180   2.469
   98DPPC   H5Y12706   3.501   5.015   2.480
   98DPPC   C3612707   3.517   5.117   2.669
   98DPPC   H6X12708   3.439   5.054   2.718
   98DPPC   H6Y12709   3.508   5.220   2.709
   98DPPC   C3712710   3.655   5.059   2.704
   98DPPC   H7X12711   3.733   5.122   2.658
   98DPPC   H7Y12712   3.663   4.957   2.660
   98DPPC   C3812713   3.685   5.048   2.855
   98DPPC   H8X12714   3.784   4.999   2.867
   98DPPC   H8Y12715   3.609   4.983   2.903
   98DPPC   C3912716   3.689   5.183   2.928
   98DPPC   H9X12717   3.587   5.226   2.932
   98DPPC   H9Y12718   3.754   5.253   2.871
   98DPPC  C31012719   3.744   5.171   3.071
   98DPPC  H10X12720   3.848   5.132   3.066
   98DPPC  H10Y12721   3.682   5.097   3.127
   98DPPC  C31112722   3.745   5.304   3.148
   98DPPC  H11X12723   3.641   5.343   3.154
   98DPPC  H11Y12724   3.806   5.378   3.092
   98DPPC  C31212725   3.802   5.289   3.290
   98DPPC  H12X12726   3.903   5.243   3.282
   98DPPC  H12Y12727   3.738   5.220   3.348
   98DPPC  C31312728   3.818   5.422   3.367
   98DPPC  H13X12729   3.887   5.487   3.309
   98DPPC  H13Y12730   3.865   5.401   3.465
   98DPPC  C31412731   3.687   5.500   3.392
   98DPPC  H14X12732   3.641   5.527   3.295
   98DPPC  H14Y12733   3.713   5.595   3.444
   98DPPC  C31512734   3.584   5.425   3.477
   98DPPC  H15X12735   3.632   5.396   3.573
   98DPPC  H15Y12736   3.554   5.332   3.424
   98DPPC  C31612737   3.458   5.506   3.508
   98DPPC  H16X12738   3.485   5.599   3.564
   98DPPC  H16Y12739   3.388   5.447   3.570
   98DPPC  H16Z12740   3.407   5.536   3.414
   99DPPC     N12741   4.183   6.412   1.235
   99DPPC   C1312742   4.313   6.351   1.198
   99DPPC  H13A12743   4.341   6.383   1.099
   99DPPC  H13B12744   4.305   6.243   1.200
   99DPPC  H13C12745   4.389   6.380   1.269
   99DPPC   C1412746   4.200   0.141   1.231
   99DPPC  H14A12747   4.106   0.190   1.251
   99DPPC  H14B12748   4.234   0.172   1.133
   99DPPC  H14C12749   4.272   0.171   1.306
   99DPPC   C1512750   4.082   6.370   1.134
   99DPPC  H15A12751   4.111   6.408   1.037
   99DPPC  H15B12752   3.985   6.409   1.161
   99DPPC  H15C12753   4.078   6.262   1.130
   99DPPC   C1212754   4.144   6.365   1.374
   99DPPC  H12A12755   4.231   6.377   1.437
   99DPPC  H12B12756   4.122   6.259   1.368
   99DPPC   C1112757   4.026   0.019   1.443
   99DPPC  H11A12758   4.061   0.122   1.468
   99DPPC  H11B12759   4.004   6.384   1.538
   99DPPC     P12760   3.806   0.130   1.383
   99DPPC   O1312761   3.675   0.084   1.333
   99DPPC   O1412762   3.856   0.256   1.322
   99DPPC   O1112763   3.802   0.142   1.539
   99DPPC   O1212764   3.912   0.016   1.359
   99DPPC    C112765   3.711   0.066   1.620
   99DPPC    HA12766   3.758   0.052   1.720
   99DPPC    HB12767   3.692   6.383   1.578
   99DPPC    C212768   3.573   0.137   1.643
   99DPPC    HS12769   3.518   0.130   1.546
   99DPPC   O2112770   3.599   0.274   1.678
   99DPPC   C2112771   3.493   0.351   1.665
   99DPPC   O2212772   3.383   0.312   1.630
   99DPPC   C2212773   3.528   0.497   1.696
   99DPPC   H2R12774   3.507   0.558   1.606
   99DPPC   H2S12775   3.636   0.506   1.720
   99DPPC    C312776   3.490   0.061   1.752
   99DPPC    HX12777   3.479   6.375   1.717
   99DPPC    HY12778   3.387   0.101   1.758
   99DPPC   O3112779   3.557   0.056   1.881
   99DPPC   C3112780   3.519   0.147   1.970
   99DPPC   O3212781   3.432   0.231   1.953
   99DPPC   C3212782   3.600   0.125   2.097
   99DPPC   H2X12783   3.706   0.152   2.078
   99DPPC   H2Y12784   3.595   0.017   2.124
   99DPPC   C2312785   3.445   0.549   1.815
   99DPPC   H3R12786   3.473   0.492   1.906
   99DPPC   H3S12787   3.337   0.531   1.795
   99DPPC   C2412788   3.465   0.699   1.840
   99DPPC   H4R12789   3.429   0.753   1.749
   99DPPC   H4S12790   3.573   0.721   1.852
   99DPPC   C2512791   3.388   0.755   1.961
   99DPPC   H5R12792   3.301   0.689   1.984
   99DPPC   H5S12793   3.347   0.855   1.933
   99DPPC   C2612794   3.473   0.775   2.088
   99DPPC   H6R12795   3.408   0.822   2.165
   99DPPC   H6S12796   3.555   0.847   2.065
   99DPPC   C2712797   3.535   0.647   2.146
   99DPPC   H7R12798   3.604   0.603   2.071
   99DPPC   H7S12799   3.453   0.573   2.164
   99DPPC   C2812800   3.613   0.667   2.277
   99DPPC   H8R12801   3.701   0.733   2.258
   99DPPC   H8S12802   3.651   0.568   2.310
   99DPPC   C2912803   3.528   0.727   2.391
   99DPPC   H9R12804   3.430   0.673   2.392
   99DPPC   H9S12805   3.507   0.834   2.369
   99DPPC  C21012806   3.589   0.714   2.531
   99DPPC  H10R12807   3.606   0.606   2.552
   99DPPC  H10S12808   3.515   0.751   2.605
   99DPPC  C21112809   3.722   0.790   2.553
   99DPPC  H11R12810   3.797   0.755   2.479
   99DPPC  H11S12811   3.759   0.763   2.654
   99DPPC  C21212812   3.710   0.943   2.545
   99DPPC  H12R12813   3.624   0.975   2.609
   99DPPC  H12S12814   3.688   0.973   2.441
   99DPPC  C21312815   3.837   1.014   2.594
   99DPPC  H13R12816   3.923   0.983   2.531
   99DPPC  H13S12817   3.858   0.982   2.698
   99DPPC  C21412818   3.827   1.168   2.592
   99DPPC  H14R12819   3.738   1.200   2.650
   99DPPC  H14S12820   3.814   1.202   2.487
   99DPPC  C21512821   3.952   1.235   2.652
   99DPPC  H15R12822   4.040   1.199   2.595
   99DPPC  H15S12823   3.963   1.201   2.757
   99DPPC  C21612824   3.950   1.388   2.648
   99DPPC  H16R12825   3.939   1.425   2.544
   99DPPC  H16S12826   4.046   1.428   2.690
   99DPPC  H16T12827   3.866   1.427   2.710
   99DPPC   C3312828   3.547   0.208   2.216
   99DPPC   H3X12829   3.438   0.190   2.230
   99DPPC   H3Y12830   3.562   0.316   2.196
   99DPPC   C3412831   3.620   0.168   2.345
   99DPPC   H4X12832   3.730   0.178   2.326
   99DPPC   H4Y12833   3.599   0.060   2.365
   99DPPC   C3512834   3.587   0.249   2.471
   99DPPC   H5X12835   3.478   0.243   2.493
   99DPPC   H5Y12836   3.613   0.356   2.453
   99DPPC   C3612837   3.667   0.196   2.591
   99DPPC   H6X12838   3.773   0.187   2.560
   99DPPC   H6Y12839   3.630   0.093   2.615
   99DPPC   C3712840   3.662   0.282   2.717
   99DPPC   H7X12841   3.558   0.287   2.756
   99DPPC   H7Y12842   3.695   0.385   2.692
   99DPPC   C3812843   3.756   0.225   2.826
   99DPPC   H8X12844   3.858   0.218   2.784
   99DPPC   H8Y12845   3.722   0.122   2.851
   99DPPC   C3912846   3.762   0.308   2.955
   99DPPC   H9X12847   3.659   0.315   2.997
   99DPPC   H9Y12848   3.797   0.411   2.932
   99DPPC  C31012849   3.856   0.244   3.059
   99DPPC  H10X12850   3.959   0.243   3.017
   99DPPC  H10Y12851   3.826   0.138   3.074
   99DPPC  C31112852   3.860   0.314   3.195
   99DPPC  H11X12853   3.904   0.416   3.183
   99DPPC  H11Y12854   3.929   0.256   3.261
   99DPPC  C31212855   3.724   0.328   3.267
   99DPPC  H12X12856   3.663   0.404   3.215
   99DPPC  H12Y12857   3.742   0.364   3.370
   99DPPC  C31312858   3.643   0.197   3.273
   99DPPC  H13X12859   3.707   0.117   3.317
   99DPPC  H13Y12860   3.617   0.166   3.169
   99DPPC  C31412861   3.513   0.210   3.353
   99DPPC  H14X12862   3.463   0.305   3.325
   99DPPC  H14Y12863   3.538   0.215   3.461
   99DPPC  C31512864   3.414   0.095   3.329
   99DPPC  H15X12865   3.373   0.105   3.225
   99DPPC  H15Y12866   3.329   0.107   3.399
   99DPPC  C31612867   3.472   6.372   3.344
   99DPPC  H16X12868   3.391   6.296   3.332
   99DPPC  H16Y12869   3.518   6.360   3.444
   99DPPC  H16Z12870   3.549   6.353   3.266
  100DPPC     N12871   0.526   2.050   1.346
  100DPPC   C1312872   0.629   2.132   1.278
  100DPPC  H13A12873   0.601   2.145   1.174
  100DPPC  H13B12874   0.725   2.083   1.284
  100DPPC  H13C12875   0.635   2.229   1.325
  100DPPC   C1412876   0.396   2.122   1.338
  100DPPC  H14A12877   0.318   2.063   1.383
  100DPPC  H14B12878   0.372   2.141   1.234
  100DPPC  H14C12879   0.405   2.217   1.389
  100DPPC   C1512880   0.511   1.920   1.276
  100DPPC  H15A12881   0.483   1.938   1.173
  100DPPC  H15B12882   0.434   1.861   1.325
  100DPPC  H15C12883   0.604   1.865   1.278
  100DPPC   C1212884   0.561   2.028   1.491
  100DPPC  H12A12885   0.473   1.988   1.540
  100DPPC  H12B12886   0.580   2.125   1.535
  100DPPC   C1112887   0.679   1.934   1.524
  100DPPC  H11A12888   0.645   1.832   1.496
  100DPPC  H11B12889   0.695   1.937   1.634
  100DPPC     P12890   0.914   1.872   1.457
  100DPPC   O1312891   1.018   1.920   1.363
  100DPPC   O1412892   0.858   1.737   1.432
  100DPPC   O1112893   0.970   1.878   1.606
  100DPPC   O1212894   0.796   1.975   1.456
  100DPPC    C112895   1.088   1.802   1.638
  100DPPC    HA12896   1.176   1.839   1.580
  100DPPC    HB12897   1.073   1.695   1.611
  100DPPC    C212898   1.125   1.804   1.790
  100DPPC    HS12899   1.198   1.722   1.809
  100DPPC   O2112900   1.008   1.792   1.871
  100DPPC   C2112901   0.966   1.668   1.881
  100DPPC   O2212902   1.023   1.570   1.834
  100DPPC   C2212903   0.839   1.666   1.966
  100DPPC   H2R12904   0.756   1.708   1.906
  100DPPC   H2S12905   0.853   1.731   2.055
  100DPPC    C312906   1.201   1.934   1.832
  100DPPC    HX12907   1.132   2.021   1.819
  100DPPC    HY12908   1.287   1.946   1.763
  100DPPC   O3112909   1.246   1.925   1.970
  100DPPC   C3112910   1.329   2.022   2.006
  100DPPC   O3212911   1.364   2.113   1.933
  100DPPC   C3212912   1.375   2.001   2.150
  100DPPC   H2X12913   1.451   1.920   2.152
  100DPPC   H2Y12914   1.288   1.970   2.212
  100DPPC   C2312915   0.803   1.523   2.011
  100DPPC   H3R12916   0.793   1.454   1.925
  100DPPC   H3S12917   0.702   1.531   2.059
  100DPPC   C2412918   0.899   1.465   2.117
  100DPPC   H4R12919   0.946   1.550   2.172
  100DPPC   H4S12920   0.980   1.408   2.066
  100DPPC   C2512921   0.828   1.376   2.220
  100DPPC   H5R12922   0.781   1.289   2.169
  100DPPC   H5S12923   0.747   1.437   2.267
  100DPPC   C2612924   0.921   1.326   2.332
  100DPPC   H6R12925   0.989   1.410   2.361
  100DPPC   H6S12926   0.985   1.243   2.293
  100DPPC   C2712927   0.846   1.281   2.458
  100DPPC   H7R12928   0.782   1.193   2.433
  100DPPC   H7S12929   0.779   1.364   2.490
  100DPPC   C2812930   0.939   1.246   2.574
  100DPPC   H8R12931   1.009   1.331   2.591
  100DPPC   H8S12932   1.000   1.157   2.546
  100DPPC   C2912933   0.865   1.218   2.706
  100DPPC   H9R12934   0.791   1.136   2.689
  100DPPC   H9S12935   0.808   1.309   2.736
  100DPPC  C21012936   0.959   1.176   2.820
  100DPPC  H10R12937   1.030   1.259   2.841
  100DPPC  H10S12938   1.020   1.089   2.784
  100DPPC  C21112939   0.888   1.133   2.949
  100DPPC  H11R12940   0.965   1.094   3.019
  100DPPC  H11S12941   0.819   1.050   2.926
  100DPPC  C21212942   0.810   1.244   3.022
  100DPPC  H12R12943   0.765   1.198   3.113
  100DPPC  H12S12944   0.727   1.280   2.958
  100DPPC  C21312945   0.897   1.364   3.066
  100DPPC  H13R12946   0.918   1.428   2.978
  100DPPC  H13S12947   0.994   1.324   3.103
  100DPPC  C21412948   0.835   1.448   3.179
  100DPPC  H14R12949   0.907   1.529   3.206
  100DPPC  H14S12950   0.822   1.384   3.269
  100DPPC  C21512951   0.700   1.513   3.145
  100DPPC  H15R12952   0.628   1.432   3.119
  100DPPC  H15S12953   0.713   1.577   3.055
  100DPPC  C21612954   0.640   1.596   3.258
  100DPPC  H16R12955   0.624   1.533   3.348
  100DPPC  H16S12956   0.542   1.639   3.228
  100DPPC  H16T12957   0.708   1.679   3.285
  100DPPC   C3312958   1.436   2.131   2.206
  100DPPC   H3X12959   1.358   2.210   2.207
  100DPPC   H3Y12960   1.519   2.164   2.139
  100DPPC   C3412961   1.496   2.118   2.348
  100DPPC   H4X12962   1.535   2.218   2.377
  100DPPC   H4Y12963   1.581   2.047   2.345
  100DPPC   C3512964   1.396   2.073   2.455
  100DPPC   H5X12965   1.368   1.967   2.437
  100DPPC   H5Y12966   1.304   2.134   2.446
  100DPPC   C3612967   1.448   2.087   2.599
  100DPPC   H6X12968   1.368   2.053   2.669
  100DPPC   H6Y12969   1.468   2.194   2.620
  100DPPC   C3712970   1.576   2.006   2.630
  100DPPC   H7X12971   1.660   2.045   2.569
  100DPPC   H7Y12972   1.559   1.900   2.602
  100DPPC   C3812973   1.615   2.012   2.779
  100DPPC   H8X12974   1.529   1.973   2.838
  100DPPC   H8Y12975   1.632   2.118   2.808
  100DPPC   C3912976   1.739   1.929   2.815
  100DPPC   H9X12977   1.827   1.967   2.759
  100DPPC   H9Y12978   1.722   1.824   2.785
  100DPPC  C31012979   1.769   1.935   2.966
  100DPPC  H10X12980   1.677   1.905   3.021
  100DPPC  H10Y12981   1.792   2.040   2.995
  100DPPC  C31112982   1.885   1.845   3.014
  100DPPC  H11X12983   1.892   1.856   3.125
  100DPPC  H11Y12984   1.980   1.881   2.970
  100DPPC  C31212985   1.867   1.696   2.981
  100DPPC  H12X12986   1.896   1.679   2.875
  100DPPC  H12Y12987   1.759   1.670   2.991
  100DPPC  C31312988   1.946   1.600   3.072
  100DPPC  H13X12989   1.934   1.497   3.033
  100DPPC  H13Y12990   1.902   1.603   3.174
  100DPPC  C31412991   2.096   1.633   3.084
  100DPPC  H14X12992   2.107   1.732   3.133
  100DPPC  H14Y12993   2.141   1.639   2.983
  100DPPC  C31512994   2.174   1.530   3.167
  100DPPC  H15X12995   2.119   1.510   3.262
  100DPPC  H15Y12996   2.272   1.575   3.195
  100DPPC  C31612997   2.202   1.397   3.095
  100DPPC  H16X12998   2.259   1.329   3.162
  100DPPC  H16Y12999   2.262   1.415   3.003
  100DPPC  H16Z13000   2.107   1.348   3.067
  101DPPC     N13001   2.361   5.273   1.453
  101DPPC   C1313002   2.476   5.217   1.376
  101DPPC  H13A13003   2.441   5.140   1.309
  101DPPC  H13B13004   2.548   5.176   1.445
  101DPPC  H13C13005   2.522   5.296   1.318
  101DPPC   C1413006   2.264   5.330   1.355
  101DPPC  H14A13007   2.233   5.253   1.286
  101DPPC  H14B13008   2.313   5.409   1.300
  101DPPC  H14C13009   2.179   5.370   1.407
  101DPPC   C1513010   2.295   5.162   1.526
  101DPPC  H15A13011   2.362   5.122   1.602
  101DPPC  H15B13012   2.269   5.083   1.457
  101DPPC  H15C13013   2.204   5.197   1.573
  101DPPC   C1213014   2.405   5.383   1.546
  101DPPC  H12A13015   2.315   5.429   1.587
  101DPPC  H12B13016   2.454   5.459   1.485
  101DPPC   C1113017   2.499   5.350   1.664
  101DPPC  H11A13018   2.446   5.280   1.732
  101DPPC  H11B13019   2.518   5.442   1.725
  101DPPC     P13020   2.736   5.381   1.572
  101DPPC   O1313021   2.681   5.496   1.496
  101DPPC   O1413022   2.833   5.296   1.500
  101DPPC   O1113023   2.798   5.434   1.707
  101DPPC   O1213024   2.619   5.288   1.621
  101DPPC    C113025   2.886   5.354   1.788
  101DPPC    HA13026   2.950   5.423   1.847
  101DPPC    HB13027   2.955   5.291   1.727
  101DPPC    C213028   2.812   5.263   1.890
  101DPPC    HS13029   2.770   5.179   1.829
  101DPPC   O2113030   2.708   5.340   1.952
  101DPPC   C2113031   2.614   5.264   2.005
  101DPPC   O2213032   2.606   5.143   1.990
  101DPPC   C2213033   2.518   5.351   2.085
  101DPPC   H2R13034   2.419   5.350   2.036
  101DPPC   H2S13035   2.555   5.456   2.088
  101DPPC    C313036   2.912   5.203   1.995
  101DPPC    HX13037   3.017   5.221   1.962
  101DPPC    HY13038   2.899   5.092   1.993
  101DPPC   O3113039   2.889   5.245   2.131
  101DPPC   C3113040   2.955   5.353   2.170
  101DPPC   O3213041   3.030   5.419   2.100
  101DPPC   C3213042   2.920   5.382   2.315
  101DPPC   H2X13043   2.924   5.288   2.374
  101DPPC   H2Y13044   2.815   5.421   2.318
  101DPPC   C2313045   2.508   5.296   2.228
  101DPPC   H3R13046   2.610   5.285   2.272
  101DPPC   H3S13047   2.461   5.195   2.224
  101DPPC   C2413048   2.424   5.384   2.323
  101DPPC   H4R13049   2.410   5.327   2.418
  101DPPC   H4S13050   2.324   5.401   2.279
  101DPPC   C2513051   2.489   5.519   2.359
  101DPPC   H5R13052   2.486   5.586   2.270
  101DPPC   H5S13053   2.596   5.502   2.386
  101DPPC   C2613054   2.418   5.586   2.477
  101DPPC   H6R13055   2.429   5.521   2.567
  101DPPC   H6S13056   2.310   5.592   2.454
  101DPPC   C2713057   2.467   5.728   2.511
  101DPPC   H7R13058   2.402   5.768   2.591
  101DPPC   H7S13059   2.456   5.792   2.421
  101DPPC   C2813060   2.613   5.738   2.559
  101DPPC   H8R13061   2.680   5.712   2.474
  101DPPC   H8S13062   2.631   5.665   2.641
  101DPPC   C2913063   2.646   5.880   2.608
  101DPPC   H9R13064   2.591   5.900   2.702
  101DPPC   H9S13065   2.608   5.950   2.531
  101DPPC  C21013066   2.796   5.909   2.628
  101DPPC  H10R13067   2.807   6.018   2.646
  101DPPC  H10S13068   2.852   5.885   2.535
  101DPPC  C21113069   2.860   5.835   2.747
  101DPPC  H11R13070   2.861   5.726   2.726
  101DPPC  H11S13071   2.797   5.852   2.838
  101DPPC  C21213072   3.003   5.885   2.777
  101DPPC  H12R13073   2.997   5.994   2.798
  101DPPC  H12S13074   3.066   5.871   2.687
  101DPPC  C21313075   3.070   5.816   2.897
  101DPPC  H13R13076   3.001   5.821   2.984
  101DPPC  H13S13077   3.162   5.872   2.923
  101DPPC  C21413078   3.109   5.670   2.870
  101DPPC  H14R13079   3.178   5.668   2.782
  101DPPC  H14S13080   3.019   5.611   2.844
  101DPPC  C21513081   3.179   5.601   2.988
  101DPPC  H15R13082   3.266   5.663   3.019
  101DPPC  H15S13083   3.219   5.503   2.952
  101DPPC  C21613084   3.090   5.575   3.110
  101DPPC  H16R13085   3.147   5.520   3.188
  101DPPC  H16S13086   3.002   5.513   3.081
  101DPPC  H16T13087   3.054   5.670   3.153
  101DPPC   C3313088   3.014   5.486   2.377
  101DPPC   H3X13089   3.022   5.575   2.310
  101DPPC   H3Y13090   3.116   5.443   2.388
  101DPPC   C3413091   2.966   5.538   2.514
  101DPPC   H4X13092   2.870   5.591   2.499
  101DPPC   H4Y13093   3.039   5.613   2.552
  101DPPC   C3513094   2.944   5.430   2.622
  101DPPC   H5X13095   2.869   5.356   2.587
  101DPPC   H5Y13096   2.900   5.481   2.711
  101DPPC   C3613097   3.072   5.358   2.665
  101DPPC   H6X13098   3.152   5.433   2.683
  101DPPC   H6Y13099   3.106   5.291   2.583
  101DPPC   C3713100   3.054   5.275   2.794
  101DPPC   H7X13101   2.977   5.197   2.777
  101DPPC   H7Y13102   3.018   5.342   2.874
  101DPPC   C3813103   3.184   5.207   2.841
  101DPPC   H8X13104   3.264   5.284   2.850
  101DPPC   H8Y13105   3.216   5.134   2.764
  101DPPC   C3913106   3.169   5.136   2.976
  101DPPC   H9X13107   3.086   5.063   2.970
  101DPPC   H9Y13108   3.142   5.211   3.053
  101DPPC  C31013109   3.296   5.062   3.020
  101DPPC  H10X13110   3.380   5.135   3.023
  101DPPC  H10Y13111   3.322   4.984   2.945
  101DPPC  C31113112   3.283   4.997   3.159
  101DPPC  H11X13113   3.205   4.918   3.156
  101DPPC  H11Y13114   3.249   5.075   3.230
  101DPPC  C31213115   3.415   4.938   3.214
  101DPPC  H12X13116   3.400   4.911   3.320
  101DPPC  H12Y13117   3.492   5.018   3.210
  101DPPC  C31313118   3.467   4.814   3.139
  101DPPC  H13X13119   3.570   4.794   3.175
  101DPPC  H13Y13120   3.473   4.836   3.030
  101DPPC  C31413121   3.383   4.688   3.163
  101DPPC  H14X13122   3.282   4.702   3.119
  101DPPC  H14Y13123   3.370   4.675   3.273
  101DPPC  C31513124   3.444   4.559   3.106
  101DPPC  H15X13125   3.381   4.474   3.139
  101DPPC  H15Y13126   3.545   4.545   3.151
  101DPPC  C31613127   3.456   4.554   2.953
  101DPPC  H16X13128   3.356   4.560   2.906
  101DPPC  H16Y13129   3.503   4.458   2.922
  101DPPC  H16Z13130   3.519   4.637   2.916
  102DPPC     N13131   5.237   6.173   1.491
  102DPPC   C1313132   5.369   6.179   1.558
  102DPPC  H13A13133   5.381   6.093   1.622
  102DPPC  H13B13134   5.375   6.269   1.617
  102DPPC  H13C13135   5.448   6.180   1.484
  102DPPC   C1413136   5.227   6.289   1.399
  102DPPC  H14A13137   5.133   6.285   1.346
  102DPPC  H14B13138   5.308   6.285   1.327
  102DPPC  H14C13139   5.235   6.380   1.456
  102DPPC   C1513140   5.228   6.047   1.412
  102DPPC  H15A13141   5.229   5.963   1.479
  102DPPC  H15B13142   5.312   6.040   1.344
  102DPPC  H15C13143   5.136   6.046   1.356
  102DPPC   C1213144   5.125   6.181   1.592
  102DPPC  H12A13145   5.032   6.160   1.539
  102DPPC  H12B13146   5.120   6.283   1.627
  102DPPC   C1113147   5.130   6.091   1.717
  102DPPC  H11A13148   5.032   6.106   1.768
  102DPPC  H11B13149   5.210   6.128   1.785
  102DPPC     P13150   5.107   5.848   1.787
  102DPPC   O1313151   5.209   5.741   1.796
  102DPPC   O1413152   4.970   5.804   1.751
  102DPPC   O1113153   5.101   5.926   1.924
  102DPPC   O1213154   5.154   5.955   1.682
  102DPPC    C113155   5.113   5.856   2.049
  102DPPC    HA13156   5.131   5.932   2.128
  102DPPC    HB13157   5.200   5.787   2.049
  102DPPC    C213158   4.984   5.779   2.091
  102DPPC    HS13159   4.965   5.702   2.012
  102DPPC   O2113160   4.877   5.874   2.096
  102DPPC   C2113161   4.758   5.819   2.112
  102DPPC   O2213162   4.735   5.699   2.115
  102DPPC   C2213163   4.653   5.929   2.127
  102DPPC   H2R13164   4.578   5.918   2.046
  102DPPC   H2S13165   4.702   6.028   2.115
  102DPPC    C313166   5.008   5.704   2.226
  102DPPC    HX13167   5.100   5.642   2.214
  102DPPC    HY13168   4.922   5.635   2.242
  102DPPC   O3113169   5.024   5.796   2.337
  102DPPC   C3113170   5.019   5.734   2.454
  102DPPC   O3213171   5.008   5.614   2.469
  102DPPC   C3213172   5.026   5.838   2.566
  102DPPC   H2X13173   4.939   5.906   2.558
  102DPPC   H2Y13174   5.119   5.897   2.556
  102DPPC   C2313175   4.585   5.918   2.264
  102DPPC   H3R13176   4.661   5.900   2.343
  102DPPC   H3S13177   4.517   5.830   2.263
  102DPPC   C2413178   4.503   6.043   2.303
  102DPPC   H4R13179   4.441   6.019   2.393
  102DPPC   H4S13180   4.433   6.066   2.219
  102DPPC   C2513181   4.587   6.168   2.333
  102DPPC   H5R13182   4.519   6.257   2.335
  102DPPC   H5S13183   4.660   6.184   2.251
  102DPPC   C2613184   4.662   6.164   2.468
  102DPPC   H6R13185   4.709   6.064   2.480
  102DPPC   H6S13186   4.589   6.179   2.551
  102DPPC   C2713187   4.774   6.269   2.476
  102DPPC   H7R13188   4.732   6.371   2.460
  102DPPC   H7S13189   4.845   6.248   2.394
  102DPPC   C2813190   4.853   6.266   2.608
  102DPPC   H8R13191   4.956   6.302   2.587
  102DPPC   H8S13192   4.860   6.161   2.644
  102DPPC   C2913193   4.793   6.355   2.719
  102DPPC   H9R13194   4.801   0.042   2.686
  102DPPC   H9S13195   4.685   6.331   2.732
  102DPPC  C21013196   4.863   6.342   2.856
  102DPPC  H10R13197   4.833   6.244   2.900
  102DPPC  H10S13198   4.825   0.004   2.923
  102DPPC  C21113199   5.016   6.349   2.850
  102DPPC  H11R13200   5.054   6.259   2.796
  102DPPC  H11S13201   5.047   0.020   2.791
  102DPPC  C21213202   5.087   6.354   2.987
  102DPPC  H12R13203   5.072   0.036   3.033
  102DPPC  H12S13204   5.196   6.341   2.969
  102DPPC  C21313205   5.039   6.247   3.086
  102DPPC  H13R13206   5.012   6.155   3.029
  102DPPC  H13S13207   4.948   6.283   3.138
  102DPPC  C21413208   5.145   6.205   3.190
  102DPPC  H14R13209   5.229   6.154   3.137
  102DPPC  H14S13210   5.099   6.132   3.259
  102DPPC  C21513211   5.205   6.320   3.274
  102DPPC  H15R13212   5.122   6.371   3.328
  102DPPC  H15S13213   5.252   6.394   3.206
  102DPPC  C21613214   5.310   6.272   3.374
  102DPPC  H16R13215   5.352   6.358   3.430
  102DPPC  H16S13216   5.393   6.220   3.322
  102DPPC  H16T13217   5.264   6.201   3.447
  102DPPC   C3313218   5.023   5.766   2.702
  102DPPC   H3X13219   5.112   5.699   2.709
  102DPPC   H3Y13220   4.932   5.703   2.709
  102DPPC   C3413221   5.026   5.860   2.823
  102DPPC   H4X13222   4.935   5.924   2.822
  102DPPC   H4Y13223   5.115   5.926   2.817
  102DPPC   C3513224   5.031   5.780   2.954
  102DPPC   H5X13225   5.123   5.717   2.954
  102DPPC   H5Y13226   4.944   5.712   2.957
  102DPPC   C3613227   5.031   5.865   3.082
  102DPPC   H6X13228   4.941   5.931   3.083
  102DPPC   H6Y13229   5.122   5.930   3.080
  102DPPC   C3713230   5.033   5.779   3.208
  102DPPC   H7X13231   5.115   5.704   3.198
  102DPPC   H7Y13232   4.938   5.723   3.217
  102DPPC   C3813233   5.058   5.858   3.337
  102DPPC   H8X13234   4.973   5.927   3.356
  102DPPC   H8Y13235   5.150   5.920   3.324
  102DPPC   C3913236   5.080   5.767   3.459
  102DPPC   H9X13237   5.160   5.694   3.434
  102DPPC   H9Y13238   4.986   5.710   3.478
  102DPPC  C31013239   5.121   5.842   3.586
  102DPPC  H10X13240   5.036   5.903   3.623
  102DPPC  H10Y13241   5.204   5.912   3.561
  102DPPC  C31113242   5.172   5.749   3.698
  102DPPC  H11X13243   5.207   5.811   3.784
  102DPPC  H11Y13244   5.259   5.692   3.660
  102DPPC  C31213245   5.066   5.650   3.749
  102DPPC  H12X13246   5.022   5.596   3.663
  102DPPC  H12Y13247   4.985   5.706   3.800
  102DPPC  C31313248   5.124   5.545   3.846
  102DPPC  H13X13249   5.178   5.598   3.928
  102DPPC  H13Y13250   5.198   5.483   3.791
  102DPPC  C31413251   5.018   5.453   3.909
  102DPPC  H14X13252   4.950   5.513   3.973
  102DPPC  H14Y13253   5.070   5.380   3.974
  102DPPC  C31513254   4.933   5.374   3.808
  102DPPC  H15X13255   5.002   5.322   3.737
  102DPPC  H15Y13256   4.872   5.445   3.748
  102DPPC  C31613257   4.841   5.270   3.872
  102DPPC  H16X13258   4.770   5.320   3.942
  102DPPC  H16Y13259   4.900   5.196   3.929
  102DPPC  H16Z13260   4.782   5.217   3.794
  103DPPC     N13261   0.941   5.682   1.048
  103DPPC   C1313262   1.015   5.802   1.000
  103DPPC  H13A13263   0.997   5.885   1.067
  103DPPC  H13B13264   0.980   5.829   0.901
  103DPPC  H13C13265   1.121   5.780   0.997
  103DPPC   C1413266   0.972   5.569   0.956
  103DPPC  H14A13267   0.952   5.600   0.854
  103DPPC  H14B13268   0.910   5.485   0.982
  103DPPC  H14C13269   1.076   5.542   0.966
  103DPPC   C1513270   0.989   5.649   1.185
  103DPPC  H15A13271   0.969   5.733   1.251
  103DPPC  H15B13272   1.096   5.632   1.183
  103DPPC  H15C13273   0.939   5.560   1.221
  103DPPC   C1213274   0.793   5.710   1.050
  103DPPC  H12A13275   0.759   5.716   0.947
  103DPPC  H12B13276   0.778   5.808   1.094
  103DPPC   C1113277   0.701   5.612   1.127
  103DPPC  H11A13278   0.595   5.641   1.107
  103DPPC  H11B13279   0.721   5.625   1.236
  103DPPC     P13280   0.669   5.363   1.171
  103DPPC   O1313281   0.708   5.235   1.107
  103DPPC   O1413282   0.524   5.385   1.193
  103DPPC   O1113283   0.746   5.382   1.308
  103DPPC   O1213284   0.725   5.479   1.083
  103DPPC    C113285   0.810   5.270   1.371
  103DPPC    HA13286   0.882   5.308   1.447
  103DPPC    HB13287   0.869   5.210   1.299
  103DPPC    C213288   0.710   5.176   1.446
  103DPPC    HS13289   0.643   5.134   1.367
  103DPPC   O2113290   0.636   5.257   1.540
  103DPPC   C2113291   0.526   5.197   1.579
  103DPPC   O2213292   0.485   5.091   1.535
  103DPPC   C2213293   0.461   5.277   1.692
  103DPPC   H2R13294   0.452   5.383   1.661
  103DPPC   H2S13295   0.528   5.271   1.780
  103DPPC    C313296   0.784   5.057   1.516
  103DPPC    HX13297   0.833   5.002   1.432
  103DPPC    HY13298   0.711   4.988   1.563
  103DPPC   O3113299   0.879   5.104   1.614
  103DPPC   C3113300   0.985   5.024   1.632
  103DPPC   O3213301   1.003   4.919   1.574
  103DPPC   C3213302   1.078   5.087   1.734
  103DPPC   H2X13303   1.021   5.107   1.828
  103DPPC   H2Y13304   1.114   5.184   1.694
  103DPPC   C2313305   0.323   5.219   1.726
  103DPPC   H3R13306   0.328   5.108   1.736
  103DPPC   H3S13307   0.254   5.242   1.642
  103DPPC   C2413308   0.264   5.275   1.856
  103DPPC   H4R13309   0.156   5.246   1.860
  103DPPC   H4S13310   0.270   5.386   1.855
  103DPPC   C2513311   0.332   5.219   1.983
  103DPPC   H5R13312   0.439   5.249   1.984
  103DPPC   H5S13313   0.327   5.108   1.980
  103DPPC   C2613314   0.265   5.268   2.112
  103DPPC   H6R13315   0.156   5.245   2.106
  103DPPC   H6S13316   0.276   5.378   2.119
  103DPPC   C2713317   0.320   5.202   2.239
  103DPPC   H7R13318   0.427   5.227   2.251
  103DPPC   H7S13319   0.312   5.091   2.227
  103DPPC   C2813320   0.242   5.243   2.366
  103DPPC   H8R13321   0.134   5.228   2.348
  103DPPC   H8S13322   0.260   5.350   2.385
  103DPPC   C2913323   0.283   5.159   2.488
  103DPPC   H9R13324   0.391   5.174   2.507
  103DPPC   H9S13325   0.267   5.051   2.464
  103DPPC  C21013326   0.205   5.191   2.617
  103DPPC  H10R13327   0.244   5.123   2.696
  103DPPC  H10S13328   0.098   5.167   2.602
  103DPPC  C21113329   0.218   5.337   2.664
  103DPPC  H11R13330   0.154   5.400   2.599
  103DPPC  H11S13331   0.323   5.371   2.653
  103DPPC  C21213332   0.175   5.358   2.810
  103DPPC  H12R13333   0.079   5.305   2.827
  103DPPC  H12S13334   0.159   5.466   2.827
  103DPPC  C21313335   0.278   5.307   2.913
  103DPPC  H13R13336   0.370   5.369   2.906
  103DPPC  H13S13337   0.306   5.203   2.888
  103DPPC  C21413338   0.227   5.308   3.058
  103DPPC  H14R13339   0.306   5.262   3.123
  103DPPC  H14S13340   0.137   5.244   3.065
  103DPPC  C21513341   0.195   5.447   3.114
  103DPPC  H15R13342   0.113   5.493   3.054
  103DPPC  H15S13343   0.285   5.512   3.103
  103DPPC  C21613344   0.152   5.446   3.261
  103DPPC  H16R13345   0.130   5.549   3.296
  103DPPC  H16S13346   0.234   5.404   3.325
  103DPPC  H16T13347   0.062   5.383   3.275
  103DPPC   C3313348   1.198   4.996   1.765
  103DPPC   H3X13349   1.257   4.980   1.672
  103DPPC   H3Y13350   1.162   4.898   1.802
  103DPPC   C3413351   1.289   5.059   1.871
  103DPPC   H4X13352   1.233   5.069   1.966
  103DPPC   H4Y13353   1.316   5.161   1.836
  103DPPC   C3513354   1.420   4.983   1.899
  103DPPC   H5X13355   1.482   5.047   1.965
  103DPPC   H5Y13356   1.475   4.969   1.803
  103DPPC   C3613357   1.402   4.845   1.965
  103DPPC   H6X13358   1.348   4.779   1.893
  103DPPC   H6Y13359   1.339   4.855   2.056
  103DPPC   C3713360   1.535   4.778   2.001
  103DPPC   H7X13361   1.601   4.782   1.912
  103DPPC   H7Y13362   1.518   4.670   2.025
  103DPPC   C3813363   1.608   4.842   2.120
  103DPPC   H8X13364   1.607   4.952   2.110
  103DPPC   H8Y13365   1.714   4.809   2.118
  103DPPC   C3913366   1.551   4.805   2.258
  103DPPC   H9X13367   1.558   4.695   2.270
  103DPPC   H9Y13368   1.444   4.834   2.264
  103DPPC  C31013369   1.627   4.871   2.374
  103DPPC  H10X13370   1.608   4.981   2.373
  103DPPC  H10Y13371   1.736   4.856   2.357
  103DPPC  C31113372   1.591   4.813   2.511
  103DPPC  H11X13373   1.606   4.703   2.507
  103DPPC  H11Y13374   1.484   4.833   2.533
  103DPPC  C31213375   1.678   4.870   2.625
  103DPPC  H12X13376   1.656   4.978   2.637
  103DPPC  H12Y13377   1.785   4.859   2.595
  103DPPC  C31313378   1.657   4.797   2.759
  103DPPC  H13X13379   1.667   4.688   2.741
  103DPPC  H13Y13380   1.555   4.816   2.796
  103DPPC  C31413381   1.760   4.836   2.867
  103DPPC  H14X13382   1.862   4.820   2.827
  103DPPC  H14Y13383   1.746   4.769   2.954
  103DPPC  C31513384   1.748   4.982   2.915
  103DPPC  H15X13385   1.646   4.996   2.958
  103DPPC  H15Y13386   1.759   5.051   2.829
  103DPPC  C31613387   1.851   5.020   3.022
  103DPPC  H16X13388   1.847   4.950   3.107
  103DPPC  H16Y13389   1.832   5.123   3.059
  103DPPC  H16Z13390   1.954   5.017   2.979
  104DPPC     N13391   2.132   5.774   1.049
  104DPPC   C1313392   2.205   5.755   0.921
  104DPPC  H13A13393   2.188   5.654   0.885
  104DPPC  H13B13394   2.311   5.770   0.937
  104DPPC  H13C13395   2.169   5.825   0.847
  104DPPC   C1413396   1.987   5.756   1.022
  104DPPC  H14A13397   1.968   5.655   0.987
  104DPPC  H14B13398   1.955   5.825   0.945
  104DPPC  H14C13399   1.929   5.774   1.111
  104DPPC   C1513400   2.176   5.671   1.147
  104DPPC  H15A13401   2.164   5.573   1.103
  104DPPC  H15B13402   2.118   5.678   1.237
  104DPPC  H15C13403   2.280   5.688   1.171
  104DPPC   C1213404   2.154   5.913   1.102
  104DPPC  H12A13405   2.106   5.921   1.198
  104DPPC  H12B13406   2.103   5.982   1.035
  104DPPC   C1113407   2.300   5.961   1.115
  104DPPC  H11A13408   2.297   6.066   1.150
  104DPPC  H11B13409   2.346   5.961   1.013
  104DPPC     P13410   2.527   5.907   1.217
  104DPPC   O1313411   2.567   6.012   1.120
  104DPPC   O1413412   2.595   5.777   1.205
  104DPPC   O1113413   2.542   5.964   1.364
  104DPPC   O1213414   2.372   5.879   1.205
  104DPPC    C113415   2.573   5.880   1.476
  104DPPC    HA13416   2.595   5.947   1.563
  104DPPC    HB13417   2.665   5.820   1.457
  104DPPC    C213418   2.458   5.785   1.520
  104DPPC    HS13419   2.462   5.698   1.450
  104DPPC   O2113420   2.334   5.856   1.508
  104DPPC   C2113421   2.230   5.777   1.495
  104DPPC   O2213422   2.234   5.655   1.485
  104DPPC   C2213423   2.102   5.860   1.495
  104DPPC   H2R13424   2.021   5.803   1.446
  104DPPC   H2S13425   2.119   5.954   1.438
  104DPPC    C313426   2.478   5.732   1.666
  104DPPC    HX13427   2.577   5.683   1.672
  104DPPC    HY13428   2.399   5.655   1.684
  104DPPC   O3113429   2.471   5.840   1.762
  104DPPC   C3113430   2.422   5.809   1.882
  104DPPC   O3213431   2.393   5.696   1.918
  104DPPC   C3213432   2.404   5.937   1.964
  104DPPC   H2X13433   2.348   6.012   1.904
  104DPPC   H2Y13434   2.504   5.979   1.986
  104DPPC   C2313435   2.062   5.894   1.640
  104DPPC   H3R13436   2.148   5.944   1.691
  104DPPC   H3S13437   2.040   5.800   1.695
  104DPPC   C2413438   1.940   5.987   1.649
  104DPPC   H4R13439   1.854   5.941   1.595
  104DPPC   H4S13440   1.966   6.082   1.597
  104DPPC   C2513441   1.898   6.020   1.793
  104DPPC   H5R13442   1.829   6.108   1.789
  104DPPC   H5S13443   1.988   6.050   1.851
  104DPPC   C2613444   1.824   5.907   1.866
  104DPPC   H6R13445   1.890   5.819   1.876
  104DPPC   H6S13446   1.736   5.877   1.804
  104DPPC   C2713447   1.773   5.949   2.005
  104DPPC   H7R13448   1.717   6.045   1.994
  104DPPC   H7S13449   1.860   5.968   2.071
  104DPPC   C2813450   1.680   5.846   2.069
  104DPPC   H8R13451   1.736   5.751   2.086
  104DPPC   H8S13452   1.597   5.825   1.998
  104DPPC   C2913453   1.619   5.893   2.202
  104DPPC   H9R13454   1.573   5.993   2.186
  104DPPC   H9S13455   1.699   5.904   2.278
  104DPPC  C21013456   1.510   5.798   2.254
  104DPPC  H10R13457   1.554   5.698   2.273
  104DPPC  H10S13458   1.434   5.787   2.173
  104DPPC  C21113459   1.438   5.847   2.380
  104DPPC  H11R13460   1.402   5.951   2.363
  104DPPC  H11S13461   1.509   5.849   2.466
  104DPPC  C21213462   1.318   5.757   2.415
  104DPPC  H12R13463   1.356   5.656   2.439
  104DPPC  H12S13464   1.253   5.749   2.326
  104DPPC  C21313465   1.233   5.808   2.533
  104DPPC  H13R13466   1.191   5.908   2.507
  104DPPC  H13S13467   1.297   5.819   2.623
  104DPPC  C21413468   1.116   5.712   2.565
  104DPPC  H14R13469   1.157   5.615   2.601
  104DPPC  H14S13470   1.060   5.693   2.471
  104DPPC  C21513471   1.017   5.765   2.670
  104DPPC  H15R13472   0.934   5.691   2.680
  104DPPC  H15S13473   0.973   5.860   2.633
  104DPPC  C21613474   1.077   5.789   2.809
  104DPPC  H16R13475   1.119   5.695   2.849
  104DPPC  H16S13476   0.998   5.825   2.879
  104DPPC  H16T13477   1.157   5.866   2.805
  104DPPC   C3313478   2.329   5.910   2.096
  104DPPC   H3X13479   2.381   5.829   2.152
  104DPPC   H3Y13480   2.226   5.876   2.073
  104DPPC   C3413481   2.322   6.034   2.188
  104DPPC   H4X13482   2.272   6.117   2.133
  104DPPC   H4Y13483   2.425   6.066   2.212
  104DPPC   C3513484   2.246   6.008   2.319
  104DPPC   H5X13485   2.290   5.918   2.368
  104DPPC   H5Y13486   2.139   5.986   2.297
  104DPPC   C3613487   2.254   6.125   2.419
  104DPPC   H6X13488   2.201   6.212   2.375
  104DPPC   H6Y13489   2.361   6.152   2.432
  104DPPC   C3713490   2.194   6.093   2.557
  104DPPC   H7X13491   2.248   6.006   2.600
  104DPPC   H7Y13492   2.087   6.064   2.545
  104DPPC   C3813493   2.204   6.211   2.654
  104DPPC   H8X13494   2.147   6.297   2.613
  104DPPC   H8Y13495   2.311   6.242   2.662
  104DPPC   C3913496   2.153   6.183   2.797
  104DPPC   H9X13497   2.207   6.095   2.838
  104DPPC   H9Y13498   2.044   6.158   2.792
  104DPPC  C31013499   2.173   6.303   2.891
  104DPPC  H10X13500   2.118   6.391   2.849
  104DPPC  H10Y13501   2.281   6.329   2.892
  104DPPC  C31113502   2.127   6.279   3.035
  104DPPC  H11X13503   2.180   6.191   3.076
  104DPPC  H11Y13504   2.018   6.257   3.035
  104DPPC  C31213505   2.153   6.401   3.127
  104DPPC  H12X13506   2.101   0.070   3.083
  104DPPC  H12Y13507   2.262   0.004   3.128
  104DPPC  C31313508   2.103   6.382   3.271
  104DPPC  H13X13509   2.158   6.299   3.320
  104DPPC  H13Y13510   1.996   6.353   3.266
  104DPPC  C31413511   2.113   0.090   3.358
  104DPPC  H14X13512   2.050   0.077   3.449
  104DPPC  H14Y13513   2.069   0.174   3.299
  104DPPC  C31513514   2.255   0.129   3.402
  104DPPC  H15X13515   2.260   0.240   3.411
  104DPPC  H15Y13516   2.328   0.098   3.325
  104DPPC  C31613517   2.296   0.071   3.539
  104DPPC  H16X13518   2.401   0.098   3.562
  104DPPC  H16Y13519   2.287   6.379   3.538
  104DPPC  H16Z13520   2.230   0.111   3.619
  105DPPC     N13521   3.381   3.845   1.367
  105DPPC   C1313522   3.304   3.921   1.266
  105DPPC  H13A13523   3.305   3.868   1.172
  105DPPC  H13B13524   3.347   4.019   1.252
  105DPPC  H13C13525   3.201   3.932   1.299
  105DPPC   C1413526   3.372   3.917   1.497
  105DPPC  H14A13527   3.413   4.016   1.486
  105DPPC  H14B13528   3.431   3.864   1.570
  105DPPC  H14C13529   3.269   3.922   1.529
  105DPPC   C1513530   3.321   3.710   1.381
  105DPPC  H15A13531   3.333   3.655   1.288
  105DPPC  H15B13532   3.216   3.719   1.404
  105DPPC  H15C13533   3.371   3.656   1.460
  105DPPC   C1213534   3.524   3.834   1.318
  105DPPC  H12A13535   3.563   3.935   1.310
  105DPPC  H12B13536   3.521   3.792   1.218
  105DPPC   C1113537   3.623   3.752   1.402
  105DPPC  H11A13538   3.722   3.760   1.351
  105DPPC  H11B13539   3.591   3.645   1.401
  105DPPC     P13540   3.719   3.725   1.632
  105DPPC   O1313541   3.839   3.674   1.561
  105DPPC   O1413542   3.635   3.623   1.700
  105DPPC   O1113543   3.763   3.834   1.737
  105DPPC   O1213544   3.629   3.805   1.533
  105DPPC    C113545   3.665   3.917   1.803
  105DPPC    HA13546   3.560   3.891   1.776
  105DPPC    HB13547   3.682   4.022   1.772
  105DPPC    C213548   3.677   3.913   1.958
  105DPPC    HS13549   3.611   3.994   1.996
  105DPPC   O2113550   3.816   3.933   1.990
  105DPPC   C2113551   3.836   4.003   2.100
  105DPPC   O2213552   3.748   4.054   2.167
  105DPPC   C2213553   3.985   4.007   2.130
  105DPPC   H2R13554   4.037   4.053   2.043
  105DPPC   H2S13555   4.024   3.904   2.143
  105DPPC    C313556   3.626   3.777   2.015
  105DPPC    HX13557   3.690   3.695   1.976
  105DPPC    HY13558   3.525   3.760   1.971
  105DPPC   O3113559   3.612   3.776   2.160
  105DPPC   C3113560   3.715   3.727   2.227
  105DPPC   O3213561   3.816   3.679   2.177
  105DPPC   C3213562   3.690   3.744   2.377
  105DPPC   H2X13563   3.595   3.694   2.404
  105DPPC   H2Y13564   3.682   3.852   2.400
  105DPPC   C2313565   4.015   4.091   2.256
  105DPPC   H3R13566   3.964   4.190   2.250
  105DPPC   H3S13567   4.125   4.111   2.257
  105DPPC   C2413568   3.981   4.021   2.388
  105DPPC   H4R13569   4.030   3.922   2.390
  105DPPC   H4S13570   3.871   4.006   2.395
  105DPPC   C2513571   4.027   4.102   2.511
  105DPPC   H5R13572   4.137   4.114   2.505
  105DPPC   H5S13573   3.981   4.203   2.507
  105DPPC   C2613574   3.991   4.036   2.645
  105DPPC   H6R13575   4.032   3.933   2.647
  105DPPC   H6S13576   3.881   4.030   2.654
  105DPPC   C2713577   4.048   4.114   2.765
  105DPPC   H7R13578   4.011   4.218   2.761
  105DPPC   H7S13579   4.159   4.116   2.757
  105DPPC   C2813580   4.009   4.053   2.901
  105DPPC   H8R13581   4.041   3.946   2.903
  105DPPC   H8S13582   3.899   4.057   2.913
  105DPPC   C2913583   4.076   4.126   3.019
  105DPPC   H9R13584   4.049   4.234   3.015
  105DPPC   H9S13585   4.186   4.118   3.006
  105DPPC  C21013586   4.036   4.069   3.156
  105DPPC  H10R13587   4.054   3.960   3.157
  105DPPC  H10S13588   3.926   4.086   3.170
  105DPPC  C21113589   4.111   4.132   3.274
  105DPPC  H11R13590   4.065   4.095   3.368
  105DPPC  H11S13591   4.097   4.243   3.271
  105DPPC  C21213592   4.261   4.098   3.277
  105DPPC  H12R13593   4.312   4.143   3.189
  105DPPC  H12S13594   4.271   3.987   3.269
  105DPPC  C21313595   4.333   4.142   3.405
  105DPPC  H13R13596   4.437   4.101   3.403
  105DPPC  H13S13597   4.281   4.097   3.493
  105DPPC  C21413598   4.343   4.294   3.425
  105DPPC  H14R13599   4.241   4.339   3.419
  105DPPC  H14S13600   4.403   4.338   3.342
  105DPPC  C21513601   4.406   4.334   3.559
  105DPPC  H15R13602   4.508   4.291   3.565
  105DPPC  H15S13603   4.346   4.289   3.641
  105DPPC  C21613604   4.414   4.485   3.582
  105DPPC  H16R13605   4.459   4.507   3.681
  105DPPC  H16S13606   4.313   4.531   3.578
  105DPPC  H16T13607   4.478   4.532   3.504
  105DPPC   C3313608   3.806   3.683   2.458
  105DPPC   H3X13609   3.902   3.731   2.428
  105DPPC   H3Y13610   3.813   3.574   2.436
  105DPPC   C3413611   3.789   3.701   2.610
  105DPPC   H4X13612   3.696   3.649   2.643
  105DPPC   H4Y13613   3.778   3.809   2.632
  105DPPC   C3513614   3.908   3.645   2.690
  105DPPC   H5X13615   4.000   3.698   2.656
  105DPPC   H5Y13616   3.919   3.537   2.666
  105DPPC   C3613617   3.896   3.663   2.842
  105DPPC   H6X13618   3.801   3.617   2.878
  105DPPC   H6Y13619   3.893   3.772   2.864
  105DPPC   C3713620   4.014   3.600   2.918
  105DPPC   H7X13621   4.109   3.631   2.869
  105DPPC   H7Y13622   4.007   3.489   2.912
  105DPPC   C3813623   4.021   3.642   3.066
  105DPPC   H8X13624   3.927   3.611   3.117
  105DPPC   H8Y13625   4.027   3.753   3.069
  105DPPC   C3913626   4.142   3.583   3.140
  105DPPC   H9X13627   4.233   3.598   3.077
  105DPPC   H9Y13628   4.127   3.474   3.153
  105DPPC  C31013629   4.170   3.648   3.277
  105DPPC  H10X13630   4.193   3.755   3.262
  105DPPC  H10Y13631   4.260   3.599   3.320
  105DPPC  C31113632   4.053   3.636   3.377
  105DPPC  H11X13633   4.029   3.528   3.393
  105DPPC  H11Y13634   3.964   3.685   3.334
  105DPPC  C31213635   4.081   3.701   3.514
  105DPPC  H12X13636   3.987   3.694   3.575
  105DPPC  H12Y13637   4.104   3.809   3.499
  105DPPC  C31313638   4.195   3.635   3.594
  105DPPC  H13X13639   4.291   3.649   3.540
  105DPPC  H13Y13640   4.175   3.526   3.600
  105DPPC  C31413641   4.209   3.691   3.736
  105DPPC  H14X13642   4.112   3.679   3.790
  105DPPC  H14Y13643   4.231   3.800   3.730
  105DPPC  C31513644   4.319   3.622   3.817
  105DPPC  H15X13645   4.415   3.632   3.761
  105DPPC  H15Y13646   4.296   3.514   3.824
  105DPPC  C31613647   4.338   3.677   3.959
  105DPPC  H16X13648   4.420   3.624   4.011
  105DPPC  H16Y13649   4.244   3.665   4.018
  105DPPC  H16Z13650   4.363   3.785   3.955
  106DPPC     N13651   3.014   0.445   1.014
  106DPPC   C1313652   2.932   0.502   0.903
  106DPPC  H13A13653   2.972   0.471   0.808
  106DPPC  H13B13654   2.932   0.609   0.909
  106DPPC  H13C13655   2.831   0.465   0.913
  106DPPC   C1413656   3.010   0.297   1.006
  106DPPC  H14A13657   2.907   0.264   1.012
  106DPPC  H14B13658   3.067   0.253   1.086
  106DPPC  H14C13659   3.051   0.263   0.912
  106DPPC   C1513660   3.156   0.489   0.995
  106DPPC  H15A13661   3.161   0.597   1.004
  106DPPC  H15B13662   3.191   0.459   0.898
  106DPPC  H15C13663   3.218   0.445   1.072
  106DPPC   C1213664   2.967   0.492   1.149
  106DPPC  H12A13665   2.966   0.601   1.147
  106DPPC  H12B13666   3.041   0.462   1.222
  106DPPC   C1113667   2.829   0.444   1.201
  106DPPC  H11A13668   2.817   0.486   1.303
  106DPPC  H11B13669   2.833   0.333   1.212
  106DPPC     P13670   2.616   0.392   1.069
  106DPPC   O1313671   2.679   0.312   0.961
  106DPPC   O1413672   2.493   0.467   1.032
  106DPPC   O1113673   2.588   0.301   1.195
  106DPPC   O1213674   2.724   0.494   1.120
  106DPPC    C113675   2.476   0.322   1.282
  106DPPC    HA13676   2.401   0.242   1.263
  106DPPC    HB13677   2.425   0.420   1.264
  106DPPC    C213678   2.510   0.322   1.434
  106DPPC    HS13679   2.419   0.359   1.486
  106DPPC   O2113680   2.626   0.405   1.455
  106DPPC   C2113681   2.624   0.469   1.570
  106DPPC   O2213682   2.526   0.485   1.641
  106DPPC   C2213683   2.764   0.522   1.601
  106DPPC   H2R13684   2.780   0.615   1.541
  106DPPC   H2S13685   2.839   0.447   1.570
  106DPPC    C313686   2.539   0.178   1.488
  106DPPC    HX13687   2.617   0.134   1.422
  106DPPC    HY13688   2.445   0.119   1.476
  106DPPC   O3113689   2.584   0.179   1.625
  106DPPC   C3113690   2.601   0.058   1.677
  106DPPC   O3213691   2.569   6.372   1.623
  106DPPC   C3213692   2.672   0.070   1.812
  106DPPC   H2X13693   2.637   0.161   1.866
  106DPPC   H2Y13694   2.781   0.083   1.791
  106DPPC   C2313695   2.782   0.554   1.751
  106DPPC   H3R13696   2.703   0.625   1.786
  106DPPC   H3S13697   2.880   0.606   1.760
  106DPPC   C2413698   2.787   0.430   1.842
  106DPPC   H4R13699   2.856   0.357   1.795
  106DPPC   H4S13700   2.687   0.384   1.848
  106DPPC   C2513701   2.839   0.460   1.983
  106DPPC   H5R13702   2.765   0.522   2.038
  106DPPC   H5S13703   2.934   0.518   1.975
  106DPPC   C2613704   2.870   0.332   2.064
  106DPPC   H6R13705   2.942   0.270   2.006
  106DPPC   H6S13706   2.776   0.274   2.078
  106DPPC   C2713707   2.932   0.362   2.202
  106DPPC   H7R13708   2.857   0.414   2.266
  106DPPC   H7S13709   3.018   0.430   2.188
  106DPPC   C2813710   2.982   0.236   2.276
  106DPPC   H8R13711   3.060   0.188   2.213
  106DPPC   H8S13712   2.898   0.164   2.288
  106DPPC   C2913713   3.042   0.267   2.414
  106DPPC   H9R13714   2.961   0.306   2.480
  106DPPC   H9S13715   3.118   0.348   2.403
  106DPPC  C21013716   3.109   0.147   2.481
  106DPPC  H10R13717   3.196   0.116   2.419
  106DPPC  H10S13718   3.038   0.062   2.485
  106DPPC  C21113719   3.159   0.177   2.624
  106DPPC  H11R13720   3.071   0.197   2.689
  106DPPC  H11S13721   3.222   0.268   2.622
  106DPPC  C21213722   3.242   0.062   2.685
  106DPPC  H12R13723   3.333   0.048   2.622
  106DPPC  H12S13724   3.183   6.387   2.682
  106DPPC  C21313725   3.286   0.090   2.830
  106DPPC  H13R13726   3.197   0.093   2.895
  106DPPC  H13S13727   3.334   0.191   2.833
  106DPPC  C21413728   3.388   6.408   2.886
  106DPPC  H14R13729   3.416   0.021   2.989
  106DPPC  H14S13730   3.481   6.413   2.824
  106DPPC  C21513731   3.341   6.261   2.891
  106DPPC  H15R13732   3.425   6.200   2.932
  106DPPC  H15S13733   3.322   6.226   2.788
  106DPPC  C21613734   3.216   6.235   2.976
  106DPPC  H16R13735   3.128   6.287   2.931
  106DPPC  H16S13736   3.231   6.272   3.079
  106DPPC  H16T13737   3.194   6.126   2.979
  106DPPC   C3313738   2.654   6.363   1.899
  106DPPC   H3X13739   2.740   6.358   1.970
  106DPPC   H3Y13740   2.658   6.271   1.837
  106DPPC   C3413741   2.525   6.362   1.984
  106DPPC   H4X13742   2.515   6.260   2.029
  106DPPC   H4Y13743   2.437   6.380   1.919
  106DPPC   C3513744   2.527   0.045   2.100
  106DPPC   H5X13745   2.528   0.149   2.059
  106DPPC   H5Y13746   2.622   0.030   2.157
  106DPPC   C3613747   2.409   0.031   2.197
  106DPPC   H6X13748   2.404   6.344   2.231
  106DPPC   H6Y13749   2.315   0.054   2.143
  106DPPC   C3713750   2.423   0.122   2.320
  106DPPC   H7X13751   2.424   0.228   2.289
  106DPPC   H7Y13752   2.521   0.099   2.368
  106DPPC   C3813753   2.313   0.100   2.426
  106DPPC   H8X13754   2.347   0.148   2.521
  106DPPC   H8Y13755   2.302   6.410   2.445
  106DPPC   C3913756   2.177   0.160   2.389
  106DPPC   H9X13757   2.144   0.122   2.290
  106DPPC   H9Y13758   2.189   0.270   2.380
  106DPPC  C31013759   2.068   0.130   2.493
  106DPPC  H10X13760   2.110   0.147   2.594
  106DPPC  H10Y13761   2.038   0.024   2.485
  106DPPC  C31113762   1.943   0.219   2.477
  106DPPC  H11X13763   1.896   0.197   2.378
  106DPPC  H11Y13764   1.975   0.326   2.477
  106DPPC  C31213765   1.840   0.199   2.588
  106DPPC  H12X13766   1.887   0.222   2.687
  106DPPC  H12Y13767   1.807   0.093   2.590
  106DPPC  C31313768   1.716   0.289   2.570
  106DPPC  H13X13769   1.672   0.267   2.470
  106DPPC  H13Y13770   1.748   0.396   2.570
  106DPPC  C31413771   1.607   0.269   2.676
  106DPPC  H14X13772   1.648   0.295   2.776
  106DPPC  H14Y13773   1.578   0.162   2.677
  106DPPC  C31513774   1.483   0.355   2.649
  106DPPC  H15X13775   1.444   0.329   2.547
  106DPPC  H15Y13776   1.513   0.462   2.647
  106DPPC  C31613777   1.370   0.336   2.750
  106DPPC  H16X13778   1.336   0.230   2.752
  106DPPC  H16Y13779   1.283   0.401   2.724
  106DPPC  H16Z13780   1.405   0.363   2.852
  107DPPC     N13781   3.225   3.115   1.416
  107DPPC   C1313782   3.161   3.025   1.318
  107DPPC  H13A13783   3.111   2.945   1.371
  107DPPC  H13B13784   3.237   2.981   1.254
  107DPPC  H13C13785   3.090   3.080   1.257
  107DPPC   C1413786   3.298   3.224   1.345
  107DPPC  H14A13787   3.230   3.280   1.284
  107DPPC  H14B13788   3.374   3.179   1.281
  107DPPC  H14C13789   3.347   3.288   1.416
  107DPPC   C1513790   3.118   3.179   1.499
  107DPPC  H15A13791   3.048   3.230   1.435
  107DPPC  H15B13792   3.162   3.251   1.567
  107DPPC  H15C13793   3.067   3.103   1.556
  107DPPC   C1213794   3.318   3.039   1.507
  107DPPC  H12A13795   3.259   2.967   1.562
  107DPPC  H12B13796   3.357   3.110   1.580
  107DPPC   C1113797   3.439   2.964   1.446
  107DPPC  H11A13798   3.496   2.924   1.534
  107DPPC  H11B13799   3.503   3.037   1.392
  107DPPC     P13800   3.511   2.780   1.289
  107DPPC   O1313801   3.555   2.858   1.171
  107DPPC   O1413802   3.469   2.640   1.264
  107DPPC   O1113803   3.627   2.781   1.396
  107DPPC   O1213804   3.395   2.858   1.361
  107DPPC    C113805   3.704   2.665   1.428
  107DPPC    HA13806   3.796   2.701   1.480
  107DPPC    HB13807   3.736   2.611   1.337
  107DPPC    C213808   3.636   2.565   1.527
  107DPPC    HS13809   3.559   2.511   1.467
  107DPPC   O2113810   3.575   2.641   1.633
  107DPPC   C2113811   3.482   2.572   1.695
  107DPPC   O2213812   3.449   2.458   1.665
  107DPPC   C2213813   3.419   2.655   1.806
  107DPPC   H2R13814   3.310   2.663   1.785
  107DPPC   H2S13815   3.461   2.758   1.809
  107DPPC    C313816   3.741   2.462   1.580
  107DPPC    HX13817   3.775   2.405   1.490
  107DPPC    HY13818   3.692   2.390   1.649
  107DPPC   O3113819   3.853   2.527   1.646
  107DPPC   C3113820   3.957   2.446   1.667
  107DPPC   O3213821   3.960   2.328   1.637
  107DPPC   C3213822   4.071   2.522   1.732
  107DPPC   H2X13823   4.100   2.609   1.669
  107DPPC   H2Y13824   4.158   2.453   1.739
  107DPPC   C2313825   3.437   2.586   1.943
  107DPPC   H3R13826   3.423   2.476   1.934
  107DPPC   H3S13827   3.358   2.625   2.011
  107DPPC   C2413828   3.572   2.614   2.011
  107DPPC   H4R13829   3.583   2.724   2.025
  107DPPC   H4S13830   3.656   2.579   1.946
  107DPPC   C2513831   3.583   2.546   2.148
  107DPPC   H5R13832   3.584   2.436   2.134
  107DPPC   H5S13833   3.492   2.572   2.207
  107DPPC   C2613834   3.706   2.588   2.231
  107DPPC   H6R13835   3.702   2.698   2.249
  107DPPC   H6S13836   3.799   2.566   2.174
  107DPPC   C2713837   3.710   2.516   2.367
  107DPPC   H7R13838   3.728   2.408   2.349
  107DPPC   H7S13839   3.610   2.527   2.414
  107DPPC   C2813840   3.816   2.568   2.466
  107DPPC   H8R13841   3.801   2.677   2.480
  107DPPC   H8S13842   3.918   2.552   2.425
  107DPPC   C2913843   3.803   2.498   2.602
  107DPPC   H9R13844   3.822   2.389   2.590
  107DPPC   H9S13845   3.698   2.510   2.637
  107DPPC  C21013846   3.896   2.553   2.712
  107DPPC  H10R13847   3.882   2.663   2.717
  107DPPC  H10S13848   4.002   2.532   2.686
  107DPPC  C21113849   3.864   2.493   2.850
  107DPPC  H11R13850   3.884   2.384   2.850
  107DPPC  H11S13851   3.755   2.507   2.869
  107DPPC  C21213852   3.940   2.561   2.965
  107DPPC  H12R13853   3.940   2.670   2.946
  107DPPC  H12S13854   4.045   2.526   2.966
  107DPPC  C21313855   3.877   2.541   3.105
  107DPPC  H13R13856   3.777   2.589   3.105
  107DPPC  H13S13857   3.941   2.595   3.178
  107DPPC  C21413858   3.861   2.395   3.148
  107DPPC  H14R13859   3.961   2.346   3.149
  107DPPC  H14S13860   3.798   2.342   3.074
  107DPPC  C21513861   3.796   2.378   3.286
  107DPPC  H15R13862   3.784   2.269   3.306
  107DPPC  H15S13863   3.694   2.422   3.283
  107DPPC  C21613864   3.872   2.441   3.403
  107DPPC  H16R13865   3.973   2.395   3.412
  107DPPC  H16S13866   3.818   2.424   3.499
  107DPPC  H16T13867   3.884   2.550   3.389
  107DPPC   C3313868   4.033   2.570   1.873
  107DPPC   H3X13869   3.973   2.492   1.924
  107DPPC   H3Y13870   3.970   2.662   1.865
  107DPPC   C3413871   4.156   2.598   1.961
  107DPPC   H4X13872   4.221   2.673   1.911
  107DPPC   H4Y13873   4.214   2.503   1.969
  107DPPC   C3513874   4.122   2.646   2.103
  107DPPC   H5X13875   4.209   2.625   2.169
  107DPPC   H5Y13876   4.036   2.588   2.142
  107DPPC   C3613877   4.092   2.796   2.112
  107DPPC   H6X13878   4.012   2.822   2.040
  107DPPC   H6Y13879   4.184   2.851   2.082
  107DPPC   C3713880   4.051   2.843   2.252
  107DPPC   H7X13881   4.124   2.802   2.326
  107DPPC   H7Y13882   3.951   2.801   2.277
  107DPPC   C3813883   4.048   2.996   2.266
  107DPPC   H8X13884   3.974   3.037   2.194
  107DPPC   H8Y13885   4.148   3.036   2.240
  107DPPC   C3913886   4.011   3.042   2.408
  107DPPC   H9X13887   4.085   2.999   2.479
  107DPPC   H9Y13888   3.911   3.001   2.433
  107DPPC  C31013889   4.011   3.195   2.424
  107DPPC  H10X13890   3.935   3.237   2.355
  107DPPC  H10Y13891   4.111   3.234   2.393
  107DPPC  C31113892   3.982   3.244   2.567
  107DPPC  H11X13893   3.993   3.354   2.569
  107DPPC  H11Y13894   4.058   3.201   2.635
  107DPPC  C31213895   3.840   3.208   2.616
  107DPPC  H12X13896   3.827   3.098   2.611
  107DPPC  H12Y13897   3.766   3.254   2.547
  107DPPC  C31313898   3.809   3.252   2.760
  107DPPC  H13X13899   3.703   3.224   2.780
  107DPPC  H13Y13900   3.816   3.362   2.769
  107DPPC  C31413901   3.899   3.186   2.865
  107DPPC  H14X13902   4.001   3.229   2.857
  107DPPC  H14Y13903   3.906   3.077   2.843
  107DPPC  C31513904   3.851   3.202   3.011
  107DPPC  H15X13905   3.837   3.310   3.033
  107DPPC  H15Y13906   3.932   3.165   3.077
  107DPPC  C31613907   3.723   3.125   3.045
  107DPPC  H16X13908   3.637   3.164   2.986
  107DPPC  H16Y13909   3.700   3.135   3.153
  107DPPC  H16Z13910   3.736   3.017   3.022
  108DPPC     N13911   4.797   2.043   1.137
  108DPPC   C1313912   4.802   1.894   1.139
  108DPPC  H13A13913   4.804   1.860   1.241
  108DPPC  H13B13914   4.891   1.861   1.087
  108DPPC  H13C13915   4.715   1.855   1.087
  108DPPC   C1413916   4.799   2.086   0.994
  108DPPC  H14A13917   4.890   2.051   0.948
  108DPPC  H14B13918   4.792   2.194   0.988
  108DPPC  H14C13919   4.714   2.042   0.943
  108DPPC   C1513920   4.668   2.089   1.196
  108DPPC  H15A13921   4.587   2.045   1.140
  108DPPC  H15B13922   4.661   2.197   1.187
  108DPPC  H15C13923   4.662   2.059   1.300
  108DPPC   C1213924   4.915   2.103   1.210
  108DPPC  H12A13925   4.917   2.209   1.188
  108DPPC  H12B13926   5.005   2.059   1.167
  108DPPC   C1113927   4.922   2.086   1.363
  108DPPC  H11A13928   4.838   2.144   1.407
  108DPPC  H11B13929   5.018   2.131   1.398
  108DPPC     P13930   4.912   1.913   1.551
  108DPPC   O1313931   4.870   1.772   1.564
  108DPPC   O1413932   4.828   2.015   1.620
  108DPPC   O1113933   5.062   1.927   1.597
  108DPPC   O1213934   4.915   1.948   1.398
  108DPPC    C113935   5.109   2.032   1.684
  108DPPC    HA13936   5.073   2.132   1.650
  108DPPC    HB13937   5.220   2.036   1.676
  108DPPC    C213938   5.078   2.014   1.837
  108DPPC    HS13939   5.174   2.030   1.893
  108DPPC   O2113940   5.022   1.885   1.865
  108DPPC   C2113941   5.112   1.788   1.860
  108DPPC   O2213942   5.232   1.805   1.849
  108DPPC   C2213943   5.042   1.653   1.873
  108DPPC   H2R13944   5.087   1.586   1.796
  108DPPC   H2S13945   4.934   1.662   1.851
  108DPPC    C313946   4.980   2.122   1.891
  108DPPC    HX13947   4.878   2.095   1.856
  108DPPC    HY13948   5.003   2.220   1.844
  108DPPC   O3113949   4.978   2.130   2.036
  108DPPC   C3113950   5.066   2.216   2.089
  108DPPC   O3213951   5.143   2.284   2.023
  108DPPC   C3213952   5.060   2.212   2.241
  108DPPC   H2X13953   5.020   2.115   2.276
  108DPPC   H2Y13954   4.993   2.294   2.276
  108DPPC   C2313955   5.065   1.591   2.012
  108DPPC   H3R13956   5.171   1.597   2.042
  108DPPC   H3S13957   5.039   1.483   2.003
  108DPPC   C2413958   4.975   1.647   2.124
  108DPPC   H4R13959   4.970   1.570   2.204
  108DPPC   H4S13960   4.873   1.663   2.085
  108DPPC   C2513961   5.028   1.776   2.190
  108DPPC   H5R13962   5.035   1.857   2.115
  108DPPC   H5S13963   5.130   1.756   2.228
  108DPPC   C2613964   4.942   1.826   2.308
  108DPPC   H6R13965   4.995   1.911   2.356
  108DPPC   H6S13966   4.932   1.745   2.384
  108DPPC   C2713967   4.802   1.874   2.265
  108DPPC   H7R13968   4.740   1.786   2.235
  108DPPC   H7S13969   4.812   1.940   2.177
  108DPPC   C2813970   4.728   1.952   2.375
  108DPPC   H8R13971   4.788   2.041   2.401
  108DPPC   H8S13972   4.720   1.888   2.466
  108DPPC   C2913973   4.586   1.995   2.334
  108DPPC   H9R13974   4.527   1.904   2.309
  108DPPC   H9S13975   4.594   2.057   2.242
  108DPPC  C21013976   4.510   2.075   2.441
  108DPPC  H10R13977   4.496   2.013   2.531
  108DPPC  H10S13978   4.410   2.099   2.400
  108DPPC  C21113979   4.579   2.207   2.480
  108DPPC  H11R13980   4.613   2.258   2.387
  108DPPC  H11S13981   4.669   2.185   2.542
  108DPPC  C21213982   4.489   2.306   2.556
  108DPPC  H12R13983   4.547   2.400   2.573
  108DPPC  H12S13984   4.402   2.332   2.492
  108DPPC  C21313985   4.437   2.257   2.692
  108DPPC  H13R13986   4.524   2.223   2.753
  108DPPC  H13S13987   4.370   2.170   2.676
  108DPPC  C21413988   4.363   2.367   2.769
  108DPPC  H14R13989   4.431   2.454   2.780
  108DPPC  H14S13990   4.275   2.400   2.709
  108DPPC  C21513991   4.315   2.327   2.910
  108DPPC  H15R13992   4.403   2.294   2.969
  108DPPC  H15S13993   4.273   2.417   2.959
  108DPPC  C21613994   4.208   2.217   2.913
  108DPPC  H16R13995   4.176   2.198   3.017
  108DPPC  H16S13996   4.248   2.122   2.871
  108DPPC  H16T13997   4.120   2.247   2.853
  108DPPC   C3313998   5.202   2.234   2.299
  108DPPC   H3X13999   5.193   2.244   2.410
  108DPPC   H3Y14000   5.244   2.330   2.261
  108DPPC   C3414001   5.300   2.119   2.269
  108DPPC   H4X14002   5.299   2.101   2.159
  108DPPC   H4Y14003   5.264   2.027   2.319
  108DPPC   C3514004   5.445   2.148   2.310
  108DPPC   H5X14005   5.454   2.148   2.421
  108DPPC   H5Y14006   5.471   2.250   2.274
  108DPPC   C3614007   5.544   2.048   2.248
  108DPPC   H6X14008   5.521   2.043   2.139
  108DPPC   H6Y14009   5.529   1.947   2.290
  108DPPC   C3714010   5.692   2.088   2.260
  108DPPC   H7X14011   5.703   2.198   2.248
  108DPPC   H7Y14012   5.745   2.040   2.175
  108DPPC   C3814013   5.762   2.043   2.390
  108DPPC   H8X14014   5.754   1.932   2.397
  108DPPC   H8Y14015   5.708   2.087   2.477
  108DPPC   C3914016   5.911   2.082   2.398
  108DPPC   H9X14017   5.952   2.043   2.494
  108DPPC   H9Y14018   5.918   2.193   2.401
  108DPPC  C31014019   5.996   2.030   2.281
  108DPPC  H10X14020   5.955   2.071   2.186
  108DPPC  H10Y14021   5.989   1.919   2.276
  108DPPC  C31114022   6.145   2.072   2.287
  108DPPC  H11X14023   6.149   2.182   2.303
  108DPPC  H11Y14024   6.190   2.051   2.187
  108DPPC  C31214025   6.230   2.001   2.393
  108DPPC  H12X14026   6.188   2.021   2.494
  108DPPC  H12Y14027   0.029   2.046   2.389
  108DPPC  C31314028   6.244   1.849   2.372
  108DPPC  H13X14029   6.269   1.831   2.265
  108DPPC  H13Y14030   6.147   1.800   2.393
  108DPPC  C31414031   0.051   1.784   2.457
  108DPPC  H14X14032   0.149   1.828   2.427
  108DPPC  H14Y14033   0.054   1.675   2.433
  108DPPC  C31514034   0.035   1.800   2.609
  108DPPC  H15X14035   0.041   1.908   2.635
  108DPPC  H15Y14036   0.121   1.750   2.659
  108DPPC  C31614037   6.209   1.742   2.667
  108DPPC  H16X14038   6.201   1.634   2.643
  108DPPC  H16Y14039   6.208   1.753   2.778
  108DPPC  H16Z14040   6.120   1.794   2.626
  109DPPC     N14041   1.523   3.113   1.288
  109DPPC   C1314042   1.438   3.192   1.380
  109DPPC  H13A14043   1.433   3.295   1.346
  109DPPC  H13B14044   1.480   3.191   1.480
  109DPPC  H13C14045   1.337   3.151   1.382
  109DPPC   C1414046   1.464   3.120   1.151
  109DPPC  H14A14047   1.524   3.064   1.082
  109DPPC  H14B14048   1.457   3.224   1.120
  109DPPC  H14C14049   1.365   3.078   1.153
  109DPPC   C1514050   1.659   3.173   1.284
  109DPPC  H15A14051   1.720   3.121   1.212
  109DPPC  H15B14052   1.705   3.162   1.382
  109DPPC  H15C14053   1.652   3.278   1.260
  109DPPC   C1214054   1.528   2.968   1.330
  109DPPC  H12A14055   1.595   2.916   1.262
  109DPPC  H12B14056   1.429   2.927   1.317
  109DPPC   C1114057   1.573   2.936   1.474
  109DPPC  H11A14058   1.569   2.825   1.485
  109DPPC  H11B14059   1.500   2.981   1.544
  109DPPC     P14060   1.773   2.948   1.631
  109DPPC   O1314061   1.872   3.053   1.663
  109DPPC   O1414062   1.825   2.809   1.621
  109DPPC   O1114063   1.655   2.951   1.735
  109DPPC   O1214064   1.703   2.986   1.496
  109DPPC    C114065   1.615   3.073   1.800
  109DPPC    HA14066   1.503   3.079   1.798
  109DPPC    HB14067   1.652   3.164   1.749
  109DPPC    C214068   1.657   3.078   1.950
  109DPPC    HS14069   1.768   3.079   1.952
  109DPPC   O2114070   1.598   2.962   2.013
  109DPPC   C2114071   1.682   2.891   2.086
  109DPPC   O2214072   1.799   2.918   2.106
  109DPPC   C2214073   1.610   2.769   2.143
  109DPPC   H2R14074   1.655   2.677   2.100
  109DPPC   H2S14075   1.502   2.772   2.114
  109DPPC    C314076   1.607   3.210   2.017
  109DPPC    HX14077   1.505   3.230   1.975
  109DPPC    HY14078   1.671   3.294   1.985
  109DPPC   O3114079   1.593   3.203   2.161
  109DPPC   C3114080   1.707   3.211   2.229
  109DPPC   O3214081   1.817   3.224   2.179
  109DPPC   C3214082   1.676   3.203   2.378
  109DPPC   H2X14083   1.579   3.151   2.392
  109DPPC   H2Y14084   1.667   3.306   2.418
  109DPPC   C2314085   1.621   2.768   2.296
  109DPPC   H3R14086   1.588   2.866   2.337
  109DPPC   H3S14087   1.727   2.753   2.326
  109DPPC   C2414088   1.534   2.658   2.359
  109DPPC   H4R14089   1.573   2.559   2.327
  109DPPC   H4S14090   1.430   2.669   2.319
  109DPPC   C2514091   1.529   2.664   2.513
  109DPPC   H5R14092   1.483   2.760   2.545
  109DPPC   H5S14093   1.633   2.662   2.551
  109DPPC   C2614094   1.453   2.546   2.576
  109DPPC   H6R14095   1.472   2.544   2.685
  109DPPC   H6S14096   1.494   2.452   2.533
  109DPPC   C2714097   1.301   2.546   2.550
  109DPPC   H7R14098   1.264   2.443   2.566
  109DPPC   H7S14099   1.280   2.573   2.444
  109DPPC   C2814100   1.219   2.638   2.643
  109DPPC   H8R14101   1.115   2.643   2.603
  109DPPC   H8S14102   1.261   2.741   2.642
  109DPPC   C2914103   1.212   2.585   2.787
  109DPPC   H9R14104   1.312   2.593   2.835
  109DPPC   H9S14105   1.185   2.478   2.782
  109DPPC  C21014106   1.109   2.657   2.876
  109DPPC  H10R14107   1.010   2.660   2.825
  109DPPC  H10S14108   1.143   2.762   2.891
  109DPPC  C21114109   1.093   2.590   3.014
  109DPPC  H11R14110   1.040   2.660   3.082
  109DPPC  H11S14111   1.195   2.573   3.055
  109DPPC  C21214112   1.014   2.458   3.009
  109DPPC  H12R14113   1.040   2.402   2.917
  109DPPC  H12S14114   0.906   2.483   3.001
  109DPPC  C21314115   1.035   2.365   3.129
  109DPPC  H13R14116   0.963   2.281   3.122
  109DPPC  H13S14117   1.013   2.420   3.223
  109DPPC  C21414118   1.177   2.305   3.141
  109DPPC  H14R14119   1.181   2.243   3.234
  109DPPC  H14S14120   1.251   2.386   3.152
  109DPPC  C21514121   1.217   2.215   3.023
  109DPPC  H15R14122   1.218   2.276   2.929
  109DPPC  H15S14123   1.141   2.135   3.011
  109DPPC  C21614124   1.355   2.150   3.038
  109DPPC  H16R14125   1.433   2.228   3.048
  109DPPC  H16S14126   1.377   2.087   2.950
  109DPPC  H16T14127   1.357   2.086   3.129
  109DPPC   C3314128   1.787   3.128   2.454
  109DPPC   H3X14129   1.882   3.185   2.444
  109DPPC   H3Y14130   1.802   3.027   2.409
  109DPPC   C3414131   1.756   3.111   2.604
  109DPPC   H4X14132   1.729   3.209   2.647
  109DPPC   H4Y14133   1.849   3.075   2.654
  109DPPC   C3514134   1.645   3.009   2.634
  109DPPC   H5X14135   1.680   2.909   2.600
  109DPPC   H5Y14136   1.553   3.034   2.576
  109DPPC   C3614137   1.607   3.001   2.783
  109DPPC   H6X14138   1.558   3.096   2.813
  109DPPC   H6Y14139   1.700   2.989   2.843
  109DPPC   C3714140   1.514   2.882   2.814
  109DPPC   H7X14141   1.569   2.789   2.789
  109DPPC   H7Y14142   1.424   2.887   2.748
  109DPPC   C3814143   1.468   2.873   2.961
  109DPPC   H8X14144   1.555   2.887   3.028
  109DPPC   H8Y14145   1.428   2.771   2.977
  109DPPC   C3914146   1.357   2.973   2.998
  109DPPC   H9X14147   1.274   2.962   2.925
  109DPPC   H9Y14148   1.396   3.077   2.990
  109DPPC  C31014149   1.302   2.950   3.139
  109DPPC  H10X14150   1.383   2.969   3.213
  109DPPC  H10Y14151   1.272   2.843   3.148
  109DPPC  C31114152   1.180   3.038   3.174
  109DPPC  H11X14153   1.100   3.018   3.100
  109DPPC  H11Y14154   1.210   3.144   3.166
  109DPPC  C31214155   1.128   3.011   3.316
  109DPPC  H12X14156   1.211   3.027   3.388
  109DPPC  H12Y14157   1.097   2.905   3.324
  109DPPC  C31314158   1.010   3.101   3.359
  109DPPC  H13X14159   1.038   3.207   3.343
  109DPPC  H13Y14160   0.994   3.086   3.468
  109DPPC  C31414161   0.878   3.070   3.286
  109DPPC  H14X14162   0.853   2.963   3.300
  109DPPC  H14Y14163   0.893   3.087   3.177
  109DPPC  C31514164   0.758   3.155   3.331
  109DPPC  H15X14165   0.671   3.128   3.267
  109DPPC  H15Y14166   0.781   3.263   3.313
  109DPPC  C31614167   0.718   3.138   3.478
  109DPPC  H16X14168   0.626   3.197   3.500
  109DPPC  H16Y14169   0.799   3.173   3.546
  109DPPC  H16Z14170   0.697   3.031   3.500
  110DPPC     N14171   1.309   1.487   1.205
  110DPPC   C1314172   1.243   1.526   1.078
  110DPPC  H13A14173   1.230   1.633   1.076
  110DPPC  H13B14174   1.146   1.479   1.072
  110DPPC  H13C14175   1.303   1.494   0.994
  110DPPC   C1414176   1.321   1.339   1.210
  110DPPC  H14A14177   1.222   1.295   1.205
  110DPPC  H14B14178   1.366   1.309   1.304
  110DPPC  H14C14179   1.380   1.303   1.127
  110DPPC   C1514180   1.445   1.546   1.209
  110DPPC  H15A14181   1.438   1.653   1.209
  110DPPC  H15B14182   1.502   1.512   1.123
  110DPPC  H15C14183   1.495   1.514   1.300
  110DPPC   C1214184   1.229   1.538   1.323
  110DPPC  H12A14185   1.243   1.645   1.328
  110DPPC  H12B14186   1.272   1.494   1.413
  110DPPC   C1114187   1.076   1.512   1.324
  110DPPC  H11A14188   1.029   1.576   1.246
  110DPPC  H11B14189   1.040   1.546   1.424
  110DPPC     P14190   0.898   1.334   1.314
  110DPPC   O1314191   0.884   1.187   1.298
  110DPPC   O1414192   0.817   1.415   1.219
  110DPPC   O1114193   0.859   1.374   1.461
  110DPPC   O1214194   1.049   1.374   1.302
  110DPPC    C114195   0.933   1.329   1.574
  110DPPC    HA14196   0.969   1.418   1.631
  110DPPC    HB14197   1.023   1.269   1.547
  110DPPC    C214198   0.845   1.244   1.671
  110DPPC    HS14199   0.820   1.150   1.616
  110DPPC   O2114200   0.729   1.324   1.701
  110DPPC   C2114201   0.621   1.252   1.722
  110DPPC   O2214202   0.614   1.130   1.715
  110DPPC   C2214203   0.505   1.345   1.758
  110DPPC   H2R14204   0.443   1.359   1.668
  110DPPC   H2S14205   0.543   1.444   1.791
  110DPPC    C314206   0.924   1.207   1.800
  110DPPC    HX14207   0.962   1.303   1.842
  110DPPC    HY14208   1.014   1.148   1.772
  110DPPC   O3114209   0.846   1.142   1.903
  110DPPC   C3114210   0.835   1.010   1.890
  110DPPC   O3214211   0.886   0.944   1.800
  110DPPC   C3214212   0.752   0.952   2.005
  110DPPC   H2X14213   0.741   1.028   2.085
  110DPPC   H2Y14214   0.651   0.926   1.967
  110DPPC   C2314215   0.422   1.282   1.871
  110DPPC   H3R14216   0.391   1.179   1.844
  110DPPC   H3S14217   0.329   1.343   1.883
  110DPPC   C2414218   0.495   1.282   2.006
  110DPPC   H4R14219   0.523   1.387   2.031
  110DPPC   H4S14220   0.589   1.223   1.997
  110DPPC   C2514221   0.412   1.225   2.122
  110DPPC   H5R14222   0.386   1.119   2.101
  110DPPC   H5S14223   0.317   1.283   2.129
  110DPPC   C2614224   0.486   1.235   2.256
  110DPPC   H6R14225   0.517   1.340   2.271
  110DPPC   H6S14226   0.578   1.172   2.252
  110DPPC   C2714227   0.400   1.192   2.376
  110DPPC   H7R14228   0.377   1.084   2.370
  110DPPC   H7S14229   0.304   1.248   2.371
  110DPPC   C2814230   0.466   1.224   2.511
  110DPPC   H8R14231   0.496   1.331   2.510
  110DPPC   H8S14232   0.558   1.163   2.522
  110DPPC   C2914233   0.374   1.201   2.631
  110DPPC   H9R14234   0.352   1.092   2.640
  110DPPC   H9S14235   0.278   1.253   2.613
  110DPPC  C21014236   0.434   1.253   2.762
  110DPPC  H10R14237   0.456   1.361   2.750
  110DPPC  H10S14238   0.530   1.200   2.782
  110DPPC  C21114239   0.341   1.235   2.883
  110DPPC  H11R14240   0.325   1.126   2.900
  110DPPC  H11S14241   0.243   1.281   2.860
  110DPPC  C21214242   0.399   1.298   3.011
  110DPPC  H12R14243   0.406   1.408   2.996
  110DPPC  H12S14244   0.502   1.259   3.025
  110DPPC  C21314245   0.320   1.269   3.139
  110DPPC  H13R14246   0.374   1.317   3.223
  110DPPC  H13S14247   0.320   1.159   3.157
  110DPPC  C21414248   0.175   1.319   3.138
  110DPPC  H14R14249   0.120   1.274   3.053
  110DPPC  H14S14250   0.175   1.429   3.124
  110DPPC  C21514251   0.097   1.285   3.267
  110DPPC  H15R14252   0.091   1.174   3.275
  110DPPC  H15S14253   6.296   1.324   3.256
  110DPPC  C21614254   0.156   1.341   3.396
  110DPPC  H16R14255   0.089   1.319   3.482
  110DPPC  H16S14256   0.169   1.451   3.389
  110DPPC  H16T14257   0.255   1.295   3.417
  110DPPC   C3314258   0.822   0.827   2.060
  110DPPC   H3X14259   0.827   0.749   1.982
  110DPPC   H3Y14260   0.927   0.852   2.088
  110DPPC   C3414261   0.755   0.767   2.185
  110DPPC   H4X14262   0.807   0.671   2.207
  110DPPC   H4Y14263   0.649   0.743   2.163
  110DPPC   C3514264   0.764   0.857   2.309
  110DPPC   H5X14265   0.683   0.934   2.305
  110DPPC   H5Y14266   0.862   0.910   2.307
  110DPPC   C3614267   0.756   0.779   2.441
  110DPPC   H6X14268   0.840   0.706   2.443
  110DPPC   H6Y14269   0.661   0.723   2.447
  110DPPC   C3714270   0.768   0.871   2.564
  110DPPC   H7X14271   0.673   0.929   2.573
  110DPPC   H7Y14272   0.850   0.945   2.547
  110DPPC   C3814273   0.795   0.798   2.696
  110DPPC   H8X14274   0.728   0.710   2.705
  110DPPC   H8Y14275   0.772   0.868   2.779
  110DPPC   C3914276   0.942   0.752   2.713
  110DPPC   H9X14277   1.008   0.839   2.692
  110DPPC   H9Y14278   0.965   0.673   2.638
  110DPPC  C31014279   0.972   0.701   2.854
  110DPPC  H10X14280   0.914   0.609   2.874
  110DPPC  H10Y14281   0.939   0.779   2.927
  110DPPC  C31114282   1.121   0.674   2.880
  110DPPC  H11X14283   1.180   0.763   2.848
  110DPPC  H11Y14284   1.155   0.588   2.818
  110DPPC  C31214285   1.152   0.646   3.028
  110DPPC  H12X14286   1.100   0.553   3.060
  110DPPC  H12Y14287   1.110   0.731   3.087
  110DPPC  C31314288   1.301   0.635   3.061
  110DPPC  H13X14289   1.355   0.719   3.012
  110DPPC  H13Y14290   1.342   0.540   3.020
  110DPPC  C31414291   1.328   0.643   3.212
  110DPPC  H14X14292   1.272   0.562   3.264
  110DPPC  H14Y14293   1.288   0.740   3.249
  110DPPC  C31514294   1.476   0.635   3.251
  110DPPC  H15X14295   1.532   0.712   3.193
  110DPPC  H15Y14296   1.516   0.535   3.222
  110DPPC  C31614297   1.501   0.658   3.400
  110DPPC  H16X14298   1.461   0.757   3.431
  110DPPC  H16Y14299   1.610   0.657   3.423
  110DPPC  H16Z14300   1.451   0.580   3.461
  111DPPC     N14301   1.527   6.211   1.183
  111DPPC   C1314302   1.425   6.288   1.260
  111DPPC  H13A14303   1.365   6.347   1.192
  111DPPC  H13B14304   1.475   6.353   1.330
  111DPPC  H13C14305   1.361   6.219   1.313
  111DPPC   C1414306   1.457   6.122   1.087
  111DPPC  H14A14307   1.390   6.056   1.140
  111DPPC  H14B14308   1.529   6.062   1.033
  111DPPC  H14C14309   1.400   6.182   1.016
  111DPPC   C1514310   1.611   6.307   1.107
  111DPPC  H15A14311   1.664   6.371   1.176
  111DPPC  H15B14312   1.548   6.367   1.042
  111DPPC  H15C14313   1.682   6.252   1.046
  111DPPC   C1214314   1.616   6.134   1.278
  111DPPC  H12A14315   1.663   6.206   1.344
  111DPPC  H12B14316   1.694   6.088   1.218
  111DPPC   C1114317   1.553   6.023   1.365
  111DPPC  H11A14318   1.469   6.067   1.424
  111DPPC  H11B14319   1.628   5.988   1.440
  111DPPC     P14320   1.601   5.813   1.228
  111DPPC   O1314321   1.687   5.875   1.123
  111DPPC   O1414322   1.520   5.696   1.186
  111DPPC   O1114323   1.692   5.775   1.351
  111DPPC   O1214324   1.502   5.919   1.285
  111DPPC    C114325   1.749   5.644   1.364
  111DPPC    HA14326   1.843   5.652   1.423
  111DPPC    HB14327   1.777   5.601   1.265
  111DPPC    C214328   1.656   5.543   1.438
  111DPPC    HS14329   1.561   5.540   1.380
  111DPPC   O2114330   1.635   5.592   1.572
  111DPPC   C2114331   1.528   5.540   1.629
  111DPPC   O2214332   1.448   5.467   1.572
  111DPPC   C2214333   1.519   5.587   1.774
  111DPPC   H2R14334   1.476   5.690   1.775
  111DPPC   H2S14335   1.622   5.591   1.817
  111DPPC    C314336   1.719   5.400   1.436
  111DPPC    HX14337   1.730   5.371   1.329
  111DPPC    HY14338   1.647   5.326   1.479
  111DPPC   O3114339   1.850   5.394   1.497
  111DPPC   C3114340   1.851   5.364   1.627
  111DPPC   O3214341   1.752   5.341   1.695
  111DPPC   C3214342   1.996   5.361   1.677
  111DPPC   H2X14343   2.061   5.330   1.592
  111DPPC   H2Y14344   2.006   5.286   1.757
  111DPPC   C2314345   1.432   5.493   1.858
  111DPPC   H3R14346   1.476   5.391   1.856
  111DPPC   H3S14347   1.329   5.487   1.814
  111DPPC   C2414348   1.419   5.540   2.004
  111DPPC   H4R14349   1.375   5.643   2.002
  111DPPC   H4S14350   1.521   5.548   2.049
  111DPPC   C2514351   1.331   5.452   2.094
  111DPPC   H5R14352   1.231   5.441   2.047
  111DPPC   H5S14353   1.318   5.506   2.191
  111DPPC   C2614354   1.390   5.313   2.123
  111DPPC   H6R14355   1.490   5.325   2.168
  111DPPC   H6S14356   1.404   5.260   2.026
  111DPPC   C2714357   1.302   5.224   2.214
  111DPPC   H7R14358   1.352   5.125   2.225
  111DPPC   H7S14359   1.205   5.207   2.163
  111DPPC   C2814360   1.274   5.280   2.355
  111DPPC   H8R14361   1.209   5.208   2.410
  111DPPC   H8S14362   1.216   5.375   2.344
  111DPPC   C2914363   1.400   5.307   2.438
  111DPPC   H9R14364   1.453   5.212   2.459
  111DPPC   H9S14365   1.469   5.372   2.378
  111DPPC  C21014366   1.373   5.381   2.570
  111DPPC  H10R14367   1.308   5.469   2.546
  111DPPC  H10S14368   1.317   5.316   2.641
  111DPPC  C21114369   1.502   5.433   2.636
  111DPPC  H11R14370   1.553   5.350   2.689
  111DPPC  H11S14371   1.569   5.468   2.554
  111DPPC  C21214372   1.482   5.553   2.730
  111DPPC  H12R14373   1.432   5.635   2.674
  111DPPC  H12S14374   1.583   5.590   2.759
  111DPPC  C21314375   1.403   5.524   2.858
  111DPPC  H13R14376   1.450   5.439   2.911
  111DPPC  H13S14377   1.299   5.495   2.831
  111DPPC  C21414378   1.400   5.646   2.952
  111DPPC  H14R14379   1.356   5.732   2.896
  111DPPC  H14S14380   1.504   5.673   2.980
  111DPPC  C21514381   1.318   5.624   3.080
  111DPPC  H15R14382   1.364   5.541   3.138
  111DPPC  H15S14383   1.215   5.593   3.052
  111DPPC  C21614384   1.310   5.748   3.169
  111DPPC  H16R14385   1.254   5.726   3.262
  111DPPC  H16S14386   1.258   5.831   3.116
  111DPPC  H16T14387   1.411   5.783   3.196
  111DPPC   C3314388   2.041   5.501   1.723
  111DPPC   H3X14389   2.007   5.577   1.650
  111DPPC   H3Y14390   2.153   5.502   1.722
  111DPPC   C3414391   1.997   5.541   1.865
  111DPPC   H4X14392   1.886   5.540   1.871
  111DPPC   H4Y14393   2.032   5.645   1.882
  111DPPC   C3514394   2.055   5.451   1.976
  111DPPC   H5X14395   2.166   5.447   1.965
  111DPPC   H5Y14396   2.016   5.348   1.963
  111DPPC   C3614397   2.021   5.497   2.118
  111DPPC   H6X14398   2.055   5.418   2.188
  111DPPC   H6Y14399   1.911   5.508   2.129
  111DPPC   C3714400   2.090   5.628   2.160
  111DPPC   H7X14401   2.052   5.713   2.099
  111DPPC   H7Y14402   2.199   5.618   2.139
  111DPPC   C3814403   2.074   5.661   2.309
  111DPPC   H8X14404   2.145   5.742   2.334
  111DPPC   H8Y14405   2.101   5.572   2.369
  111DPPC   C3914406   1.933   5.708   2.348
  111DPPC   H9X14407   1.860   5.625   2.338
  111DPPC   H9Y14408   1.903   5.788   2.277
  111DPPC  C31014409   1.926   5.767   2.490
  111DPPC  H10X14410   1.827   5.816   2.504
  111DPPC  H10Y14411   2.004   5.846   2.499
  111DPPC  C31114412   1.946   5.665   2.604
  111DPPC  H11X14413   2.035   5.601   2.583
  111DPPC  H11Y14414   1.857   5.599   2.608
  111DPPC  C31214415   1.967   5.733   2.740
  111DPPC  H12X14416   1.886   5.807   2.757
  111DPPC  H12Y14417   2.063   5.788   2.736
  111DPPC  C31314418   1.971   5.636   2.860
  111DPPC  H13X14419   2.005   5.695   2.948
  111DPPC  H13Y14420   2.045   5.556   2.842
  111DPPC  C31414421   1.833   5.575   2.893
  111DPPC  H14X14422   1.810   5.495   2.820
  111DPPC  H14Y14423   1.756   5.655   2.883
  111DPPC  C31514424   1.822   5.520   3.036
  111DPPC  H15X14425   1.719   5.479   3.050
  111DPPC  H15Y14426   1.834   5.604   3.108
  111DPPC  C31614427   1.923   5.410   3.072
  111DPPC  H16X14428   1.912   5.325   3.002
  111DPPC  H16Y14429   1.905   5.374   3.176
  111DPPC  H16Z14430   2.027   5.449   3.066
  112DPPC     N14431   4.750   4.455   1.968
  112DPPC   C1314432   4.701   4.471   2.108
  112DPPC  H13A14433   4.754   4.402   2.172
  112DPPC  H13B14434   4.595   4.451   2.112
  112DPPC  H13C14435   4.718   4.572   2.141
  112DPPC   C1414436   4.712   4.320   1.920
  112DPPC  H14A14437   4.752   4.245   1.988
  112DPPC  H14B14438   4.755   4.304   1.822
  112DPPC  H14C14439   4.605   4.309   1.915
  112DPPC   C1514440   4.684   4.559   1.883
  112DPPC  H15A14441   4.715   4.547   1.780
  112DPPC  H15B14442   4.712   4.657   1.918
  112DPPC  H15C14443   4.577   4.548   1.888
  112DPPC   C1214444   4.900   4.472   1.966
  112DPPC  H12A14445   4.943   4.387   2.019
  112DPPC  H12B14446   4.924   4.561   2.024
  112DPPC   C1114447   4.971   4.485   1.829
  112DPPC  H11A14448   4.947   4.586   1.788
  112DPPC  H11B14449   5.081   4.481   1.850
  112DPPC     P14450   5.011   4.375   1.606
  112DPPC   O1314451   5.045   4.511   1.560
  112DPPC   O1414452   4.936   4.290   1.510
  112DPPC   O1114453   5.143   4.301   1.648
  112DPPC   O1214454   4.930   4.382   1.740
  112DPPC    C114455   5.150   4.162   1.684
  112DPPC    HA14456   5.243   4.120   1.639
  112DPPC    HB14457   5.065   4.103   1.645
  112DPPC    C214458   5.162   4.138   1.838
  112DPPC    HS14459   5.060   4.158   1.879
  112DPPC   O2114460   5.261   4.229   1.890
  112DPPC   C2114461   5.236   4.270   2.013
  112DPPC   O2214462   5.139   4.236   2.079
  112DPPC   C2214463   5.343   4.368   2.060
  112DPPC   H2R14464   5.300   4.470   2.065
  112DPPC   H2S14465   5.426   4.369   1.986
  112DPPC    C314466   5.199   3.988   1.867
  112DPPC    HX14467   5.285   3.964   1.802
  112DPPC    HY14468   5.115   3.923   1.833
  112DPPC   O3114469   5.238   3.962   2.004
  112DPPC   C3114470   5.140   3.929   2.087
  112DPPC   O3214471   5.023   3.915   2.056
  112DPPC   C3214472   5.199   3.914   2.227
  112DPPC   H2X14473   5.242   4.012   2.257
  112DPPC   H2Y14474   5.282   3.840   2.223
  112DPPC   C2314475   5.400   4.327   2.197
  112DPPC   H3R14476   5.496   4.382   2.211
  112DPPC   H3S14477   5.423   4.219   2.198
  112DPPC   C2414478   5.311   4.363   2.318
  112DPPC   H4R14479   5.214   4.308   2.308
  112DPPC   H4S14480   5.288   4.472   2.317
  112DPPC   C2514481   5.374   4.325   2.453
  112DPPC   H5R14482   5.460   4.392   2.474
  112DPPC   H5S14483   5.414   4.221   2.443
  112DPPC   C2614484   5.275   4.325   2.571
  112DPPC   H6R14485   5.326   4.281   2.659
  112DPPC   H6S14486   5.190   4.259   2.544
  112DPPC   C2714487   5.218   4.462   2.610
  112DPPC   H7R14488   5.134   4.444   2.681
  112DPPC   H7S14489   5.175   4.512   2.520
  112DPPC   C2814490   5.318   4.556   2.679
  112DPPC   H8R14491   5.397   4.585   2.607
  112DPPC   H8S14492   5.368   4.500   2.762
  112DPPC   C2914493   5.255   4.683   2.739
  112DPPC   H9R14494   5.336   4.745   2.782
  112DPPC   H9S14495   5.187   4.653   2.822
  112DPPC  C21014496   5.176   4.767   2.637
  112DPPC  H10R14497   5.086   4.711   2.604
  112DPPC  H10S14498   5.241   4.784   2.548
  112DPPC  C21114499   5.131   4.904   2.690
  112DPPC  H11R14500   5.075   4.956   2.609
  112DPPC  H11S14501   5.221   4.965   2.714
  112DPPC  C21214502   5.042   4.898   2.816
  112DPPC  H12R14503   5.100   4.851   2.898
  112DPPC  H12S14504   4.954   4.832   2.795
  112DPPC  C21314505   4.993   5.035   2.865
  112DPPC  H13R14506   5.081   5.100   2.880
  112DPPC  H13S14507   4.944   5.022   2.964
  112DPPC  C21414508   4.893   5.107   2.772
  112DPPC  H14R14509   4.938   5.118   2.671
  112DPPC  H14S14510   4.876   5.209   2.812
  112DPPC  C21514511   4.757   5.037   2.760
  112DPPC  H15R14512   4.715   5.023   2.862
  112DPPC  H15S14513   4.771   4.936   2.715
  112DPPC  C21614514   4.655   5.114   2.675
  112DPPC  H16R14515   4.636   5.214   2.718
  112DPPC  H16S14516   4.559   5.058   2.671
  112DPPC  H16T14517   4.693   5.126   2.571
  112DPPC   C3314518   5.093   3.869   2.328
  112DPPC   H3X14519   5.050   3.772   2.294
  112DPPC   H3Y14520   5.011   3.943   2.334
  112DPPC   C3414521   5.151   3.847   2.470
  112DPPC   H4X14522   5.237   3.777   2.463
  112DPPC   H4Y14523   5.073   3.799   2.533
  112DPPC   C3514524   5.197   3.977   2.539
  112DPPC   H5X14525   5.109   4.045   2.547
  112DPPC   H5Y14526   5.273   4.028   2.477
  112DPPC   C3614527   5.255   3.956   2.680
  112DPPC   H6X14528   5.183   3.896   2.740
  112DPPC   H6Y14529   5.265   4.056   2.728
  112DPPC   C3714530   5.393   3.889   2.681
  112DPPC   H7X14531   5.460   3.945   2.612
  112DPPC   H7Y14532   5.384   3.785   2.642
  112DPPC   C3814533   5.460   3.885   2.819
  112DPPC   H8X14534   5.475   3.989   2.855
  112DPPC   H8Y14535   5.561   3.838   2.808
  112DPPC   C3914536   5.381   3.806   2.925
  112DPPC   H9X14537   5.361   3.704   2.888
  112DPPC   H9Y14538   5.283   3.857   2.941
  112DPPC  C31014539   5.453   3.797   3.060
  112DPPC  H10X14540   5.483   3.900   3.092
  112DPPC  H10Y14541   5.546   3.737   3.048
  112DPPC  C31114542   5.366   3.736   3.171
  112DPPC  H11X14543   5.334   3.634   3.140
  112DPPC  H11Y14544   5.275   3.799   3.182
  112DPPC  C31214545   5.437   3.728   3.307
  112DPPC  H12X14546   5.485   3.826   3.327
  112DPPC  H12Y14547   5.518   3.651   3.302
  112DPPC  C31314548   5.343   3.697   3.425
  112DPPC  H13X14549   5.267   3.778   3.430
  112DPPC  H13Y14550   5.403   3.701   3.519
  112DPPC  C31414551   5.270   3.562   3.417
  112DPPC  H14X14552   5.345   3.480   3.421
  112DPPC  H14Y14553   5.217   3.555   3.320
  112DPPC  C31514554   5.166   3.541   3.529
  112DPPC  H15X14555   5.117   3.442   3.512
  112DPPC  H15Y14556   5.088   3.619   3.520
  112DPPC  C31614557   5.223   3.543   3.672
  112DPPC  H16X14558   5.142   3.522   3.745
  112DPPC  H16Y14559   5.266   3.643   3.695
  112DPPC  H16Z14560   5.302   3.467   3.683
  113DPPC     N14561   3.770   6.008   1.299
  113DPPC   C1314562   3.863   6.110   1.243
  113DPPC  H13A14563   3.895   6.080   1.145
  113DPPC  H13B14564   3.949   6.119   1.307
  113DPPC  H13C14565   3.811   6.205   1.236
  113DPPC   C1414566   3.653   5.995   1.208
  113DPPC  H14A14567   3.584   5.921   1.245
  113DPPC  H14B14568   3.687   5.967   1.109
  113DPPC  H14C14569   3.601   6.090   1.203
  113DPPC   C1514570   3.838   5.876   1.305
  113DPPC  H15A14571   3.867   5.846   1.205
  113DPPC  H15B14572   3.772   5.802   1.348
  113DPPC  H15C14573   3.926   5.884   1.367
  113DPPC   C1214574   3.721   6.052   1.436
  113DPPC  H12A14575   3.657   5.973   1.474
  113DPPC  H12B14576   3.660   6.140   1.421
  113DPPC   C1114577   3.827   6.084   1.544
  113DPPC  H11A14578   3.774   6.114   1.637
  113DPPC  H11B14579   3.887   6.172   1.509
  113DPPC     P14580   4.054   5.987   1.611
  113DPPC   O1314581   4.131   6.020   1.489
  113DPPC   O1414582   4.097   5.865   1.683
  113DPPC   O1114583   4.053   6.110   1.709
  113DPPC   O1214584   3.904   5.968   1.570
  113DPPC    C114585   4.176   6.172   1.750
  113DPPC    HA14586   4.151   6.265   1.806
  113DPPC    HB14587   4.237   6.203   1.662
  113DPPC    C214588   4.263   6.085   1.846
  113DPPC    HS14589   4.293   5.994   1.789
  113DPPC   O2114590   4.181   6.051   1.959
  113DPPC   C2114591   4.226   5.947   2.026
  113DPPC   O2214592   4.329   5.886   2.001
  113DPPC   C2214593   4.130   5.918   2.142
  113DPPC   H2R14594   4.026   5.919   2.103
  113DPPC   H2S14595   4.141   5.998   2.218
  113DPPC    C314596   4.395   6.159   1.887
  113DPPC    HX14597   4.447   6.188   1.793
  113DPPC    HY14598   4.460   6.087   1.941
  113DPPC   O3114599   4.369   6.275   1.969
  113DPPC   C3114600   4.479   6.338   2.008
  113DPPC   O3214601   4.592   6.309   1.972
  113DPPC   C3214602   4.440   0.028   2.109
  113DPPC   H2X14603   4.377   6.399   2.187
  113DPPC   H2Y14604   4.380   0.106   2.058
  113DPPC   C2314605   4.160   5.781   2.205
  113DPPC   H3R14606   4.261   5.781   2.250
  113DPPC   H3S14607   4.158   5.704   2.124
  113DPPC   C2414608   4.056   5.739   2.311
  113DPPC   H4R14609   4.083   5.638   2.349
  113DPPC   H4S14610   3.956   5.730   2.261
  113DPPC   C2514611   4.042   5.834   2.431
  113DPPC   H5R14612   3.965   5.792   2.500
  113DPPC   H5S14613   4.004   5.933   2.396
  113DPPC   C2614614   4.172   5.855   2.510
  113DPPC   H6R14615   4.247   5.904   2.444
  113DPPC   H6S14616   4.212   5.755   2.540
  113DPPC   C2714617   4.154   5.941   2.636
  113DPPC   H7R14618   4.082   5.890   2.705
  113DPPC   H7S14619   4.109   6.039   2.607
  113DPPC   C2814620   4.285   5.966   2.711
  113DPPC   H8R14621   4.356   6.019   2.643
  113DPPC   H8S14622   4.331   5.868   2.738
  113DPPC   C2914623   4.268   6.050   2.838
  113DPPC   H9R14624   4.198   5.997   2.907
  113DPPC   H9S14625   4.222   6.148   2.812
  113DPPC  C21014626   4.400   6.076   2.912
  113DPPC  H10R14627   4.468   6.135   2.847
  113DPPC  H10S14628   4.449   5.978   2.932
  113DPPC  C21114629   4.382   6.149   3.046
  113DPPC  H11R14630   4.313   6.090   3.110
  113DPPC  H11S14631   4.333   6.248   3.027
  113DPPC  C21214632   4.513   6.172   3.122
  113DPPC  H12R14633   4.580   6.237   3.060
  113DPPC  H12S14634   4.564   6.074   3.136
  113DPPC  C21314635   4.492   6.238   3.259
  113DPPC  H13R14636   4.430   6.171   3.322
  113DPPC  H13S14637   4.435   6.333   3.244
  113DPPC  C21414638   4.621   6.272   3.335
  113DPPC  H14R14639   4.593   6.325   3.429
  113DPPC  H14S14640   4.682   6.342   3.273
  113DPPC  C21514641   4.708   6.151   3.373
  113DPPC  H15R14642   4.743   6.101   3.280
  113DPPC  H15S14643   4.644   6.078   3.428
  113DPPC  C21614644   4.829   6.186   3.460
  113DPPC  H16R14645   4.885   6.094   3.486
  113DPPC  H16S14646   4.796   6.235   3.554
  113DPPC  H16T14647   4.897   6.255   3.406
  113DPPC   C3314648   4.562   0.093   2.178
  113DPPC   H3X14649   4.611   0.165   2.108
  113DPPC   H3Y14650   4.637   0.015   2.205
  113DPPC   C3414651   4.524   0.167   2.308
  113DPPC   H4X14652   4.486   0.090   2.379
  113DPPC   H4Y14653   4.441   0.238   2.287
  113DPPC   C3514654   4.640   0.243   2.373
  113DPPC   H5X14655   4.654   0.340   2.322
  113DPPC   H5Y14656   4.733   0.183   2.359
  113DPPC   C3614657   4.623   0.265   2.525
  113DPPC   H6X14658   4.712   0.319   2.564
  113DPPC   H6Y14659   4.622   0.165   2.573
  113DPPC   C3714660   4.495   0.339   2.567
  113DPPC   H7X14661   4.485   0.331   2.678
  113DPPC   H7Y14662   4.407   0.287   2.523
  113DPPC   C3814663   4.490   0.488   2.531
  113DPPC   H8X14664   4.387   0.525   2.554
  113DPPC   H8Y14665   4.506   0.501   2.422
  113DPPC   C3914666   4.589   0.575   2.609
  113DPPC   H9X14667   4.693   0.553   2.575
  113DPPC   H9Y14668   4.582   0.549   2.717
  113DPPC  C31014669   4.562   0.726   2.593
  113DPPC  H10X14670   4.461   0.749   2.633
  113DPPC  H10Y14671   4.562   0.750   2.485
  113DPPC  C31114672   4.666   0.817   2.661
  113DPPC  H11X14673   4.639   0.923   2.640
  113DPPC  H11Y14674   4.765   0.798   2.615
  113DPPC  C31214675   4.679   0.800   2.814
  113DPPC  H12X14676   4.757   0.870   2.849
  113DPPC  H12Y14677   4.714   0.697   2.836
  113DPPC  C31314678   4.550   0.829   2.892
  113DPPC  H13X14679   4.471   0.755   2.864
  113DPPC  H13Y14680   4.513   0.930   2.862
  113DPPC  C31414681   4.567   0.827   3.045
  113DPPC  H14X14682   4.647   0.899   3.073
  113DPPC  H14Y14683   4.472   0.862   3.091
  113DPPC  C31514684   4.600   0.689   3.103
  113DPPC  H15X14685   4.698   0.655   3.063
  113DPPC  H15Y14686   4.523   0.617   3.068
  113DPPC  C31614687   4.606   0.685   3.256
  113DPPC  H16X14688   4.683   0.755   3.294
  113DPPC  H16Y14689   4.630   0.582   3.291
  113DPPC  H16Z14690   4.507   0.715   3.299
  114DPPC     N14691   0.683   0.508   1.684
  114DPPC   C1314692   0.730   0.624   1.764
  114DPPC  H13A14693   0.837   0.619   1.777
  114DPPC  H13B14694   0.680   0.623   1.860
  114DPPC  H13C14695   0.703   0.716   1.713
  114DPPC   C1414696   0.535   0.517   1.668
  114DPPC  H14A14697   0.489   0.511   1.766
  114DPPC  H14B14698   0.499   0.436   1.607
  114DPPC  H14C14699   0.509   0.612   1.623
  114DPPC   C1514700   0.745   0.517   1.549
  114DPPC  H15A14701   0.852   0.498   1.555
  114DPPC  H15B14702   0.729   0.616   1.508
  114DPPC  H15C14703   0.700   0.445   1.482
  114DPPC   C1214704   0.725   0.380   1.751
  114DPPC  H12A14705   0.833   0.383   1.763
  114DPPC  H12B14706   0.703   0.297   1.685
  114DPPC   C1114707   0.663   0.348   1.889
  114DPPC  H11A14708   0.666   0.438   1.953
  114DPPC  H11B14709   0.726   0.272   1.942
  114DPPC     P14710   0.499   0.157   1.843
  114DPPC   O1314711   0.625   0.079   1.847
  114DPPC   O1414712   0.423   0.146   1.716
  114DPPC   O1114713   0.407   0.115   1.964
  114DPPC   O1214714   0.528   0.308   1.873
  114DPPC    C114715   0.427   6.417   2.044
  114DPPC    HA14716   0.395   0.020   2.148
  114DPPC    HB14717   0.534   6.387   2.049
  114DPPC    C214718   0.343   6.295   1.995
  114DPPC    HS14719   0.373   6.279   1.888
  114DPPC   O2114720   0.204   6.330   2.006
  114DPPC   C2114721   0.127   6.252   1.932
  114DPPC   O2214722   0.168   6.172   1.850
  114DPPC   C2214723   6.284   6.280   1.966
  114DPPC   H2R14724   6.254   6.373   1.913
  114DPPC   H2S14725   6.274   6.295   2.075
  114DPPC    C314726   0.378   6.164   2.075
  114DPPC    HX14727   0.487   6.147   2.063
  114DPPC    HY14728   0.328   6.077   2.029
  114DPPC   O3114729   0.350   6.176   2.217
  114DPPC   C3114730   0.229   6.136   2.255
  114DPPC   O3214731   0.145   6.087   2.181
  114DPPC   C3214732   0.208   6.164   2.403
  114DPPC   H2X14733   0.294   6.125   2.461
  114DPPC   H2Y14734   0.201   6.274   2.418
  114DPPC   C2314735   6.194   6.164   1.922
  114DPPC   H3R14736   6.219   6.073   1.982
  114DPPC   H3S14737   6.213   6.140   1.815
  114DPPC   C2414738   6.044   6.195   1.936
  114DPPC   H4R14739   5.987   6.107   1.897
  114DPPC   H4S14740   6.020   6.282   1.871
  114DPPC   C2514741   5.993   6.225   2.078
  114DPPC   H5R14742   5.884   6.246   2.070
  114DPPC   H5S14743   6.042   6.317   2.117
  114DPPC   C2614744   6.013   6.110   2.178
  114DPPC   H6R14745   6.119   6.108   2.212
  114DPPC   H6S14746   5.991   6.014   2.126
  114DPPC   C2714747   5.919   6.117   2.300
  114DPPC   H7R14748   5.937   6.027   2.363
  114DPPC   H7S14749   5.814   6.112   2.264
  114DPPC   C2814750   5.935   6.242   2.388
  114DPPC   H8R14751   5.918   6.334   2.327
  114DPPC   H8S14752   6.039   6.246   2.427
  114DPPC   C2914753   5.836   6.243   2.505
  114DPPC   H9R14754   5.848   6.148   2.562
  114DPPC   H9S14755   5.732   6.244   2.465
  114DPPC  C21014756   5.852   6.360   2.603
  114DPPC  H10R14757   5.840   0.038   2.548
  114DPPC  H10S14758   5.955   6.358   2.645
  114DPPC  C21114759   5.749   6.354   2.717
  114DPPC  H11R14760   5.757   6.255   2.766
  114DPPC  H11S14761   5.648   6.363   2.673
  114DPPC  C21214762   5.765   0.044   2.825
  114DPPC  H12R14763   5.674   0.039   2.890
  114DPPC  H12S14764   5.767   0.145   2.778
  114DPPC  C21314765   5.887   0.026   2.917
  114DPPC  H13R14766   5.980   0.053   2.862
  114DPPC  H13S14767   5.894   6.337   2.944
  114DPPC  C21414768   5.877   0.105   3.048
  114DPPC  H14R14769   5.962   0.076   3.113
  114DPPC  H14S14770   5.783   0.074   3.101
  114DPPC  C21514771   5.876   0.258   3.034
  114DPPC  H15R14772   5.858   0.301   3.135
  114DPPC  H15S14773   5.791   0.289   2.969
  114DPPC  C21614774   6.006   0.317   2.979
  114DPPC  H16R14775   6.093   0.287   3.041
  114DPPC  H16S14776   6.001   0.428   2.978
  114DPPC  H16T14777   6.023   0.283   2.875
  114DPPC   C3314778   0.078   6.097   2.453
  114DPPC   H3X14779   6.298   6.118   2.383
  114DPPC   H3Y14780   0.093   5.987   2.458
  114DPPC   C3414781   0.034   6.148   2.591
  114DPPC   H4X14782   0.008   6.256   2.582
  114DPPC   H4Y14783   0.118   6.139   2.663
  114DPPC   C3514784   6.215   6.073   2.647
  114DPPC   H5X14785   6.245   5.969   2.672
  114DPPC   H5Y14786   6.136   6.068   2.569
  114DPPC   C3614787   6.155   6.142   2.771
  114DPPC   H6X14788   6.123   6.244   2.742
  114DPPC   H6Y14789   6.235   6.154   2.848
  114DPPC   C3714790   6.035   6.069   2.833
  114DPPC   H7X14791   5.956   6.056   2.756
  114DPPC   H7Y14792   5.993   6.134   2.913
  114DPPC   C3814793   6.065   5.932   2.897
  114DPPC   H8X14794   6.098   5.861   2.818
  114DPPC   H8Y14795   5.971   5.892   2.941
  114DPPC   C3914796   6.173   5.938   3.006
  114DPPC   H9X14797   6.145   6.017   3.080
  114DPPC   H9Y14798   6.269   5.968   2.959
  114DPPC  C31014799   6.197   5.806   3.082
  114DPPC  H10X14800   6.284   5.823   3.149
  114DPPC  H10Y14801   6.224   5.725   3.010
  114DPPC  C31114802   6.079   5.761   3.169
  114DPPC  H11X14803   6.003   5.709   3.106
  114DPPC  H11Y14804   6.031   5.851   3.213
  114DPPC  C31214805   6.123   5.671   3.285
  114DPPC  H12X14806   6.198   5.727   3.345
  114DPPC  H12Y14807   6.173   5.580   3.245
  114DPPC  C31314808   6.008   5.630   3.379
  114DPPC  H13X14809   5.953   5.545   3.333
  114DPPC  H13Y14810   5.937   5.715   3.388
  114DPPC  C31414811   6.054   5.592   3.521
  114DPPC  H14X14812   5.966   5.559   3.580
  114DPPC  H14Y14813   6.095   5.684   3.569
  114DPPC  C31514814   6.162   5.482   3.527
  114DPPC  H15X14815   6.192   5.471   3.634
  114DPPC  H15Y14816   6.253   5.517   3.472
  114DPPC  C31614817   6.119   5.346   3.473
  114DPPC  H16X14818   6.094   5.353   3.366
  114DPPC  H16Y14819   6.031   5.308   3.529
  114DPPC  H16Z14820   6.202   5.272   3.485
  115DPPC     N14821   2.292   1.453   1.153
  115DPPC   C1314822   2.144   1.453   1.139
  115DPPC  H13A14823   2.098   1.411   1.227
  115DPPC  H13B14824   2.116   1.394   1.052
  115DPPC  H13C14825   2.109   1.554   1.124
  115DPPC   C1414826   2.339   1.312   1.173
  115DPPC  H14A14827   2.296   1.271   1.263
  115DPPC  H14B14828   2.447   1.311   1.181
  115DPPC  H14C14829   2.311   1.252   1.088
  115DPPC   C1514830   2.354   1.503   1.027
  115DPPC  H15A14831   2.321   1.444   0.943
  115DPPC  H15B14832   2.462   1.496   1.034
  115DPPC  H15C14833   2.327   1.607   1.012
  115DPPC   C1214834   2.334   1.536   1.273
  115DPPC  H12A14835   2.442   1.533   1.277
  115DPPC  H12B14836   2.297   1.486   1.361
  115DPPC   C1114837   2.291   1.684   1.279
  115DPPC  H11A14838   2.337   1.727   1.371
  115DPPC  H11B14839   2.180   1.691   1.288
  115DPPC     P14840   2.341   1.907   1.160
  115DPPC   O1314841   2.271   1.955   1.038
  115DPPC   O1414842   2.483   1.948   1.172
  115DPPC   O1114843   2.264   1.954   1.289
  115DPPC   O1214844   2.335   1.751   1.162
  115DPPC    C114845   2.301   2.078   1.353
  115DPPC    HA14846   2.210   2.126   1.395
  115DPPC    HB14847   2.344   2.152   1.280
  115DPPC    C214848   2.403   2.059   1.469
  115DPPC    HS14849   2.485   1.994   1.430
  115DPPC   O2114850   2.331   2.002   1.580
  115DPPC   C2114851   2.397   1.911   1.648
  115DPPC   O2214852   2.502   1.858   1.615
  115DPPC   C2214853   2.321   1.879   1.776
  115DPPC   H2R14854   2.370   1.792   1.825
  115DPPC   H2S14855   2.216   1.852   1.751
  115DPPC    C314856   2.467   2.195   1.513
  115DPPC    HX14857   2.386   2.257   1.557
  115DPPC    HY14858   2.502   2.248   1.422
  115DPPC   O3114859   2.570   2.177   1.614
  115DPPC   C3114860   2.695   2.207   1.578
  115DPPC   O3214861   2.729   2.247   1.468
  115DPPC   C3214862   2.793   2.185   1.694
  115DPPC   H2X14863   2.866   2.268   1.695
  115DPPC   H2Y14864   2.848   2.091   1.673
  115DPPC   C2314865   2.323   2.000   1.872
  115DPPC   H3R14866   2.273   2.087   1.823
  115DPPC   H3S14867   2.429   2.028   1.892
  115DPPC   C2414868   2.254   1.972   2.006
  115DPPC   H4R14869   2.304   1.887   2.056
  115DPPC   H4S14870   2.148   1.943   1.987
  115DPPC   C2514871   2.256   2.094   2.100
  115DPPC   H5R14872   2.211   2.181   2.048
  115DPPC   H5S14873   2.361   2.119   2.124
  115DPPC   C2614874   2.179   2.075   2.233
  115DPPC   H6R14875   2.072   2.052   2.211
  115DPPC   H6S14876   2.184   2.171   2.288
  115DPPC   C2714877   2.237   1.964   2.322
  115DPPC   H7R14878   2.348   1.974   2.322
  115DPPC   H7S14879   2.212   1.865   2.279
  115DPPC   C2814880   2.189   1.970   2.467
  115DPPC   H8R14881   2.080   1.953   2.472
  115DPPC   H8S14882   2.210   2.072   2.507
  115DPPC   C2914883   2.262   1.868   2.556
  115DPPC   H9R14884   2.371   1.878   2.536
  115DPPC   H9S14885   2.231   1.766   2.526
  115DPPC  C21014886   2.237   1.887   2.707
  115DPPC  H10R14887   2.128   1.874   2.726
  115DPPC  H10S14888   2.265   1.990   2.736
  115DPPC  C21114889   2.314   1.788   2.795
  115DPPC  H11R14890   2.288   1.684   2.765
  115DPPC  H11S14891   2.281   1.802   2.900
  115DPPC  C21214892   2.468   1.804   2.791
  115DPPC  H12R14893   2.495   1.903   2.833
  115DPPC  H12S14894   2.502   1.802   2.685
  115DPPC  C21314895   2.545   1.693   2.864
  115DPPC  H13R14896   2.654   1.713   2.853
  115DPPC  H13S14897   2.524   1.596   2.813
  115DPPC  C21414898   2.512   1.677   3.014
  115DPPC  H14R14899   2.570   1.590   3.053
  115DPPC  H14S14900   2.405   1.653   3.025
  115DPPC  C21514901   2.547   1.800   3.099
  115DPPC  H15R14902   2.487   1.887   3.064
  115DPPC  H15S14903   2.654   1.824   3.085
  115DPPC  C21614904   2.520   1.781   3.249
  115DPPC  H16R14905   2.579   1.695   3.288
  115DPPC  H16S14906   2.412   1.760   3.267
  115DPPC  H16T14907   2.548   1.872   3.306
  115DPPC   C3314908   2.726   2.174   1.832
  115DPPC   H3X14909   2.804   2.139   1.903
  115DPPC   H3Y14910   2.646   2.097   1.831
  115DPPC   C3414911   2.670   2.307   1.885
  115DPPC   H4X14912   2.593   2.344   1.814
  115DPPC   H4Y14913   2.751   2.383   1.889
  115DPPC   C3514914   2.604   2.296   2.024
  115DPPC   H5X14915   2.530   2.214   2.021
  115DPPC   H5Y14916   2.549   2.391   2.045
  115DPPC   C3614917   2.703   2.272   2.139
  115DPPC   H6X14918   2.770   2.360   2.148
  115DPPC   H6Y14919   2.766   2.184   2.115
  115DPPC   C3714920   2.635   2.246   2.274
  115DPPC   H7X14921   2.567   2.159   2.264
  115DPPC   H7Y14922   2.574   2.335   2.302
  115DPPC   C3814923   2.736   2.216   2.386
  115DPPC   H8X14924   2.800   2.305   2.403
  115DPPC   H8Y14925   2.803   2.133   2.352
  115DPPC   C3914926   2.672   2.172   2.519
  115DPPC   H9X14927   2.754   2.143   2.589
  115DPPC   H9Y14928   2.609   2.083   2.501
  115DPPC  C31014929   2.588   2.281   2.587
  115DPPC  H10X14930   2.501   2.307   2.522
  115DPPC  H10Y14931   2.650   2.372   2.599
  115DPPC  C31114932   2.536   2.238   2.725
  115DPPC  H11X14933   2.623   2.206   2.786
  115DPPC  H11Y14934   2.469   2.150   2.712
  115DPPC  C31214935   2.461   2.349   2.800
  115DPPC  H12X14936   2.368   2.375   2.745
  115DPPC  H12Y14937   2.526   2.439   2.802
  115DPPC  C31314938   2.426   2.313   2.945
  115DPPC  H13X14939   2.382   2.402   2.995
  115DPPC  H13Y14940   2.520   2.287   2.999
  115DPPC  C31414941   2.328   2.195   2.960
  115DPPC  H14X14942   2.369   2.106   2.909
  115DPPC  H14Y14943   2.232   2.222   2.909
  115DPPC  C31514944   2.299   2.158   3.106
  115DPPC  H15X14945   2.261   2.248   3.159
  115DPPC  H15Y14946   2.395   2.128   3.154
  115DPPC  C31614947   2.198   2.044   3.123
  115DPPC  H16X14948   2.100   2.073   3.080
  115DPPC  H16Y14949   2.184   2.020   3.230
  115DPPC  H16Z14950   2.234   1.953   3.071
  116DPPC     N14951   4.001   2.050   1.116
  116DPPC   C1314952   3.995   1.913   1.173
  116DPPC  H13A14953   3.902   1.899   1.226
  116DPPC  H13B14954   4.077   1.898   1.242
  116DPPC  H13C14955   4.003   1.840   1.094
  116DPPC   C1414956   4.125   2.065   1.035
  116DPPC  H14A14957   4.130   2.164   0.992
  116DPPC  H14B14958   4.127   1.990   0.958
  116DPPC  H14C14959   4.211   2.050   1.100
  116DPPC   C1514960   3.884   2.069   1.025
  116DPPC  H15A14961   3.885   1.992   0.949
  116DPPC  H15B14962   3.890   2.166   0.978
  116DPPC  H15C14963   3.793   2.062   1.082
  116DPPC   C1214964   4.005   2.154   1.226
  116DPPC  H12A14965   4.005   2.251   1.179
  116DPPC  H12B14966   4.100   2.143   1.276
  116DPPC   C1114967   3.895   2.150   1.334
  116DPPC  H11A14968   3.914   2.233   1.404
  116DPPC  H11B14969   3.906   2.053   1.389
  116DPPC     P14970   3.645   2.115   1.359
  116DPPC   O1314971   3.641   1.967   1.349
  116DPPC   O1414972   3.523   2.189   1.318
  116DPPC   O1114973   3.681   2.157   1.506
  116DPPC   O1214974   3.767   2.166   1.274
  116DPPC    C114975   3.721   2.063   1.606
  116DPPC    HA14976   3.779   2.118   1.683
  116DPPC    HB14977   3.789   1.985   1.565
  116DPPC    C214978   3.602   1.993   1.679
  116DPPC    HS14979   3.551   1.929   1.604
  116DPPC   O2114980   3.518   2.097   1.732
  116DPPC   C2114981   3.390   2.064   1.740
  116DPPC   O2214982   3.339   1.965   1.691
  116DPPC   C2214983   3.320   2.166   1.828
  116DPPC   H2R14984   3.327   2.266   1.781
  116DPPC   H2S14985   3.374   2.170   1.925
  116DPPC    C314986   3.656   1.903   1.795
  116DPPC    HX14987   3.724   1.966   1.855
  116DPPC    HY14988   3.718   1.821   1.753
  116DPPC   O3114989   3.552   1.855   1.884
  116DPPC   C3114990   3.500   1.738   1.851
  116DPPC   O3214991   3.531   1.671   1.754
  116DPPC   C3214992   3.391   1.701   1.951
  116DPPC   H2X14993   3.293   1.736   1.912
  116DPPC   H2Y14994   3.411   1.752   2.048
  116DPPC   C2314995   3.172   2.130   1.853
  116DPPC   H3R14996   3.163   2.021   1.871
  116DPPC   H3S14997   3.112   2.157   1.764
  116DPPC   C2414998   3.116   2.200   1.979
  116DPPC   H4R14999   3.174   2.161   2.065
  116DPPC   H4S15000   3.010   2.169   1.994
  116DPPC   C2515001   3.123   2.353   1.976
  116DPPC   H5R15002   3.052   2.390   1.898
  116DPPC   H5S15003   3.225   2.386   1.946
  116DPPC   C2615004   3.091   2.421   2.110
  116DPPC   H6R15005   2.988   2.393   2.142
  116DPPC   H6S15006   3.092   2.531   2.096
  116DPPC   C2715007   3.189   2.386   2.223
  116DPPC   H7R15008   3.292   2.411   2.190
  116DPPC   H7S15009   3.185   2.276   2.240
  116DPPC   C2815010   3.161   2.458   2.356
  116DPPC   H8R15011   3.057   2.434   2.388
  116DPPC   H8S15012   3.167   2.567   2.340
  116DPPC   C2915013   3.257   2.418   2.470
  116DPPC   H9R15014   3.230   2.476   2.561
  116DPPC   H9S15015   3.360   2.448   2.441
  116DPPC  C21015016   3.254   2.268   2.504
  116DPPC  H10R15017   3.287   2.210   2.416
  116DPPC  H10S15018   3.148   2.240   2.525
  116DPPC  C21115019   3.339   2.227   2.626
  116DPPC  H11R15020   3.329   2.117   2.639
  116DPPC  H11S15021   3.297   2.275   2.717
  116DPPC  C21215022   3.489   2.262   2.616
  116DPPC  H12R15023   3.541   2.216   2.703
  116DPPC  H12S15024   3.501   2.372   2.624
  116DPPC  C21315025   3.559   2.215   2.487
  116DPPC  H13R15026   3.667   2.241   2.495
  116DPPC  H13S15027   3.517   2.273   2.402
  116DPPC  C21415028   3.548   2.065   2.457
  116DPPC  H14R15029   3.441   2.037   2.449
  116DPPC  H14S15030   3.591   2.008   2.543
  116DPPC  C21515031   3.619   2.021   2.328
  116DPPC  H15R15032   3.602   1.912   2.314
  116DPPC  H15S15033   3.728   2.037   2.340
  116DPPC  C21615034   3.574   2.093   2.200
  116DPPC  H16R15035   3.464   2.083   2.186
  116DPPC  H16S15036   3.625   2.049   2.111
  116DPPC  H16T15037   3.600   2.201   2.204
  116DPPC   C3315038   3.390   1.549   1.973
  116DPPC   H3X15039   3.491   1.517   2.006
  116DPPC   H3Y15040   3.365   1.497   1.878
  116DPPC   C3415041   3.288   1.508   2.080
  116DPPC   H4X15042   3.186   1.531   2.044
  116DPPC   H4Y15043   3.306   1.569   2.172
  116DPPC   C3515044   3.296   1.360   2.119
  116DPPC   H5X15045   3.395   1.340   2.165
  116DPPC   H5Y15046   3.288   1.297   2.027
  116DPPC   C3615047   3.184   1.321   2.216
  116DPPC   H6X15048   3.088   1.330   2.161
  116DPPC   H6Y15049   3.181   1.395   2.300
  116DPPC   C3715050   3.196   1.181   2.276
  116DPPC   H7X15051   3.205   1.106   2.194
  116DPPC   H7Y15052   3.102   1.159   2.331
  116DPPC   C3815053   3.315   1.165   2.372
  116DPPC   H8X15054   3.313   1.247   2.447
  116DPPC   H8Y15055   3.409   1.173   2.314
  116DPPC   C3915056   3.315   1.030   2.446
  116DPPC   H9X15057   3.414   1.015   2.493
  116DPPC   H9Y15058   3.302   0.949   2.370
  116DPPC  C31015059   3.206   1.016   2.553
  116DPPC  H10X15060   3.151   0.921   2.535
  116DPPC  H10Y15061   3.132   1.099   2.545
  116DPPC  C31115062   3.261   1.011   2.697
  116DPPC  H11X15063   3.341   0.934   2.700
  116DPPC  H11Y15064   3.180   0.977   2.765
  116DPPC  C31215065   3.314   1.146   2.748
  116DPPC  H12X15066   3.228   1.216   2.759
  116DPPC  H12Y15067   3.384   1.189   2.674
  116DPPC  C31315068   3.388   1.136   2.883
  116DPPC  H13X15069   3.324   1.082   2.956
  116DPPC  H13Y15070   3.404   1.239   2.922
  116DPPC  C31415071   3.524   1.066   2.872
  116DPPC  H14X15072   3.586   1.122   2.799
  116DPPC  H14Y15073   3.510   0.963   2.833
  116DPPC  C31515074   3.601   1.057   3.005
  116DPPC  H15X15075   3.541   0.998   3.077
  116DPPC  H15Y15076   3.613   1.160   3.046
  116DPPC  C31615077   3.739   0.992   2.990
  116DPPC  H16X15078   3.789   0.985   3.089
  116DPPC  H16Y15079   3.803   1.052   2.922
  116DPPC  H16Z15080   3.729   0.889   2.948
  117DPPC     N15081   1.418   2.059   1.252
  117DPPC   C1315082   1.411   1.938   1.167
  117DPPC  H13A15083   1.429   1.963   1.063
  117DPPC  H13B15084   1.313   1.893   1.175
  117DPPC  H13C15085   1.486   1.868   1.201
  117DPPC   C1415086   1.313   2.157   1.210
  117DPPC  H14A15087   1.317   2.243   1.277
  117DPPC  H14B15088   1.215   2.111   1.218
  117DPPC  H14C15089   1.331   2.188   1.109
  117DPPC   C1515090   1.393   2.018   1.392
  117DPPC  H15A15091   1.293   1.977   1.401
  117DPPC  H15B15092   1.403   2.104   1.457
  117DPPC  H15C15093   1.466   1.943   1.420
  117DPPC   C1215094   1.556   2.118   1.235
  117DPPC  H12A15095   1.575   2.128   1.129
  117DPPC  H12B15096   1.626   2.046   1.274
  117DPPC   C1115097   1.586   2.255   1.300
  117DPPC  H11A15098   1.526   2.333   1.248
  117DPPC  H11B15099   1.694   2.275   1.281
  117DPPC     P15100   1.616   2.359   1.528
  117DPPC   O1315101   1.572   2.336   1.668
  117DPPC   O1415102   1.590   2.493   1.470
  117DPPC   O1115103   1.770   2.326   1.513
  117DPPC   O1215104   1.551   2.250   1.437
  117DPPC    C115105   1.824   2.199   1.553
  117DPPC    HA15106   1.873   2.151   1.466
  117DPPC    HB15107   1.747   2.128   1.591
  117DPPC    C215108   1.930   2.217   1.666
  117DPPC    HS15109   1.968   2.114   1.690
  117DPPC   O2115110   1.866   2.282   1.776
  117DPPC   C2115111   1.907   2.241   1.893
  117DPPC   O2215112   1.992   2.156   1.912
  117DPPC   C2215113   1.834   2.318   2.003
  117DPPC   H2R15114   1.726   2.296   1.997
  117DPPC   H2S15115   1.850   2.426   1.988
  117DPPC    C315116   2.048   2.303   1.611
  117DPPC    HX15117   2.009   2.401   1.577
  117DPPC    HY15118   2.084   2.252   1.519
  117DPPC   O3115119   2.161   2.315   1.702
  117DPPC   C3115120   2.161   2.425   1.776
  117DPPC   O3215121   2.073   2.509   1.778
  117DPPC   C3215122   2.290   2.428   1.859
  117DPPC   H2X15123   2.375   2.436   1.789
  117DPPC   H2Y15124   2.300   2.334   1.917
  117DPPC   C2315125   1.888   2.277   2.141
  117DPPC   H3R15126   1.997   2.300   2.147
  117DPPC   H3S15127   1.874   2.167   2.156
  117DPPC   C2415128   1.816   2.350   2.256
  117DPPC   H4R15129   1.708   2.323   2.252
  117DPPC   H4S15130   1.825   2.459   2.240
  117DPPC   C2515131   1.871   2.315   2.395
  117DPPC   H5R15132   1.977   2.348   2.402
  117DPPC   H5S15133   1.870   2.204   2.408
  117DPPC   C2615134   1.790   2.379   2.507
  117DPPC   H6R15135   1.685   2.342   2.500
  117DPPC   H6S15136   1.789   2.489   2.493
  117DPPC   C2715137   1.841   2.348   2.649
  117DPPC   H7R15138   1.943   2.392   2.661
  117DPPC   H7S15139   1.851   2.237   2.660
  117DPPC   C2815140   1.748   2.401   2.758
  117DPPC   H8R15141   1.649   2.352   2.747
  117DPPC   H8S15142   1.733   2.511   2.743
  117DPPC   C2915143   1.800   2.378   2.900
  117DPPC   H9R15144   1.894   2.436   2.915
  117DPPC   H9S15145   1.824   2.270   2.912
  117DPPC  C21015146   1.698   2.417   3.008
  117DPPC  H10R15147   1.608   2.354   2.994
  117DPPC  H10S15148   1.668   2.523   2.994
  117DPPC  C21115149   1.750   2.399   3.152
  117DPPC  H11R15150   1.820   2.482   3.177
  117DPPC  H11S15151   1.808   2.304   3.156
  117DPPC  C21215152   1.639   2.389   3.258
  117DPPC  H12R15153   1.687   2.374   3.358
  117DPPC  H12S15154   1.577   2.300   3.237
  117DPPC  C21315155   1.547   2.512   3.267
  117DPPC  H13R15156   1.496   2.528   3.169
  117DPPC  H13S15157   1.608   2.602   3.289
  117DPPC  C21415158   1.439   2.495   3.376
  117DPPC  H14R15159   1.489   2.482   3.474
  117DPPC  H14S15160   1.382   2.403   3.354
  117DPPC  C21515161   1.340   2.612   3.387
  117DPPC  H15R15162   1.261   2.584   3.460
  117DPPC  H15S15163   1.290   2.626   3.288
  117DPPC  C21615164   1.402   2.745   3.431
  117DPPC  H16R15165   1.322   2.822   3.443
  117DPPC  H16S15166   1.474   2.782   3.355
  117DPPC  H16T15167   1.454   2.733   3.528
  117DPPC   C3315168   2.291   2.550   1.953
  117DPPC   H3X15169   2.260   2.642   1.899
  117DPPC   H3Y15170   2.396   2.566   1.987
  117DPPC   C3415171   2.205   2.531   2.079
  117DPPC   H4X15172   2.247   2.448   2.140
  117DPPC   H4Y15173   2.102   2.502   2.049
  117DPPC   C3515174   2.197   2.658   2.166
  117DPPC   H5X15175   2.148   2.738   2.106
  117DPPC   H5Y15176   2.300   2.691   2.191
  117DPPC   C3615177   2.117   2.638   2.296
  117DPPC   H6X15178   2.172   2.565   2.360
  117DPPC   H6Y15179   2.018   2.594   2.271
  117DPPC   C3715180   2.095   2.769   2.373
  117DPPC   H7X15181   2.037   2.838   2.308
  117DPPC   H7Y15182   2.194   2.816   2.393
  117DPPC   C3815183   2.020   2.753   2.506
  117DPPC   H8X15184   1.923   2.702   2.488
  117DPPC   H8Y15185   1.999   2.855   2.545
  117DPPC   C3915186   2.099   2.675   2.613
  117DPPC   H9X15187   2.200   2.720   2.620
  117DPPC   H9Y15188   2.110   2.569   2.582
  117DPPC  C31015189   2.035   2.682   2.752
  117DPPC  H10X15190   1.937   2.629   2.751
  117DPPC  H10Y15191   2.015   2.789   2.776
  117DPPC  C31115192   2.124   2.624   2.863
  117DPPC  H11X15193   2.227   2.663   2.850
  117DPPC  H11Y15194   2.128   2.514   2.854
  117DPPC  C31215195   2.076   2.663   3.004
  117DPPC  H12X15196   1.973   2.625   3.020
  117DPPC  H12Y15197   2.072   2.774   3.010
  117DPPC  C31315198   2.167   2.612   3.117
  117DPPC  H13X15199   2.270   2.649   3.099
  117DPPC  H13Y15200   2.170   2.500   3.114
  117DPPC  C31415201   2.121   2.657   3.256
  117DPPC  H14X15202   2.019   2.616   3.275
  117DPPC  H14Y15203   2.114   2.768   3.257
  117DPPC  C31515204   2.215   2.612   3.369
  117DPPC  H15X15205   2.316   2.655   3.350
  117DPPC  H15Y15206   2.225   2.501   3.365
  117DPPC  C31615207   2.169   2.653   3.509
  117DPPC  H16X15208   2.070   2.609   3.532
  117DPPC  H16Y15209   2.161   2.763   3.517
  117DPPC  H16Z15210   2.242   2.617   3.585
  118DPPC     N15211   2.485   4.037   1.312
  118DPPC   C1315212   2.374   3.938   1.317
  118DPPC  H13A15213   2.378   3.883   1.410
  118DPPC  H13B15214   2.384   3.868   1.235
  118DPPC  H13C15215   2.279   3.989   1.310
  118DPPC   C1415216   2.474   4.113   1.185
  118DPPC  H14A15217   2.481   4.045   1.101
  118DPPC  H14B15218   2.556   4.184   1.179
  118DPPC  H14C15219   2.380   4.166   1.183
  118DPPC   C1515220   2.469   4.134   1.423
  118DPPC  H15A15221   2.374   4.185   1.412
  118DPPC  H15B15222   2.549   4.207   1.419
  118DPPC  H15C15223   2.473   4.081   1.517
  118DPPC   C1215224   2.619   3.968   1.318
  118DPPC  H12A15225   2.695   4.045   1.316
  118DPPC  H12B15226   2.630   3.909   1.227
  118DPPC   C1115227   2.648   3.874   1.438
  118DPPC  H11A15228   2.750   3.831   1.424
  118DPPC  H11B15229   2.575   3.790   1.433
  118DPPC     P15230   2.584   3.878   1.683
  118DPPC   O1315231   2.654   3.750   1.709
  118DPPC   O1415232   2.438   3.870   1.662
  118DPPC   O1115233   2.610   3.980   1.801
  118DPPC   O1215234   2.646   3.949   1.559
  118DPPC    C115235   2.568   4.117   1.790
  118DPPC    HA15236   2.512   4.139   1.696
  118DPPC    HB15237   2.658   4.182   1.790
  118DPPC    C215238   2.478   4.164   1.908
  118DPPC    HS15239   2.445   4.267   1.880
  118DPPC   O2115240   2.559   4.163   2.027
  118DPPC   C2115241   2.523   4.256   2.114
  118DPPC   O2215242   2.427   4.329   2.102
  118DPPC   C2215243   2.625   4.261   2.227
  118DPPC   H2R15244   2.726   4.278   2.184
  118DPPC   H2S15245   2.626   4.164   2.282
  118DPPC    C315246   2.352   4.073   1.920
  118DPPC    HX15247   2.388   3.972   1.951
  118DPPC    HY15248   2.307   4.060   1.819
  118DPPC   O3115249   2.253   4.117   2.016
  118DPPC   C3115250   2.173   4.215   1.972
  118DPPC   O3215251   2.179   4.265   1.861
  118DPPC   C3215252   2.071   4.248   2.081
  118DPPC   H2X15253   2.114   4.227   2.181
  118DPPC   H2Y15254   1.981   4.184   2.065
  118DPPC   C2315255   2.590   4.376   2.323
  118DPPC   H3R15256   2.495   4.353   2.375
  118DPPC   H3S15257   2.576   4.470   2.265
  118DPPC   C2415258   2.699   4.403   2.428
  118DPPC   H4R15259   2.795   4.425   2.376
  118DPPC   H4S15260   2.714   4.312   2.490
  118DPPC   C2515261   2.665   4.522   2.519
  118DPPC   H5R15262   2.569   4.503   2.571
  118DPPC   H5S15263   2.650   4.611   2.453
  118DPPC   C2615264   2.774   4.556   2.621
  118DPPC   H6R15265   2.754   4.658   2.662
  118DPPC   H6S15266   2.872   4.560   2.569
  118DPPC   C2715267   2.785   4.459   2.740
  118DPPC   H7R15268   2.876   4.486   2.797
  118DPPC   H7S15269   2.797   4.355   2.703
  118DPPC   C2815270   2.665   4.464   2.837
  118DPPC   H8R15271   2.577   4.416   2.789
  118DPPC   H8S15272   2.640   4.571   2.856
  118DPPC   C2915273   2.694   4.397   2.972
  118DPPC   H9R15274   2.786   4.445   3.014
  118DPPC   H9S15275   2.717   4.289   2.957
  118DPPC  C21015276   2.581   4.415   3.074
  118DPPC  H10R15277   2.538   4.517   3.061
  118DPPC  H10S15278   2.624   4.411   3.177
  118DPPC  C21115279   2.468   4.311   3.064
  118DPPC  H11R15280   2.428   4.310   2.960
  118DPPC  H11S15281   2.385   4.343   3.131
  118DPPC  C21215282   2.507   4.168   3.104
  118DPPC  H12R15283   2.576   4.124   3.029
  118DPPC  H12S15284   2.414   4.106   3.104
  118DPPC  C21315285   2.572   4.158   3.243
  118DPPC  H13R15286   2.514   4.218   3.316
  118DPPC  H13S15287   2.675   4.200   3.238
  118DPPC  C21415288   2.582   4.014   3.296
  118DPPC  H14R15289   2.629   3.950   3.218
  118DPPC  H14S15290   2.479   3.976   3.314
  118DPPC  C21515291   2.663   4.001   3.426
  118DPPC  H15R15292   2.618   4.069   3.502
  118DPPC  H15S15293   2.767   4.036   3.406
  118DPPC  C21615294   2.668   3.859   3.482
  118DPPC  H16R15295   2.566   3.822   3.503
  118DPPC  H16S15296   2.727   3.857   3.576
  118DPPC  H16T15297   2.716   3.790   3.409
  118DPPC   C3315298   2.029   4.396   2.074
  118DPPC   H3X15299   1.991   4.420   1.972
  118DPPC   H3Y15300   2.117   4.461   2.095
  118DPPC   C3415301   1.917   4.428   2.175
  118DPPC   H4X15302   1.950   4.403   2.277
  118DPPC   H4Y15303   1.830   4.363   2.151
  118DPPC   C3515304   1.868   4.574   2.169
  118DPPC   H5X15305   1.770   4.581   2.222
  118DPPC   H5Y15306   1.850   4.602   2.063
  118DPPC   C3615307   1.963   4.677   2.233
  118DPPC   H6X15308   1.925   4.778   2.208
  118DPPC   H6Y15309   2.064   4.666   2.189
  118DPPC   C3715310   1.971   4.667   2.386
  118DPPC   H7X15311   2.021   4.572   2.415
  118DPPC   H7Y15312   1.867   4.664   2.427
  118DPPC   C3815313   2.044   4.785   2.453
  118DPPC   H8X15314   2.035   4.774   2.563
  118DPPC   H8Y15315   1.994   4.880   2.423
  118DPPC   C3915316   2.194   4.793   2.417
  118DPPC   H9X15317   2.205   4.804   2.307
  118DPPC   H9Y15318   2.243   4.698   2.447
  118DPPC  C31015319   2.266   4.910   2.486
  118DPPC  H10X15320   2.253   4.901   2.596
  118DPPC  H10Y15321   2.218   5.005   2.453
  118DPPC  C31115322   2.416   4.915   2.453
  118DPPC  H11X15323   2.428   4.926   2.343
  118DPPC  H11Y15324   2.461   4.819   2.484
  118DPPC  C31215325   2.489   5.031   2.523
  118DPPC  H12X15326   2.483   5.016   2.633
  118DPPC  H12Y15327   2.437   5.126   2.499
  118DPPC  C31315328   2.637   5.045   2.482
  118DPPC  H13X15329   2.680   5.133   2.534
  118DPPC  H13Y15330   2.641   5.063   2.373
  118DPPC  C31415331   2.721   4.921   2.516
  118DPPC  H14X15332   2.682   4.833   2.461
  118DPPC  H14Y15333   2.711   4.900   2.625
  118DPPC  C31515334   2.871   4.934   2.483
  118DPPC  H15X15335   2.919   4.839   2.514
  118DPPC  H15Y15336   2.915   5.016   2.544
  118DPPC  C31615337   2.903   4.958   2.335
  118DPPC  H16X15338   2.861   5.054   2.301
  118DPPC  H16Y15339   2.861   4.876   2.273
  118DPPC  H16Z15340   3.013   4.961   2.320
  119DPPC     N15341   2.246   4.586   1.663
  119DPPC   C1315342   2.237   4.511   1.534
  119DPPC  H13A15343   2.211   4.408   1.553
  119DPPC  H13B15344   2.333   4.514   1.484
  119DPPC  H13C15345   2.162   4.557   1.471
  119DPPC   C1415346   2.270   4.730   1.635
  119DPPC  H14A15347   2.188   4.769   1.575
  119DPPC  H14B15348   2.362   4.742   1.578
  119DPPC  H14C15349   2.278   4.786   1.727
  119DPPC   C1515350   2.116   4.572   1.734
  119DPPC  H15A15351   2.037   4.613   1.673
  119DPPC  H15B15352   2.121   4.625   1.828
  119DPPC  H15C15353   2.098   4.468   1.754
  119DPPC   C1215354   2.355   4.530   1.751
  119DPPC  H12A15355   2.336   4.424   1.762
  119DPPC  H12B15356   2.343   4.574   1.849
  119DPPC   C1115357   2.502   4.550   1.709
  119DPPC  H11A15358   2.564   4.499   1.786
  119DPPC  H11B15359   2.526   4.659   1.712
  119DPPC     P15360   2.667   4.461   1.533
  119DPPC   O1315361   2.752   4.582   1.524
  119DPPC   O1415362   2.654   4.381   1.409
  119DPPC   O1115363   2.720   4.371   1.651
  119DPPC   O1215364   2.523   4.501   1.578
  119DPPC    C115365   2.857   4.327   1.657
  119DPPC    HA15366   2.923   4.384   1.587
  119DPPC    HB15367   2.863   4.221   1.624
  119DPPC    C215368   2.921   4.342   1.799
  119DPPC    HS15369   3.032   4.342   1.787
  119DPPC   O2115370   2.880   4.236   1.887
  119DPPC   C2115371   2.943   4.123   1.863
  119DPPC   O2215372   3.030   4.107   1.778
  119DPPC   C2215373   2.897   4.017   1.963
  119DPPC   H2R15374   2.922   3.916   1.924
  119DPPC   H2S15375   2.787   4.024   1.975
  119DPPC    C315376   2.885   4.480   1.865
  119DPPC    HX15377   2.775   4.491   1.857
  119DPPC    HY15378   2.930   4.562   1.804
  119DPPC   O3115379   2.919   4.492   2.006
  119DPPC   C3115380   3.050   4.508   2.027
  119DPPC   O3215381   3.134   4.512   1.938
  119DPPC   C3215382   3.080   4.520   2.176
  119DPPC   H2X15383   3.044   4.428   2.227
  119DPPC   H2Y15384   3.026   4.608   2.218
  119DPPC   C2315385   2.966   4.040   2.098
  119DPPC   H3R15386   2.957   4.147   2.126
  119DPPC   H3S15387   3.074   4.015   2.090
  119DPPC   C2415388   2.903   3.957   2.212
  119DPPC   H4R15389   2.902   3.850   2.182
  119DPPC   H4S15390   2.797   3.989   2.225
  119DPPC   C2515391   2.976   3.969   2.347
  119DPPC   H5R15392   3.076   3.923   2.337
  119DPPC   H5S15393   2.918   3.911   2.422
  119DPPC   C2615394   2.992   4.112   2.399
  119DPPC   H6R15395   2.893   4.163   2.400
  119DPPC   H6S15396   3.060   4.169   2.332
  119DPPC   C2715397   3.051   4.116   2.542
  119DPPC   H7R15398   3.147   4.061   2.543
  119DPPC   H7S15399   2.980   4.063   2.610
  119DPPC   C2815400   3.075   4.259   2.592
  119DPPC   H8R15401   2.978   4.314   2.590
  119DPPC   H8S15402   3.144   4.310   2.522
  119DPPC   C2915403   3.135   4.268   2.733
  119DPPC   H9R15404   3.145   4.376   2.759
  119DPPC   H9S15405   3.237   4.224   2.731
  119DPPC  C21015406   3.052   4.199   2.843
  119DPPC  H10R15407   2.946   4.231   2.834
  119DPPC  H10S15408   3.056   4.089   2.826
  119DPPC  C21115409   3.100   4.229   2.986
  119DPPC  H11R15410   3.037   4.170   3.056
  119DPPC  H11S15411   3.083   4.336   3.009
  119DPPC  C21215412   3.247   4.195   3.011
  119DPPC  H12R15413   3.311   4.268   2.957
  119DPPC  H12S15414   3.269   4.094   2.969
  119DPPC  C21315415   3.286   4.194   3.159
  119DPPC  H13R15416   3.230   4.113   3.210
  119DPPC  H13S15417   3.256   4.291   3.206
  119DPPC  C21415418   3.437   4.174   3.181
  119DPPC  H14R15419   3.491   4.261   3.140
  119DPPC  H14S15420   3.468   4.084   3.123
  119DPPC  C21515421   3.476   4.153   3.328
  119DPPC  H15R15422   3.425   4.062   3.366
  119DPPC  H15S15423   3.438   4.240   3.387
  119DPPC  C21615424   3.627   4.139   3.351
  119DPPC  H16R15425   3.648   4.125   3.459
  119DPPC  H16S15426   3.680   4.230   3.316
  119DPPC  H16T15427   3.666   4.051   3.295
  119DPPC   C3315428   3.232   4.535   2.195
  119DPPC   H3X15429   3.266   4.631   2.150
  119DPPC   H3Y15430   3.282   4.452   2.142
  119DPPC   C3415431   3.281   4.529   2.341
  119DPPC   H4X15432   3.392   4.525   2.338
  119DPPC   H4Y15433   3.246   4.435   2.388
  119DPPC   C3515434   3.242   4.649   2.429
  119DPPC   H5X15435   3.132   4.649   2.446
  119DPPC   H5Y15436   3.268   4.742   2.373
  119DPPC   C3615437   3.317   4.651   2.563
  119DPPC   H6X15438   3.426   4.637   2.541
  119DPPC   H6Y15439   3.285   4.566   2.626
  119DPPC   C3715440   3.303   4.783   2.641
  119DPPC   H7X15441   3.327   4.867   2.571
  119DPPC   H7Y15442   3.379   4.786   2.723
  119DPPC   C3815443   3.164   4.808   2.701
  119DPPC   H8X15444   3.087   4.786   2.625
  119DPPC   H8Y15445   3.157   4.916   2.727
  119DPPC   C3915446   3.136   4.727   2.828
  119DPPC   H9X15447   3.216   4.749   2.902
  119DPPC   H9Y15448   3.139   4.618   2.805
  119DPPC  C31015449   3.000   4.761   2.893
  119DPPC  H10X15450   2.918   4.732   2.824
  119DPPC  H10Y15451   2.995   4.871   2.908
  119DPPC  C31115452   2.980   4.690   3.028
  119DPPC  H11X15453   3.064   4.719   3.096
  119DPPC  H11Y15454   2.986   4.580   3.012
  119DPPC  C31215455   2.848   4.723   3.100
  119DPPC  H12X15456   2.847   4.664   3.195
  119DPPC  H12Y15457   2.763   4.689   3.039
  119DPPC  C31315458   2.831   4.872   3.137
  119DPPC  H13X15459   2.931   4.921   3.138
  119DPPC  H13Y15460   2.789   4.879   3.240
  119DPPC  C31415461   2.737   4.950   3.043
  119DPPC  H14X15462   2.767   4.932   2.937
  119DPPC  H14Y15463   2.749   5.058   3.064
  119DPPC  C31515464   2.588   4.914   3.061
  119DPPC  H15X15465   2.560   4.932   3.167
  119DPPC  H15Y15466   2.574   4.806   3.041
  119DPPC  C31615467   2.493   4.993   2.971
  119DPPC  H16X15468   2.517   4.974   2.864
  119DPPC  H16Y15469   2.388   4.964   2.990
  119DPPC  H16Z15470   2.504   5.102   2.990
  120DPPC     N15471   4.687   0.185   0.894
  120DPPC   C1315472   4.664   0.240   0.758
  120DPPC  H13A15473   4.732   0.195   0.687
  120DPPC  H13B15474   4.678   0.347   0.759
  120DPPC  H13C15475   4.563   0.219   0.726
  120DPPC   C1415476   4.664   0.038   0.890
  120DPPC  H14A15477   4.739   6.409   0.828
  120DPPC  H14B15478   4.566   0.017   0.850
  120DPPC  H14C15479   4.671   6.417   0.990
  120DPPC   C1515480   4.828   0.212   0.931
  120DPPC  H15A15481   4.894   0.171   0.856
  120DPPC  H15B15482   4.850   0.165   1.026
  120DPPC  H15C15483   4.844   0.318   0.939
  120DPPC   C1215484   4.593   0.252   0.991
  120DPPC  H12A15485   4.493   0.216   0.970
  120DPPC  H12B15486   4.595   0.358   0.970
  120DPPC   C1115487   4.621   0.234   1.141
  120DPPC  H11A15488   4.537   0.278   1.199
  120DPPC  H11B15489   4.713   0.293   1.165
  120DPPC     P15490   4.741   0.050   1.274
  120DPPC   O1315491   4.868   0.033   1.200
  120DPPC   O1415492   4.691   6.348   1.344
  120DPPC   O1115493   4.756   0.170   1.375
  120DPPC   O1215494   4.630   0.096   1.174
  120DPPC    C115495   4.878   0.191   1.449
  120DPPC    HA15496   4.914   0.294   1.430
  120DPPC    HB15497   4.960   0.122   1.418
  120DPPC    C215498   4.857   0.174   1.602
  120DPPC    HS15499   4.809   0.075   1.619
  120DPPC   O2115500   4.781   0.287   1.651
  120DPPC   C2115501   4.656   0.258   1.679
  120DPPC   O2215502   4.602   0.151   1.658
  120DPPC   C2215503   4.590   0.377   1.747
  120DPPC   H2R15504   4.537   0.438   1.672
  120DPPC   H2S15505   4.668   0.439   1.795
  120DPPC    C315506   4.992   0.169   1.680
  120DPPC    HX15507   5.044   0.265   1.662
  120DPPC    HY15508   5.057   0.088   1.640
  120DPPC   O3115509   4.971   0.156   1.823
  120DPPC   C3115510   4.944   0.032   1.864
  120DPPC   O3215511   4.943   6.352   1.792
  120DPPC   C3215512   4.901   0.035   2.010
  120DPPC   H2X15513   4.949   0.120   2.063
  120DPPC   H2Y15514   4.791   0.054   2.010
  120DPPC   C2315515   4.492   0.322   1.852
  120DPPC   H3R15516   4.545   0.249   1.917
  120DPPC   H3S15517   4.409   0.268   1.800
  120DPPC   C2415518   4.430   0.428   1.944
  120DPPC   H4R15519   4.364   0.377   2.016
  120DPPC   H4S15520   4.367   0.497   1.883
  120DPPC   C2515521   4.533   0.510   2.023
  120DPPC   H5R15522   4.592   0.572   1.953
  120DPPC   H5S15523   4.602   0.441   2.076
  120DPPC   C2615524   4.466   0.602   2.127
  120DPPC   H6R15525   4.412   0.538   2.200
  120DPPC   H6S15526   4.391   0.664   2.074
  120DPPC   C2715527   4.563   0.694   2.202
  120DPPC   H7R15528   4.637   0.632   2.258
  120DPPC   H7S15529   4.503   0.751   2.276
  120DPPC   C2815530   4.636   0.795   2.112
  120DPPC   H8R15531   4.561   0.844   2.046
  120DPPC   H8S15532   4.709   0.741   2.047
  120DPPC   C2915533   4.710   0.905   2.190
  120DPPC   H9R15534   4.639   0.953   2.261
  120DPPC   H9S15535   4.743   0.982   2.117
  120DPPC  C21015536   4.834   0.856   2.267
  120DPPC  H10R15537   4.905   0.810   2.195
  120DPPC  H10S15538   4.804   0.777   2.340
  120DPPC  C21115539   4.904   0.970   2.342
  120DPPC  H11R15540   4.835   1.009   2.420
  120DPPC  H11S15541   4.924   1.052   2.270
  120DPPC  C21215542   5.036   0.928   2.409
  120DPPC  H12R15543   5.109   0.900   2.330
  120DPPC  H12S15544   5.018   0.838   2.472
  120DPPC  C21315545   5.098   1.038   2.498
  120DPPC  H13R15546   5.192   0.998   2.542
  120DPPC  H13S15547   5.027   1.059   2.581
  120DPPC  C21415548   5.131   1.168   2.424
  120DPPC  H14R15549   5.038   1.211   2.379
  120DPPC  H14S15550   5.201   1.145   2.340
  120DPPC  C21515551   5.195   1.277   2.512
  120DPPC  H15R15552   5.223   1.362   2.447
  120DPPC  H15S15553   5.288   1.237   2.557
  120DPPC  C21615554   5.105   1.330   2.624
  120DPPC  H16R15555   5.156   1.413   2.678
  120DPPC  H16S15556   5.080   1.250   2.697
  120DPPC  H16T15557   5.010   1.370   2.582
  120DPPC   C3315558   4.928   6.319   2.081
  120DPPC   H3X15559   4.910   6.233   2.013
  120DPPC   H3Y15560   4.852   6.311   2.163
  120DPPC   C3415561   5.066   6.307   2.148
  120DPPC   H4X15562   5.146   6.308   2.071
  120DPPC   H4Y15563   5.069   6.209   2.201
  120DPPC   C3515564   5.092   0.001   2.250
  120DPPC   H5X15565   4.998   0.020   2.306
  120DPPC   H5Y15566   5.120   0.094   2.197
  120DPPC   C3615567   5.201   6.387   2.354
  120DPPC   H6X15568   5.298   6.367   2.303
  120DPPC   H6Y15569   5.171   6.295   2.410
  120DPPC   C3715570   5.218   0.084   2.454
  120DPPC   H7X15571   5.118   0.113   2.492
  120DPPC   H7Y15572   5.261   0.172   2.401
  120DPPC   C3815573   5.306   0.050   2.575
  120DPPC   H8X15574   5.408   0.023   2.541
  120DPPC   H8Y15575   5.262   6.381   2.627
  120DPPC   C3915576   5.315   0.167   2.674
  120DPPC   H9X15577   5.212   0.199   2.699
  120DPPC   H9Y15578   5.366   0.254   2.625
  120DPPC  C31015579   5.389   0.131   2.803
  120DPPC  H10X15580   5.495   0.110   2.780
  120DPPC  H10Y15581   5.343   0.039   2.845
  120DPPC  C31115582   5.380   0.241   2.910
  120DPPC  H11X15583   5.272   0.267   2.925
  120DPPC  H11Y15584   5.432   0.332   2.874
  120DPPC  C31215585   5.438   0.198   3.046
  120DPPC  H12X15586   5.548   0.185   3.038
  120DPPC  H12Y15587   5.393   0.099   3.073
  120DPPC  C31315588   5.405   0.296   3.160
  120DPPC  H13X15589   5.430   0.248   3.257
  120DPPC  H13Y15590   5.295   0.315   3.159
  120DPPC  C31415591   5.481   0.429   3.150
  120DPPC  H14X15592   5.472   0.471   3.048
  120DPPC  H14Y15593   5.589   0.410   3.169
  120DPPC  C31515594   5.431   0.536   3.250
  120DPPC  H15X15595   5.504   0.619   3.250
  120DPPC  H15Y15596   5.430   0.492   3.352
  120DPPC  C31615597   5.293   0.593   3.217
  120DPPC  H16X15598   5.292   0.636   3.115
  120DPPC  H16Y15599   5.266   0.673   3.289
  120DPPC  H16Z15600   5.215   0.514   3.223
  121DPPC     N15601   3.194   1.894   1.334
  121DPPC   C1315602   3.113   1.914   1.457
  121DPPC  H13A15603   3.178   1.951   1.536
  121DPPC  H13B15604   3.071   1.819   1.488
  121DPPC  H13C15605   3.034   1.984   1.438
  121DPPC   C1415606   3.109   1.836   1.226
  121DPPC  H14A15607   3.077   1.737   1.254
  121DPPC  H14B15608   3.167   1.828   1.135
  121DPPC  H14C15609   3.023   1.899   1.207
  121DPPC   C1515610   3.241   2.027   1.287
  121DPPC  H15A15611   3.299   2.015   1.196
  121DPPC  H15B15612   3.304   2.073   1.362
  121DPPC  H15C15613   3.157   2.091   1.267
  121DPPC   C1215614   3.313   1.806   1.362
  121DPPC  H12A15615   3.380   1.861   1.427
  121DPPC  H12B15616   3.365   1.791   1.268
  121DPPC   C1115617   3.290   1.667   1.426
  121DPPC  H11A15618   3.250   1.680   1.529
  121DPPC  H11B15619   3.391   1.620   1.436
  121DPPC     P15620   3.221   1.436   1.341
  121DPPC   O1315621   3.357   1.410   1.288
  121DPPC   O1415622   3.107   1.376   1.267
  121DPPC   O1115623   3.213   1.396   1.494
  121DPPC   O1215624   3.198   1.591   1.348
  121DPPC    C115625   3.089   1.356   1.555
  121DPPC    HA15626   3.110   1.309   1.653
  121DPPC    HB15627   3.039   1.278   1.494
  121DPPC    C215628   2.989   1.474   1.580
  121DPPC    HS15629   2.992   1.539   1.489
  121DPPC   O2115630   3.032   1.546   1.697
  121DPPC   C2115631   2.974   1.663   1.709
  121DPPC   O2215632   2.910   1.719   1.621
  121DPPC   C2215633   2.994   1.717   1.849
  121DPPC   H2R15634   3.041   1.818   1.843
  121DPPC   H2S15635   3.061   1.650   1.907
  121DPPC    C315636   2.841   1.424   1.595
  121DPPC    HX15637   2.814   1.369   1.502
  121DPPC    HY15638   2.777   1.515   1.600
  121DPPC   O3115639   2.822   1.338   1.709
  121DPPC   C3115640   2.694   1.325   1.747
  121DPPC   O3215641   2.601   1.388   1.698
  121DPPC   C3215642   2.682   1.220   1.857
  121DPPC   H2X15643   2.720   1.124   1.815
  121DPPC   H2Y15644   2.575   1.206   1.883
  121DPPC   C2315645   2.857   1.726   1.919
  121DPPC   H3R15646   2.806   1.627   1.911
  121DPPC   H3S15647   2.793   1.801   1.868
  121DPPC   C2415648   2.866   1.761   2.068
  121DPPC   H4R15649   2.935   1.687   2.116
  121DPPC   H4S15650   2.766   1.747   2.116
  121DPPC   C2515651   2.914   1.904   2.097
  121DPPC   H5R15652   2.824   1.968   2.113
  121DPPC   H5S15653   2.967   1.944   2.007
  121DPPC   C2615654   3.009   1.917   2.217
  121DPPC   H6R15655   2.960   1.872   2.306
  121DPPC   H6S15656   3.025   2.025   2.237
  121DPPC   C2715657   3.146   1.851   2.193
  121DPPC   H7R15658   3.190   1.894   2.100
  121DPPC   H7S15659   3.133   1.742   2.176
  121DPPC   C2815660   3.247   1.871   2.307
  121DPPC   H8R15661   3.271   1.980   2.314
  121DPPC   H8S15662   3.341   1.818   2.280
  121DPPC   C2915663   3.201   1.823   2.446
  121DPPC   H9R15664   3.117   1.887   2.481
  121DPPC   H9S15665   3.285   1.836   2.517
  121DPPC  C21015666   3.155   1.676   2.451
  121DPPC  H10R15667   3.238   1.610   2.415
  121DPPC  H10S15668   3.068   1.663   2.383
  121DPPC  C21115669   3.113   1.632   2.592
  121DPPC  H11R15670   3.040   1.705   2.631
  121DPPC  H11S15671   3.202   1.632   2.659
  121DPPC  C21215672   3.047   1.493   2.595
  121DPPC  H12R15673   3.119   1.416   2.558
  121DPPC  H12S15674   2.960   1.494   2.526
  121DPPC  C21315675   2.998   1.454   2.735
  121DPPC  H13R15676   2.934   1.536   2.774
  121DPPC  H13S15677   3.086   1.444   2.803
  121DPPC  C21415678   2.919   1.322   2.737
  121DPPC  H14R15679   2.982   1.242   2.694
  121DPPC  H14S15680   2.829   1.334   2.673
  121DPPC  C21515681   2.873   1.278   2.877
  121DPPC  H15R15682   2.964   1.261   2.940
  121DPPC  H15S15683   2.821   1.180   2.868
  121DPPC  C21615684   2.780   1.376   2.950
  121DPPC  H16R15685   2.690   1.396   2.889
  121DPPC  H16S15686   2.832   1.472   2.970
  121DPPC  H16T15687   2.749   1.333   3.048
  121DPPC   C3315688   2.764   1.256   1.982
  121DPPC   H3X15689   2.864   1.296   1.954
  121DPPC   H3Y15690   2.781   1.162   2.039
  121DPPC   C3415691   2.694   1.354   2.077
  121DPPC   H4X15692   2.603   1.306   2.118
  121DPPC   H4Y15693   2.661   1.443   2.018
  121DPPC   C3515694   2.782   1.406   2.192
  121DPPC   H5X15695   2.723   1.476   2.255
  121DPPC   H5Y15696   2.865   1.464   2.146
  121DPPC   C3615697   2.846   1.299   2.283
  121DPPC   H6X15698   2.924   1.353   2.343
  121DPPC   H6Y15699   2.899   1.222   2.223
  121DPPC   C3715700   2.754   1.230   2.385
  121DPPC   H7X15701   2.679   1.303   2.424
  121DPPC   H7Y15702   2.819   1.200   2.471
  121DPPC   C3815703   2.684   1.104   2.333
  121DPPC   H8X15704   2.760   1.037   2.287
  121DPPC   H8Y15705   2.611   1.132   2.254
  121DPPC   C3915706   2.610   1.024   2.442
  121DPPC   H9X15707   2.552   0.943   2.392
  121DPPC   H9Y15708   2.537   1.091   2.493
  121DPPC  C31015709   2.702   0.959   2.547
  121DPPC  H10X15710   2.757   1.038   2.603
  121DPPC  H10Y15711   2.776   0.895   2.494
  121DPPC  C31115712   2.624   0.872   2.647
  121DPPC  H11X15713   2.564   0.798   2.590
  121DPPC  H11Y15714   2.553   0.937   2.703
  121DPPC  C31215715   2.711   0.795   2.747
  121DPPC  H12X15716   2.780   0.728   2.692
  121DPPC  H12Y15717   2.643   0.731   2.808
  121DPPC  C31315718   2.793   0.883   2.844
  121DPPC  H13X15719   2.724   0.957   2.890
  121DPPC  H13Y15720   2.871   0.938   2.788
  121DPPC  C31415721   2.858   0.800   2.956
  121DPPC  H14X15722   2.932   0.730   2.912
  121DPPC  H14Y15723   2.779   0.740   3.006
  121DPPC  C31515724   2.927   0.885   3.065
  121DPPC  H15X15725   2.956   0.816   3.148
  121DPPC  H15Y15726   2.853   0.958   3.105
  121DPPC  C31615727   3.053   0.960   3.020
  121DPPC  H16X15728   3.096   1.017   3.105
  121DPPC  H16Y15729   3.028   1.032   2.939
  121DPPC  H16Z15730   3.129   0.889   2.983
  122DPPC     N15731   0.517   4.195   1.124
  122DPPC   C1315732   0.447   4.314   1.179
  122DPPC  H13A15733   0.371   4.283   1.250
  122DPPC  H13B15734   0.398   4.368   1.099
  122DPPC  H13C15735   0.517   4.380   1.227
  122DPPC   C1415736   0.416   4.107   1.058
  122DPPC  H14A15737   0.346   4.070   1.132
  122DPPC  H14B15738   0.466   4.024   1.011
  122DPPC  H14C15739   0.362   4.163   0.983
  122DPPC   C1515740   0.614   4.239   1.019
  122DPPC  H15A15741   0.652   4.152   0.968
  122DPPC  H15B15742   0.695   4.291   1.066
  122DPPC  H15C15743   0.565   4.304   0.948
  122DPPC   C1215744   0.585   4.119   1.234
  122DPPC  H12A15745   0.635   4.033   1.190
  122DPPC  H12B15746   0.508   4.080   1.300
  122DPPC   C1115747   0.688   4.194   1.322
  122DPPC  H11A15748   0.715   4.128   1.409
  122DPPC  H11B15749   0.641   4.284   1.366
  122DPPC     P15750   0.929   4.147   1.254
  122DPPC   O1315751   1.034   4.199   1.163
  122DPPC   O1415752   0.892   4.005   1.232
  122DPPC   O1115753   0.974   4.166   1.403
  122DPPC   O1215754   0.800   4.236   1.244
  122DPPC    C115755   1.083   4.091   1.458
  122DPPC    HA15756   1.177   4.110   1.401
  122DPPC    HB15757   1.061   3.981   1.454
  122DPPC    C215758   1.110   4.129   1.607
  122DPPC    HS15759   1.021   4.098   1.666
  122DPPC   O2115760   1.138   4.269   1.615
  122DPPC   C2115761   1.031   4.344   1.635
  122DPPC   O2215762   0.921   4.302   1.669
  122DPPC   C2215763   1.064   4.490   1.606
  122DPPC   H2R15764   1.011   4.517   1.512
  122DPPC   H2S15765   1.173   4.504   1.590
  122DPPC    C315766   1.230   4.050   1.667
  122DPPC    HX15767   1.323   4.088   1.618
  122DPPC    HY15768   1.222   3.942   1.639
  122DPPC   O3115769   1.241   4.069   1.810
  122DPPC   C3115770   1.159   3.992   1.882
  122DPPC   O3215771   1.087   3.905   1.836
  122DPPC   C3215772   1.166   4.032   2.029
  122DPPC   H2X15773   1.206   4.135   2.038
  122DPPC   H2Y15774   1.235   3.962   2.081
  122DPPC   C2315775   1.014   4.582   1.719
  122DPPC   H3R15776   0.917   4.548   1.761
  122DPPC   H3S15777   0.995   4.681   1.673
  122DPPC   C2415778   1.116   4.606   1.832
  122DPPC   H4R15779   1.079   4.691   1.894
  122DPPC   H4S15780   1.212   4.637   1.786
  122DPPC   C2515781   1.141   4.488   1.927
  122DPPC   H5R15782   1.180   4.401   1.870
  122DPPC   H5S15783   1.046   4.459   1.976
  122DPPC   C2615784   1.244   4.525   2.035
  122DPPC   H6R15785   1.210   4.616   2.088
  122DPPC   H6S15786   1.339   4.550   1.983
  122DPPC   C2715787   1.274   4.416   2.139
  122DPPC   H7R15788   1.303   4.323   2.086
  122DPPC   H7S15789   1.182   4.396   2.198
  122DPPC   C2815790   1.389   4.457   2.232
  122DPPC   H8R15791   1.365   4.555   2.279
  122DPPC   H8S15792   1.481   4.471   2.170
  122DPPC   C2915793   1.422   4.356   2.344
  122DPPC   H9R15794   1.520   4.388   2.387
  122DPPC   H9S15795   1.436   4.255   2.301
  122DPPC  C21015796   1.317   4.352   2.456
  122DPPC  H10R15797   1.224   4.305   2.418
  122DPPC  H10S15798   1.293   4.457   2.485
  122DPPC  C21115799   1.362   4.278   2.584
  122DPPC  H11R15800   1.380   4.171   2.560
  122DPPC  H11S15801   1.279   4.283   2.657
  122DPPC  C21215802   1.488   4.337   2.649
  122DPPC  H12R15803   1.483   4.449   2.643
  122DPPC  H12S15804   1.578   4.304   2.593
  122DPPC  C21315805   1.504   4.300   2.797
  122DPPC  H13R15806   1.503   4.189   2.808
  122DPPC  H13S15807   1.417   4.341   2.853
  122DPPC  C21415808   1.634   4.355   2.860
  122DPPC  H14R15809   1.650   4.459   2.823
  122DPPC  H14S15810   1.720   4.294   2.825
  122DPPC  C21515811   1.633   4.360   3.014
  122DPPC  H15R15812   1.559   4.436   3.045
  122DPPC  H15S15813   1.734   4.394   3.048
  122DPPC  C21615814   1.600   4.228   3.084
  122DPPC  H16R15815   1.672   4.149   3.055
  122DPPC  H16S15816   1.498   4.194   3.057
  122DPPC  H16T15817   1.604   4.241   3.194
  122DPPC   C3315818   1.025   4.025   2.089
  122DPPC   H3X15819   0.986   3.922   2.081
  122DPPC   H3Y15820   0.957   4.092   2.032
  122DPPC   C3415821   1.018   4.066   2.238
  122DPPC   H4X15822   0.914   4.051   2.272
  122DPPC   H4Y15823   1.042   4.175   2.248
  122DPPC   C3515824   1.113   3.986   2.328
  122DPPC   H5X15825   1.217   4.022   2.314
  122DPPC   H5Y15826   1.109   3.879   2.296
  122DPPC   C3615827   1.076   3.992   2.477
  122DPPC   H6X15828   0.972   3.953   2.489
  122DPPC   H6Y15829   1.077   4.098   2.511
  122DPPC   C3715830   1.170   3.910   2.565
  122DPPC   H7X15831   1.271   3.957   2.565
  122DPPC   H7Y15832   1.181   3.808   2.521
  122DPPC   C3815833   1.121   3.894   2.709
  122DPPC   H8X15834   1.023   3.842   2.708
  122DPPC   H8Y15835   1.106   3.995   2.753
  122DPPC   C3915836   1.219   3.815   2.797
  122DPPC   H9X15837   1.316   3.870   2.798
  122DPPC   H9Y15838   1.237   3.715   2.753
  122DPPC  C31015839   1.168   3.798   2.941
  122DPPC  H10X15840   1.082   3.726   2.939
  122DPPC  H10Y15841   1.129   3.895   2.978
  122DPPC  C31115842   1.274   3.747   3.040
  122DPPC  H11X15843   1.313   3.649   3.005
  122DPPC  H11Y15844   1.223   3.729   3.137
  122DPPC  C31215845   1.391   3.844   3.061
  122DPPC  H12X15846   1.376   3.934   2.997
  122DPPC  H12Y15847   1.486   3.795   3.028
  122DPPC  C31315848   1.408   3.893   3.206
  122DPPC  H13X15849   1.313   3.940   3.239
  122DPPC  H13Y15850   1.487   3.971   3.206
  122DPPC  C31415851   1.447   3.783   3.305
  122DPPC  H14X15852   1.543   3.737   3.273
  122DPPC  H14Y15853   1.369   3.704   3.304
  122DPPC  C31515854   1.461   3.833   3.450
  122DPPC  H15X15855   1.480   3.745   3.515
  122DPPC  H15Y15856   1.364   3.878   3.481
  122DPPC  C31615857   1.572   3.936   3.472
  122DPPC  H16X15858   1.670   3.895   3.441
  122DPPC  H16Y15859   1.579   3.963   3.580
  122DPPC  H16Z15860   1.553   4.029   3.415
  123DPPC     N15861   4.549   1.777   1.816
  123DPPC   C1315862   4.480   1.848   1.704
  123DPPC  H13A15863   4.399   1.786   1.668
  123DPPC  H13B15864   4.550   1.867   1.624
  123DPPC  H13C15865   4.441   1.942   1.741
  123DPPC   C1415866   4.606   1.649   1.765
  123DPPC  H14A15867   4.656   1.596   1.845
  123DPPC  H14B15868   4.676   1.669   1.685
  123DPPC  H14C15869   4.525   1.588   1.727
  123DPPC   C1515870   4.661   1.863   1.863
  123DPPC  H15A15871   4.729   1.883   1.781
  123DPPC  H15B15872   4.714   1.815   1.943
  123DPPC  H15C15873   4.620   1.958   1.897
  123DPPC   C1215874   4.453   1.752   1.929
  123DPPC  H12A15875   4.447   1.843   1.987
  123DPPC  H12B15876   4.497   1.676   1.993
  123DPPC   C1115877   4.309   1.710   1.894
  123DPPC  H11A15878   4.256   1.802   1.858
  123DPPC  H11B15879   4.260   1.677   1.989
  123DPPC     P15880   4.161   1.556   1.762
  123DPPC   O1315881   4.163   1.473   1.638
  123DPPC   O1415882   4.068   1.671   1.761
  123DPPC   O1115883   4.131   1.465   1.887
  123DPPC   O1215884   4.306   1.608   1.794
  123DPPC    C115885   4.196   1.339   1.912
  123DPPC    HA15886   4.247   1.298   1.822
  123DPPC    HB15887   4.116   1.266   1.939
  123DPPC    C215888   4.296   1.340   2.033
  123DPPC    HS15889   4.292   1.239   2.082
  123DPPC   O2115890   4.267   1.446   2.125
  123DPPC   C2115891   4.161   1.418   2.199
  123DPPC   O2215892   4.106   1.310   2.203
  123DPPC   C2215893   4.119   1.542   2.277
  123DPPC   H2R15894   4.017   1.528   2.318
  123DPPC   H2S15895   4.117   1.628   2.207
  123DPPC    C315896   4.445   1.355   1.988
  123DPPC    HX15897   4.457   1.459   1.949
  123DPPC    HY15898   4.464   1.284   1.904
  123DPPC   O3115899   4.535   1.326   2.097
  123DPPC   C3115900   4.659   1.370   2.081
  123DPPC   O3215901   4.699   1.435   1.986
  123DPPC   C3215902   4.745   1.321   2.198
  123DPPC   H2X15903   4.850   1.313   2.161
  123DPPC   H2Y15904   4.712   1.220   2.230
  123DPPC   C2315905   4.217   1.574   2.392
  123DPPC   H3R15906   4.322   1.561   2.357
  123DPPC   H3S15907   4.200   1.503   2.476
  123DPPC   C2415908   4.201   1.718   2.441
  123DPPC   H4R15909   4.094   1.737   2.463
  123DPPC   H4S15910   4.231   1.786   2.358
  123DPPC   C2515911   4.284   1.756   2.565
  123DPPC   H5R15912   4.278   1.867   2.576
  123DPPC   H5S15913   4.391   1.730   2.550
  123DPPC   C2615914   4.231   1.693   2.695
  123DPPC   H6R15915   4.280   1.595   2.711
  123DPPC   H6S15916   4.122   1.675   2.685
  123DPPC   C2715917   4.251   1.783   2.818
  123DPPC   H7R15918   4.191   1.876   2.803
  123DPPC   H7S15919   4.358   1.813   2.826
  123DPPC   C2815920   4.208   1.716   2.950
  123DPPC   H8R15921   4.284   1.638   2.974
  123DPPC   H8S15922   4.110   1.665   2.935
  123DPPC   C2915923   4.196   1.812   3.069
  123DPPC   H9R15924   4.285   1.878   3.073
  123DPPC   H9S15925   4.197   1.749   3.162
  123DPPC  C21015926   4.068   1.897   3.069
  123DPPC  H10R15927   3.980   1.829   3.061
  123DPPC  H10S15928   4.068   1.962   2.978
  123DPPC  C21115929   4.050   1.986   3.193
  123DPPC  H11R15930   3.958   2.047   3.178
  123DPPC  H11S15931   4.136   2.056   3.201
  123DPPC  C21215932   4.035   1.907   3.324
  123DPPC  H12R15933   4.133   1.861   3.350
  123DPPC  H12S15934   3.961   1.826   3.309
  123DPPC  C21315935   3.988   1.992   3.444
  123DPPC  H13R15936   3.978   1.925   3.532
  123DPPC  H13S15937   3.888   2.035   3.421
  123DPPC  C21415938   4.085   2.106   3.481
  123DPPC  H14R15939   4.088   2.181   3.398
  123DPPC  H14S15940   4.187   2.064   3.493
  123DPPC  C21515941   4.045   2.178   3.611
  123DPPC  H15R15942   4.044   2.103   3.693
  123DPPC  H15S15943   3.942   2.218   3.600
  123DPPC  C21615944   4.139   2.292   3.651
  123DPPC  H16R15945   4.107   2.336   3.748
  123DPPC  H16S15946   4.138   2.372   3.574
  123DPPC  H16T15947   4.243   2.255   3.661
  123DPPC   C3315948   4.742   1.418   2.317
  123DPPC   H3X15949   4.768   1.521   2.285
  123DPPC   H3Y15950   4.822   1.385   2.387
  123DPPC   C3415951   4.610   1.420   2.396
  123DPPC   H4X15952   4.568   1.317   2.398
  123DPPC   H4Y15953   4.537   1.485   2.343
  123DPPC   C3515954   4.624   1.467   2.543
  123DPPC   H5X15955   4.687   1.393   2.596
  123DPPC   H5Y15956   4.524   1.468   2.590
  123DPPC   C3615957   4.688   1.606   2.560
  123DPPC   H6X15958   4.621   1.683   2.515
  123DPPC   H6Y15959   4.785   1.609   2.506
  123DPPC   C3715960   4.716   1.642   2.707
  123DPPC   H7X15961   4.777   1.560   2.751
  123DPPC   H7Y15962   4.621   1.648   2.764
  123DPPC   C3815963   4.796   1.774   2.723
  123DPPC   H8X15964   4.732   1.861   2.698
  123DPPC   H8Y15965   4.878   1.770   2.649
  123DPPC   C3915966   4.861   1.794   2.861
  123DPPC   H9X15967   4.955   1.852   2.845
  123DPPC   H9Y15968   4.890   1.696   2.904
  123DPPC  C31015969   4.778   1.874   2.964
  123DPPC  H10X15970   4.753   1.973   2.921
  123DPPC  H10Y15971   4.843   1.891   3.053
  123DPPC  C31115972   4.650   1.804   3.012
  123DPPC  H11X15973   4.674   1.698   3.036
  123DPPC  H11Y15974   4.574   1.805   2.930
  123DPPC  C31215975   4.588   1.868   3.138
  123DPPC  H12X15976   4.662   1.861   3.220
  123DPPC  H12Y15977   4.498   1.809   3.167
  123DPPC  C31315978   4.547   2.016   3.120
  123DPPC  H13X15979   4.478   2.022   3.033
  123DPPC  H13Y15980   4.636   2.077   3.097
  123DPPC  C31415981   4.475   2.076   3.243
  123DPPC  H14X15982   4.386   2.015   3.267
  123DPPC  H14Y15983   4.440   2.178   3.216
  123DPPC  C31515984   4.564   2.087   3.368
  123DPPC  H15X15985   4.655   2.145   3.342
  123DPPC  H15Y15986   4.597   1.985   3.398
  123DPPC  C31615987   4.496   2.153   3.488
  123DPPC  H16X15988   4.565   2.158   3.574
  123DPPC  H16Y15989   4.406   2.095   3.518
  123DPPC  H16Z15990   4.464   2.257   3.462
  124DPPC     N15991   0.075   1.188   1.529
  124DPPC   C1315992   0.051   1.253   1.398
  124DPPC  H13A15993   0.036   1.359   1.412
  124DPPC  H13B15994   6.265   1.210   1.352
  124DPPC  H13C15995   0.135   1.237   1.332
  124DPPC   C1415996   0.097   1.042   1.507
  124DPPC  H14A15997   0.121   0.993   1.600
  124DPPC  H14B15998   0.177   1.027   1.436
  124DPPC  H14C15999   0.006   0.999   1.467
  124DPPC   C1516000   0.199   1.244   1.589
  124DPPC  H15A16001   0.282   1.231   1.521
  124DPPC  H15B16002   0.221   1.193   1.682
  124DPPC  H15C16003   0.183   1.350   1.608
  124DPPC   C1216004   6.261   1.206   1.622
  124DPPC  H12A16005   6.292   1.174   1.720
  124DPPC  H12B16006   6.182   1.138   1.589
  124DPPC   C1116007   6.198   1.347   1.633
  124DPPC  H11A16008   6.127   1.347   1.718
  124DPPC  H11B16009   6.141   1.362   1.538
  124DPPC     P16010   6.260   1.594   1.628
  124DPPC   O1316011   6.122   1.602   1.576
  124DPPC   O1416012   0.061   1.655   1.543
  124DPPC   O1116013   6.265   1.657   1.773
  124DPPC   O1216014   6.300   1.444   1.653
  124DPPC    C116015   0.013   1.789   1.795
  124DPPC    HA16016   6.261   1.836   1.879
  124DPPC    HB16017   6.301   1.855   1.707
  124DPPC    C216018   0.164   1.789   1.831
  124DPPC    HS16019   0.214   1.723   1.757
  124DPPC   O2116020   0.178   1.742   1.967
  124DPPC   C2116021   0.293   1.683   1.989
  124DPPC   O2216022   0.374   1.654   1.902
  124DPPC   C2216023   0.313   1.658   2.138
  124DPPC   H2R16024   0.308   1.549   2.157
  124DPPC   H2S16025   0.234   1.709   2.197
  124DPPC    C316026   0.224   1.933   1.816
  124DPPC    HX16027   0.221   1.955   1.706
  124DPPC    HY16028   0.331   1.932   1.847
  124DPPC   O3116029   0.150   2.030   1.893
  124DPPC   C3116030   0.143   2.153   1.843
  124DPPC   O3216031   0.199   2.190   1.741
  124DPPC   C3216032   0.053   2.240   1.930
  124DPPC   H2X16033   6.264   2.185   1.957
  124DPPC   H2Y16034   0.025   2.330   1.872
  124DPPC   C2316035   0.452   1.713   2.177
  124DPPC   H3R16036   0.455   1.822   2.159
  124DPPC   H3S16037   0.530   1.665   2.113
  124DPPC   C2416038   0.491   1.686   2.324
  124DPPC   H4R16039   0.487   1.577   2.343
  124DPPC   H4S16040   0.418   1.736   2.391
  124DPPC   C2516041   0.632   1.737   2.355
  124DPPC   H5R16042   0.635   1.848   2.342
  124DPPC   H5S16043   0.701   1.693   2.280
  124DPPC   C2616044   0.682   1.702   2.496
  124DPPC   H6R16045   0.687   1.591   2.505
  124DPPC   H6S16046   0.609   1.739   2.571
  124DPPC   C2716047   0.821   1.760   2.530
  124DPPC   H7R16048   0.853   1.718   2.628
  124DPPC   H7S16049   0.813   1.870   2.541
  124DPPC   C2816050   0.928   1.730   2.423
  124DPPC   H8R16051   0.902   1.786   2.330
  124DPPC   H8S16052   0.924   1.621   2.398
  124DPPC   C2916053   1.072   1.765   2.462
  124DPPC   H9R16054   1.077   1.871   2.495
  124DPPC   H9S16055   1.133   1.756   2.369
  124DPPC  C21016056   1.132   1.673   2.569
  124DPPC  H10R16057   1.109   1.567   2.543
  124DPPC  H10S16058   1.082   1.694   2.666
  124DPPC  C21116059   1.285   1.687   2.588
  124DPPC  H11R16060   1.316   1.618   2.669
  124DPPC  H11S16061   1.307   1.791   2.621
  124DPPC  C21216062   1.370   1.657   2.463
  124DPPC  H12R16063   1.477   1.667   2.491
  124DPPC  H12S16064   1.349   1.733   2.385
  124DPPC  C21316065   1.348   1.516   2.404
  124DPPC  H13R16066   1.242   1.504   2.375
  124DPPC  H13S16067   1.370   1.441   2.483
  124DPPC  C21416068   1.437   1.485   2.282
  124DPPC  H14R16069   1.416   1.380   2.250
  124DPPC  H14S16070   1.544   1.490   2.313
  124DPPC  C21516071   1.416   1.577   2.161
  124DPPC  H15R16072   1.484   1.543   2.079
  124DPPC  H15S16073   1.448   1.680   2.188
  124DPPC  C21616074   1.273   1.583   2.106
  124DPPC  H16R16075   1.269   1.648   2.016
  124DPPC  H16S16076   1.203   1.624   2.182
  124DPPC  H16T16077   1.239   1.481   2.077
  124DPPC   C3316078   0.129   2.283   2.057
  124DPPC   H3X16079   0.229   2.323   2.028
  124DPPC   H3Y16080   0.145   2.195   2.123
  124DPPC   C3416081   0.057   2.394   2.137
  124DPPC   H4X16082   6.264   2.355   2.177
  124DPPC   H4Y16083   0.033   2.476   2.065
  124DPPC   C3516084   0.141   2.454   2.250
  124DPPC   H5X16085   0.097   2.551   2.282
  124DPPC   H5Y16086   0.243   2.475   2.210
  124DPPC   C3616087   0.157   2.364   2.374
  124DPPC   H6X16088   0.249   2.396   2.428
  124DPPC   H6Y16089   0.172   2.259   2.343
  124DPPC   C3716090   0.041   2.373   2.473
  124DPPC   H7X16091   6.250   2.340   2.424
  124DPPC   H7Y16092   0.028   2.480   2.503
  124DPPC   C3816093   0.065   2.290   2.600
  124DPPC   H8X16094   0.159   2.325   2.648
  124DPPC   H8Y16095   0.078   2.183   2.572
  124DPPC   C3916096   6.254   2.301   2.702
  124DPPC   H9X16097   6.161   2.259   2.657
  124DPPC   H9Y16098   6.236   2.408   2.724
  124DPPC  C31016099   6.285   2.229   2.834
  124DPPC  H10X16100   0.074   2.274   2.878
  124DPPC  H10Y16101   0.004   2.122   2.813
  124DPPC  C31116102   6.173   2.238   2.939
  124DPPC  H11X16103   6.158   2.345   2.965
  124DPPC  H11Y16104   6.208   2.186   3.031
  124DPPC  C31216105   6.038   2.177   2.897
  124DPPC  H12X16106   5.994   2.238   2.815
  124DPPC  H12Y16107   5.970   2.185   2.985
  124DPPC  C31316108   6.046   2.030   2.853
  124DPPC  H13X16109   6.093   1.971   2.934
  124DPPC  H13Y16110   6.112   2.024   2.764
  124DPPC  C31416111   5.911   1.966   2.816
  124DPPC  H14X16112   5.935   1.866   2.773
  124DPPC  H14Y16113   5.861   2.025   2.736
  124DPPC  C31516114   5.814   1.943   2.934
  124DPPC  H15X16115   5.872   1.926   3.027
  124DPPC  H15Y16116   5.757   1.850   2.913
  124DPPC  C31616117   5.711   2.054   2.956
  124DPPC  H16X16118   5.651   2.071   2.864
  124DPPC  H16Y16119   5.642   2.026   3.038
  124DPPC  H16Z16120   5.761   2.149   2.984
  125DPPC     N16121   0.963   2.834   1.728
  125DPPC   C1316122   1.087   2.777   1.670
  125DPPC  H13A16123   1.093   2.800   1.564
  125DPPC  H13B16124   1.086   2.669   1.681
  125DPPC  H13C16125   1.174   2.817   1.719
  125DPPC   C1416126   0.966   2.817   1.876
  125DPPC  H14A16127   0.876   2.859   1.918
  125DPPC  H14B16128   1.053   2.866   1.916
  125DPPC  H14C16129   0.971   2.712   1.899
  125DPPC   C1516130   0.960   2.980   1.696
  125DPPC  H15A16131   1.049   3.028   1.733
  125DPPC  H15B16132   0.872   3.025   1.742
  125DPPC  H15C16133   0.955   2.994   1.589
  125DPPC   C1216134   0.839   2.771   1.670
  125DPPC  H12A16135   0.850   2.768   1.562
  125DPPC  H12B16136   0.756   2.837   1.693
  125DPPC   C1116137   0.797   2.630   1.719
  125DPPC  H11A16138   0.703   2.598   1.667
  125DPPC  H11B16139   0.770   2.637   1.826
  125DPPC     P16140   0.925   2.468   1.567
  125DPPC   O1316141   1.038   2.535   1.499
  125DPPC   O1416142   0.799   2.462   1.489
  125DPPC   O1116143   0.968   2.322   1.605
  125DPPC   O1216144   0.901   2.535   1.706
  125DPPC    C116145   0.877   2.223   1.654
  125DPPC    HA16146   0.926   2.125   1.639
  125DPPC    HB16147   0.782   2.222   1.596
  125DPPC    C216148   0.846   2.234   1.807
  125DPPC    HS16149   0.779   2.322   1.818
  125DPPC   O2116150   0.971   2.249   1.876
  125DPPC   C2116151   0.960   2.321   1.986
  125DPPC   O2216152   0.858   2.375   2.025
  125DPPC   C2216153   1.094   2.323   2.058
  125DPPC   H2R16154   1.162   2.392   2.003
  125DPPC   H2S16155   1.139   2.221   2.057
  125DPPC    C316156   0.771   2.106   1.856
  125DPPC    HX16157   0.839   2.020   1.835
  125DPPC    HY16158   0.680   2.090   1.794
  125DPPC   O3116159   0.741   2.105   1.998
  125DPPC   C3116160   0.627   2.165   2.031
  125DPPC   O3216161   0.552   2.220   1.952
  125DPPC   C3216162   0.605   2.153   2.181
  125DPPC   H2X16163   0.652   2.239   2.232
  125DPPC   H2Y16164   0.653   2.059   2.217
  125DPPC   C2316165   1.079   2.371   2.204
  125DPPC   H3R16166   1.028   2.469   2.207
  125DPPC   H3S16167   1.181   2.386   2.245
  125DPPC   C2416168   1.006   2.271   2.296
  125DPPC   H4R16169   1.055   2.172   2.289
  125DPPC   H4S16170   0.901   2.260   2.262
  125DPPC   C2516171   1.007   2.317   2.442
  125DPPC   H5R16172   1.111   2.315   2.480
  125DPPC   H5S16173   0.971   2.422   2.446
  125DPPC   C2616174   0.919   2.233   2.536
  125DPPC   H6R16175   0.956   2.128   2.539
  125DPPC   H6S16176   0.815   2.231   2.496
  125DPPC   C2716177   0.916   2.291   2.678
  125DPPC   H7R16178   0.885   2.398   2.671
  125DPPC   H7S16179   1.019   2.289   2.720
  125DPPC   C2816180   0.820   2.221   2.775
  125DPPC   H8R16181   0.719   2.214   2.729
  125DPPC   H8S16182   0.810   2.285   2.866
  125DPPC   C2916183   0.866   2.082   2.822
  125DPPC   H9R16184   0.970   2.089   2.857
  125DPPC   H9S16185   0.863   2.011   2.735
  125DPPC  C21016186   0.778   2.027   2.935
  125DPPC  H10R16187   0.672   2.031   2.901
  125DPPC  H10S16188   0.786   2.094   3.023
  125DPPC  C21116189   0.807   1.883   2.980
  125DPPC  H11R16190   0.727   1.854   3.051
  125DPPC  H11S16191   0.800   1.813   2.893
  125DPPC  C21216192   0.942   1.863   3.052
  125DPPC  H12R16193   0.927   1.783   3.129
  125DPPC  H12S16194   0.969   1.956   3.106
  125DPPC  C21316195   1.057   1.818   2.961
  125DPPC  H13R16196   1.075   1.895   2.883
  125DPPC  H13S16197   1.027   1.724   2.909
  125DPPC  C21416198   1.187   1.793   3.038
  125DPPC  H14R16199   1.218   1.886   3.089
  125DPPC  H14S16200   1.169   1.715   3.116
  125DPPC  C21516201   1.302   1.746   2.947
  125DPPC  H15R16202   1.319   1.823   2.869
  125DPPC  H15S16203   1.271   1.652   2.897
  125DPPC  C21616204   1.434   1.721   3.020
  125DPPC  H16R16205   1.469   1.814   3.070
  125DPPC  H16S16206   1.512   1.688   2.948
  125DPPC  H16T16207   1.422   1.642   3.097
  125DPPC   C3316208   0.454   2.147   2.211
  125DPPC   H3X16209   0.404   2.078   2.140
  125DPPC   H3Y16210   0.410   2.248   2.197
  125DPPC   C3416211   0.422   2.097   2.353
  125DPPC   H4X16212   0.460   1.992   2.362
  125DPPC   H4Y16213   0.312   2.093   2.365
  125DPPC   C3516214   0.483   2.182   2.466
  125DPPC   H5X16215   0.456   2.288   2.448
  125DPPC   H5Y16216   0.593   2.174   2.463
  125DPPC   C3616217   0.433   2.143   2.606
  125DPPC   H6X16218   0.322   2.154   2.609
  125DPPC   H6Y16219   0.476   2.213   2.680
  125DPPC   C3716220   0.468   1.999   2.647
  125DPPC   H7X16221   0.579   1.987   2.648
  125DPPC   H7Y16222   0.426   1.927   2.573
  125DPPC   C3816223   0.413   1.962   2.786
  125DPPC   H8X16224   0.303   1.975   2.785
  125DPPC   H8Y16225   0.455   2.032   2.861
  125DPPC   C3916226   0.446   1.818   2.828
  125DPPC   H9X16227   0.555   1.800   2.814
  125DPPC   H9Y16228   0.392   1.748   2.760
  125DPPC  C31016229   0.409   1.784   2.974
  125DPPC  H10X16230   0.476   1.843   3.041
  125DPPC  H10Y16231   0.430   1.676   2.992
  125DPPC  C31116232   0.263   1.815   3.010
  125DPPC  H11X16233   0.196   1.761   2.940
  125DPPC  H11Y16234   0.246   1.924   2.997
  125DPPC  C31216235   0.227   1.776   3.154
  125DPPC  H12X16236   0.299   1.823   3.224
  125DPPC  H12Y16237   0.238   1.665   3.165
  125DPPC  C31316238   0.084   1.814   3.195
  125DPPC  H13X16239   0.067   1.781   3.300
  125DPPC  H13Y16240   0.013   1.758   3.130
  125DPPC  C31416241   0.050   1.964   3.185
  125DPPC  H14X16242   6.248   1.979   3.219
  125DPPC  H14Y16243   0.055   1.996   3.078
  125DPPC  C31516244   0.141   2.056   3.268
  125DPPC  H15X16245   0.246   2.042   3.236
  125DPPC  H15Y16246   0.133   2.026   3.375
  125DPPC  C31616247   0.107   2.205   3.256
  125DPPC  H16X16248   0.002   2.223   3.286
  125DPPC  H16Y16249   0.120   2.239   3.151
  125DPPC  H16Z16250   0.173   2.265   3.322
  126DPPC     N16251   1.830   3.617   1.013
  126DPPC   C1316252   1.714   3.652   1.100
  126DPPC  H13A16253   1.730   3.751   1.141
  126DPPC  H13B16254   1.705   3.581   1.181
  126DPPC  H13C16255   1.623   3.651   1.042
  126DPPC   C1416256   1.809   3.479   0.961
  126DPPC  H14A16257   1.888   3.455   0.892
  126DPPC  H14B16258   1.714   3.474   0.909
  126DPPC  H14C16259   1.810   3.409   1.043
  126DPPC   C1516260   1.834   3.712   0.898
  126DPPC  H15A16261   1.849   3.813   0.934
  126DPPC  H15B16262   1.740   3.708   0.844
  126DPPC  H15C16263   1.914   3.685   0.831
  126DPPC   C1216264   1.959   3.622   1.090
  126DPPC  H12A16265   2.035   3.572   1.031
  126DPPC  H12B16266   1.945   3.564   1.181
  126DPPC   C1116267   2.014   3.761   1.129
  126DPPC  H11A16268   2.052   3.812   1.037
  126DPPC  H11B16269   2.101   3.744   1.196
  126DPPC     P16270   1.958   3.953   1.286
  126DPPC   O1316271   1.839   4.026   1.335
  126DPPC   O1416272   2.063   4.036   1.223
  126DPPC   O1116273   2.019   3.871   1.407
  126DPPC   O1216274   1.912   3.841   1.187
  126DPPC    C116275   1.931   3.804   1.499
  126DPPC    HA16276   1.985   3.716   1.542
  126DPPC    HB16277   1.841   3.762   1.448
  126DPPC    C216278   1.886   3.896   1.617
  126DPPC    HS16279   1.916   4.000   1.587
  126DPPC   O2116280   1.958   3.856   1.734
  126DPPC   C2116281   1.952   3.944   1.831
  126DPPC   O2216282   1.903   4.055   1.822
  126DPPC   C2216283   2.016   3.887   1.956
  126DPPC   H2R16284   1.987   3.951   2.042
  126DPPC   H2S16285   2.126   3.889   1.946
  126DPPC    C316286   1.731   3.898   1.637
  126DPPC    HX16287   1.687   3.909   1.535
  126DPPC    HY16288   1.704   3.988   1.695
  126DPPC   O3116289   1.682   3.779   1.704
  126DPPC   C3116290   1.548   3.773   1.704
  126DPPC   O3216291   1.476   3.852   1.644
  126DPPC   C3216292   1.500   3.657   1.790
  126DPPC   H2X16293   1.562   3.567   1.771
  126DPPC   H2Y16294   1.395   3.634   1.761
  126DPPC   C2316295   1.968   3.743   1.981
  126DPPC   H3R16296   2.011   3.675   1.905
  126DPPC   H3S16297   1.857   3.738   1.973
  126DPPC   C2416298   2.007   3.693   2.121
  126DPPC   H4R16299   1.956   3.759   2.195
  126DPPC   H4S16300   2.116   3.705   2.136
  126DPPC   C2516301   1.968   3.547   2.146
  126DPPC   H5R16302   2.035   3.482   2.086
  126DPPC   H5S16303   1.864   3.529   2.113
  126DPPC   C2616304   1.979   3.507   2.294
  126DPPC   H6R16305   2.080   3.535   2.331
  126DPPC   H6S16306   1.970   3.396   2.302
  126DPPC   C2716307   1.871   3.572   2.381
  126DPPC   H7R16308   1.771   3.546   2.339
  126DPPC   H7S16309   1.881   3.682   2.378
  126DPPC   C2816310   1.873   3.529   2.529
  126DPPC   H8R16311   1.853   3.420   2.536
  126DPPC   H8S16312   1.791   3.583   2.580
  126DPPC   C2916313   2.004   3.562   2.601
  126DPPC   H9R16314   2.027   3.669   2.585
  126DPPC   H9S16315   2.087   3.502   2.557
  126DPPC  C21016316   1.997   3.533   2.751
  126DPPC  H10R16317   1.969   3.426   2.766
  126DPPC  H10S16318   1.917   3.595   2.797
  126DPPC  C21116319   2.129   3.559   2.826
  126DPPC  H11R16320   2.208   3.492   2.787
  126DPPC  H11S16321   2.113   3.533   2.933
  126DPPC  C21216322   2.179   3.704   2.816
  126DPPC  H12R16323   2.099   3.773   2.850
  126DPPC  H12S16324   2.202   3.728   2.709
  126DPPC  C21316325   2.307   3.732   2.898
  126DPPC  H13R16326   2.339   3.836   2.877
  126DPPC  H13S16327   2.387   3.664   2.863
  126DPPC  C21416328   2.288   3.717   3.049
  126DPPC  H14R16329   2.261   3.611   3.074
  126DPPC  H14S16330   2.203   3.781   3.081
  126DPPC  C21516331   2.412   3.756   3.131
  126DPPC  H15R16332   2.385   3.751   3.239
  126DPPC  H15S16333   2.437   3.861   3.108
  126DPPC  C21616334   2.536   3.669   3.108
  126DPPC  H16R16335   2.619   3.701   3.174
  126DPPC  H16S16336   2.570   3.677   3.003
  126DPPC  H16T16337   2.513   3.562   3.129
  126DPPC   C3316338   1.505   3.694   1.939
  126DPPC   H3X16339   1.453   3.791   1.955
  126DPPC   H3Y16340   1.611   3.706   1.971
  126DPPC   C3416341   1.437   3.589   2.029
  126DPPC   H4X16342   1.485   3.490   2.013
  126DPPC   H4Y16343   1.330   3.581   1.997
  126DPPC   C3516344   1.441   3.623   2.179
  126DPPC   H5X16345   1.407   3.728   2.193
  126DPPC   H5Y16346   1.546   3.615   2.216
  126DPPC   C3616347   1.350   3.531   2.263
  126DPPC   H6X16348   1.380   3.425   2.250
  126DPPC   H6Y16349   1.246   3.542   2.224
  126DPPC   C3716350   1.347   3.566   2.413
  126DPPC   H7X16351   1.252   3.527   2.455
  126DPPC   H7Y16352   1.348   3.676   2.426
  126DPPC   C3816353   1.462   3.503   2.494
  126DPPC   H8X16354   1.560   3.537   2.453
  126DPPC   H8Y16355   1.456   3.392   2.482
  126DPPC   C3916356   1.455   3.537   2.644
  126DPPC   H9X16357   1.351   3.518   2.679
  126DPPC   H9Y16358   1.477   3.645   2.658
  126DPPC  C31016359   1.550   3.453   2.731
  126DPPC  H10X16360   1.655   3.471   2.700
  126DPPC  H10Y16361   1.529   3.345   2.714
  126DPPC  C31116362   1.537   3.483   2.881
  126DPPC  H11X16363   1.432   3.461   2.912
  126DPPC  H11Y16364   1.556   3.591   2.898
  126DPPC  C31216365   1.633   3.401   2.968
  126DPPC  H12X16366   1.737   3.429   2.941
  126DPPC  H12Y16367   1.620   3.293   2.947
  126DPPC  C31316368   1.614   3.425   3.119
  126DPPC  H13X16369   1.613   3.534   3.139
  126DPPC  H13Y16370   1.700   3.380   3.173
  126DPPC  C31416371   1.485   3.363   3.176
  126DPPC  H14X16372   1.486   3.254   3.156
  126DPPC  H14Y16373   1.397   3.407   3.125
  126DPPC  C31516374   1.470   3.386   3.327
  126DPPC  H15X16375   1.467   3.495   3.347
  126DPPC  H15Y16376   1.560   3.346   3.379
  126DPPC  C31616377   1.346   3.320   3.388
  126DPPC  H16X16378   1.254   3.358   3.337
  126DPPC  H16Y16379   1.339   3.343   3.496
  126DPPC  H16Z16380   1.350   3.210   3.375
  127DPPC     N16381   4.125   4.152   1.458
  127DPPC   C1316382   4.091   4.265   1.367
  127DPPC  H13A16383   4.159   4.266   1.282
  127DPPC  H13B16384   4.098   4.358   1.421
  127DPPC  H13C16385   3.990   4.252   1.331
  127DPPC   C1416386   4.118   4.023   1.384
  127DPPC  H14A16387   4.145   3.941   1.450
  127DPPC  H14B16388   4.186   4.024   1.301
  127DPPC  H14C16389   4.017   4.008   1.348
  127DPPC   C1516390   4.266   4.170   1.504
  127DPPC  H15A16391   4.275   4.262   1.559
  127DPPC  H15B16392   4.332   4.172   1.419
  127DPPC  H15C16393   4.294   4.087   1.568
  127DPPC   C1216394   4.034   4.150   1.578
  127DPPC  H12A16395   4.043   4.246   1.628
  127DPPC  H12B16396   4.071   4.074   1.646
  127DPPC   C1116397   3.883   4.123   1.554
  127DPPC  H11A16398   3.836   4.116   1.655
  127DPPC  H11B16399   3.874   4.022   1.506
  127DPPC     P16400   3.681   4.193   1.420
  127DPPC   O1316401   3.698   4.085   1.321
  127DPPC   O1416402   3.614   4.316   1.371
  127DPPC   O1116403   3.603   4.139   1.547
  127DPPC   O1216404   3.823   4.228   1.479
  127DPPC    C116405   3.513   4.221   1.623
  127DPPC    HA16406   3.466   4.156   1.701
  127DPPC    HB16407   3.431   4.259   1.559
  127DPPC    C216408   3.580   4.340   1.699
  127DPPC    HS16409   3.612   4.411   1.618
  127DPPC   O2116410   3.693   4.289   1.773
  127DPPC   C2116411   3.777   4.386   1.804
  127DPPC   O2216412   3.771   4.501   1.763
  127DPPC   C2216413   3.880   4.333   1.903
  127DPPC   H2R16414   3.927   4.241   1.863
  127DPPC   H2S16415   3.829   4.309   1.999
  127DPPC    C316416   3.478   4.416   1.792
  127DPPC    HX16417   3.375   4.379   1.772
  127DPPC    HY16418   3.479   4.522   1.759
  127DPPC   O3116419   3.513   4.412   1.932
  127DPPC   C3116420   3.468   4.307   1.999
  127DPPC   O3216421   3.396   4.220   1.954
  127DPPC   C3216422   3.526   4.311   2.140
  127DPPC   H2X16423   3.509   4.412   2.183
  127DPPC   H2Y16424   3.635   4.293   2.135
  127DPPC   C2316425   3.987   4.441   1.928
  127DPPC   H3R16426   3.938   4.537   1.955
  127DPPC   H3S16427   4.044   4.457   1.833
  127DPPC   C2416428   4.085   4.406   2.040
  127DPPC   H4R16429   4.126   4.304   2.026
  127DPPC   H4S16430   4.028   4.407   2.136
  127DPPC   C2516431   4.201   4.506   2.049
  127DPPC   H5R16432   4.165   4.605   2.014
  127DPPC   H5S16433   4.283   4.474   1.981
  127DPPC   C2616434   4.256   4.526   2.191
  127DPPC   H6R16435   4.173   4.564   2.256
  127DPPC   H6S16436   4.335   4.604   2.189
  127DPPC   C2716437   4.313   4.399   2.256
  127DPPC   H7R16438   4.401   4.364   2.198
  127DPPC   H7S16439   4.236   4.319   2.255
  127DPPC   C2816440   4.354   4.425   2.402
  127DPPC   H8R16441   4.265   4.464   2.456
  127DPPC   H8S16442   4.432   4.504   2.404
  127DPPC   C2916443   4.404   4.302   2.478
  127DPPC   H9R16444   4.331   4.219   2.467
  127DPPC   H9S16445   4.410   4.329   2.585
  127DPPC  C21016446   4.543   4.253   2.434
  127DPPC  H10R16447   4.614   4.339   2.435
  127DPPC  H10S16448   4.540   4.212   2.331
  127DPPC  C21116449   4.597   4.145   2.530
  127DPPC  H11R16450   4.533   4.055   2.523
  127DPPC  H11S16451   4.588   4.185   2.634
  127DPPC  C21216452   4.743   4.105   2.505
  127DPPC  H12R16453   4.807   4.196   2.503
  127DPPC  H12S16454   4.750   4.056   2.406
  127DPPC  C21316455   4.798   4.009   2.612
  127DPPC  H13R16456   4.894   3.967   2.576
  127DPPC  H13S16457   4.727   3.924   2.624
  127DPPC  C21416458   4.822   4.075   2.749
  127DPPC  H14R16459   4.728   4.124   2.783
  127DPPC  H14S16460   4.900   4.154   2.738
  127DPPC  C21516461   4.864   3.975   2.857
  127DPPC  H15R16462   4.958   3.925   2.825
  127DPPC  H15S16463   4.785   3.897   2.865
  127DPPC  C21616464   4.885   4.038   2.995
  127DPPC  H16R16465   4.915   3.960   3.069
  127DPPC  H16S16466   4.790   4.084   3.031
  127DPPC  H16T16467   4.964   4.116   2.991
  127DPPC   C3316468   3.461   4.205   2.230
  127DPPC   H3X16469   3.477   4.104   2.186
  127DPPC   H3Y16470   3.351   4.222   2.237
  127DPPC   C3416471   3.520   4.206   2.372
  127DPPC   H4X16472   3.496   4.303   2.421
  127DPPC   H4Y16473   3.631   4.199   2.364
  127DPPC   C3516474   3.471   4.091   2.460
  127DPPC   H5X16475   3.490   3.994   2.408
  127DPPC   H5Y16476   3.361   4.100   2.476
  127DPPC   C3616477   3.541   4.087   2.597
  127DPPC   H6X16478   3.519   4.180   2.652
  127DPPC   H6Y16479   3.651   4.083   2.580
  127DPPC   C3716480   3.501   3.966   2.683
  127DPPC   H7X16481   3.522   3.873   2.626
  127DPPC   H7Y16482   3.392   3.970   2.703
  127DPPC   C3816483   3.577   3.961   2.817
  127DPPC   H8X16484   3.552   4.052   2.876
  127DPPC   H8Y16485   3.686   3.962   2.796
  127DPPC   C3916486   3.544   3.836   2.900
  127DPPC   H9X16487   3.568   3.745   2.841
  127DPPC   H9Y16488   3.435   3.835   2.922
  127DPPC  C31016489   3.622   3.831   3.033
  127DPPC  H10X16490   3.598   3.921   3.092
  127DPPC  H10Y16491   3.731   3.832   3.012
  127DPPC  C31116492   3.589   3.707   3.117
  127DPPC  H11X16493   3.621   3.616   3.062
  127DPPC  H11Y16494   3.478   3.701   3.131
  127DPPC  C31216495   3.655   3.711   3.256
  127DPPC  H12X16496   3.619   3.801   3.309
  127DPPC  H12Y16497   3.765   3.720   3.243
  127DPPC  C31316498   3.625   3.588   3.343
  127DPPC  H13X16499   3.515   3.577   3.352
  127DPPC  H13Y16500   3.666   3.607   3.445
  127DPPC  C31416501   3.686   3.457   3.291
  127DPPC  H14X16502   3.795   3.472   3.275
  127DPPC  H14Y16503   3.641   3.431   3.193
  127DPPC  C31516504   3.668   3.338   3.387
  127DPPC  H15X16505   3.713   3.365   3.485
  127DPPC  H15Y16506   3.724   3.251   3.347
  127DPPC  C31616507   3.522   3.295   3.410
  127DPPC  H16X16508   3.464   3.377   3.457
  127DPPC  H16Y16509   3.474   3.268   3.313
  127DPPC  H16Z16510   3.518   3.207   3.477
  128DPPC     N16511   1.969   0.116   0.925
  128DPPC   C1316512   1.842   0.155   0.993
  128DPPC  H13A16513   1.766   0.081   0.975
  128DPPC  H13B16514   1.809   0.250   0.954
  128DPPC  H13C16515   1.861   0.165   1.099
  128DPPC   C1416516   2.016   6.403   0.976
  128DPPC  H14A16517   2.024   6.406   1.084
  128DPPC  H14B16518   2.113   6.379   0.934
  128DPPC  H14C16519   1.946   6.325   0.948
  128DPPC   C1516520   1.940   0.101   0.780
  128DPPC  H15A16521   1.906   0.196   0.739
  128DPPC  H15B16522   1.863   0.027   0.765
  128DPPC  H15C16523   2.029   0.069   0.728
  128DPPC   C1216524   2.076   0.221   0.943
  128DPPC  H12A16525   2.035   0.315   0.908
  128DPPC  H12B16526   2.158   0.195   0.878
  128DPPC   C1116527   2.134   0.244   1.085
  128DPPC  H11A16528   2.211   0.324   1.074
  128DPPC  H11B16529   2.185   0.151   1.119
  128DPPC     P16530   2.076   0.339   1.313
  128DPPC   O1316531   1.959   0.344   1.403
  128DPPC   O1416532   2.145   0.468   1.290
  128DPPC   O1116533   2.180   0.235   1.367
  128DPPC   O1216534   2.030   0.280   1.175
  128DPPC    C116535   2.141   0.110   1.424
  128DPPC    HA16536   2.228   0.041   1.413
  128DPPC    HB16537   2.055   0.063   1.371
  128DPPC    C216538   2.111   0.117   1.578
  128DPPC    HS16539   2.006   0.155   1.587
  128DPPC   O2116540   2.207   0.207   1.636
  128DPPC   C2116541   2.160   0.276   1.738
  128DPPC   O2216542   2.051   0.260   1.790
  128DPPC   C2216543   2.263   0.381   1.777
  128DPPC   H2R16544   2.279   0.446   1.688
  128DPPC   H2S16545   2.360   0.332   1.803
  128DPPC    C316546   2.119   6.393   1.642
  128DPPC    HX16547   2.220   6.353   1.617
  128DPPC    HY16548   2.045   6.326   1.593
  128DPPC   O3116549   2.107   6.394   1.786
  128DPPC   C3116550   1.983   6.383   1.834
  128DPPC   O3216551   1.884   6.361   1.767
  128DPPC   C3216552   1.986   6.406   1.985
  128DPPC   H2X16553   1.925   0.078   2.007
  128DPPC   H2Y16554   2.089   0.007   2.019
  128DPPC   C2316555   2.217   0.471   1.893
  128DPPC   H3R16556   2.112   0.505   1.877
  128DPPC   H3S16557   2.282   0.561   1.890
  128DPPC   C2416558   2.231   0.407   2.033
  128DPPC   H4R16559   2.333   0.363   2.044
  128DPPC   H4S16560   2.158   0.324   2.041
  128DPPC   C2516561   2.206   0.506   2.149
  128DPPC   H5R16562   2.195   0.449   2.243
  128DPPC   H5S16563   2.109   0.558   2.129
  128DPPC   C2616564   2.315   0.614   2.168
  128DPPC   H6R16565   2.277   0.691   2.238
  128DPPC   H6S16566   2.334   0.664   2.071
  128DPPC   C2716567   2.449   0.562   2.224
  128DPPC   H7R16568   2.525   0.642   2.211
  128DPPC   H7S16569   2.483   0.474   2.165
  128DPPC   C2816570   2.445   0.526   2.373
  128DPPC   H8R16571   2.367   0.448   2.390
  128DPPC   H8S16572   2.415   0.616   2.430
  128DPPC   C2916573   2.579   0.474   2.428
  128DPPC   H9R16574   2.657   0.551   2.410
  128DPPC   H9S16575   2.607   0.383   2.372
  128DPPC  C21016576   2.574   0.442   2.578
  128DPPC  H10R16577   2.490   0.372   2.597
  128DPPC  H10S16578   2.554   0.535   2.635
  128DPPC  C21116579   2.704   0.377   2.629
  128DPPC  H11R16580   2.790   0.446   2.611
  128DPPC  H11S16581   2.722   0.284   2.569
  128DPPC  C21216582   2.701   0.338   2.778
  128DPPC  H12R16583   2.788   0.272   2.798
  128DPPC  H12S16584   2.609   0.280   2.798
  128DPPC  C21316585   2.708   0.457   2.875
  128DPPC  H13R16586   2.616   0.518   2.865
  128DPPC  H13S16587   2.794   0.521   2.845
  128DPPC  C21416588   2.728   0.416   3.022
  128DPPC  H14R16589   2.740   0.508   3.083
  128DPPC  H14S16590   2.822   0.358   3.029
  128DPPC  C21516591   2.614   0.332   3.083
  128DPPC  H15R16592   2.643   0.307   3.187
  128DPPC  H15S16593   2.606   0.236   3.027
  128DPPC  C21616594   2.477   0.400   3.085
  128DPPC  H16R16595   2.403   0.335   3.136
  128DPPC  H16S16596   2.442   0.421   2.982
  128DPPC  H16T16597   2.483   0.496   3.141
  128DPPC   C3316598   1.928   6.285   2.059
  128DPPC   H3X16599   1.986   6.194   2.034
  128DPPC   H3Y16600   1.823   6.269   2.025
  128DPPC   C3416601   1.928   6.304   2.211
  128DPPC   H4X16602   1.882   6.403   2.233
  128DPPC   H4Y16603   2.032   6.307   2.248
  128DPPC   C3516604   1.849   6.196   2.286
  128DPPC   H5X16605   1.899   6.097   2.276
  128DPPC   H5Y16606   1.749   6.187   2.238
  128DPPC   C3616607   1.827   6.229   2.434
  128DPPC   H6X16608   1.797   6.336   2.441
  128DPPC   H6Y16609   1.923   6.218   2.490
  128DPPC   C3716610   1.717   6.145   2.500
  128DPPC   H7X16611   1.747   6.038   2.502
  128DPPC   H7Y16612   1.627   6.154   2.435
  128DPPC   C3816613   1.682   6.193   2.642
  128DPPC   H8X16614   1.686   6.304   2.643
  128DPPC   H8Y16615   1.759   6.156   2.713
  128DPPC   C3916616   1.542   6.151   2.691
  128DPPC   H9X16617   1.529   6.191   2.794
  128DPPC   H9Y16618   1.534   6.040   2.695
  128DPPC  C31016619   1.428   6.207   2.603
  128DPPC  H10X16620   1.425   6.150   2.508
  128DPPC  H10Y16621   1.451   6.313   2.580
  128DPPC  C31116622   1.289   6.202   2.667
  128DPPC  H11X16623   1.291   6.260   2.762
  128DPPC  H11Y16624   1.264   6.096   2.691
  128DPPC  C31216625   1.181   6.261   2.575
  128DPPC  H12X16626   1.172   6.197   2.484
  128DPPC  H12Y16627   1.216   6.362   2.541
  128DPPC  C31316628   1.043   6.277   2.639
  128DPPC  H13X16629   0.976   6.330   2.567
  128DPPC  H13Y16630   1.052   6.341   2.729
  128DPPC  C31416631   0.976   6.145   2.678
  128DPPC  H14X16632   1.041   6.090   2.749
  128DPPC  H14Y16633   0.962   6.083   2.587
  128DPPC  C31516634   0.839   6.166   2.746
  128DPPC  H15X16635   0.774   6.224   2.676
  128DPPC  H15Y16636   0.853   6.227   2.837
  128DPPC  C31616637   0.767   6.036   2.784
  128DPPC  H16X16638   0.669   6.058   2.830
  128DPPC  H16Y16639   0.828   5.978   2.856
  128DPPC  H16Z16640   0.750   5.973   2.694
  129SOL    OH216641   2.673   4.503   0.204
  129SOL     H116642   2.755   4.484   0.159
  129SOL     H216643   2.611   4.522   0.133
  130SOL    OH216644   2.464   2.570   0.373
  130SOL     H116645   2.392   2.509   0.386
  130SOL     H216646   2.473   2.615   0.457
  131SOL    OH216647   2.247   0.290   0.639
  131SOL     H116648   2.273   0.332   0.721
  131SOL     H216649   2.233   0.362   0.578
  132SOL    OH216650   4.473   1.362   0.576
  132SOL     H116651   4.549   1.408   0.541
  132SOL     H216652   4.400   1.389   0.519
  133SOL    OH216653   2.950   0.109   6.436
  133SOL     H116654   3.005   0.149   6.368
  133SOL     H216655   2.861   0.141   6.417
  134SOL    OH216656   4.366   2.452   0.272
  134SOL     H116657   4.272   2.442   0.288
  134SOL     H216658   4.374   2.533   0.222
  135SOL    OH216659   6.185   4.141   6.613
  135SOL     H116660   6.235   4.070   6.653
  135SOL     H216661   6.242   4.218   6.619
  136SOL    OH216662   1.445   4.053   5.004
  136SOL     H116663   1.525   4.069   4.955
  136SOL     H216664   1.399   4.137   5.002
  137SOL    OH216665   4.590   5.540   5.588
  137SOL     H116666   4.584   5.465   5.647
  137SOL     H216667   4.503   5.578   5.588
  138SOL    OH216668   0.422   4.999   5.176
  138SOL     H116669   0.350   5.037   5.126
  138SOL     H216670   0.435   4.912   5.137
  139SOL    OH216671   2.609   6.301   0.236
  139SOL     H116672   2.671   6.305   0.164
  139SOL     H216673   2.578   6.392   0.247
  140SOL    OH216674   0.918   2.251   0.862
  140SOL     H116675   0.912   2.176   0.921
  140SOL     H216676   0.839   2.302   0.880
  141SOL    OH216677   2.877   4.061   6.576
  141SOL     H116678   2.936   4.136   6.576
  141SOL     H216679   2.799   4.092   6.623
  142SOL    OH216680   5.207   2.036   5.162
  142SOL     H116681   5.234   2.120   5.124
  142SOL     H216682   5.115   2.048   5.184
  143SOL    OH216683   3.794   3.252   5.580
  143SOL     H116684   3.755   3.219   5.498
  143SOL     H216685   3.749   3.336   5.595
  144SOL    OH216686   2.097   4.368   6.448
  144SOL     H116687   2.016   4.400   6.487
  144SOL     H216688   2.132   4.305   6.511
  145SOL    OH216689   6.227   0.530   6.170
  145SOL     H116690   6.218   0.608   6.116
  145SOL     H216691   6.154   0.474   6.144
  146SOL    OH216692   5.765   3.709   6.369
  146SOL     H116693   5.781   3.797   6.336
  146SOL     H216694   5.844   3.660   6.345
  147SOL    OH216695   2.974   5.264   1.287
  147SOL     H116696   2.919   5.284   1.363
  147SOL     H216697   3.046   5.211   1.322
  148SOL    OH216698   0.107   0.470   5.465
  148SOL     H116699   0.156   0.535   5.515
  148SOL     H216700   0.174   0.407   5.435
  149SOL    OH216701   0.306   1.506   1.081
  149SOL     H116702   0.297   1.413   1.097
  149SOL     H216703   0.217   1.537   1.065
  150SOL    OH216704   0.801   2.325   0.185
  150SOL     H116705   0.798   2.360   0.274
  150SOL     H216706   0.861   2.384   0.139
  151SOL    OH216707   5.923   6.082   6.464
  151SOL     H116708   5.957   6.134   6.392
  151SOL     H216709   6.001   6.053   6.512
  152SOL    OH216710   5.582   0.958   0.099
  152SOL     H116711   5.577   0.991   0.189
  152SOL     H216712   5.608   1.033   0.047
  153SOL    OH216713   1.935   3.191   0.180
  153SOL     H116714   1.972   3.256   0.120
  153SOL     H216715   2.011   3.155   0.226
  154SOL    OH216716   4.442   5.818   5.786
  154SOL     H116717   4.411   5.762   5.715
  154SOL     H216718   4.364   5.834   5.840
  155SOL    OH216719   2.473   4.701   0.671
  155SOL     H116720   2.486   4.726   0.579
  155SOL     H216721   2.448   4.783   0.714
  156SOL    OH216722   4.715   1.589   0.743
  156SOL     H116723   4.693   1.679   0.719
  156SOL     H216724   4.713   1.541   0.661
  157SOL    OH216725   1.331   4.729   0.833
  157SOL     H116726   1.302   4.780   0.757
  157SOL     H216727   1.306   4.781   0.909
  158SOL    OH216728   4.929   4.287   2.236
  158SOL     H116729   4.875   4.212   2.210
  158SOL     H216730   5.012   4.273   2.190
  159SOL    OH216731   1.887   0.964   6.169
  159SOL     H116732   1.923   1.034   6.114
  159SOL     H216733   1.896   0.998   6.258
  160SOL    OH216734   0.481   2.712   0.824
  160SOL     H116735   0.481   2.633   0.878
  160SOL     H216736   0.458   2.682   0.736
  161SOL    OH216737   2.723   4.896   2.003
  161SOL     H116738   2.674   4.978   2.013
  161SOL     H216739   2.778   4.911   1.927
  162SOL    OH216740   3.753   3.427   0.713
  162SOL     H116741   3.791   3.511   0.689
  162SOL     H216742   3.827   3.372   0.737
  163SOL    OH216743   3.311   5.181   5.858
  163SOL     H116744   3.401   5.214   5.852
  163SOL     H216745   3.270   5.208   5.776
  164SOL    OH216746   3.461   2.148   0.008
  164SOL     H116747   3.447   2.108   0.093
  164SOL     H216748   3.375   2.185   6.666
  165SOL    OH216749   5.230   3.912   6.639
  165SOL     H116750   5.230   4.008   6.645
  165SOL     H216751   5.312   3.891   6.593
  166SOL    OH216752   4.501   1.245   1.186
  166SOL     H116753   4.570   1.204   1.134
  166SOL     H216754   4.541   1.325   1.220
  167SOL    OH216755   0.213   4.053   6.378
  167SOL     H116756   0.172   4.125   6.332
  167SOL     H216757   0.223   4.084   6.468
  168SOL    OH216758   3.414   5.047   1.225
  168SOL     H116759   3.426   5.129   1.273
  168SOL     H216760   3.368   4.990   1.286
  169SOL    OH216761   6.088   0.192   5.867
  169SOL     H116762   6.122   0.281   5.867
  169SOL     H216763   6.003   0.198   5.908
  170SOL    OH216764   0.116   4.446   0.217
  170SOL     H116765   0.175   4.416   0.287
  170SOL     H216766   0.132   4.540   0.211
  171SOL    OH216767   0.462   1.770   6.370
  171SOL     H116768   0.516   1.711   6.318
  171SOL     H216769   0.386   1.788   6.315
  172SOL    OH216770   0.029   3.585   5.548
  172SOL     H116771   0.113   3.624   5.571
  172SOL     H216772   0.050   3.520   5.481
  173SOL    OH216773   5.777   2.451   1.058
  173SOL     H116774   5.792   2.396   1.135
  173SOL     H216775   5.749   2.535   1.093
  174SOL    OH216776   2.443   0.656   0.271
  174SOL     H116777   2.497   0.723   0.230
  174SOL     H216778   2.354   0.674   0.241
  175SOL    OH216779   5.949   2.922   0.250
  175SOL     H116780   5.884   2.982   0.212
  175SOL     H216781   5.897   2.859   0.300
  176SOL    OH216782   1.723   6.156   0.269
  176SOL     H116783   1.765   6.087   0.217
  176SOL     H216784   1.642   6.175   0.221
  177SOL    OH216785   4.343   0.470   6.550
  177SOL     H116786   4.282   0.397   6.535
  177SOL     H216787   4.428   0.435   6.525
  178SOL    OH216788   2.476   5.480   5.980
  178SOL     H116789   2.413   5.541   5.941
  178SOL     H216790   2.441   5.394   5.959
  179SOL    OH216791   0.276   1.968   5.990
  179SOL     H116792   0.276   2.052   6.036
  179SOL     H216793   0.355   1.969   5.937
  180SOL    OH216794   2.931   4.425   0.120
  180SOL     H116795   2.972   4.383   0.043
  180SOL     H216796   3.000   4.425   0.186
  181SOL    OH216797   0.366   3.611   0.324
  181SOL     H116798   0.358   3.590   0.231
  181SOL     H216799   0.277   3.602   0.359
  182SOL    OH216800   2.283   2.623   5.010
  182SOL     H116801   2.243   2.637   5.095
  182SOL     H216802   2.332   2.703   4.992
  183SOL    OH216803   3.199   4.527   6.585
  183SOL     H116804   3.247   4.464   6.639
  183SOL     H216805   3.238   4.519   6.498
  184SOL    OH216806   2.922   1.671   5.367
  184SOL     H116807   2.890   1.640   5.282
  184SOL     H216808   2.876   1.618   5.431
  185SOL    OH216809   0.598   0.931   6.261
  185SOL     H116810   0.562   0.889   6.339
  185SOL     H216811   0.541   0.901   6.190
  186SOL    OH216812   2.292   0.603   1.122
  186SOL     H116813   2.244   0.551   1.187
  186SOL     H216814   2.366   0.547   1.097
  187SOL    OH216815   2.722   2.621   5.488
  187SOL     H116816   2.816   2.638   5.493
  187SOL     H216817   2.691   2.631   5.578
  188SOL    OH216818   0.123   6.318   1.018
  188SOL     H116819   0.139   6.224   1.003
  188SOL     H216820   0.105   6.324   1.112
  189SOL    OH216821   2.994   3.322   6.642
  189SOL     H116822   2.920   3.281   0.007
  189SOL     H216823   3.002   3.408   0.002
  190SOL    OH216824   0.114   3.662   1.704
  190SOL     H116825   0.054   3.613   1.761
  190SOL     H216826   0.191   3.678   1.759
  191SOL    OH216827   5.964   5.997   0.545
  191SOL     H116828   6.046   6.013   0.499
  191SOL     H216829   5.903   5.971   0.476
  192SOL    OH216830   2.857   3.594   6.316
  192SOL     H116831   2.933   3.639   6.353
  192SOL     H216832   2.880   3.501   6.318
  193SOL    OH216833   0.168   3.603   6.448
  193SOL     H116834   0.140   3.613   6.357
  193SOL     H216835   0.227   3.677   6.464
  194SOL    OH216836   4.337   2.614   6.204
  194SOL     H116837   4.331   2.536   6.259
  194SOL     H216838   4.361   2.684   6.265
  195SOL    OH216839   6.018   4.946   0.675
  195SOL     H116840   6.021   4.860   0.716
  195SOL     H216841   6.074   5.001   0.731
  196SOL    OH216842   4.294   2.867   0.971
  196SOL     H116843   4.234   2.922   0.920
  196SOL     H216844   4.239   2.794   1.001
  197SOL    OH216845   3.397   5.518   5.951
  197SOL     H116846   3.365   5.531   5.861
  197SOL     H216847   3.473   5.575   5.957
  198SOL    OH216848   1.951   2.330   5.060
  198SOL     H116849   2.024   2.299   5.007
  198SOL     H216850   1.878   2.334   4.998
  199SOL    OH216851   5.086   0.714   5.431
  199SOL     H116852   5.073   0.679   5.519
  199SOL     H216853   5.156   0.660   5.395
  200SOL    OH216854   5.035   1.896   5.491
  200SOL     H116855   4.999   1.843   5.562
  200SOL     H216856   4.959   1.937   5.450
  201SOL    OH216857   1.333   4.280   6.620
  201SOL     H116858   1.275   4.354   6.636
  201SOL     H216859   1.300   4.240   6.540
  202SOL    OH216860   5.207   0.672   6.220
  202SOL     H116861   5.151   0.719   6.158
  202SOL     H216862   5.145   0.632   6.281
  203SOL    OH216863   4.758   0.894   6.188
  203SOL     H116864   4.819   0.945   6.241
  203SOL     H216865   4.672   0.932   6.207
  204SOL    OH216866   4.278   5.672   1.677
  204SOL     H116867   4.359   5.721   1.668
  204SOL     H216868   4.210   5.739   1.687
  205SOL    OH216869   1.167   2.784   5.936
  205SOL     H116870   1.236   2.734   5.979
  205SOL     H216871   1.128   2.722   5.874
  206SOL    OH216872   3.562   5.896   0.015
  206SOL     H116873   3.496   5.837   0.051
  206SOL     H216874   3.561   5.972   0.074
  207SOL    OH216875   2.598   2.270   0.119
  207SOL     H116876   2.621   2.320   0.040
  207SOL     H216877   2.648   2.313   0.189
  208SOL    OH216878   1.378   5.833   0.218
  208SOL     H116879   1.398   5.770   0.149
  208SOL     H216880   1.386   5.784   0.299
  209SOL    OH216881   1.917   0.613   6.342
  209SOL     H116882   1.959   0.542   6.294
  209SOL     H216883   1.989   0.662   6.381
  210SOL    OH216884   4.481   2.705   5.560
  210SOL     H116885   4.399   2.696   5.511
  210SOL     H216886   4.535   2.763   5.506
  211SOL    OH216887   5.314   3.769   0.817
  211SOL     H116888   5.402   3.733   0.802
  211SOL     H216889   5.263   3.740   0.741
  212SOL    OH216890   4.855   5.725   5.754
  212SOL     H116891   4.777   5.712   5.807
  212SOL     H216892   4.823   5.724   5.664
  213SOL    OH216893   3.518   3.987   0.974
  213SOL     H116894   3.604   3.975   1.015
  213SOL     H216895   3.479   3.900   0.975
  214SOL    OH216896   4.720   3.361   0.723
  214SOL     H116897   4.646   3.338   0.779
  214SOL     H216898   4.680   3.412   0.652
  215SOL    OH216899   5.257   0.662   0.487
  215SOL     H116900   5.338   0.701   0.453
  215SOL     H216901   5.188   0.701   0.434
  216SOL    OH216902   1.225   4.545   0.279
  216SOL     H116903   1.233   4.631   0.237
  216SOL     H216904   1.131   4.532   0.288
  217SOL    OH216905   3.721   5.226   1.314
  217SOL     H116906   3.753   5.171   1.386
  217SOL     H216907   3.716   5.314   1.351
  218SOL    OH216908   5.409   2.637   1.263
  218SOL     H116909   5.374   2.595   1.184
  218SOL     H216910   5.340   2.696   1.291
  219SOL    OH216911   0.287   0.742   4.858
  219SOL     H116912   0.223   0.672   4.870
  219SOL     H216913   0.352   0.705   4.798
  220SOL    OH216914   2.497   2.853   5.561
  220SOL     H116915   2.482   2.940   5.525
  220SOL     H216916   2.472   2.793   5.491
  221SOL    OH216917   0.843   5.682   5.653
  221SOL     H116918   0.893   5.658   5.730
  221SOL     H216919   0.903   5.667   5.580
  222SOL    OH216920   2.734   3.296   4.968
  222SOL     H116921   2.714   3.371   4.912
  222SOL     H216922   2.741   3.332   5.056
  223SOL    OH216923   1.105   5.766   6.486
  223SOL     H116924   1.045   5.692   6.490
  223SOL     H216925   1.113   5.787   6.393
  224SOL    OH216926   3.625   6.316   1.160
  224SOL     H116927   3.547   6.272   1.193
  224SOL     H216928   3.639   6.389   1.222
  225SOL    OH216929   1.601   5.568   6.327
  225SOL     H116930   1.579   5.487   6.373
  225SOL     H216931   1.694   5.559   6.307
  226SOL    OH216932   1.669   4.972   5.682
  226SOL     H116933   1.739   5.038   5.675
  226SOL     H216934   1.620   4.981   5.601
  227SOL    OH216935   1.530   4.664   6.225
  227SOL     H116936   1.480   4.644   6.304
  227SOL     H216937   1.622   4.653   6.251
  228SOL    OH216938   3.328   1.864   0.060
  228SOL     H116939   3.403   1.820   0.099
  228SOL     H216940   3.358   1.890   6.653
  229SOL    OH216941   4.090   1.019   1.583
  229SOL     H116942   4.038   0.993   1.659
  229SOL     H216943   4.062   1.109   1.565
  230SOL    OH216944   4.919   5.461   0.575
  230SOL     H116945   4.884   5.497   0.657
  230SOL     H216946   4.904   5.530   0.510
  231SOL    OH216947   0.664   5.995   0.742
  231SOL     H116948   0.636   5.903   0.743
  231SOL     H216949   0.705   6.008   0.827
  232SOL    OH216950   5.609   3.249   1.034
  232SOL     H116951   5.645   3.191   1.100
  232SOL     H216952   5.561   3.192   0.974
  233SOL    OH216953   5.258   2.471   0.473
  233SOL     H116954   5.219   2.556   0.494
  233SOL     H216955   5.301   2.443   0.554
  234SOL    OH216956   5.586   5.408   6.087
  234SOL     H116957   5.509   5.364   6.121
  234SOL     H216958   5.610   5.472   6.154
  235SOL    OH216959   5.270   4.370   0.900
  235SOL     H116960   5.208   4.312   0.945
  235SOL     H216961   5.267   4.341   0.809
  236SOL    OH216962   3.553   1.680   6.445
  236SOL     H116963   3.534   1.773   6.459
  236SOL     H216964   3.482   1.635   6.491
  237SOL    OH216965   4.830   4.179   0.232
  237SOL     H116966   4.823   4.200   0.325
  237SOL     H216967   4.869   4.092   0.230
  238SOL    OH216968   5.276   0.294   6.437
  238SOL     H116969   5.347   0.348   6.473
  238SOL     H216970   5.198   0.324   6.484
  239SOL    OH216971   5.939   0.178   0.034
  239SOL     H116972   5.947   0.221   6.629
  239SOL     H216973   5.852   0.204   0.066
  240SOL    OH216974   3.255   6.060   6.461
  240SOL     H116975   3.196   6.131   6.438
  240SOL     H216976   3.219   6.023   6.541
  241SOL    OH216977   3.634   0.795   6.550
  241SOL     H116978   3.671   0.738   6.617
  241SOL     H216979   3.539   0.780   6.556
  242SOL    OH216980   3.629   3.423   0.297
  242SOL     H116981   3.717   3.450   0.324
  242SOL     H216982   3.581   3.413   0.379
  243SOL    OH216983   5.005   2.351   0.862
  243SOL     H116984   5.023   2.364   0.955
  243SOL     H216985   5.075   2.293   0.832
  244SOL    OH216986   0.016   6.203   5.085
  244SOL     H116987   6.268   6.229   5.008
  244SOL     H216988   6.271   6.128   5.121
  245SOL    OH216989   4.925   6.322   5.885
  245SOL     H116990   4.890   6.244   5.928
  245SOL     H216991   4.877   6.395   5.923
  246SOL    OH216992   3.205   0.184   1.476
  246SOL     H116993   3.281   0.227   1.516
  246SOL     H216994   3.242   0.109   1.430
  247SOL    OH216995   3.223   6.113   5.587
  247SOL     H116996   3.198   6.109   5.494
  247SOL     H216997   3.303   6.060   5.592
  248SOL    OH216998   5.202   5.927   0.449
  248SOL     H116999   5.237   5.866   0.383
  248SOL     H217000   5.159   5.995   0.397
  249SOL    OH217001   0.477   2.617   6.309
  249SOL     H117002   0.386   2.591   6.301
  249SOL     H217003   0.496   2.609   6.403
  250SOL    OH217004   0.098   5.420   1.511
  250SOL     H117005   0.064   5.332   1.491
  250SOL     H217006   0.180   5.426   1.462
  251SOL    OH217007   0.220   6.376   0.337
  251SOL     H117008   0.313   6.363   0.315
  251SOL     H217009   0.185   0.006   0.262
  252SOL    OH217010   1.225   0.751   6.297
  252SOL     H117011   1.167   0.784   6.366
  252SOL     H217012   1.313   0.776   6.326
  253SOL    OH217013   1.524   3.782   5.773
  253SOL     H117014   1.575   3.833   5.836
  253SOL     H217015   1.551   3.691   5.789
  254SOL    OH217016   4.620   4.504   6.297
  254SOL     H117017   4.703   4.506   6.345
  254SOL     H217018   4.614   4.591   6.257
  255SOL    OH217019   3.091   1.763   5.959
  255SOL     H117020   3.078   1.857   5.942
  255SOL     H217021   3.052   1.720   5.884
  256SOL    OH217022   1.203   1.770   0.122
  256SOL     H117023   1.286   1.736   0.089
  256SOL     H217024   1.186   1.848   0.069
  257SOL    OH217025   4.711   4.781   0.892
  257SOL     H117026   4.793   4.829   0.875
  257SOL     H217027   4.650   4.848   0.924
  258SOL    OH217028   6.140   4.691   0.045
  258SOL     H117029   6.159   4.738   0.127
  258SOL     H217030   6.193   4.737   6.660
  259SOL    OH217031   2.891   6.080   0.062
  259SOL     H117032   2.816   6.025   0.083
  259SOL     H217033   2.854   6.167   0.047
  260SOL    OH217034   3.144   1.815   5.344
  260SOL     H117035   3.061   1.769   5.355
  260SOL     H217036   3.146   1.842   5.252
  261SOL    OH217037   5.669   5.259   0.828
  261SOL     H117038   5.705   5.264   0.739
  261SOL     H217039   5.579   5.227   0.816
  262SOL    OH217040   3.581   3.395   2.256
  262SOL     H117041   3.507   3.359   2.305
  262SOL     H217042   3.546   3.408   2.167
  263SOL    OH217043   5.176   4.519   0.533
  263SOL     H117044   5.183   4.611   0.557
  263SOL     H217045   5.100   4.516   0.474
  264SOL    OH217046   3.323   6.070   1.076
  264SOL     H117047   3.361   6.116   1.151
  264SOL     H217048   3.343   5.978   1.092
  265SOL    OH217049   5.975   4.746   1.541
  265SOL     H117050   5.946   4.796   1.617
  265SOL     H217051   5.897   4.699   1.512
  266SOL    OH217052   0.936   1.179   0.635
  266SOL     H117053   1.004   1.239   0.607
  266SOL     H217054   0.854   1.222   0.611
  267SOL    OH217055   3.559   0.798   0.642
  267SOL     H117056   3.503   0.875   0.634
  267SOL     H217057   3.530   0.756   0.724
  268SOL    OH217058   2.977   6.069   5.963
  268SOL     H117059   2.917   5.996   5.946
  268SOL     H217060   2.988   6.111   5.878
  269SOL    OH217061   4.169   0.597   0.045
  269SOL     H117062   4.211   0.648   0.114
  269SOL     H217063   4.241   0.552   0.001
  270SOL    OH217064   3.520   0.381   0.875
  270SOL     H117065   3.495   0.425   0.793
  270SOL     H217066   3.588   0.436   0.912
  271SOL    OH217067   3.460   0.473   0.622
  271SOL     H117068   3.389   0.534   0.603
  271SOL     H217069   3.524   0.488   0.553
  272SOL    OH217070   3.646   5.137   0.082
  272SOL     H117071   3.571   5.091   0.119
  272SOL     H217072   3.710   5.140   0.153
  273SOL    OH217073   0.218   5.852   6.470
  273SOL     H117074   0.294   5.882   6.420
  273SOL     H217075   0.173   5.933   6.497
  274SOL    OH217076   3.933   2.834   0.749
  274SOL     H117077   3.937   2.846   0.843
  274SOL     H217078   3.964   2.744   0.735
  275SOL    OH217079   1.674   0.481   1.700
  275SOL     H117080   1.615   0.509   1.629
  275SOL     H217081   1.632   0.513   1.780
  276SOL    OH217082   3.856   2.945   0.195
  276SOL     H117083   3.801   3.023   0.188
  276SOL     H217084   3.945   2.976   0.176
  277SOL    OH217085   3.818   1.278   5.127
  277SOL     H117086   3.849   1.192   5.099
  277SOL     H217087   3.746   1.260   5.187
  278SOL    OH217088   1.791   1.113   6.426
  278SOL     H117089   1.754   1.186   6.475
  278SOL     H217090   1.727   1.095   6.357
  279SOL    OH217091   1.255   4.016   0.052
  279SOL     H117092   1.282   4.103   0.022
  279SOL     H217093   1.324   3.957   0.023
  280SOL    OH217094   0.853   6.270   0.285
  280SOL     H117095   0.837   6.282   0.191
  280SOL     H217096   0.932   6.320   0.303
  281SOL    OH217097   3.716   5.597   5.738
  281SOL     H117098   3.676   5.610   5.824
  281SOL     H217099   3.652   5.545   5.689
  282SOL    OH217100   1.043   3.844   5.830
  282SOL     H117101   1.135   3.862   5.851
  282SOL     H217102   1.000   3.929   5.839
  283SOL    OH217103   4.535   1.043   6.554
  283SOL     H117104   4.457   1.099   6.549
  283SOL     H217105   4.509   0.972   6.613
  284SOL    OH217106   1.636   5.762   5.622
  284SOL     H117107   1.718   5.733   5.664
  284SOL     H217108   1.611   5.689   5.565
  285SOL    OH217109   3.769   1.158   1.337
  285SOL     H117110   3.807   1.236   1.295
  285SOL     H217111   3.686   1.188   1.372
  286SOL    OH217112   4.727   2.815   5.416
  286SOL     H117113   4.816   2.844   5.396
  286SOL     H217114   4.672   2.861   5.354
  287SOL    OH217115   0.956   5.174   4.986
  287SOL     H117116   1.031   5.228   4.963
  287SOL     H217117   0.935   5.199   5.076
  288SOL    OH217118   1.390   3.906   1.398
  288SOL     H117119   1.421   3.895   1.488
  288SOL     H217120   1.453   3.966   1.358
  289SOL    OH217121   3.965   3.265   0.807
  289SOL     H117122   3.995   3.330   0.870
  289SOL     H217123   4.022   3.190   0.820
  290SOL    OH217124   4.450   2.788   5.824
  290SOL     H117125   4.443   2.765   5.731
  290SOL     H217126   4.541   2.766   5.847
  291SOL    OH217127   5.287   2.976   5.773
  291SOL     H117128   5.239   3.028   5.838
  291SOL     H217129   5.220   2.947   5.711
  292SOL    OH217130   5.628   5.065   6.567
  292SOL     H117131   5.643   4.974   6.540
  292SOL     H217132   5.667   5.071   6.654
  293SOL    OH217133   2.950   4.990   6.116
  293SOL     H117134   3.019   5.055   6.100
  293SOL     H217135   2.995   4.906   6.114
  294SOL    OH217136   5.298   5.724   0.282
  294SOL     H117137   5.343   5.690   0.205
  294SOL     H217138   5.348   5.691   0.356
  295SOL    OH217139   4.415   3.562   6.355
  295SOL     H117140   4.404   3.609   6.437
  295SOL     H217141   4.508   3.541   6.351
  296SOL    OH217142   4.353   0.464   1.172
  296SOL     H117143   4.275   0.517   1.187
  296SOL     H217144   4.333   0.413   1.094
  297SOL    OH217145   3.476   0.946   5.872
  297SOL     H117146   3.465   0.916   5.962
  297SOL     H217147   3.392   0.928   5.830
  298SOL    OH217148   5.275   0.533   5.349
  298SOL     H117149   5.345   0.581   5.394
  298SOL     H217150   5.302   0.531   5.257
  299SOL    OH217151   4.538   5.589   0.677
  299SOL     H117152   4.454   5.603   0.722
  299SOL     H217153   4.542   5.494   0.663
  300SOL    OH217154   2.806   5.860   5.913
  300SOL     H117155   2.847   5.810   5.842
  300SOL     H217156   2.715   5.870   5.885
  301SOL    OH217157   0.143   6.166   0.725
  301SOL     H117158   0.050   6.187   0.727
  301SOL     H217159   0.159   6.121   0.808
  302SOL    OH217160   1.876   2.745   0.898
  302SOL     H117161   1.842   2.719   0.983
  302SOL     H217162   1.823   2.820   0.872
  303SOL    OH217163   0.449   5.405   6.000
  303SOL     H117164   0.471   5.409   6.093
  303SOL     H217165   0.363   5.448   5.994
  304SOL    OH217166   2.197   1.963   5.700
  304SOL     H117167   2.218   1.879   5.659
  304SOL     H217168   2.126   1.942   5.761
  305SOL    OH217169   4.078   1.587   0.204
  305SOL     H117170   4.061   1.665   0.150
  305SOL     H217171   4.019   1.520   0.170
  306SOL    OH217172   5.582   1.269   5.451
  306SOL     H117173   5.587   1.274   5.356
  306SOL     H217174   5.536   1.187   5.469
  307SOL    OH217175   5.647   2.035   1.035
  307SOL     H117176   5.575   1.975   1.015
  307SOL     H217177   5.606   2.106   1.084
  308SOL    OH217178   4.696   4.617   0.676
  308SOL     H117179   4.696   4.676   0.752
  308SOL     H217180   4.738   4.537   0.709
  309SOL    OH217181   1.077   5.089   0.934
  309SOL     H117182   0.993   5.067   0.974
  309SOL     H217183   1.054   5.149   0.863
  310SOL    OH217184   4.493   5.547   6.080
  310SOL     H117185   4.486   5.499   6.163
  310SOL     H217186   4.403   5.571   6.059
  311SOL    OH217187   3.385   1.051   5.431
  311SOL     H117188   3.371   1.108   5.356
  311SOL     H217189   3.400   0.964   5.393
  312SOL    OH217190   2.167   4.010   0.286
  312SOL     H117191   2.195   3.987   0.197
  312SOL     H217192   2.208   3.945   0.342
  313SOL    OH217193   3.451   5.885   0.810
  313SOL     H117194   3.457   5.979   0.827
  313SOL     H217195   3.366   5.860   0.846
  314SOL    OH217196   2.655   2.989   1.689
  314SOL     H117197   2.643   3.054   1.620
  314SOL     H217198   2.750   2.976   1.693
  315SOL    OH217199   1.753   4.842   1.102
  315SOL     H117200   1.814   4.860   1.173
  315SOL     H217201   1.706   4.763   1.131
  316SOL    OH217202   1.867   5.789   0.590
  316SOL     H117203   1.943   5.841   0.615
  316SOL     H217204   1.869   5.788   0.494
  317SOL    OH217205   1.635   4.041   0.294
  317SOL     H117206   1.599   4.107   0.234
  317SOL     H217207   1.729   4.060   0.296
  318SOL    OH217208   1.667   1.688   6.101
  318SOL     H117209   1.613   1.611   6.080
  318SOL     H217210   1.604   1.757   6.119
  319SOL    OH217211   2.626   2.423   5.334
  319SOL     H117212   2.603   2.477   5.257
  319SOL     H217213   2.671   2.484   5.393
  320SOL    OH217214   5.266   0.480   1.692
  320SOL     H117215   5.276   0.399   1.741
  320SOL     H217216   5.224   0.454   1.610
  321SOL    OH217217   1.951   5.984   4.760
  321SOL     H117218   1.971   6.078   4.757
  321SOL     H217219   1.856   5.979   4.750
  322SOL    OH217220   2.854   1.978   6.579
  322SOL     H117221   2.919   1.915   6.607
  322SOL     H217222   2.781   1.966   6.640
  323SOL    OH217223   4.659   3.857   5.269
  323SOL     H117224   4.697   3.944   5.284
  323SOL     H217225   4.607   3.868   5.189
  324SOL    OH217226   1.747   4.096   0.957
  324SOL     H117227   1.816   4.151   0.996
  324SOL     H217228   1.729   4.138   0.873
  325SOL    OH217229   3.510   0.344   0.196
  325SOL     H117230   3.514   0.249   0.209
  325SOL     H217231   3.547   0.358   0.109
  326SOL    OH217232   0.060   5.974   6.193
  326SOL     H117233   0.104   6.051   6.229
  326SOL     H217234   0.102   5.960   6.108
  327SOL    OH217235   0.754   1.313   5.988
  327SOL     H117236   0.819   1.245   5.968
  327SOL     H217237   0.710   1.281   6.067
  328SOL    OH217238   3.767   3.991   1.092
  328SOL     H117239   3.861   4.007   1.093
  328SOL     H217240   3.736   4.023   1.177
  329SOL    OH217241   2.883   4.679   6.339
  329SOL     H117242   2.913   4.694   6.429
  329SOL     H217243   2.823   4.751   6.321
  330SOL    OH217244   1.934   4.672   5.581
  330SOL     H117245   1.972   4.598   5.629
  330SOL     H217246   2.002   4.697   5.518
  331SOL    OH217247   0.101   6.028   1.643
  331SOL     H117248   0.058   5.957   1.691
  331SOL     H217249   0.138   6.084   1.712
  332SOL    OH217250   4.587   0.385   6.467
  332SOL     H117251   4.662   0.428   6.424
  332SOL     H217252   4.566   0.311   6.411
  333SOL    OH217253   4.768   6.097   5.960
  333SOL     H117254   4.707   6.077   5.889
  333SOL     H217255   4.832   6.026   5.958
  334SOL    OH217256   2.243   2.558   5.705
  334SOL     H117257   2.255   2.510   5.787
  334SOL     H217258   2.300   2.512   5.643
  335SOL    OH217259   3.963   1.395   5.909
  335SOL     H117260   3.961   1.427   5.819
  335SOL     H217261   3.889   1.335   5.915
  336SOL    OH217262   4.123   0.536   0.497
  336SOL     H117263   4.208   0.572   0.469
  336SOL     H217264   4.110   0.573   0.585
  337SOL    OH217265   4.951   5.900   5.940
  337SOL     H117266   4.925   5.842   5.868
  337SOL     H217267   5.046   5.900   5.937
  338SOL    OH217268   4.738   0.291   5.432
  338SOL     H117269   4.709   0.338   5.510
  338SOL     H217270   4.659   0.283   5.378
  339SOL    OH217271   2.971   3.705   1.145
  339SOL     H117272   2.989   3.749   1.228
  339SOL     H217273   2.889   3.744   1.114
  340SOL    OH217274   5.029   1.971   4.877
  340SOL     H117275   4.955   1.937   4.926
  340SOL     H217276   5.054   1.899   4.817
  341SOL    OH217277   6.007   2.346   0.083
  341SOL     H117278   6.046   2.404   0.148
  341SOL     H217279   5.914   2.344   0.104
  342SOL    OH217280   5.381   0.390   0.525
  342SOL     H117281   5.380   0.381   0.620
  342SOL     H217282   5.340   0.475   0.509
  343SOL    OH217283   3.985   5.965   6.046
  343SOL     H117284   3.904   5.987   6.001
  343SOL     H217285   3.957   5.915   6.123
  344SOL    OH217286   3.136   4.398   5.769
  344SOL     H117287   3.209   4.433   5.719
  344SOL     H217288   3.171   4.385   5.857
  345SOL    OH217289   4.485   3.300   0.853
  345SOL     H117290   4.464   3.341   0.936
  345SOL     H217291   4.404   3.306   0.802
  346SOL    OH217292   6.081   1.050   6.407
  346SOL     H117293   5.987   1.060   6.398
  346SOL     H217294   6.117   1.084   6.325
  347SOL    OH217295   3.796   3.552   6.097
  347SOL     H117296   3.742   3.631   6.090
  347SOL     H217297   3.870   3.579   6.152
  348SOL    OH217298   0.190   5.419   0.192
  348SOL     H117299   0.182   5.513   0.178
  348SOL     H217300   0.099   5.388   0.194
  349SOL    OH217301   3.881   0.435   0.395
  349SOL     H117302   3.957   0.473   0.441
  349SOL     H217303   3.909   0.429   0.304
  350SOL    OH217304   5.802   2.326   1.298
  350SOL     H117305   5.846   2.296   1.377
  350SOL     H217306   5.712   2.343   1.326
  351SOL    OH217307   5.273   1.234   6.566
  351SOL     H117308   5.345   1.298   6.570
  351SOL     H217309   5.232   1.240   6.652
  352SOL    OH217310   5.824   5.830   6.517
  352SOL     H117311   5.858   5.919   6.510
  352SOL     H217312   5.734   5.841   6.546
  353SOL    OH217313   0.116   1.578   1.299
  353SOL     H117314   0.212   1.571   1.296
  353SOL     H217315   0.097   1.608   1.387
  354SOL    OH217316   3.122   5.110   6.431
  354SOL     H117317   3.097   5.045   6.496
  354SOL     H217318   3.041   5.156   6.410
  355SOL    OH217319   1.608   4.989   6.519
  355SOL     H117320   1.593   5.025   6.432
  355SOL     H217321   1.702   5.001   6.534
  356SOL    OH217322   0.330   4.612   1.214
  356SOL     H117323   0.296   4.577   1.297
  356SOL     H217324   0.418   4.642   1.236
  357SOL    OH217325   0.068   4.184   0.905
  357SOL     H117326   0.091   4.100   0.944
  357SOL     H217327   0.063   4.244   0.980
  358SOL    OH217328   5.134   5.534   5.366
  358SOL     H117329   5.123   5.439   5.371
  358SOL     H217330   5.225   5.546   5.340
  359SOL    OH217331   3.075   4.591   5.389
  359SOL     H117332   3.060   4.685   5.391
  359SOL     H217333   3.170   4.581   5.397
  360SOL    OH217334   5.277   2.016   0.481
  360SOL     H117335   5.276   2.094   0.426
  360SOL     H217336   5.309   1.946   0.424
  361SOL    OH217337   4.690   4.352   1.448
  361SOL     H117338   4.643   4.292   1.506
  361SOL     H217339   4.782   4.336   1.465
  362SOL    OH217340   5.441   5.957   1.048
  362SOL     H117341   5.442   5.874   1.095
  362SOL     H217342   5.384   5.941   0.973
  363SOL    OH217343   4.409   0.746   1.753
  363SOL     H117344   4.369   0.832   1.764
  363SOL     H217345   4.503   0.761   1.762
  364SOL    OH217346   5.769   4.564   1.995
  364SOL     H117347   5.849   4.606   1.963
  364SOL     H217348   5.719   4.635   2.034
  365SOL    OH217349   1.379   1.118   0.654
  365SOL     H117350   1.363   1.201   0.609
  365SOL     H217351   1.383   1.143   0.747
  366SOL    OH217352   1.071   0.772   0.895
  366SOL     H117353   1.038   0.861   0.892
  366SOL     H217354   1.148   0.772   0.838
  367SOL    OH217355   4.076   4.553   1.561
  367SOL     H117356   4.029   4.603   1.628
  367SOL     H217357   4.092   4.617   1.491
  368SOL    OH217358   4.645   1.354   4.458
  368SOL     H117359   4.726   1.377   4.412
  368SOL     H217360   4.590   1.431   4.451
  369SOL    OH217361   3.561   3.667   5.902
  369SOL     H117362   3.617   3.692   5.828
  369SOL     H217363   3.574   3.736   5.967
  370SOL    OH217364   0.858   3.068   5.991
  370SOL     H117365   0.772   3.027   6.001
  370SOL     H217366   0.840   3.162   5.996
  371SOL    OH217367   1.536   1.694   6.426
  371SOL     H117368   1.615   1.704   6.479
  371SOL     H217369   1.539   1.604   6.394
  372SOL    OH217370   0.347   3.715   1.831
  372SOL     H117371   0.366   3.790   1.886
  372SOL     H217372   0.432   3.688   1.796
  373SOL    OH217373   5.401   1.015   1.998
  373SOL     H117374   5.436   1.103   2.009
  373SOL     H217375   5.336   1.024   1.928
  374SOL    OH217376   0.426   1.544   4.981
  374SOL     H117377   0.500   1.506   5.029
  374SOL     H217378   0.436   1.510   4.892
  375SOL    OH217379   0.319   3.826   6.500
  375SOL     H117380   0.316   3.843   6.594
  375SOL     H217381   0.282   3.904   6.460
  376SOL    OH217382   6.094   4.616   6.112
  376SOL     H117383   6.088   4.539   6.055
  376SOL     H217384   6.003   4.637   6.132
  377SOL    OH217385   4.127   0.748   6.290
  377SOL     H117386   4.217   0.761   6.262
  377SOL     H217387   4.081   0.722   6.210
  378SOL    OH217388   3.939   3.413   0.125
  378SOL     H117389   3.885   3.467   0.068
  378SOL     H217390   3.921   3.445   0.213
  379SOL    OH217391   4.762   0.342   6.140
  379SOL     H117392   4.853   0.327   6.163
  379SOL     H217393   4.756   0.435   6.121
  380SOL    OH217394   5.813   2.354   6.343
  380SOL     H117395   5.889   2.368   6.400
  380SOL     H217396   5.840   2.284   6.284
  381SOL    OH217397   0.839   0.771   0.027
  381SOL     H117398   0.922   0.793   0.069
  381SOL     H217399   0.828   0.837   6.640
  382SOL    OH217400   1.312   0.171   5.335
  382SOL     H117401   1.247   0.201   5.272
  382SOL     H217402   1.385   0.140   5.281
  383SOL    OH217403   4.559   6.234   0.364
  383SOL     H117404   4.648   6.241   0.327
  383SOL     H217405   4.505   6.203   0.291
  384SOL    OH217406   5.435   0.724   0.147
  384SOL     H117407   5.472   0.803   0.107
  384SOL     H217408   5.442   0.740   0.241
  385SOL    OH217409   3.887   1.521   0.982
  385SOL     H117410   3.921   1.459   0.917
  385SOL     H217411   3.966   1.555   1.026
  386SOL    OH217412   3.586   3.850   6.109
  386SOL     H117413   3.535   3.832   6.188
  386SOL     H217414   3.531   3.910   6.058
  387SOL    OH217415   3.872   2.171   5.127
  387SOL     H117416   3.949   2.227   5.117
  387SOL     H217417   3.908   2.085   5.150
  388SOL    OH217418   0.733   3.337   6.003
  388SOL     H117419   0.761   3.368   5.917
  388SOL     H217420   0.700   3.416   6.047
  389SOL    OH217421   3.167   1.211   1.057
  389SOL     H117422   3.099   1.147   1.037
  389SOL     H217423   3.131   1.265   1.127
  390SOL    OH217424   3.469   3.437   2.010
  390SOL     H117425   3.404   3.494   1.969
  390SOL     H217426   3.539   3.429   1.945
  391SOL    OH217427   4.539   1.894   6.422
  391SOL     H117428   4.521   1.898   6.516
  391SOL     H217429   4.609   1.830   6.413
  392SOL    OH217430   0.026   3.843   5.808
  392SOL     H117431   0.020   3.929   5.849
  392SOL     H217432   6.240   3.810   5.806
  393SOL    OH217433   1.571   3.047   0.546
  393SOL     H117434   1.558   3.091   0.630
  393SOL     H217435   1.551   3.114   0.481
  394SOL    OH217436   1.374   4.258   0.943
  394SOL     H117437   1.401   4.259   0.852
  394SOL     H217438   1.396   4.345   0.977
  395SOL    OH217439   3.475   5.150   6.458
  395SOL     H117440   3.477   5.130   6.365
  395SOL     H217441   3.477   5.065   6.502
  396SOL    OH217442   3.208   2.088   5.666
  396SOL     H117443   3.201   1.993   5.662
  396SOL     H217444   3.225   2.115   5.575
  397SOL    OH217445   0.550   3.096   6.590
  397SOL     H117446   0.476   3.075   6.647
  397SOL     H217447   0.555   3.022   6.529
  398SOL    OH217448   4.302   6.324   5.680
  398SOL     H117449   4.304   6.278   5.596
  398SOL     H217450   4.352   6.404   5.664
  399SOL    OH217451   2.471   5.212   0.515
  399SOL     H117452   2.486   5.286   0.573
  399SOL     H217453   2.512   5.237   0.432
  400SOL    OH217454   3.305   3.146   1.835
  400SOL     H117455   3.251   3.071   1.810
  400SOL     H217456   3.284   3.161   1.927
  401SOL    OH217457   3.795   3.544   6.615
  401SOL     H117458   3.864   3.525   6.551
  401SOL     H217459   3.714   3.523   6.569
  402SOL    OH217460   4.442   4.764   1.413
  402SOL     H117461   4.487   4.846   1.438
  402SOL     H217462   4.349   4.784   1.423
  403SOL    OH217463   0.882   0.884   1.541
  403SOL     H117464   0.872   0.900   1.635
  403SOL     H217465   0.974   0.861   1.530
  404SOL    OH217466   1.823   4.385   6.545
  404SOL     H117467   1.732   4.403   6.524
  404SOL     H217468   1.856   4.467   6.583
  405SOL    OH217469   5.139   4.072   0.398
  405SOL     H117470   5.077   4.021   0.346
  405SOL     H217471   5.195   4.007   0.439
  406SOL    OH217472   5.496   3.041   5.603
  406SOL     H117473   5.451   3.113   5.559
  406SOL     H217474   5.435   3.014   5.672
  407SOL    OH217475   2.831   2.347   6.067
  407SOL     H117476   2.863   2.395   5.990
  407SOL     H217477   2.909   2.306   6.104
  408SOL    OH217478   2.545   4.370   0.988
  408SOL     H117479   2.492   4.305   0.940
  408SOL     H217480   2.497   4.386   1.068
  409SOL    OH217481   1.845   0.366   0.612
  409SOL     H117482   1.779   0.391   0.547
  409SOL     H217483   1.927   0.359   0.562
  410SOL    OH217484   5.220   5.870   5.930
  410SOL     H117485   5.215   5.799   5.995
  410SOL     H217486   5.313   5.885   5.918
  411SOL    OH217487   3.082   3.877   1.637
  411SOL     H117488   3.083   3.810   1.705
  411SOL     H217489   3.067   3.959   1.684
  412SOL    OH217490   4.596   5.700   0.044
  412SOL     H117491   4.530   5.682   0.111
  412SOL     H217492   4.624   5.790   0.062
  413SOL    OH217493   0.914   2.113   0.047
  413SOL     H117494   0.852   2.177   0.082
  413SOL     H217495   0.880   2.091   6.641
  414SOL    OH217496   2.806   3.567   5.492
  414SOL     H117497   2.775   3.496   5.548
  414SOL     H217498   2.742   3.638   5.505
  415SOL    OH217499   2.032   5.380   0.528
  415SOL     H117500   1.956   5.370   0.585
  415SOL     H217501   1.996   5.406   0.443
  416SOL    OH217502   1.850   1.445   0.503
  416SOL     H117503   1.803   1.480   0.578
  416SOL     H217504   1.919   1.390   0.541
  417SOL    OH217505   0.062   3.663   0.012
  417SOL     H117506   6.301   3.598   0.041
  417SOL     H217507   0.073   3.647   6.599
  418SOL    OH217508   3.444   2.113   6.089
  418SOL     H117509   3.537   2.102   6.072
  418SOL     H217510   3.409   2.151   6.008
  419SOL    OH217511   6.054   2.075   0.130
  419SOL     H117512   6.052   2.166   0.101
  419SOL     H217513   5.966   2.059   0.164
  420SOL    OH217514   5.348   0.021   0.997
  420SOL     H117515   5.355   0.003   0.903
  420SOL     H217516   5.361   6.355   1.039
  421SOL    OH217517   0.217   2.556   6.278
  421SOL     H117518   0.181   2.580   6.193
  421SOL     H217519   0.141   2.541   6.334
  422SOL    OH217520   1.413   1.196   0.917
  422SOL     H117521   1.323   1.185   0.949
  422SOL     H217522   1.464   1.131   0.965
  423SOL    OH217523   6.005   3.845   0.312
  423SOL     H117524   6.079   3.906   0.313
  423SOL     H217525   5.945   3.879   0.379
  424SOL    OH217526   0.486   0.916   1.261
  424SOL     H117527   0.560   0.955   1.307
  424SOL     H217528   0.511   0.915   1.169
  425SOL    OH217529   6.259   6.191   5.413
  425SOL     H117530   6.182   6.246   5.430
  425SOL     H217531   6.233   6.135   5.340
  426SOL    OH217532   6.179   4.263   6.135
  426SOL     H117533   6.210   4.186   6.088
  426SOL     H217534   6.137   4.317   6.067
  427SOL    OH217535   2.818   3.348   1.605
  427SOL     H117536   2.858   3.353   1.519
  427SOL     H217537   2.818   3.438   1.638
  428SOL    OH217538   1.467   4.926   5.866
  428SOL     H117539   1.542   4.937   5.807
  428SOL     H217540   1.402   4.879   5.813
  429SOL    OH217541   3.954   6.010   0.919
  429SOL     H117542   3.900   5.939   0.954
  429SOL     H217543   4.023   6.022   0.984
  430SOL    OH217544   2.573   6.308   5.896
  430SOL     H117545   2.655   6.329   5.851
  430SOL     H217546   2.504   6.331   5.834
  431SOL    OH217547   1.464   4.338   5.625
  431SOL     H117548   1.536   4.370   5.679
  431SOL     H217549   1.405   4.413   5.616
  432SOL    OH217550   3.219   0.692   0.760
  432SOL     H117551   3.142   0.741   0.788
  432SOL     H217552   3.211   0.688   0.664
  433SOL    OH217553   2.447   2.397   1.183
  433SOL     H117554   2.484   2.324   1.133
  433SOL     H217555   2.471   2.475   1.133
  434SOL    OH217556   0.573   3.482   1.331
  434SOL     H117557   0.524   3.549   1.378
  434SOL     H217558   0.662   3.518   1.325
  435SOL    OH217559   0.200   3.841   1.510
  435SOL     H117560   0.284   3.797   1.504
  435SOL     H217561   0.153   3.794   1.578
  436SOL    OH217562   5.016   6.115   6.571
  436SOL     H117563   4.921   6.109   6.559
  436SOL     H217564   5.028   6.167   6.650
  437SOL    OH217565   0.427   0.902   0.270
  437SOL     H117566   0.337   0.936   0.265
  437SOL     H217567   0.481   0.971   0.232
  438SOL    OH217568   4.295   6.202   5.441
  438SOL     H117569   4.209   6.189   5.402
  438SOL     H217570   4.356   6.170   5.375
  439SOL    OH217571   3.764   0.351   5.845
  439SOL     H117572   3.768   0.396   5.929
  439SOL     H217573   3.834   0.391   5.793
  440SOL    OH217574   1.515   2.705   0.798
  440SOL     H117575   1.595   2.719   0.748
  440SOL     H217576   1.445   2.706   0.734
  441SOL    OH217577   1.806   0.305   1.884
  441SOL     H117578   1.897   0.292   1.856
  441SOL     H217579   1.772   0.370   1.822
  442SOL    OH217580   5.730   4.171   6.064
  442SOL     H117581   5.796   4.108   6.092
  442SOL     H217582   5.744   4.179   5.969
  443SOL    OH217583   3.352   1.703   6.036
  443SOL     H117584   3.267   1.724   5.996
  443SOL     H217585   3.413   1.699   5.963
  444SOL    OH217586   1.425   3.864   1.047
  444SOL     H117587   1.357   3.931   1.042
  444SOL     H217588   1.496   3.904   1.098
  445SOL    OH217589   5.537   5.746   5.424
  445SOL     H117590   5.476   5.715   5.357
  445SOL     H217591   5.524   5.686   5.497
  446SOL    OH217592   5.191   5.422   6.214
  446SOL     H117593   5.122   5.381   6.266
  446SOL     H217594   5.270   5.373   6.238
  447SOL    OH217595   2.093   4.216   1.605
  447SOL     H117596   2.105   4.241   1.697
  447SOL     H217597   2.133   4.129   1.599
  448SOL    OH217598   0.199   5.882   1.433
  448SOL     H117599   0.171   5.924   1.514
  448SOL     H217600   0.168   5.941   1.363
  449SOL    OH217601   1.096   1.494   0.768
  449SOL     H117602   1.043   1.568   0.738
  449SOL     H217603   1.050   1.463   0.847
  450SOL    OH217604   1.159   3.543   0.068
  450SOL     H117605   1.174   3.598   6.672
  450SOL     H217606   1.102   3.595   0.125
  451SOL    OH217607   1.961   2.455   6.656
  451SOL     H117608   1.913   2.373   6.663
  451SOL     H217609   1.895   2.520   6.634
  452SOL    OH217610   1.833   5.475   1.028
  452SOL     H117611   1.898   5.405   1.023
  452SOL     H217612   1.828   5.510   0.939
  453SOL    OH217613   1.292   1.042   5.745
  453SOL     H117614   1.228   0.973   5.730
  453SOL     H217615   1.314   1.073   5.657
  454SOL    OH217616   3.435   1.929   6.495
  454SOL     H117617   3.455   2.020   6.516
  454SOL     H217618   3.404   1.932   6.404
  455SOL    OH217619   2.477   2.305   5.782
  455SOL     H117620   2.463   2.212   5.796
  455SOL     H217621   2.414   2.348   5.839
  456SOL    OH217622   1.438   2.637   0.187
  456SOL     H117623   1.492   2.705   0.148
  456SOL     H217624   1.480   2.617   0.271
  457SOL    OH217625   3.082   4.293   6.229
  457SOL     H117626   3.053   4.202   6.220
  457SOL     H217627   3.009   4.337   6.273
  458SOL    OH217628   0.230   2.912   6.392
  458SOL     H117629   0.157   2.869   6.347
  458SOL     H217630   0.237   2.865   6.475
  459SOL    OH217631   5.418   0.707   1.725
  459SOL     H117632   5.415   0.712   1.821
  459SOL     H217633   5.368   0.629   1.704
  460SOL    OH217634   2.087   3.650   6.018
  460SOL     H117635   2.148   3.602   5.961
  460SOL     H217636   2.002   3.610   6.001
  461SOL    OH217637   3.836   4.320   0.436
  461SOL     H117638   3.916   4.278   0.405
  461SOL     H217639   3.801   4.260   0.502
  462SOL    OH217640   6.300   5.526   0.494
  462SOL     H117641   6.267   5.597   0.439
  462SOL     H217642   6.255   5.537   0.578
  463SOL    OH217643   4.168   5.811   0.263
  463SOL     H117644   4.112   5.878   0.224
  463SOL     H217645   4.209   5.855   0.338
  464SOL    OH217646   3.303   4.920   5.753
  464SOL     H117647   3.324   4.951   5.665
  464SOL     H217648   3.313   4.996   5.809
  465SOL    OH217649   4.179   1.892   0.280
  465SOL     H117650   4.208   1.972   0.324
  465SOL     H217651   4.083   1.896   0.283
  466SOL    OH217652   5.988   3.409   6.544
  466SOL     H117653   6.010   3.441   6.456
  466SOL     H217654   5.931   3.477   6.580
  467SOL    OH217655   5.744   0.098   5.718
  467SOL     H117656   5.710   0.172   5.668
  467SOL     H217657   5.777   0.037   5.652
  468SOL    OH217658   4.295   3.874   2.103
  468SOL     H117659   4.381   3.844   2.133
  468SOL     H217660   4.233   3.822   2.154
  469SOL    OH217661   1.994   4.600   6.631
  469SOL     H117662   2.081   4.621   6.664
  469SOL     H217663   1.977   4.666   6.564
  470SOL    OH217664   3.213   2.087   4.762
  470SOL     H117665   3.189   2.174   4.794
  470SOL     H217666   3.134   2.035   4.774
  471SOL    OH217667   5.148   0.857   1.634
  471SOL     H117668   5.181   0.933   1.681
  471SOL     H217669   5.053   0.865   1.638
  472SOL    OH217670   4.267   4.423   1.702
  472SOL     H117671   4.313   4.499   1.736
  472SOL     H217672   4.196   4.459   1.649
  473SOL    OH217673   5.982   2.791   5.786
  473SOL     H117674   5.929   2.767   5.862
  473SOL     H217675   5.969   2.886   5.776
  474SOL    OH217676   5.374   6.056   0.626
  474SOL     H117677   5.319   6.009   0.564
  474SOL     H217678   5.350   6.021   0.712
  475SOL    OH217679   0.316   1.702   5.177
  475SOL     H117680   0.385   1.765   5.194
  475SOL     H217681   0.352   1.646   5.108
  476SOL    OH217682   3.065   6.272   0.391
  476SOL     H117683   3.138   6.302   0.446
  476SOL     H217684   3.009   6.350   0.382
  477SOL    OH217685   3.777   0.302   5.315
  477SOL     H117686   3.711   0.252   5.362
  477SOL     H217687   3.769   0.273   5.224
  478SOL    OH217688   1.572   5.113   6.254
  478SOL     H117689   1.528   5.030   6.236
  478SOL     H217690   1.563   5.163   6.173
  479SOL    OH217691   4.999   3.605   1.656
  479SOL     H117692   4.990   3.510   1.665
  479SOL     H217693   4.965   3.639   1.739
  480SOL    OH217694   5.098   1.850   6.266
  480SOL     H117695   5.159   1.848   6.192
  480SOL     H217696   5.017   1.812   6.231
  481SOL    OH217697   5.861   2.693   4.938
  481SOL     H117698   5.872   2.599   4.928
  481SOL     H217699   5.767   2.705   4.953
  482SOL    OH217700   4.423   2.147   6.411
  482SOL     H117701   4.433   2.052   6.403
  482SOL     H217702   4.499   2.183   6.365
  483SOL    OH217703   5.229   5.526   1.945
  483SOL     H117704   5.263   5.458   1.886
  483SOL     H217705   5.224   5.604   1.890
  484SOL    OH217706   1.613   3.828   0.659
  484SOL     H117707   1.613   3.797   0.569
  484SOL     H217708   1.682   3.894   0.662
  485SOL    OH217709   4.086   3.983   0.685
  485SOL     H117710   4.070   3.928   0.609
  485SOL     H217711   4.000   3.996   0.724
  486SOL    OH217712   0.656   3.267   0.106
  486SOL     H117713   0.635   3.208   0.033
  486SOL     H217714   0.626   3.220   0.184
  487SOL    OH217715   5.411   5.174   0.779
  487SOL     H117716   5.411   5.111   0.851
  487SOL     H217717   5.327   5.220   0.787
  488SOL    OH217718   2.879   1.536   0.459
  488SOL     H117719   2.954   1.495   0.502
  488SOL     H217720   2.913   1.619   0.426
  489SOL    OH217721   3.897   0.490   0.721
  489SOL     H117722   3.954   0.417   0.743
  489SOL     H217723   3.838   0.497   0.796
  490SOL    OH217724   3.735   1.248   5.949
  490SOL     H117725   3.684   1.326   5.972
  490SOL     H217726   3.731   1.192   6.026
  491SOL    OH217727   1.011   0.373   0.094
  491SOL     H117728   1.060   0.322   0.029
  491SOL     H217729   0.950   0.425   0.041
  492SOL    OH217730   5.737   0.185   0.923
  492SOL     H117731   5.661   0.147   0.880
  492SOL     H217732   5.808   0.175   0.859
  493SOL    OH217733   6.267   4.576   1.165
  493SOL     H117734   6.245   4.599   1.255
  493SOL     H217735   6.276   4.660   1.121
  494SOL    OH217736   2.201   1.603   6.466
  494SOL     H117737   2.235   1.560   6.387
  494SOL     H217738   2.231   1.548   6.538
  495SOL    OH217739   3.983   1.310   5.478
  495SOL     H117740   4.057   1.339   5.531
  495SOL     H217741   4.003   1.341   5.389
  496SOL    OH217742   3.766   2.955   5.173
  496SOL     H117743   3.709   2.906   5.114
  496SOL     H217744   3.838   2.985   5.118
  497SOL    OH217745   1.947   1.205   6.034
  497SOL     H117746   1.856   1.232   6.023
  497SOL     H217747   1.970   1.235   6.122
  498SOL    OH217748   1.118   6.371   1.378
  498SOL     H117749   1.107   6.331   1.292
  498SOL     H217750   1.130   0.046   1.360
  499SOL    OH217751   1.972   1.128   0.102
  499SOL     H117752   1.994   1.116   0.194
  499SOL     H217753   1.935   1.216   0.097
  500SOL    OH217754   6.273   0.049   1.548
  500SOL     H117755   6.236   6.380   1.545
  500SOL     H217756   0.059   0.036   1.582
  501SOL    OH217757   5.472   6.152   0.384
  501SOL     H117758   5.566   6.169   0.391
  501SOL     H217759   5.446   6.121   0.471
  502SOL    OH217760   1.791   4.696   4.895
  502SOL     H117761   1.811   4.620   4.951
  502SOL     H217762   1.873   4.714   4.849
  503SOL    OH217763   5.568   2.256   0.352
  503SOL     H117764   5.596   2.165   0.343
  503SOL     H217765   5.473   2.251   0.360
  504SOL    OH217766   5.468   1.926   1.858
  504SOL     H117767   5.388   1.874   1.859
  504SOL     H217768   5.534   1.870   1.898
  505SOL    OH217769   0.617   5.188   5.971
  505SOL     H117770   0.549   5.256   5.971
  505SOL     H217771   0.699   5.236   5.986
  506SOL    OH217772   3.144   4.969   4.903
  506SOL     H117773   3.084   5.021   4.849
  506SOL     H217774   3.231   4.997   4.873
  507SOL    OH217775   5.765   3.103   0.154
  507SOL     H117776   5.776   3.129   0.063
  507SOL     H217777   5.751   3.185   0.201
  508SOL    OH217778   0.600   3.544   6.126
  508SOL     H117779   0.535   3.575   6.063
  508SOL     H217780   0.592   3.606   6.200
  509SOL    OH217781   2.549   2.841   0.298
  509SOL     H117782   2.529   2.749   0.310
  509SOL     H217783   2.636   2.842   0.259
  510SOL    OH217784   1.863   4.953   0.510
  510SOL     H117785   1.851   5.009   0.586
  510SOL     H217786   1.838   5.009   0.436
  511SOL    OH217787   5.104   0.380   0.178
  511SOL     H117788   5.027   0.396   0.232
  511SOL     H217789   5.157   0.319   0.229
  512SOL    OH217790   0.081   6.404   5.550
  512SOL     H117791   0.005   0.037   5.579
  512SOL     H217792   0.043   6.326   5.510
  513SOL    OH217793   0.009   1.679   0.885
  513SOL     H117794   6.263   1.610   0.930
  513SOL     H217795   6.259   1.702   0.809
  514SOL    OH217796   1.969   1.080   1.245
  514SOL     H117797   1.969   1.156   1.304
  514SOL     H217798   2.010   1.010   1.296
  515SOL    OH217799   1.238   4.356   1.258
  515SOL     H117800   1.319   4.305   1.252
  515SOL     H217801   1.170   4.297   1.225
  516SOL    OH217802   5.015   0.088   0.688
  516SOL     H117803   4.993   0.020   0.751
  516SOL     H217804   5.070   0.150   0.738
  517SOL    OH217805   5.081   5.826   0.670
  517SOL     H117806   5.074   5.730   0.669
  517SOL     H217807   5.126   5.847   0.588
  518SOL    OH217808   4.457   3.706   5.946
  518SOL     H117809   4.442   3.708   5.852
  518SOL     H217810   4.483   3.795   5.969
  519SOL    OH217811   6.154   3.473   6.025
  519SOL     H117812   6.180   3.465   5.934
  519SOL     H217813   6.153   3.567   6.042
  520SOL    OH217814   0.847   1.154   0.056
  520SOL     H117815   0.868   1.243   0.029
  520SOL     H217816   0.898   1.141   0.137
  521SOL    OH217817   0.818   6.001   0.360
  521SOL     H117818   0.910   5.975   0.357
  521SOL     H217819   0.819   6.096   0.353
  522SOL    OH217820   1.596   3.518   5.832
  522SOL     H117821   1.552   3.473   5.905
  522SOL     H217822   1.566   3.472   5.754
  523SOL    OH217823   2.023   1.221   6.292
  523SOL     H117824   1.966   1.200   6.365
  523SOL     H217825   2.110   1.194   6.321
  524SOL    OH217826   4.833   2.431   0.251
  524SOL     H117827   4.853   2.478   0.331
  524SOL     H217828   4.889   2.353   0.254
  525SOL    OH217829   0.145   3.834   0.321
  525SOL     H117830   0.119   3.748   0.354
  525SOL     H217831   0.070   3.891   0.342
  526SOL    OH217832   4.867   4.544   6.416
  526SOL     H117833   4.944   4.487   6.408
  526SOL     H217834   4.903   4.630   6.435
  527SOL    OH217835   0.948   3.648   1.034
  527SOL     H117836   0.995   3.701   1.099
  527SOL     H217837   1.015   3.620   0.972
  528SOL    OH217838   2.563   6.156   6.121
  528SOL     H117839   2.657   6.161   6.137
  528SOL     H217840   2.550   6.199   6.037
  529SOL    OH217841   1.213   3.193   6.339
  529SOL     H117842   1.272   3.178   6.265
  529SOL     H217843   1.210   3.109   6.385
  530SOL    OH217844   3.477   5.524   1.320
  530SOL     H117845   3.390   5.557   1.295
  530SOL     H217846   3.503   5.580   1.394
  531SOL    OH217847   3.931   2.290   6.088
  531SOL     H117848   3.859   2.228   6.079
  531SOL     H217849   3.910   2.342   6.165
  532SOL    OH217850   4.356   5.096   1.676
  532SOL     H117851   4.315   5.177   1.708
  532SOL     H217852   4.294   5.027   1.701
  533SOL    OH217853   3.296   4.429   6.341
  533SOL     H117854   3.359   4.357   6.347
  533SOL     H217855   3.218   4.389   6.302
  534SOL    OH217856   2.671   1.738   5.032
  534SOL     H117857   2.750   1.693   5.063
  534SOL     H217858   2.599   1.691   5.073
  535SOL    OH217859   0.192   0.022   6.125
  535SOL     H117860   0.273   0.005   6.077
  535SOL     H217861   0.126   0.032   6.057
  536SOL    OH217862   4.051   5.478   5.007
  536SOL     H117863   4.104   5.411   4.962
  536SOL     H217864   4.090   5.561   4.979
  537SOL    OH217865   0.467   5.470   6.263
  537SOL     H117866   0.478   5.437   6.353
  537SOL     H217867   0.394   5.532   6.270
  538SOL    OH217868   5.626   1.991   0.299
  538SOL     H117869   5.619   1.908   0.346
  538SOL     H217870   5.573   1.978   0.220
  539SOL    OH217871   5.351   1.304   1.661
  539SOL     H117872   5.272   1.347   1.627
  539SOL     H217873   5.420   1.330   1.601
  540SOL    OH217874   1.500   5.190   1.054
  540SOL     H117875   1.521   5.147   1.137
  540SOL     H217876   1.524   5.282   1.069
  541SOL    OH217877   5.559   2.956   6.501
  541SOL     H117878   5.633   2.934   6.444
  541SOL     H217879   5.520   3.033   6.460
  542SOL    OH217880   0.773   5.890   0.112
  542SOL     H117881   0.795   5.954   0.044
  542SOL     H217882   0.781   5.938   0.194
  543SOL    OH217883   0.709   2.193   6.243
  543SOL     H117884   0.705   2.288   6.231
  543SOL     H217885   0.650   2.158   6.176
  544SOL    OH217886   0.346   5.314   5.747
  544SOL     H117887   0.273   5.372   5.727
  544SOL     H217888   0.382   5.348   5.829
  545SOL    OH217889   0.271   0.176   5.609
  545SOL     H117890   0.248   0.217   5.692
  545SOL     H217891   0.204   0.109   5.596
  546SOL    OH217892   3.430   3.263   5.720
  546SOL     H117893   3.428   3.332   5.654
  546SOL     H217894   3.478   3.302   5.794
  547SOL    OH217895   2.500   1.812   0.445
  547SOL     H117896   2.420   1.802   0.497
  547SOL     H217897   2.543   1.726   0.451
  548SOL    OH217898   1.626   4.597   1.174
  548SOL     H117899   1.551   4.593   1.233
  548SOL     H217900   1.673   4.515   1.189
  549SOL    OH217901   2.707   0.224   6.383
  549SOL     H117902   2.645   0.228   6.456
  549SOL     H217903   2.666   0.164   6.320
  550SOL    OH217904   5.279   2.247   0.322
  550SOL     H117905   5.267   2.330   0.369
  550SOL     H217906   5.305   2.274   0.234
  551SOL    OH217907   0.652   5.076   0.516
  551SOL     H117908   0.671   5.041   0.603
  551SOL     H217909   0.590   5.147   0.532
  552SOL    OH217910   4.076   2.088   1.656
  552SOL     H117911   4.161   2.101   1.615
  552SOL     H217912   4.031   2.172   1.646
  553SOL    OH217913   2.240   4.795   5.634
  553SOL     H117914   2.211   4.763   5.548
  553SOL     H217915   2.284   4.720   5.673
  554SOL    OH217916   3.099   6.292   6.426
  554SOL     H117917   3.185   6.335   6.427
  554SOL     H217918   3.036   6.364   6.430
  555SOL    OH217919   2.757   2.182   6.425
  555SOL     H117920   2.806   2.120   6.479
  555SOL     H217921   2.720   2.128   6.355
  556SOL    OH217922   3.856   4.000   6.429
  556SOL     H117923   3.932   3.974   6.482
  556SOL     H217924   3.794   4.036   6.493
  557SOL    OH217925   0.481   5.921   1.161
  557SOL     H117926   0.460   5.850   1.222
  557SOL     H217927   0.575   5.937   1.175
  558SOL    OH217928   3.945   2.333   6.670
  558SOL     H117929   3.872   2.272   6.660
  558SOL     H217930   4.005   2.289   0.049
  559SOL    OH217931   4.354   5.028   5.418
  559SOL     H117932   4.310   4.950   5.384
  559SOL     H217933   4.441   4.998   5.444
  560SOL    OH217934   5.139   1.260   0.138
  560SOL     H117935   5.068   1.196   0.147
  560SOL     H217936   5.178   1.265   0.225
  561SOL    OH217937   1.278   5.839   5.856
  561SOL     H117938   1.239   5.864   5.772
  561SOL     H217939   1.366   5.875   5.853
  562SOL    OH217940   4.022   0.262   0.853
  562SOL     H117941   4.017   0.173   0.819
  562SOL     H217942   3.959   0.264   0.925
  563SOL    OH217943   1.021   2.346   0.631
  563SOL     H117944   1.039   2.263   0.586
  563SOL     H217945   0.990   2.319   0.718
  564SOL    OH217946   1.319   5.455   6.532
  564SOL     H117947   1.398   5.409   6.501
  564SOL     H217948   1.247   5.395   6.513
  565SOL    OH217949   1.545   0.538   6.473
  565SOL     H117950   1.595   0.619   6.467
  565SOL     H217951   1.557   0.509   6.564
  566SOL    OH217952   1.669   4.608   5.576
  566SOL     H117953   1.666   4.547   5.650
  566SOL     H217954   1.760   4.637   5.572
  567SOL    OH217955   4.640   3.865   2.054
  567SOL     H117956   4.591   3.822   2.125
  567SOL     H217957   4.635   3.804   1.981
  568SOL    OH217958   3.041   5.950   5.121
  568SOL     H117959   3.042   5.879   5.057
  568SOL     H217960   3.068   6.028   5.072
  569SOL    OH217961   5.061   3.080   0.355
  569SOL     H117962   5.043   3.043   0.269
  569SOL     H217963   5.006   3.158   0.359
  570SOL    OH217964   4.758   2.605   6.270
  570SOL     H117965   4.689   2.567   6.325
  570SOL     H217966   4.831   2.620   6.330
  571SOL    OH217967   3.496   5.907   6.015
  571SOL     H117968   3.450   5.909   6.099
  571SOL     H217969   3.427   5.889   5.951
  572SOL    OH217970   3.459   5.465   0.509
  572SOL     H117971   3.465   5.382   0.556
  572SOL     H217972   3.371   5.465   0.472
  573SOL    OH217973   5.880   5.184   4.979
  573SOL     H117974   5.802   5.217   4.934
  573SOL     H217975   5.845   5.138   5.055
  574SOL    OH217976   4.220   5.920   6.414
  574SOL     H117977   4.172   5.882   6.487
  574SOL     H217978   4.263   5.846   6.372
  575SOL    OH217979   5.061   2.239   4.904
  575SOL     H117980   5.136   2.246   4.963
  575SOL     H217981   5.049   2.144   4.893
  576SOL    OH217982   5.572   6.302   1.309
  576SOL     H117983   5.636   6.240   1.275
  576SOL     H217984   5.617   6.387   1.305
  577SOL    OH217985   4.521   4.081   0.826
  577SOL     H117986   4.527   4.153   0.763
  577SOL     H217987   4.434   4.092   0.866
  578SOL    OH217988   5.476   2.310   1.904
  578SOL     H117989   5.439   2.298   1.991
  578SOL     H217990   5.571   2.318   1.920
  579SOL    OH217991   3.018   5.737   4.955
  579SOL     H117992   3.015   5.653   5.002
  579SOL     H217993   2.971   5.721   4.873
  580SOL    OH217994   2.563   4.727   1.188
  580SOL     H117995   2.561   4.698   1.097
  580SOL     H217996   2.655   4.717   1.214
  581SOL    OH217997   4.045   0.407   1.202
  581SOL     H117998   3.977   0.360   1.251
  581SOL     H217999   4.072   0.478   1.261
  582SOL    OH218000   3.694   1.905   5.235
  582SOL     H118001   3.706   1.834   5.299
  582SOL     H218002   3.783   1.935   5.216
  583SOL    OH218003   1.314   6.223   4.842
  583SOL     H118004   1.343   6.288   4.906
  583SOL     H218005   1.243   6.176   4.886
  584SOL    OH218006   3.744   0.807   5.144
  584SOL     H118007   3.671   0.850   5.100
  584SOL     H218008   3.749   0.720   5.105
  585SOL    OH218009   4.203   1.831   1.421
  585SOL     H118010   4.269   1.762   1.421
  585SOL     H218011   4.247   1.906   1.381
  586SOL    OH218012   4.435   1.252   0.822
  586SOL     H118013   4.344   1.223   0.826
  586SOL     H218014   4.445   1.288   0.734
  587SOL    OH218015   2.281   2.410   5.937
  587SOL     H118016   2.198   2.364   5.947
  587SOL     H218017   2.313   2.424   6.026
  588SOL    OH218018   5.739   5.355   5.516
  588SOL     H118019   5.647   5.373   5.498
  588SOL     H218020   5.786   5.385   5.438
  589SOL    OH218021   4.549   5.315   0.686
  589SOL     H118022   4.484   5.298   0.754
  589SOL     H218023   4.623   5.259   0.710
  590SOL    OH218024   1.945   4.244   1.082
  590SOL     H118025   1.991   4.179   1.136
  590SOL     H218026   2.007   4.266   1.013
  591SOL    OH218027   4.883   0.195   0.471
  591SOL     H118028   4.938   0.151   0.536
  591SOL     H218029   4.882   0.286   0.499
  592SOL    OH218030   3.188   2.058   0.519
  592SOL     H118031   3.264   2.112   0.496
  592SOL     H218032   3.174   2.002   0.442
  593SOL    OH218033   4.981   2.705   5.196
  593SOL     H118034   4.954   2.756   5.120
  593SOL     H218035   4.984   2.768   5.268
  594SOL    OH218036   0.501   5.447   6.557
  594SOL     H118037   0.421   5.498   6.569
  594SOL     H218038   0.570   5.514   6.547
  595SOL    OH218039   2.077   0.688   0.656
  595SOL     H118040   2.145   0.712   0.719
  595SOL     H218041   1.997   0.683   0.708
  596SOL    OH218042   0.454   1.883   0.885
  596SOL     H118043   0.362   1.874   0.859
  596SOL     H218044   0.470   1.809   0.944
  597SOL    OH218045   0.987   1.136   5.123
  597SOL     H118046   0.942   1.060   5.158
  597SOL     H218047   1.053   1.100   5.064
  598SOL    OH218048   3.400   2.215   0.440
  598SOL     H118049   3.458   2.157   0.391
  598SOL     H218050   3.406   2.299   0.396
  599SOL    OH218051   1.860   1.953   0.042
  599SOL     H118052   1.954   1.946   0.063
  599SOL     H218053   1.849   2.044   0.014
  600SOL    OH218054   2.919   2.476   5.838
  600SOL     H118055   2.986   2.545   5.840
  600SOL     H218056   2.842   2.518   5.801
  601SOL    OH218057   3.732   1.571   6.271
  601SOL     H118058   3.666   1.615   6.324
  601SOL     H218059   3.740   1.484   6.310
  602SOL    OH218060   4.344   5.317   0.872
  602SOL     H118061   4.277   5.275   0.818
  602SOL     H218062   4.332   5.410   0.856
  603SOL    OH218063   2.226   5.526   0.663
  603SOL     H118064   2.163   5.480   0.607
  603SOL     H218065   2.208   5.494   0.751
  604SOL    OH218066   4.572   5.936   1.264
  604SOL     H118067   4.603   5.883   1.190
  604SOL     H218068   4.505   5.881   1.306
  605SOL    OH218069   5.699   3.942   1.110
  605SOL     H118070   5.612   3.938   1.072
  605SOL     H218071   5.703   4.028   1.152
  606SOL    OH218072   1.501   4.054   6.432
  606SOL     H118073   1.420   4.104   6.416
  606SOL     H218074   1.495   3.980   6.371
  607SOL    OH218075   4.598   4.904   6.624
  607SOL     H118076   4.518   4.907   6.676
  607SOL     H218077   4.632   4.816   6.637
  608SOL    OH218078   0.197   0.285   5.856
  608SOL     H118079   0.178   0.378   5.865
  608SOL     H218080   0.283   0.274   5.898
  609SOL    OH218081   3.706   5.422   5.334
  609SOL     H118082   3.779   5.479   5.308
  609SOL     H218083   3.684   5.373   5.255
  610SOL    OH218084   2.215   0.732   0.900
  610SOL     H118085   2.168   0.811   0.926
  610SOL     H218086   2.244   0.692   0.982
  611SOL    OH218087   4.435   0.136   5.620
  611SOL     H118088   4.497   0.152   5.691
  611SOL     H218089   4.399   0.223   5.599
  612SOL    OH218090   6.245   3.188   6.457
  612SOL     H118091   0.016   3.245   6.477
  612SOL     H218092   6.217   3.155   6.543
  613SOL    OH218093   6.212   1.489   1.141
  613SOL     H118094   6.289   1.518   1.189
  613SOL     H218095   6.141   1.492   1.205
  614SOL    OH218096   3.960   2.861   1.016
  614SOL     H118097   4.028   2.795   1.033
  614SOL     H218098   3.994   2.941   1.056
  615SOL    OH218099   1.154   3.119   0.505
  615SOL     H118100   1.204   3.161   0.576
  615SOL     H218101   1.063   3.145   0.521
  616SOL    OH218102   4.961   2.072   6.019
  616SOL     H118103   4.907   2.038   6.090
  616SOL     H218104   4.922   2.035   5.939
  617SOL    OH218105   5.615   5.250   5.865
  617SOL     H118106   5.696   5.280   5.824
  617SOL     H218107   5.599   5.311   5.936
  618SOL    OH218108   2.942   2.218   5.744
  618SOL     H118109   3.025   2.216   5.695
  618SOL     H218110   2.934   2.308   5.774
  619SOL    OH218111   4.293   5.654   6.349
  619SOL     H118112   4.337   5.573   6.324
  619SOL     H218113   4.203   5.643   6.318
  620SOL    OH218114   1.550   4.405   6.485
  620SOL     H118115   1.501   4.486   6.471
  620SOL     H218116   1.491   4.350   6.536
  621SOL    OH218117   2.491   3.586   0.616
  621SOL     H118118   2.403   3.591   0.653
  621SOL     H218119   2.478   3.558   0.525
  622SOL    OH218120   3.786   3.123   6.468
  622SOL     H118121   3.775   3.028   6.468
  622SOL     H218122   3.699   3.157   6.446
  623SOL    OH218123   3.824   1.978   6.297
  623SOL     H118124   3.815   1.977   6.202
  623SOL     H218125   3.772   2.053   6.326
  624SOL    OH218126   4.665   5.965   5.473
  624SOL     H118127   4.632   5.964   5.383
  624SOL     H218128   4.710   5.882   5.483
  625SOL    OH218129   4.155   4.777   5.681
  625SOL     H118130   4.141   4.730   5.763
  625SOL     H218131   4.228   4.731   5.639
  626SOL    OH218132   5.049   2.568   1.332
  626SOL     H118133   5.102   2.648   1.333
  626SOL     H218134   5.055   2.534   1.421
  627SOL    OH218135   0.703   3.380   0.664
  627SOL     H118136   0.648   3.429   0.604
  627SOL     H218137   0.733   3.444   0.728
  628SOL    OH218138   1.600   1.717   0.305
  628SOL     H118139   1.680   1.668   0.287
  628SOL     H218140   1.624   1.778   0.375
  629SOL    OH218141   4.379   5.289   5.487
  629SOL     H118142   4.307   5.315   5.544
  629SOL     H218143   4.362   5.197   5.467
  630SOL    OH218144   0.344   3.684   0.669
  630SOL     H118145   0.308   3.771   0.649
  630SOL     H218146   0.393   3.697   0.750
  631SOL    OH218147   5.105   0.878   1.316
  631SOL     H118148   5.144   0.923   1.242
  631SOL     H218149   5.180   0.840   1.363
  632SOL    OH218150   2.927   0.531   5.945
  632SOL     H118151   2.839   0.538   5.982
  632SOL     H218152   2.984   0.524   6.021
  633SOL    OH218153   1.036   5.180   5.885
  633SOL     H118154   1.067   5.197   5.796
  633SOL     H218155   1.113   5.192   5.940
  634SOL    OH218156   4.178   5.115   5.969
  634SOL     H118157   4.090   5.082   5.985
  634SOL     H218158   4.197   5.093   5.878
  635SOL    OH218159   4.540   5.009   1.493
  635SOL     H118160   4.482   5.043   1.561
  635SOL     H218161   4.628   5.017   1.530
  636SOL    OH218162   4.762   3.949   6.577
  636SOL     H118163   4.837   3.902   6.615
  636SOL     H218164   4.734   3.894   6.504
  637SOL    OH218165   0.248   2.751   0.411
  637SOL     H118166   0.320   2.813   0.400
  637SOL     H218167   0.232   2.716   0.323
  638SOL    OH218168   2.706   2.530   0.689
  638SOL     H118169   2.701   2.437   0.667
  638SOL     H218170   2.727   2.531   0.783
  639SOL    OH218171   3.014   3.581   0.078
  639SOL     H118172   3.105   3.593   0.050
  639SOL     H218173   2.970   3.663   0.054
  640SOL    OH218174   3.918   4.212   6.267
  640SOL     H118175   3.830   4.247   6.259
  640SOL     H218176   3.909   4.134   6.321
  641SOL    OH218177   3.985   3.650   1.961
  641SOL     H118178   3.973   3.556   1.945
  641SOL     H218179   3.936   3.667   2.041
  642SOL    OH218180   4.360   4.654   0.186
  642SOL     H118181   4.292   4.625   0.247
  642SOL     H218182   4.365   4.585   0.120
  643SOL    OH218183   1.851   3.522   5.963
  643SOL     H118184   1.840   3.432   5.994
  643SOL     H218185   1.768   3.543   5.920
  644SOL    OH218186   5.546   1.030   0.369
  644SOL     H118187   5.508   0.943   0.385
  644SOL     H218188   5.591   1.052   0.451
  645SOL    OH218189   1.351   3.321   6.543
  645SOL     H118190   1.308   3.292   6.462
  645SOL     H218191   1.286   3.306   6.611
  646SOL    OH218192   3.358   5.214   0.908
  646SOL     H118193   3.386   5.128   0.939
  646SOL     H218194   3.274   5.197   0.864
  647SOL    OH218195   4.954   4.510   0.364
  647SOL     H118196   4.926   4.418   0.374
  647SOL     H218197   4.937   4.530   0.272
  648SOL    OH218198   2.897   6.368   5.142
  648SOL     H118199   2.990   6.365   5.161
  648SOL     H218200   2.890   6.343   5.050
  649SOL    OH218201   3.680   0.461   1.286
  649SOL     H118202   3.749   0.397   1.301
  649SOL     H218203   3.723   0.546   1.295
  650SOL    OH218204   1.397   4.535   5.279
  650SOL     H118205   1.475   4.529   5.224
  650SOL     H218206   1.418   4.605   5.342
  651SOL    OH218207   6.020   2.558   1.778
  651SOL     H118208   6.113   2.536   1.774
  651SOL     H218209   6.017   2.653   1.783
  652SOL    OH218210   5.248   2.755   0.924
  652SOL     H118211   5.223   2.821   0.988
  652SOL     H218212   5.166   2.730   0.881
  653SOL    OH218213   2.282   2.070   5.456
  653SOL     H118214   2.377   2.071   5.446
  653SOL     H218215   2.267   2.038   5.545
  654SOL    OH218216   2.407   6.175   1.525
  654SOL     H118217   2.465   6.241   1.563
  654SOL     H218218   2.465   6.108   1.491
  655SOL    OH218219   2.062   6.347   0.034
  655SOL     H118220   1.968   6.336   0.018
  655SOL     H218221   2.104   6.312   6.637
  656SOL    OH218222   6.125   3.117   0.798
  656SOL     H118223   6.170   3.180   0.742
  656SOL     H218224   6.189   3.095   0.865
  657SOL    OH218225   0.697   2.417   0.878
  657SOL     H118226   0.683   2.426   0.783
  657SOL     H218227   0.610   2.431   0.916
  658SOL    OH218228   3.900   5.190   0.863
  658SOL     H118229   3.874   5.132   0.792
  658SOL     H218230   3.849   5.161   0.938
  659SOL    OH218231   5.169   3.860   5.786
  659SOL     H118232   5.157   3.954   5.777
  659SOL     H218233   5.140   3.824   5.702
  660SOL    OH218234   0.039   0.540   0.007
  660SOL     H118235   6.283   0.468   0.030
  660SOL     H218236   0.117   0.497   6.655
  661SOL    OH218237   5.625   1.414   0.102
  661SOL     H118238   5.657   1.495   0.141
  661SOL     H218239   5.564   1.380   0.168
  662SOL    OH218240   0.231   0.008   1.601
  662SOL     H118241   0.299   0.054   1.650
  662SOL     H218242   0.273   6.347   1.570
  663SOL    OH218243   1.050   4.427   6.348
  663SOL     H118244   1.088   4.506   6.309
  663SOL     H218245   1.078   4.356   6.290
  664SOL    OH218246   1.393   2.636   1.570
  664SOL     H118247   1.476   2.597   1.542
  664SOL     H218248   1.327   2.570   1.551
  665SOL    OH218249   1.460   5.122   5.198
  665SOL     H118250   1.510   5.138   5.117
  665SOL     H218251   1.391   5.189   5.197
  666SOL    OH218252   1.484   0.793   0.891
  666SOL     H118253   1.550   0.808   0.824
  666SOL     H218254   1.401   0.789   0.843
  667SOL    OH218255   2.109   3.415   1.418
  667SOL     H118256   2.047   3.367   1.364
  667SOL     H218257   2.073   3.409   1.507
  668SOL    OH218258   3.087   0.231   6.230
  668SOL     H118259   3.079   0.324   6.207
  668SOL     H218260   3.182   0.216   6.232
  669SOL    OH218261   1.184   3.962   0.313
  669SOL     H118262   1.206   3.984   0.223
  669SOL     H218263   1.129   4.035   0.342
  670SOL    OH218264   5.502   5.016   0.296
  670SOL     H118265   5.496   5.080   0.367
  670SOL     H218266   5.470   4.934   0.335
  671SOL    OH218267   1.276   0.458   1.022
  671SOL     H118268   1.181   0.464   1.015
  671SOL     H218269   1.299   0.517   1.093
  672SOL    OH218270   5.859   5.344   5.759
  672SOL     H118271   5.929   5.279   5.744
  672SOL     H218272   5.819   5.355   5.673
  673SOL    OH218273   0.027   0.071   5.910
  673SOL     H118274   0.084   0.143   5.882
  673SOL     H218275   6.242   0.106   5.903
  674SOL    OH218276   2.716   2.185   5.241
  674SOL     H118277   2.806   2.172   5.270
  674SOL     H218278   2.692   2.271   5.275
  675SOL    OH218279   3.995   5.624   0.165
  675SOL     H118280   4.039   5.539   0.174
  675SOL     H218281   4.053   5.685   0.211
  676SOL    OH218282   5.165   1.431   5.984
  676SOL     H118283   5.168   1.340   5.956
  676SOL     H218284   5.257   1.456   5.995
  677SOL    OH218285   5.801   4.450   5.677
  677SOL     H118286   5.821   4.524   5.735
  677SOL     H218287   5.797   4.488   5.590
  678SOL    OH218288   3.881   4.566   6.477
  678SOL     H118289   3.958   4.510   6.472
  678SOL     H218290   3.808   4.506   6.491
  679SOL    OH218291   1.975   3.365   6.395
  679SOL     H118292   1.930   3.448   6.408
  679SOL     H218293   2.054   3.388   6.347
  680SOL    OH218294   1.009   3.402   0.405
  680SOL     H118295   0.965   3.327   0.445
  680SOL     H218296   0.943   3.442   0.348
  681SOL    OH218297   4.715   5.329   6.479
  681SOL     H118298   4.624   5.335   6.508
  681SOL     H218299   4.724   5.399   6.414
  682SOL    OH218300   3.401   2.247   1.096
  682SOL     H118301   3.452   2.195   1.033
  682SOL     H218302   3.441   2.226   1.181
  683SOL    OH218303   1.276   2.065   0.342
  683SOL     H118304   1.220   2.128   0.297
  683SOL     H218305   1.295   1.999   0.276
  684SOL    OH218306   5.794   1.266   0.307
  684SOL     H118307   5.744   1.304   0.234
  684SOL     H218308   5.748   1.296   0.386
  685SOL    OH218309   0.881   0.467   0.701
  685SOL     H118310   0.838   0.420   0.630
  685SOL     H218311   0.969   0.428   0.705
  686SOL    OH218312   5.292   0.131   5.561
  686SOL     H118313   5.248   0.215   5.546
  686SOL     H218314   5.221   0.071   5.584
  687SOL    OH218315   1.685   2.813   6.231
  687SOL     H118316   1.756   2.871   6.259
  687SOL     H218317   1.607   2.847   6.275
  688SOL    OH218318   4.889   1.325   6.394
  688SOL     H118319   4.962   1.358   6.342
  688SOL     H218320   4.862   1.399   6.448
  689SOL    OH218321   4.370   0.377   1.434
  689SOL     H118322   4.332   0.445   1.488
  689SOL     H218323   4.358   0.407   1.344
  690SOL    OH218324   4.328   0.387   5.595
  690SOL     H118325   4.329   0.456   5.661
  690SOL     H218326   4.358   0.430   5.515
  691SOL    OH218327   6.168   4.806   0.306
  691SOL     H118328   6.149   4.743   0.376
  691SOL     H218329   6.251   4.846   0.332
  692SOL    OH218330   2.726   1.132   0.172
  692SOL     H118331   2.743   1.174   0.087
  692SOL     H218332   2.812   1.131   0.215
  693SOL    OH218333   3.143   6.302   6.025
  693SOL     H118334   3.071   6.361   6.045
  693SOL     H218335   3.104   6.215   6.025
  694SOL    OH218336   3.492   2.468   6.080
  694SOL     H118337   3.400   2.465   6.053
  694SOL     H218338   3.497   2.410   6.156
  695SOL    OH218339   5.683   2.899   1.019
  695SOL     H118340   5.686   2.964   1.088
  695SOL     H218341   5.771   2.900   0.980
  696SOL    OH218342   1.513   2.329   6.128
  696SOL     H118343   1.534   2.384   6.053
  696SOL     H218344   1.483   2.391   6.195
  697SOL    OH218345   5.031   1.373   5.557
  697SOL     H118346   5.000   1.452   5.512
  697SOL     H218347   4.975   1.303   5.524
  698SOL    OH218348   3.354   4.501   5.649
  698SOL     H118349   3.388   4.575   5.699
  698SOL     H218350   3.356   4.530   5.558
  699SOL    OH218351   5.662   1.756   0.455
  699SOL     H118352   5.608   1.685   0.491
  699SOL     H218353   5.681   1.812   0.531
  700SOL    OH218354   0.530   4.659   5.822
  700SOL     H118355   0.540   4.737   5.767
  700SOL     H218356   0.494   4.692   5.904
  701SOL    OH218357   1.525   3.280   0.399
  701SOL     H118358   1.482   3.362   0.377
  701SOL     H218359   1.618   3.299   0.395
  702SOL    OH218360   1.854   5.482   6.246
  702SOL     H118361   1.856   5.388   6.265
  702SOL     H218362   1.928   5.518   6.295
  703SOL    OH218363   5.106   5.074   1.317
  703SOL     H118364   5.015   5.049   1.331
  703SOL     H218365   5.147   5.064   1.404
  704SOL    OH218366   5.439   1.871   0.968
  704SOL     H118367   5.421   1.912   0.883
  704SOL     H218368   5.359   1.886   1.019
  705SOL    OH218369   1.013   0.111   0.743
  705SOL     H118370   0.918   0.106   0.729
  705SOL     H218371   1.042   0.020   0.744
  706SOL    OH218372   0.801   1.123   1.049
  706SOL     H118373   0.832   1.139   1.139
  706SOL     H218374   0.724   1.179   1.040
  707SOL    OH218375   0.487   0.642   4.703
  707SOL     H118376   0.544   0.575   4.665
  707SOL     H218377   0.541   0.722   4.702
  708SOL    OH218378   3.759   5.933   0.308
  708SOL     H118379   3.690   5.993   0.278
  708SOL     H218380   3.741   5.850   0.264
  709SOL    OH218381   1.081   6.262   0.738
  709SOL     H118382   0.990   6.238   0.719
  709SOL     H218383   1.130   6.181   0.726
  710SOL    OH218384   4.310   5.585   0.838
  710SOL     H118385   4.222   5.625   0.839
  710SOL     H218386   4.352   5.619   0.917
  711SOL    OH218387   5.481   4.134   0.784
  711SOL     H118388   5.415   4.188   0.740
  711SOL     H218389   5.549   4.196   0.809
  712SOL    OH218390   0.228   1.197   5.169
  712SOL     H118391   0.177   1.159   5.241
  712SOL     H218392   0.242   1.124   5.109
  713SOL    OH218393   2.867   1.035   6.499
  713SOL     H118394   2.837   1.113   6.546
  713SOL     H218395   2.879   1.065   6.409
  714SOL    OH218396   3.230   2.072   5.383
  714SOL     H118397   3.305   2.083   5.324
  714SOL     H218398   3.205   1.980   5.374
  715SOL    OH218399   1.325   0.674   5.913
  715SOL     H118400   1.392   0.674   5.981
  715SOL     H218401   1.373   0.693   5.832
  716SOL    OH218402   2.340   5.165   5.481
  716SOL     H118403   2.304   5.185   5.394
  716SOL     H218404   2.391   5.085   5.468
  717SOL    OH218405   0.794   4.975   5.671
  717SOL     H118406   0.704   4.946   5.685
  717SOL     H218407   0.786   5.062   5.633
  718SOL    OH218408   5.469   1.345   6.283
  718SOL     H118409   5.411   1.268   6.283
  718SOL     H218410   5.471   1.373   6.375
  719SOL    OH218411   4.833   1.331   1.766
  719SOL     H118412   4.794   1.369   1.844
  719SOL     H218413   4.766   1.340   1.699
  720SOL    OH218414   4.766   1.172   0.575
  720SOL     H118415   4.838   1.227   0.605
  720SOL     H218416   4.696   1.233   0.553
  721SOL    OH218417   0.105   2.377   1.558
  721SOL     H118418   0.010   2.370   1.550
  721SOL     H218419   0.130   2.305   1.615
  722SOL    OH218420   2.169   0.158   5.344
  722SOL     H118421   2.202   0.242   5.312
  722SOL     H218422   2.215   0.093   5.292
  723SOL    OH218423   0.088   3.693   1.296
  723SOL     H118424   0.021   3.650   1.348
  723SOL     H218425   0.127   3.757   1.356
  724SOL    OH218426   4.791   5.459   0.042
  724SOL     H118427   4.716   5.517   0.056
  724SOL     H218428   4.768   5.409   6.644
  725SOL    OH218429   5.854   0.748   0.534
  725SOL     H118430   5.775   0.729   0.584
  725SOL     H218431   5.895   0.821   0.580
  726SOL    OH218432   2.079   4.474   0.360
  726SOL     H118433   2.021   4.435   0.425
  726SOL     H218434   2.136   4.403   0.332
  727SOL    OH218435   4.956   6.142   6.187
  727SOL     H118436   4.877   6.115   6.140
  727SOL     H218437   5.004   6.060   6.201
  728SOL    OH218438   6.152   1.790   5.395
  728SOL     H118439   6.243   1.787   5.368
  728SOL     H218440   6.154   1.828   5.483
  729SOL    OH218441   0.968   5.542   0.216
  729SOL     H118442   1.008   5.616   0.169
  729SOL     H218443   0.961   5.473   0.150
  730SOL    OH218444   2.242   6.205   5.535
  730SOL     H118445   2.157   6.237   5.565
  730SOL     H218446   2.234   6.201   5.440
  731SOL    OH218447   2.768   4.751   1.719
  731SOL     H118448   2.770   4.687   1.647
  731SOL     H218449   2.702   4.815   1.692
  732SOL    OH218450   3.702   0.449   6.345
  732SOL     H118451   3.720   0.543   6.348
  732SOL     H218452   3.783   0.408   6.374
  733SOL    OH218453   5.807   6.300   5.564
  733SOL     H118454   5.768   6.254   5.639
  733SOL     H218455   5.770   6.257   5.487
  734SOL    OH218456   3.373   0.868   6.129
  734SOL     H118457   3.419   0.787   6.108
  734SOL     H218458   3.321   0.847   6.207
  735SOL    OH218459   6.283   0.146   6.560
  735SOL     H118460   0.013   0.184   6.479
  735SOL     H218461   6.247   0.061   6.534
  736SOL    OH218462   4.869   1.109   5.204
  736SOL     H118463   4.845   1.190   5.248
  736SOL     H218464   4.924   1.062   5.267
  737SOL    OH218465   1.180   5.890   5.599
  737SOL     H118466   1.113   5.957   5.613
  737SOL     H218467   1.191   5.887   5.504
  738SOL    OH218468   5.571   3.660   0.829
  738SOL     H118469   5.656   3.702   0.820
  738SOL     H218470   5.574   3.616   0.914
  739SOL    OH218471   1.232   3.704   6.527
  739SOL     H118472   1.251   3.680   6.436
  739SOL     H218473   1.310   3.752   6.555
  740SOL    OH218474   5.440   5.613   0.480
  740SOL     H118475   5.464   5.520   0.478
  740SOL     H218476   5.496   5.650   0.548
  741SOL    OH218477   0.441   3.355   5.933
  741SOL     H118478   0.410   3.398   5.853
  741SOL     H218479   0.536   3.347   5.920
  742SOL    OH218480   1.487   2.139   0.500
  742SOL     H118481   1.537   2.207   0.455
  742SOL     H218482   1.415   2.119   0.440
  743SOL    OH218483   2.549   4.919   0.165
  743SOL     H118484   2.564   4.878   0.079
  743SOL     H218485   2.617   4.985   0.172
  744SOL    OH218486   1.133   0.515   6.200
  744SOL     H118487   1.162   0.599   6.235
  744SOL     H218488   1.215   0.466   6.185
  745SOL    OH218489   2.051   3.801   0.013
  745SOL     H118490   2.050   3.756   0.098
  745SOL     H218491   2.133   3.851   0.014
  746SOL    OH218492   4.566   3.495   0.535
  746SOL     H118493   4.530   3.582   0.556
  746SOL     H218494   4.624   3.511   0.461
  747SOL    OH218495   6.141   0.407   5.508
  747SOL     H118496   6.114   0.476   5.569
  747SOL     H218497   6.234   0.424   5.491
  748SOL    OH218498   1.584   0.921   0.163
  748SOL     H118499   1.551   1.011   0.169
  748SOL     H218500   1.648   0.923   0.092
  749SOL    OH218501   1.256   6.038   0.713
  749SOL     H118502   1.214   5.974   0.655
  749SOL     H218503   1.304   5.986   0.776
  750SOL    OH218504   5.046   0.852   4.819
  750SOL     H118505   5.122   0.899   4.854
  750SOL     H218506   4.972   0.883   4.872
  751SOL    OH218507   0.516   4.275   5.576
  751SOL     H118508   0.609   4.291   5.595
  751SOL     H218509   0.516   4.200   5.518
  752SOL    OH218510   1.882   5.141   5.642
  752SOL     H118511   1.910   5.166   5.730
  752SOL     H218512   1.959   5.097   5.604
  753SOL    OH218513   4.680   4.031   6.208
  753SOL     H118514   4.752   4.027   6.145
  753SOL     H218515   4.698   3.957   6.268
  754SOL    OH218516   0.245   4.160   6.620
  754SOL     H118517   0.174   4.223   6.631
  754SOL     H218518   0.308   4.183   0.008
  755SOL    OH218519   3.547   3.226   6.372
  755SOL     H118520   3.584   3.258   6.289
  755SOL     H218521   3.471   3.173   6.346
  756SOL    OH218522   2.425   3.092   5.787
  756SOL     H118523   2.337   3.055   5.795
  756SOL     H218524   2.442   3.093   5.693
  757SOL    OH218525   5.998   2.046   5.929
  757SOL     H118526   6.048   2.097   5.865
  757SOL     H218527   5.937   1.995   5.876
  758SOL    OH218528   0.963   5.551   6.170
  758SOL     H118529   0.933   5.482   6.229
  758SOL     H218530   1.056   5.560   6.189
  759SOL    OH218531   5.044   0.612   5.684
  759SOL     H118532   4.977   0.680   5.680
  759SOL     H218533   5.009   0.546   5.744
  760SOL    OH218534   3.493   3.567   1.122
  760SOL     H118535   3.554   3.528   1.185
  760SOL     H218536   3.506   3.516   1.042
  761SOL    OH218537   5.725   6.118   1.183
  761SOL     H118538   5.731   6.139   1.090
  761SOL     H218539   5.799   6.060   1.200
  762SOL    OH218540   2.261   3.970   0.029
  762SOL     H118541   2.233   4.057   6.679
  762SOL     H218542   2.353   3.965   0.002
  763SOL    OH218543   2.573   1.356   0.249
  763SOL     H118544   2.631   1.280   0.242
  763SOL     H218545   2.546   1.373   0.159
  764SOL    OH218546   1.848   1.594   5.480
  764SOL     H118547   1.878   1.533   5.412
  764SOL     H218548   1.759   1.617   5.453
  765SOL    OH218549   1.347   1.306   1.530
  765SOL     H118550   1.307   1.353   1.603
  765SOL     H218551   1.295   1.227   1.521
  766SOL    OH218552   3.562   4.350   5.349
  766SOL     H118553   3.635   4.396   5.390
  766SOL     H218554   3.534   4.408   5.278
  767SOL    OH218555   3.856   2.421   6.315
  767SOL     H118556   3.935   2.444   6.364
  767SOL     H218557   3.800   2.499   6.322
  768SOL    OH218558   2.951   2.393   0.307
  768SOL     H118559   2.973   2.486   0.305
  768SOL     H218560   2.856   2.391   0.319
  769SOL    OH218561   6.111   2.512   0.283
  769SOL     H118562   6.068   2.546   0.361
  769SOL     H218563   6.115   2.586   0.223
  770SOL    OH218564   5.021   6.269   0.123
  770SOL     H118565   5.039   6.215   0.201
  770SOL     H218566   4.960   6.335   0.153
  771SOL    OH218567   0.516   2.554   0.329
  771SOL     H118568   0.574   2.629   0.321
  771SOL     H218569   0.471   2.567   0.412
  772SOL    OH218570   4.157   0.392   6.010
  772SOL     H118571   4.103   0.470   6.022
  772SOL     H218572   4.247   0.424   6.014
  773SOL    OH218573   1.775   0.725   6.112
  773SOL     H118574   1.812   0.813   6.124
  773SOL     H218575   1.822   0.671   6.176
  774SOL    OH218576   3.503   5.071   6.176
  774SOL     H118577   3.505   5.164   6.154
  774SOL     H218578   3.588   5.054   6.216
  775SOL    OH218579   5.828   6.199   0.117
  775SOL     H118580   5.758   6.209   0.052
  775SOL     H218581   5.904   6.241   0.077
  776SOL    OH218582   0.395   6.357   0.979
  776SOL     H118583   0.300   6.368   0.986
  776SOL     H218584   0.418   6.301   1.053
  777SOL    OH218585   0.265   4.345   0.441
  777SOL     H118586   0.302   4.257   0.435
  777SOL     H218587   0.213   4.343   0.522
  778SOL    OH218588   1.856   4.812   5.810
  778SOL     H118589   1.779   4.861   5.780
  778SOL     H218590   1.889   4.768   5.732
  779SOL    OH218591   1.938   1.551   6.533
  779SOL     H118592   1.897   1.543   6.447
  779SOL     H218593   2.028   1.577   6.514
  780SOL    OH218594   3.193   0.271   1.821
  780SOL     H118595   3.245   0.297   1.745
  780SOL     H218596   3.257   0.262   1.892
  781SOL    OH218597   2.446   4.180   0.803
  781SOL     H118598   2.388   4.128   0.747
  781SOL     H218599   2.464   4.259   0.752
  782SOL    OH218600   4.980   6.080   0.684
  782SOL     H118601   5.019   5.993   0.674
  782SOL     H218602   5.048   6.141   0.656
  783SOL    OH218603   3.545   2.176   5.459
  783SOL     H118604   3.507   2.137   5.380
  783SOL     H218605   3.627   2.215   5.429
  784SOL    OH218606   6.295   2.581   0.003
  784SOL     H118607   0.066   2.603   0.060
  784SOL     H218608   6.223   2.635   0.036
  785SOL    OH218609   3.426   0.449   6.298
  785SOL     H118610   3.399   0.360   6.277
  785SOL     H218611   3.521   0.444   6.308
  786SOL    OH218612   0.848   5.322   6.022
  786SOL     H118613   0.911   5.272   5.970
  786SOL     H218614   0.889   5.408   6.032
  787SOL    OH218615   0.204   0.897   5.387
  787SOL     H118616   0.154   0.893   5.306
  787SOL     H218617   0.285   0.941   5.362
  788SOL    OH218618   2.992   3.274   5.754
  788SOL     H118619   2.925   3.216   5.717
  788SOL     H218620   2.947   3.358   5.766
  789SOL    OH218621   0.424   4.283   0.107
  789SOL     H118622   0.410   4.365   0.153
  789SOL     H218623   0.494   4.239   0.156
  790SOL    OH218624   3.991   4.562   5.580
  790SOL     H118625   4.042   4.494   5.624
  790SOL     H218626   4.035   4.644   5.603
  791SOL    OH218627   5.899   1.015   0.241
  791SOL     H118628   5.850   1.095   0.262
  791SOL     H218629   5.983   1.026   0.285
  792SOL    OH218630   5.790   3.974   0.001
  792SOL     H118631   5.758   4.004   6.596
  792SOL     H218632   5.848   4.044   0.030
  793SOL    OH218633   5.723   2.069   1.513
  793SOL     H118634   5.787   2.141   1.515
  793SOL     H218635   5.651   2.099   1.569
  794SOL    OH218636   2.596   5.384   6.210
  794SOL     H118637   2.557   5.433   6.137
  794SOL     H218638   2.666   5.334   6.170
  795SOL    OH218639   4.824   4.060   1.518
  795SOL     H118640   4.873   4.142   1.515
  795SOL     H218641   4.745   4.081   1.567
  796SOL    OH218642   1.094   3.666   5.626
  796SOL     H118643   1.071   3.721   5.700
  796SOL     H218644   1.087   3.576   5.659
  797SOL    OH218645   5.171   5.000   2.162
  797SOL     H118646   5.246   5.043   2.203
  797SOL     H218647   5.152   5.053   2.084
  798SOL    OH218648   5.254   2.512   6.229
  798SOL     H118649   5.319   2.540   6.293
  798SOL     H218650   5.230   2.593   6.182
  799SOL    OH218651   5.900   5.012   1.163
  799SOL     H118652   5.899   4.918   1.185
  799SOL     H218653   5.984   5.043   1.197
  800SOL    OH218654   2.035   0.417   5.454
  800SOL     H118655   2.100   0.430   5.385
  800SOL     H218656   1.991   0.335   5.430
  801SOL    OH218657   2.790   2.075   5.565
  801SOL     H118658   2.827   2.123   5.639
  801SOL     H218659   2.848   2.096   5.491
  802SOL    OH218660   4.235   5.125   0.278
  802SOL     H118661   4.318   5.172   0.268
  802SOL     H218662   4.246   5.046   0.225
  803SOL    OH218663   4.962   5.305   0.210
  803SOL     H118664   4.890   5.334   0.153
  803SOL     H218665   5.016   5.383   0.222
  804SOL    OH218666   2.601   2.070   0.435
  804SOL     H118667   2.571   1.981   0.452
  804SOL     H218668   2.677   2.060   0.378
  805SOL    OH218669   0.662   5.085   5.295
  805SOL     H118670   0.637   5.103   5.386
  805SOL     H218671   0.582   5.051   5.254
  806SOL    OH218672   3.148   3.020   5.653
  806SOL     H118673   3.086   2.980   5.592
  806SOL     H218674   3.110   3.105   5.673
  807SOL    OH218675   4.658   5.199   5.429
  807SOL     H118676   4.581   5.248   5.458
  807SOL     H218677   4.642   5.109   5.457
  808SOL    OH218678   5.689   6.258   5.824
  808SOL     H118679   5.610   6.247   5.877
  808SOL     H218680   5.694   6.352   5.807
  809SOL    OH218681   4.888   4.580   0.105
  809SOL     H118682   4.796   4.592   0.082
  809SOL     H218683   4.930   4.662   0.078
  810SOL    OH218684   4.487   4.605   1.191
  810SOL     H118685   4.469   4.659   1.269
  810SOL     H218686   4.581   4.618   1.175
  811SOL    OH218687   3.585   3.946   0.137
  811SOL     H118688   3.557   3.977   0.224
  811SOL     H218689   3.637   3.867   0.156
  812SOL    OH218690   2.684   2.394   0.361
  812SOL     H118691   2.613   2.458   0.362
  812SOL     H218692   2.682   2.353   0.447
  813SOL    OH218693   3.197   2.643   0.167
  813SOL     H118694   3.271   2.684   0.211
  813SOL     H218695   3.123   2.656   0.226
  814SOL    OH218696   3.103   2.643   6.217
  814SOL     H118697   3.032   2.679   6.163
  814SOL     H218698   3.073   2.657   6.307
  815SOL    OH218699   6.183   4.350   0.549
  815SOL     H118700   6.193   4.325   0.457
  815SOL     H218701   6.271   4.344   0.585
  816SOL    OH218702   1.156   2.591   1.272
  816SOL     H118703   1.108   2.527   1.220
  816SOL     H218704   1.124   2.580   1.361
  817SOL    OH218705   0.202   0.377   0.581
  817SOL     H118706   0.189   0.319   0.506
  817SOL     H218707   0.250   0.452   0.544
  818SOL    OH218708   0.573   3.916   0.140
  818SOL     H118709   0.607   4.004   0.157
  818SOL     H218710   0.633   3.880   0.075
  819SOL    OH218711   2.438   0.954   0.739
  819SOL     H118712   2.429   0.870   0.695
  819SOL     H218713   2.434   1.018   0.669
  820SOL    OH218714   4.942   5.679   1.068
  820SOL     H118715   4.930   5.752   1.008
  820SOL     H218716   5.014   5.629   1.030
  821SOL    OH218717   0.117   4.934   0.343
  821SOL     H118718   0.124   4.979   0.259
  821SOL     H218719   0.137   5.001   0.408
  822SOL    OH218720   3.230   4.197   1.132
  822SOL     H118721   3.274   4.259   1.191
  822SOL     H218722   3.157   4.164   1.183
  823SOL    OH218723   0.969   4.994   0.626
  823SOL     H118724   0.993   5.085   0.646
  823SOL     H218725   0.888   4.980   0.675
  824SOL    OH218726   4.679   5.055   6.404
  824SOL     H118727   4.700   5.142   6.438
  824SOL     H218728   4.650   5.005   6.480
  825SOL    OH218729   4.593   2.081   1.533
  825SOL     H118730   4.675   2.050   1.570
  825SOL     H218731   4.611   2.172   1.508
  826SOL    OH218732   2.977   4.680   6.601
  826SOL     H118733   2.933   4.639   6.675
  826SOL     H218734   3.060   4.633   6.593
  827SOL    OH218735   5.484   4.138   6.177
  827SOL     H118736   5.498   4.183   6.261
  827SOL     H218737   5.570   4.139   6.135
  828SOL    OH218738   0.958   4.463   0.349
  828SOL     H118739   0.962   4.495   0.439
  828SOL     H218740   0.888   4.513   0.308
  829SOL    OH218741   5.297   0.506   1.006
  829SOL     H118742   5.310   0.601   1.013
  829SOL     H218743   5.306   0.475   1.096
  830SOL    OH218744   0.586   3.946   5.684
  830SOL     H118745   0.599   3.983   5.597
  830SOL     H218746   0.492   3.952   5.699
  831SOL    OH218747   1.843   4.158   6.369
  831SOL     H118748   1.838   4.234   6.427
  831SOL     H218749   1.905   4.099   6.411
  832SOL    OH218750   1.561   2.519   1.862
  832SOL     H118751   1.648   2.556   1.851
  832SOL     H218752   1.556   2.449   1.796
  833SOL    OH218753   4.716   5.433   2.146
  833SOL     H118754   4.716   5.528   2.147
  833SOL     H218755   4.776   5.408   2.216
  834SOL    OH218756   4.499   0.293   6.081
  834SOL     H118757   4.472   0.246   6.161
  834SOL     H218758   4.589   0.319   6.099
  835SOL    OH218759   2.881   0.444   6.375
  835SOL     H118760   2.839   0.512   6.428
  835SOL     H218761   2.815   0.375   6.369
  836SOL    OH218762   3.206   5.558   0.911
  836SOL     H118763   3.300   5.540   0.904
  836SOL     H218764   3.176   5.497   0.979
  837SOL    OH218765   1.654   0.816   0.684
  837SOL     H118766   1.614   0.765   0.614
  837SOL     H218767   1.670   0.902   0.646
  838SOL    OH218768   4.312   0.801   1.013
  838SOL     H118769   4.251   0.727   1.019
  838SOL     H218770   4.264   0.875   1.049
  839SOL    OH218771   0.512   4.440   0.546
  839SOL     H118772   0.566   4.362   0.534
  839SOL     H218773   0.427   4.416   0.508
  840SOL    OH218774   4.973   5.457   1.448
  840SOL     H118775   4.970   5.549   1.475
  840SOL     H218776   5.005   5.410   1.525
  841SOL    OH218777   0.779   4.258   6.673
  841SOL     H118778   0.708   4.278   6.612
  841SOL     H218779   0.837   4.200   6.623
  842SOL    OH218780   1.093   1.990   6.401
  842SOL     H118781   1.127   2.055   6.340
  842SOL     H218782   0.999   2.006   6.404
  843SOL    OH218783   4.080   3.718   0.012
  843SOL     H118784   4.087   3.779   6.619
  843SOL     H218785   4.124   3.639   6.662
  844SOL    OH218786   1.303   5.484   0.170
  844SOL     H118787   1.261   5.414   0.120
  844SOL     H218788   1.316   5.554   0.106
  845SOL    OH218789   4.393   3.753   6.560
  845SOL     H118790   4.365   3.817   6.626
  845SOL     H218791   4.408   3.805   6.481
  846SOL    OH218792   4.433   4.341   1.125
  846SOL     H118793   4.434   4.433   1.148
  846SOL     H218794   4.524   4.312   1.135
  847SOL    OH218795   6.070   3.768   5.794
  847SOL     H118796   6.054   3.719   5.713
  847SOL     H218797   5.986   3.766   5.840
  848SOL    OH218798   4.396   0.374   0.213
  848SOL     H118799   4.386   0.388   0.307
  848SOL     H218800   4.359   0.287   0.197
  849SOL    OH218801   5.670   0.901   6.379
  849SOL     H118802   5.581   0.883   6.349
  849SOL     H218803   5.726   0.865   6.311
  850SOL    OH218804   1.504   6.417   0.240
  850SOL     H118805   1.531   6.352   0.175
  850SOL     H218806   1.495   0.080   0.189
  851SOL    OH218807   2.329   6.003   5.707
  851SOL     H118808   2.305   6.073   5.646
  851SOL     H218809   2.309   5.923   5.660
  852SOL    OH218810   2.545   5.993   0.857
  852SOL     H118811   2.560   6.000   0.951
  852SOL     H218812   2.600   5.920   0.829
  853SOL    OH218813   1.396   5.710   0.473
  853SOL     H118814   1.466   5.770   0.499
  853SOL     H218815   1.317   5.747   0.512
  854SOL    OH218816   2.255   5.489   0.232
  854SOL     H118817   2.334   5.518   0.278
  854SOL     H218818   2.287   5.453   0.149
  855SOL    OH218819   4.666   0.559   0.755
  855SOL     H118820   4.589   0.615   0.763
  855SOL     H218821   4.711   0.567   0.839
  856SOL    OH218822   3.729   2.274   0.246
  856SOL     H118823   3.696   2.336   0.180
  856SOL     H218824   3.824   2.286   0.244
  857SOL    OH218825   5.221   2.763   0.112
  857SOL     H118826   5.165   2.686   0.121
  857SOL     H218827   5.301   2.741   0.160
  858SOL    OH218828   2.948   5.954   0.838
  858SOL     H118829   2.903   6.018   0.893
  858SOL     H218830   3.004   6.007   0.781
  859SOL    OH218831   6.067   0.773   0.861
  859SOL     H118832   6.043   0.777   0.954
  859SOL     H218833   6.047   0.683   0.835
  860SOL    OH218834   5.788   1.513   1.157
  860SOL     H118835   5.705   1.477   1.127
  860SOL     H218836   5.793   1.487   1.249
  861SOL    OH218837   3.656   1.021   0.170
  861SOL     H118838   3.575   0.973   0.153
  861SOL     H218839   3.725   0.964   0.135
  862SOL    OH218840   2.482   1.154   1.575
  862SOL     H118841   2.398   1.156   1.529
  862SOL     H218842   2.499   1.246   1.599
  863SOL    OH218843   5.466   4.354   5.989
  863SOL     H118844   5.459   4.295   6.065
  863SOL     H218845   5.469   4.295   5.914
  864SOL    OH218846   5.453   3.939   5.506
  864SOL     H118847   5.414   3.859   5.472
  864SOL     H218848   5.415   4.009   5.453
  865SOL    OH218849   2.674   1.345   1.165
  865SOL     H118850   2.682   1.427   1.214
  865SOL     H218851   2.746   1.290   1.197
  866SOL    OH218852   1.226   5.418   1.113
  866SOL     H118853   1.261   5.332   1.088
  866SOL     H218854   1.238   5.422   1.208
  867SOL    OH218855   0.878   0.613   5.476
  867SOL     H118856   0.930   0.607   5.556
  867SOL     H218857   0.894   0.702   5.444
  868SOL    OH218858   3.741   1.768   5.645
  868SOL     H118859   3.822   1.740   5.689
  868SOL     H218860   3.754   1.742   5.554
  869SOL    OH218861   6.021   5.461   1.302
  869SOL     H118862   6.093   5.403   1.276
  869SOL     H218863   6.007   5.441   1.395
  870SOL    OH218864   3.260   4.657   0.343
  870SOL     H118865   3.295   4.695   0.424
  870SOL     H218866   3.337   4.642   0.288
  871SOL    OH218867   2.102   2.004   6.306
  871SOL     H118868   2.135   1.943   6.372
  871SOL     H218869   2.120   2.090   6.342
  872SOL    OH218870   3.310   1.574   6.542
  872SOL     H118871   3.264   1.641   6.491
  872SOL     H218872   3.247   1.548   6.609
  873SOL    OH218873   1.554   3.325   5.347
  873SOL     H118874   1.642   3.290   5.359
  873SOL     H218875   1.562   3.389   5.276
  874SOL    OH218876   1.871   0.122   5.643
  874SOL     H118877   1.890   0.140   5.551
  874SOL     H218878   1.781   0.152   5.656
  875SOL    OH218879   5.441   1.711   5.898
  875SOL     H118880   5.458   1.687   5.807
  875SOL     H218881   5.441   1.627   5.945
  876SOL    OH218882   5.974   5.136   0.487
  876SOL     H118883   6.060   5.178   0.488
  876SOL     H218884   5.980   5.066   0.552
  877SOL    OH218885   4.041   5.191   6.625
  877SOL     H118886   4.135   5.178   6.643
  877SOL     H218887   4.037   5.279   6.586
  878SOL    OH218888   1.507   4.251   0.166
  878SOL     H118889   1.475   4.261   0.076
  878SOL     H218890   1.429   4.263   0.220
  879SOL    OH218891   3.740   1.431   5.430
  879SOL     H118892   3.688   1.361   5.392
  879SOL     H218893   3.820   1.388   5.460
  880SOL    OH218894   4.247   1.204   0.357
  880SOL     H118895   4.299   1.206   0.277
  880SOL     H218896   4.237   1.296   0.382
  881SOL    OH218897   3.337   5.828   5.799
  881SOL     H118898   3.381   5.880   5.732
  881SOL     H218899   3.320   5.744   5.756
  882SOL    OH218900   1.078   0.010   0.315
  882SOL     H118901   1.124   0.088   0.345
  882SOL     H218902   1.144   6.360   0.317
  883SOL    OH218903   1.381   3.760   0.267
  883SOL     H118904   1.455   3.773   0.326
  883SOL     H218905   1.315   3.821   0.297
  884SOL    OH218906   4.735   5.881   6.362
  884SOL     H118907   4.668   5.821   6.392
  884SOL     H218908   4.771   5.840   6.283
  885SOL    OH218909   2.781   0.079   0.911
  885SOL     H118910   2.748   0.167   0.930
  885SOL     H218911   2.708   0.034   0.869
  886SOL    OH218912   2.573   0.034   6.227
  886SOL     H118913   2.531   0.098   6.169
  886SOL     H218914   2.579   6.373   6.173
  887SOL    OH218915   4.703   5.395   5.980
  887SOL     H118916   4.641   5.449   6.029
  887SOL     H218917   4.656   5.371   5.901
  888SOL    OH218918   4.599   6.269   6.401
  888SOL     H118919   4.600   6.256   6.306
  888SOL     H218920   4.662   6.339   6.416
  889SOL    OH218921   4.388   4.659   1.766
  889SOL     H118922   4.340   4.737   1.737
  889SOL     H218923   4.458   4.648   1.701
  890SOL    OH218924   1.336   2.720   0.585
  890SOL     H118925   1.248   2.682   0.594
  890SOL     H218926   1.321   2.811   0.560
  891SOL    OH218927   5.113   4.417   6.385
  891SOL     H118928   5.198   4.445   6.421
  891SOL     H218929   5.114   4.322   6.394
  892SOL    OH218930   2.208   1.114   5.998
  892SOL     H118931   2.122   1.153   6.013
  892SOL     H218932   2.245   1.165   5.926
  893SOL    OH218933   5.472   3.458   0.669
  893SOL     H118934   5.520   3.524   0.719
  893SOL     H218935   5.406   3.425   0.730
  894SOL    OH218936   3.748   0.071   0.350
  894SOL     H118937   3.659   0.066   0.314
  894SOL     H218938   3.804   0.082   0.274
  895SOL    OH218939   4.123   2.943   6.048
  895SOL     H118940   4.070   2.958   5.970
  895SOL     H218941   4.162   2.857   6.034
  896SOL    OH218942   2.075   5.146   6.171
  896SOL     H118943   1.995   5.172   6.215
  896SOL     H218944   2.049   5.075   6.113
  897SOL    OH218945   3.737   2.952   0.601
  897SOL     H118946   3.662   2.966   0.659
  897SOL     H218947   3.803   2.911   0.658
  898SOL    OH218948   1.253   3.293   0.708
  898SOL     H118949   1.217   3.372   0.667
  898SOL     H218950   1.329   3.324   0.757
  899SOL    OH218951   0.905   2.804   0.472
  899SOL     H118952   0.958   2.733   0.509
  899SOL     H218953   0.889   2.863   0.546
  900SOL    OH218954   1.836   6.134   6.324
  900SOL     H118955   1.865   6.114   6.235
  900SOL     H218956   1.866   6.060   6.377
  901SOL    OH218957   5.016   2.835   5.983
  901SOL     H118958   4.996   2.788   5.901
  901SOL     H218959   4.934   2.832   6.032
  902SOL    OH218960   2.170   2.952   0.524
  902SOL     H118961   2.265   2.960   0.522
  902SOL     H218962   2.150   2.925   0.614
  903SOL    OH218963   0.579   5.732   0.747
  903SOL     H118964   0.618   5.738   0.660
  903SOL     H218965   0.573   5.638   0.765
  904SOL    OH218966   3.967   0.459   5.699
  904SOL     H118967   3.954   0.465   5.604
  904SOL     H218968   4.026   0.384   5.710
  905SOL    OH218969   5.943   3.834   1.148
  905SOL     H118970   5.856   3.871   1.131
  905SOL     H218971   5.991   3.904   1.194
  906SOL    OH218972   5.268   0.997   1.127
  906SOL     H118973   5.305   0.918   1.086
  906SOL     H218974   5.327   1.015   1.200
  907SOL    OH218975   4.146   0.260   5.766
  907SOL     H118976   4.217   0.293   5.711
  907SOL     H218977   4.157   0.306   5.849
  908SOL    OH218978   6.108   2.529   1.354
  908SOL     H118979   6.127   2.466   1.423
  908SOL     H218980   6.018   2.559   1.372
  909SOL    OH218981   1.560   2.481   5.905
  909SOL     H118982   1.645   2.521   5.889
  909SOL     H218983   1.536   2.442   5.822
  910SOL    OH218984   4.118   2.215   0.171
  910SOL     H118985   4.155   2.179   0.251
  910SOL     H218986   4.175   2.181   0.101
  911SOL    OH218987   4.908   4.184   0.508
  911SOL     H118988   4.913   4.170   0.603
  911SOL     H218989   4.994   4.158   0.475
  912SOL    OH218990   1.003   2.303   6.451
  912SOL     H118991   0.935   2.236   6.454
  912SOL     H218992   1.063   2.274   6.383
  913SOL    OH218993   6.162   5.969   6.549
  913SOL     H118994   6.242   6.019   6.537
  913SOL     H218995   6.175   5.890   6.495
  914SOL    OH218996   4.320   1.521   6.048
  914SOL     H118997   4.280   1.600   6.086
  914SOL     H218998   4.266   1.449   6.080
  915SOL    OH218999   3.056   0.807   5.947
  915SOL     H119000   2.977   0.795   5.896
  915SOL     H219001   3.025   0.822   6.037
  916SOL    OH219002   0.819   4.381   0.671
  916SOL     H119003   0.757   4.428   0.726
  916SOL     H219004   0.889   4.444   0.653
  917SOL    OH219005   0.847   5.492   4.738
  917SOL     H119006   0.804   5.425   4.684
  917SOL     H219007   0.836   5.573   4.689
  918SOL    OH219008   4.322   4.250   6.542
  918SOL     H119009   4.374   4.235   6.463
  918SOL     H219010   4.326   4.167   6.589
  919SOL    OH219011   0.403   4.530   5.608
  919SOL     H119012   0.445   4.445   5.592
  919SOL     H219013   0.449   4.564   5.685
  920SOL    OH219014   2.838   5.330   0.409
  920SOL     H119015   2.758   5.303   0.364
  920SOL     H219016   2.839   5.425   0.399
  921SOL    OH219017   6.264   4.813   6.494
  921SOL     H119018   6.283   4.746   6.428
  921SOL     H219019   6.223   4.884   6.444
  922SOL    OH219020   3.937   1.628   6.057
  922SOL     H119021   3.944   1.541   6.017
  922SOL     H219022   3.871   1.618   6.126
  923SOL    OH219023   4.268   5.980   4.969
  923SOL     H119024   4.318   6.062   4.965
  923SOL     H219025   4.250   5.959   4.878
  924SOL    OH219026   1.213   4.519   5.643
  924SOL     H119027   1.132   4.521   5.692
  924SOL     H219028   1.193   4.467   5.565
  925SOL    OH219029   5.703   3.471   1.304
  925SOL     H119030   5.765   3.533   1.341
  925SOL     H219031   5.726   3.387   1.343
  926SOL    OH219032   1.016   0.004   6.151
  926SOL     H119033   1.000   6.370   6.073
  926SOL     H219034   0.982   0.091   6.129
  927SOL    OH219035   4.051   1.995   6.508
  927SOL     H119036   3.963   2.008   6.473
  927SOL     H219037   4.105   1.975   6.431
  928SOL    OH219038   5.878   3.548   0.648
  928SOL     H119039   5.846   3.624   0.695
  928SOL     H219040   5.967   3.571   0.622
  929SOL    OH219041   4.733   1.166   1.048
  929SOL     H119042   4.769   1.108   0.981
  929SOL     H219043   4.724   1.251   1.004
  930SOL    OH219044   6.098   2.557   5.732
  930SOL     H119045   6.071   2.496   5.801
  930SOL     H219046   6.057   2.640   5.755
  931SOL    OH219047   5.760   1.471   5.249
  931SOL     H119048   5.702   1.404   5.213
  931SOL     H219049   5.775   1.531   5.176
  932SOL    OH219050   3.723   4.153   0.619
  932SOL     H119051   3.764   4.091   0.680
  932SOL     H219052   3.629   4.134   0.627
  933SOL    OH219053   0.318   1.087   0.883
  933SOL     H119054   0.373   1.016   0.917
  933SOL     H219055   0.344   1.096   0.791
  934SOL    OH219056   2.245   5.437   5.149
  934SOL     H119057   2.248   5.349   5.187
  934SOL     H219058   2.328   5.477   5.176
  935SOL    OH219059   4.142   5.402   5.623
  935SOL     H119060   4.060   5.398   5.673
  935SOL     H219061   4.119   5.449   5.543
  936SOL    OH219062   1.177   3.273   0.064
  936SOL     H119063   1.213   3.248   0.149
  936SOL     H219064   1.156   3.366   0.072
  937SOL    OH219065   1.782   4.620   6.301
  937SOL     H119066   1.840   4.551   6.269
  937SOL     H219067   1.839   4.681   6.347
  938SOL    OH219068   4.057   1.868   0.781
  938SOL     H119069   4.119   1.826   0.841
  938SOL     H219070   4.104   1.944   0.748
  939SOL    OH219071   6.174   4.843   1.110
  939SOL     H119072   6.095   4.799   1.141
  939SOL     H219073   6.174   4.928   1.154
  940SOL    OH219074   2.591   5.303   0.285
  940SOL     H119075   2.586   5.281   0.192
  940SOL     H219076   2.559   5.394   0.290
  941SOL    OH219077   2.696   6.333   1.289
  941SOL     H119078   2.775   6.352   1.238
  941SOL     H219079   2.728   6.286   1.366
  942SOL    OH219080   1.666   0.423   0.413
  942SOL     H119081   1.605   0.350   0.422
  942SOL     H219082   1.728   0.395   0.345
  943SOL    OH219083   1.481   0.865   6.342
  943SOL     H119084   1.549   0.824   6.396
  943SOL     H219085   1.525   0.939   6.300
  944SOL    OH219086   4.680   3.797   6.361
  944SOL     H119087   4.695   3.703   6.350
  944SOL     H219088   4.586   3.808   6.350
  945SOL    OH219089   2.003   2.542   0.526
  945SOL     H119090   1.989   2.629   0.489
  945SOL     H219091   2.097   2.539   0.544
  946SOL    OH219092   1.538   1.003   1.063
  946SOL     H119093   1.519   0.925   1.011
  946SOL     H219094   1.476   0.999   1.136
  947SOL    OH219095   3.445   3.829   6.610
  947SOL     H119096   3.501   3.859   6.681
  947SOL     H219097   3.389   3.905   6.590
  948SOL    OH219098   0.485   6.360   0.261
  948SOL     H119099   0.530   0.012   0.214
  948SOL     H219100   0.490   6.285   0.202
  949SOL    OH219101   5.934   4.955   0.277
  949SOL     H119102   6.017   4.908   0.279
  949SOL     H219103   5.939   5.017   0.349
  950SOL    OH219104   1.088   3.325   5.979
  950SOL     H119105   1.117   3.234   5.978
  950SOL     H219106   1.059   3.340   6.069
  951SOL    OH219107   5.165   4.135   5.841
  951SOL     H119108   5.175   4.141   5.936
  951SOL     H219109   5.098   4.199   5.820
  952SOL    OH219110   3.213   5.683   0.258
  952SOL     H119111   3.303   5.709   0.278
  952SOL     H219112   3.161   5.719   0.329
  953SOL    OH219113   2.939   5.455   6.203
  953SOL     H119114   2.885   5.534   6.198
  953SOL     H219115   3.024   5.483   6.168
  954SOL    OH219116   4.956   2.658   6.443
  954SOL     H119117   4.943   2.653   6.538
  954SOL     H219118   5.011   2.736   6.431
  955SOL    OH219119   5.200   1.166   6.313
  955SOL     H119120   5.226   1.171   6.405
  955SOL     H219121   5.163   1.251   6.293
  956SOL    OH219122   2.449   4.331   5.838
  956SOL     H119123   2.487   4.247   5.812
  956SOL     H219124   2.455   4.331   5.934
  957SOL    OH219125   3.565   5.588   2.010
  957SOL     H119126   3.614   5.507   2.022
  957SOL     H219127   3.607   5.632   1.936
  958SOL    OH219128   5.703   4.019   5.592
  958SOL     H119129   5.615   3.989   5.571
  958SOL     H219130   5.761   3.956   5.549
  959SOL    OH219131   4.991   2.202   0.270
  959SOL     H119132   5.086   2.204   0.278
  959SOL     H219133   4.974   2.133   0.205
  960SOL    OH219134   2.103   0.716   5.128
  960SOL     H119135   2.076   0.628   5.101
  960SOL     H219136   2.022   0.767   5.126
  961SOL    OH219137   4.367   0.156   0.706
  961SOL     H119138   4.342   0.220   0.639
  961SOL     H219139   4.397   0.080   0.657
  962SOL    OH219140   4.453   3.761   0.556
  962SOL     H119141   4.398   3.711   0.496
  962SOL     H219142   4.493   3.829   0.500
  963SOL    OH219143   2.852   0.850   5.749
  963SOL     H119144   2.765   0.890   5.751
  963SOL     H219145   2.854   0.800   5.667
  964SOL    OH219146   0.162   1.581   4.886
  964SOL     H119147   0.152   1.501   4.834
  964SOL     H219148   0.252   1.578   4.917
  965SOL    OH219149   1.466   4.106   6.097
  965SOL     H119150   1.517   4.167   6.150
  965SOL     H219151   1.407   4.162   6.046
  966SOL    OH219152   4.706   1.928   4.677
  966SOL     H119153   4.667   1.957   4.760
  966SOL     H219154   4.692   2.001   4.617
  967SOL    OH219155   2.247   3.991   6.302
  967SOL     H119156   2.287   4.071   6.267
  967SOL     H219157   2.189   3.961   6.232
  968SOL    OH219158   1.613   0.414   5.943
  968SOL     H119159   1.541   0.421   6.005
  968SOL     H219160   1.639   0.322   5.946
  969SOL    OH219161   3.836   4.794   6.153
  969SOL     H119162   3.878   4.723   6.105
  969SOL     H219163   3.742   4.778   6.142
  970SOL    OH219164   6.177   0.325   0.067
  970SOL     H119165   6.095   0.278   0.086
  970SOL     H219166   6.220   0.271   0.000
  971SOL    OH219167   5.832   0.813   6.174
  971SOL     H119168   5.776   0.753   6.125
  971SOL     H219169   5.880   0.757   6.234
  972SOL    OH219170   2.108   3.432   5.234
  972SOL     H119171   2.138   3.347   5.205
  972SOL     H219172   2.016   3.435   5.208
  973SOL    OH219173   4.204   3.203   6.010
  973SOL     H119174   4.166   3.120   6.041
  973SOL     H219175   4.240   3.243   6.089
  974SOL    OH219176   4.254   1.267   5.044
  974SOL     H119177   4.341   1.292   5.076
  974SOL     H219178   4.220   1.347   5.004
  975SOL    OH219179   4.781   1.076   1.530
  975SOL     H119180   4.702   1.099   1.580
  975SOL     H219181   4.817   1.000   1.575
  976SOL    OH219182   6.142   4.152   1.926
  976SOL     H119183   6.233   4.177   1.937
  976SOL     H219184   6.092   4.227   1.960
  977SOL    OH219185   3.071   0.514   6.190
  977SOL     H119186   3.000   0.499   6.252
  977SOL     H219187   3.133   0.571   6.237
  978SOL    OH219188   2.354   1.635   5.808
  978SOL     H119189   2.329   1.679   5.728
  978SOL     H219190   2.281   1.576   5.828
  979SOL    OH219191   1.865   3.307   1.733
  979SOL     H119192   1.954   3.343   1.738
  979SOL     H219193   1.877   3.216   1.705
  980SOL    OH219194   2.681   0.545   6.057
  980SOL     H119195   2.688   0.634   6.089
  980SOL     H219196   2.588   0.524   6.065
  981SOL    OH219197   4.142   3.542   0.420
  981SOL     H119198   4.158   3.448   0.428
  981SOL     H219199   4.221   3.575   0.376
  982SOL    OH219200   0.914   4.935   5.920
  982SOL     H119201   0.963   5.017   5.922
  982SOL     H219202   0.867   4.937   5.837
  983SOL    OH219203   3.134   5.181   0.755
  983SOL     H119204   3.116   5.255   0.697
  983SOL     H219205   3.049   5.140   0.769
  984SOL    OH219206   4.965   0.183   5.523
  984SOL     H119207   4.884   0.220   5.488
  984SOL     H219208   5.027   0.256   5.522
  985SOL    OH219209   0.404   5.726   1.344
  985SOL     H119210   0.470   5.704   1.410
  985SOL     H219211   0.341   5.780   1.391
  986SOL    OH219212   5.387   2.834   0.510
  986SOL     H119213   5.310   2.782   0.532
  986SOL     H219214   5.360   2.884   0.433
  987SOL    OH219215   2.440   2.988   6.551
  987SOL     H119216   2.500   3.060   6.533
  987SOL     H219217   2.414   2.956   6.464
  988SOL    OH219218   0.220   1.504   5.693
  988SOL     H119219   0.257   1.437   5.635
  988SOL     H219220   0.228   1.585   5.643
  989SOL    OH219221   5.159   5.538   0.968
  989SOL     H119222   5.169   5.513   1.059
  989SOL     H219223   5.244   5.575   0.943
  990SOL    OH219224   5.926   2.164   6.168
  990SOL     H119225   6.010   2.208   6.182
  990SOL     H219226   5.936   2.119   6.084
  991SOL    OH219227   3.751   5.092   1.074
  991SOL     H119228   3.734   5.141   1.154
  991SOL     H219229   3.665   5.058   1.047
  992SOL    OH219230   0.034   0.200   6.287
  992SOL     H119231   0.087   0.139   6.236
  992SOL     H219232   0.049   0.285   6.245
  993SOL    OH219233   5.814   1.639   5.032
  993SOL     H119234   5.762   1.592   4.967
  993SOL     H219235   5.895   1.661   4.986
  994SOL    OH219236   3.245   2.637   5.601
  994SOL     H119237   3.295   2.694   5.543
  994SOL     H219238   3.290   2.553   5.596
  995SOL    OH219239   3.154   5.833   6.005
  995SOL     H119240   3.208   5.838   5.926
  995SOL     H219241   3.101   5.913   6.003
  996SOL    OH219242   1.832   4.321   4.837
  996SOL     H119243   1.797   4.368   4.761
  996SOL     H219244   1.843   4.388   4.904
  997SOL    OH219245   2.298   2.716   0.930
  997SOL     H119246   2.379   2.691   0.975
  997SOL     H219247   2.250   2.634   0.920
  998SOL    OH219248   4.266   6.382   0.875
  998SOL     H119249   4.304   0.034   0.823
  998SOL     H219250   4.176   6.375   0.844
  999SOL    OH219251   4.029   2.018   5.436
  999SOL     H119252   4.030   2.113   5.426
  999SOL     H219253   4.000   1.985   5.351
 1000SOL    OH219254   0.880   2.567   1.011
 1000SOL     H119255   0.817   2.516   0.960
 1000SOL     H219256   0.906   2.509   1.082
 1001SOL    OH219257   3.736   2.145   6.649
 1001SOL     H119258   3.641   2.155   6.664
 1001SOL     H219259   3.760   2.070   0.024
 1002SOL    OH219260   4.923   1.058   6.347
 1002SOL     H119261   4.895   1.148   6.362
 1002SOL     H219262   5.018   1.063   6.334
 1003SOL    OH219263   3.879   4.565   6.007
 1003SOL     H119264   3.785   4.573   6.018
 1003SOL     H219265   3.897   4.472   6.021
 1004SOL    OH219266   6.271   2.959   5.476
 1004SOL     H119267   0.041   2.900   5.492
 1004SOL     H219268   6.193   2.906   5.492
 1005SOL    OH219269   1.010   1.615   5.317
 1005SOL     H119270   0.971   1.539   5.273
 1005SOL     H219271   1.083   1.579   5.366
 1006SOL    OH219272   1.929   3.089   5.757
 1006SOL     H119273   1.835   3.088   5.776
 1006SOL     H219274   1.934   3.089   5.661
 1007SOL    OH219275   2.479   2.834   1.812
 1007SOL     H119276   2.540   2.895   1.771
 1007SOL     H219277   2.500   2.838   1.905
 1008SOL    OH219278   4.911   1.104   0.165
 1008SOL     H119279   4.831   1.138   0.125
 1008SOL     H219280   4.918   1.015   0.131
 1009SOL    OH219281   5.819   3.602   6.632
 1009SOL     H119282   5.777   3.650   6.561
 1009SOL     H219283   5.747   3.577   0.009
 1010SOL    OH219284   5.080   4.745   2.086
 1010SOL     H119285   5.066   4.683   2.158
 1010SOL     H219286   5.113   4.824   2.129
 1011SOL    OH219287   5.873   0.425   5.410
 1011SOL     H119288   5.849   0.514   5.435
 1011SOL     H219289   5.962   0.414   5.443
 1012SOL    OH219290   5.744   2.421   5.966
 1012SOL     H119291   5.693   2.340   5.971
 1012SOL     H219292   5.688   2.487   6.006
 1013SOL    OH219293   5.325   1.089   1.401
 1013SOL     H119294   5.235   1.103   1.429
 1013SOL     H219295   5.365   1.038   1.471
 1014SOL    OH219296   4.432   4.586   0.603
 1014SOL     H119297   4.398   4.674   0.588
 1014SOL     H219298   4.525   4.599   0.623
 1015SOL    OH219299   5.716   3.239   5.063
 1015SOL     H119300   5.800   3.284   5.066
 1015SOL     H219301   5.663   3.290   5.002
 1016SOL    OH219302   5.654   2.991   6.206
 1016SOL     H119303   5.700   3.003   6.123
 1016SOL     H219304   5.697   2.915   6.246
 1017SOL    OH219305   2.488   2.675   0.624
 1017SOL     H119306   2.487   2.753   0.679
 1017SOL     H219307   2.567   2.628   0.650
 1018SOL    OH219308   2.605   2.005   0.043
 1018SOL     H119309   2.532   1.967   0.093
 1018SOL     H219310   2.601   2.099   0.062
 1019SOL    OH219311   6.124   3.320   0.443
 1019SOL     H119312   6.129   3.239   0.391
 1019SOL     H219313   6.031   3.328   0.465
 1020SOL    OH219314   5.871   5.240   1.014
 1020SOL     H119315   5.877   5.155   1.059
 1020SOL     H219316   5.801   5.228   0.950
 1021SOL    OH219317   3.738   1.544   0.159
 1021SOL     H119318   3.758   1.578   0.246
 1021SOL     H219319   3.708   1.454   0.175
 1022SOL    OH219320   6.072   1.431   5.562
 1022SOL     H119321   5.979   1.438   5.544
 1022SOL     H219322   6.094   1.513   5.606
 1023SOL    OH219323   4.560   4.633   5.827
 1023SOL     H119324   4.574   4.657   5.736
 1023SOL     H219325   4.558   4.538   5.827
 1024SOL    OH219326   1.374   1.482   0.780
 1024SOL     H119327   1.401   1.571   0.757
 1024SOL     H219328   1.278   1.485   0.779
 1025SOL    OH219329   1.115   1.704   5.920
 1025SOL     H119330   1.159   1.701   6.005
 1025SOL     H219331   1.033   1.657   5.934
 1026SOL    OH219332   2.426   4.898   6.197
 1026SOL     H119333   2.407   4.991   6.192
 1026SOL     H219334   2.522   4.892   6.195
 1027SOL    OH219335   3.212   3.296   0.420
 1027SOL     H119336   3.152   3.264   0.488
 1027SOL     H219337   3.239   3.217   0.373
 1028SOL    OH219338   4.521   2.145   0.415
 1028SOL     H119339   4.553   2.177   0.331
 1028SOL     H219340   4.516   2.050   0.404
 1029SOL    OH219341   4.388   3.558   0.072
 1029SOL     H119342   4.316   3.504   0.038
 1029SOL     H219343   4.406   3.620   0.002
 1030SOL    OH219344   6.012   0.371   6.111
 1030SOL     H119345   6.019   0.295   6.169
 1030SOL     H219346   5.930   0.358   6.064
 1031SOL    OH219347   2.732   3.861   0.398
 1031SOL     H119348   2.646   3.823   0.377
 1031SOL     H219349   2.795   3.797   0.364
 1032SOL    OH219350   5.522   2.705   0.881
 1032SOL     H119351   5.431   2.734   0.883
 1032SOL     H219352   5.570   2.772   0.930
 1033SOL    OH219353   4.136   5.027   0.512
 1033SOL     H119354   4.171   5.075   0.436
 1033SOL     H219355   4.050   4.996   0.482
 1034SOL    OH219356   2.533   3.502   6.044
 1034SOL     H119357   2.505   3.588   6.012
 1034SOL     H219358   2.528   3.445   5.967
 1035SOL    OH219359   3.907   5.401   5.766
 1035SOL     H119360   3.855   5.478   5.745
 1035SOL     H219361   3.872   5.370   5.849
 1036SOL    OH219362   3.198   2.228   6.644
 1036SOL     H119363   3.132   2.198   0.026
 1036SOL     H219364   3.183   2.322   6.636
 1037SOL    OH219365   2.692   1.537   0.938
 1037SOL     H119366   2.768   1.592   0.921
 1037SOL     H219367   2.723   1.472   1.001
 1038SOL    OH219368   5.995   1.582   0.187
 1038SOL     H119369   6.081   1.616   0.212
 1038SOL     H219370   6.012   1.527   0.111
 1039SOL    OH219371   0.128   3.144   1.217
 1039SOL     H119372   0.186   3.087   1.267
 1039SOL     H219373   0.107   3.215   1.277
 1040SOL    OH219374   4.628   4.914   5.891
 1040SOL     H119375   4.601   4.822   5.900
 1040SOL     H219376   4.628   4.948   5.980
 1041SOL    OH219377   4.038   5.976   5.609
 1041SOL     H119378   3.986   6.040   5.561
 1041SOL     H219379   3.973   5.926   5.659
 1042SOL    OH219380   3.385   3.279   4.917
 1042SOL     H119381   3.457   3.216   4.917
 1042SOL     H219382   3.309   3.228   4.890
 1043SOL    OH219383   4.294   4.152   0.985
 1043SOL     H119384   4.321   4.079   1.041
 1043SOL     H219385   4.331   4.229   1.027
 1044SOL    OH219386   1.720   0.653   5.847
 1044SOL     H119387   1.689   0.564   5.866
 1044SOL     H219388   1.748   0.687   5.931
 1045SOL    OH219389   4.676   1.635   1.450
 1045SOL     H119390   4.703   1.597   1.367
 1045SOL     H219391   4.754   1.681   1.481
 1046SOL    OH219392   5.792   4.195   5.790
 1046SOL     H119393   5.753   4.136   5.726
 1046SOL     H219394   5.788   4.281   5.749
 1047SOL    OH219395   0.298   0.296   5.367
 1047SOL     H119396   0.305   0.248   5.450
 1047SOL     H219397   0.359   0.252   5.308
 1048SOL    OH219398   0.413   0.643   0.692
 1048SOL     H119399   0.413   0.597   0.608
 1048SOL     H219400   0.385   0.732   0.670
 1049SOL    OH219401   2.483   1.299   6.668
 1049SOL     H119402   2.519   1.296   6.579
 1049SOL     H219403   2.469   1.208   0.010
 1050SOL    OH219404   5.281   3.323   0.387
 1050SOL     H119405   5.270   3.287   0.299
 1050SOL     H219406   5.367   3.292   0.415
 1051SOL    OH219407   3.054   5.502   5.826
 1051SOL     H119408   2.982   5.439   5.828
 1051SOL     H219409   3.078   5.515   5.918
 1052SOL    OH219410   2.155   2.492   4.800
 1052SOL     H119411   2.203   2.541   4.867
 1052SOL     H219412   2.077   2.544   4.784
 1053SOL    OH219413   3.360   0.161   5.838
 1053SOL     H119414   3.344   0.086   5.782
 1053SOL     H219415   3.377   0.124   5.925
 1054SOL    OH219416   3.618   1.483   6.021
 1054SOL     H119417   3.645   1.534   6.097
 1054SOL     H219418   3.591   1.548   5.956
 1055SOL    OH219419   0.507   0.653   0.945
 1055SOL     H119420   0.472   0.649   0.856
 1055SOL     H219421   0.528   0.746   0.958
 1056SOL    OH219422   4.659   1.834   0.635
 1056SOL     H119423   4.659   1.924   0.670
 1056SOL     H219424   4.609   1.840   0.554
 1057SOL    OH219425   3.437   1.380   6.401
 1057SOL     H119426   3.398   1.444   6.461
 1057SOL     H219427   3.405   1.404   6.315
 1058SOL    OH219428   0.145   3.350   0.927
 1058SOL     H119429   0.139   3.420   0.862
 1058SOL     H219430   0.158   3.395   1.010
 1059SOL    OH219431   1.056   1.356   5.594
 1059SOL     H119432   1.094   1.340   5.680
 1059SOL     H219433   1.122   1.407   5.547
 1060SOL    OH219434   2.964   2.168   5.372
 1060SOL     H119435   2.981   2.262   5.376
 1060SOL     H219436   3.051   2.128   5.366
 1061SOL    OH219437   2.639   3.786   0.084
 1061SOL     H119438   2.600   3.856   0.032
 1061SOL     H219439   2.733   3.794   0.071
 1062SOL    OH219440   3.247   4.549   1.126
 1062SOL     H119441   3.288   4.486   1.185
 1062SOL     H219442   3.154   4.527   1.127
 1063SOL    OH219443   2.135   0.719   6.458
 1063SOL     H119444   2.198   0.776   6.413
 1063SOL     H219445   2.188   0.668   6.519
 1064SOL    OH219446   0.925   5.997   6.330
 1064SOL     H119447   1.018   6.018   6.333
 1064SOL     H219448   0.894   6.037   6.249
 1065SOL    OH219449   5.313   6.341   5.092
 1065SOL     H119450   5.346   6.396   5.021
 1065SOL     H219451   5.386   6.336   5.154
 1066SOL    OH219452   3.834   2.697   0.073
 1066SOL     H119453   3.831   2.783   0.115
 1066SOL     H219454   3.927   2.678   0.063
 1067SOL    OH219455   5.748   2.994   5.947
 1067SOL     H119456   5.772   2.903   5.963
 1067SOL     H219457   5.812   3.024   5.882
 1068SOL    OH219458   4.811   4.071   2.107
 1068SOL     H119459   4.738   4.012   2.091
 1068SOL     H219460   4.889   4.019   2.089
 1069SOL    OH219461   0.539   5.064   0.117
 1069SOL     H119462   0.510   5.153   0.139
 1069SOL     H219463   0.482   5.038   0.045
 1070SOL    OH219464   6.265   1.401   6.494
 1070SOL     H119465   6.301   1.334   6.551
 1070SOL     H219466   6.197   1.443   6.547
 1071SOL    OH219467   0.059   6.333   1.284
 1071SOL     H119468   6.267   6.336   1.274
 1071SOL     H219469   0.077   6.383   1.363
 1072SOL    OH219470   4.998   0.345   4.926
 1072SOL     H119471   4.922   0.306   4.884
 1072SOL     H219472   5.015   0.425   4.875
 1073SOL    OH219473   0.126   4.340   0.684
 1073SOL     H119474   0.146   4.427   0.717
 1073SOL     H219475   0.104   4.289   0.763
 1074SOL    OH219476   0.895   1.992   0.299
 1074SOL     H119477   0.904   2.021   0.208
 1074SOL     H219478   0.800   1.993   0.314
 1075SOL    OH219479   0.477   0.805   6.478
 1075SOL     H119480   0.502   0.778   6.566
 1075SOL     H219481   0.386   0.777   6.469
 1076SOL    OH219482   1.306   5.929   6.578
 1076SOL     H119483   1.273   5.969   6.659
 1076SOL     H219484   1.233   5.874   6.548
 1077SOL    OH219485   4.039   4.876   0.816
 1077SOL     H119486   3.976   4.921   0.760
 1077SOL     H219487   4.042   4.787   0.782
 1078SOL    OH219488   1.352   4.103   5.693
 1078SOL     H119489   1.400   4.181   5.666
 1078SOL     H219490   1.379   4.035   5.631
 1079SOL    OH219491   4.232   1.963   5.911
 1079SOL     H119492   4.169   1.976   5.840
 1079SOL     H219493   4.214   2.033   5.973
 1080SOL    OH219494   2.319   1.303   0.703
 1080SOL     H119495   2.355   1.237   0.643
 1080SOL     H219496   2.392   1.362   0.720
 1081SOL    OH219497   2.267   2.202   0.947
 1081SOL     H119498   2.359   2.218   0.966
 1081SOL     H219499   2.253   2.111   0.975
 1082SOL    OH219500   5.532   2.373   0.930
 1082SOL     H119501   5.620   2.409   0.945
 1082SOL     H219502   5.522   2.307   0.999
 1083SOL    OH219503   0.978   2.138   1.219
 1083SOL     H119504   0.998   2.065   1.278
 1083SOL     H219505   0.934   2.096   1.145
 1084SOL    OH219506   4.396   2.830   6.369
 1084SOL     H119507   4.456   2.876   6.311
 1084SOL     H219508   4.315   2.880   6.365
 1085SOL    OH219509   3.040   0.834   5.195
 1085SOL     H119510   3.107   0.781   5.239
 1085SOL     H219511   2.959   0.785   5.206
 1086SOL    OH219512   2.104   1.035   5.237
 1086SOL     H119513   2.031   0.980   5.208
 1086SOL     H219514   2.156   1.049   5.157
 1087SOL    OH219515   1.430   2.035   6.596
 1087SOL     H119516   1.487   2.003   6.666
 1087SOL     H219517   1.342   2.029   6.632
 1088SOL    OH219518   6.147   4.984   6.311
 1088SOL     H119519   6.094   5.063   6.311
 1088SOL     H219520   6.206   4.995   6.237
 1089SOL    OH219521   0.470   1.205   1.432
 1089SOL     H119522   0.493   1.268   1.364
 1089SOL     H219523   0.541   1.141   1.430
 1090SOL    OH219524   0.511   3.710   0.882
 1090SOL     H119525   0.538   3.802   0.880
 1090SOL     H219526   0.592   3.661   0.866
 1091SOL    OH219527   5.527   0.484   6.257
 1091SOL     H119528   5.515   0.486   6.352
 1091SOL     H219529   5.490   0.400   6.230
 1092SOL    OH219530   4.321   2.406   6.382
 1092SOL     H119531   4.331   2.311   6.393
 1092SOL     H219532   4.234   2.425   6.416
 1093SOL    OH219533   3.069   2.219   6.128
 1093SOL     H119534   3.078   2.140   6.076
 1093SOL     H219535   3.106   2.196   6.213
 1094SOL    OH219536   2.980   4.516   1.134
 1094SOL     H119537   2.917   4.575   1.176
 1094SOL     H219538   2.926   4.451   1.088
 1095SOL    OH219539   3.165   2.684   1.030
 1095SOL     H119540   3.243   2.718   0.987
 1095SOL     H219541   3.197   2.611   1.083
 1096SOL    OH219542   2.403   1.887   0.192
 1096SOL     H119543   2.403   1.795   0.169
 1096SOL     H219544   2.432   1.890   0.283
 1097SOL    OH219545   4.071   2.480   6.474
 1097SOL     H119546   4.060   2.574   6.488
 1097SOL     H219547   4.030   2.440   6.551
 1098SOL    OH219548   2.609   0.973   5.748
 1098SOL     H119549   2.551   1.017   5.686
 1098SOL     H219550   2.582   1.006   5.834
 1099SOL    OH219551   1.255   5.575   5.903
 1099SOL     H119552   1.322   5.554   5.967
 1099SOL     H219553   1.266   5.669   5.886
 1100SOL    OH219554   0.122   3.970   1.062
 1100SOL     H119555   0.182   3.896   1.057
 1100SOL     H219556   0.103   3.980   1.155
 1101SOL    OH219557   5.238   1.364   0.662
 1101SOL     H119558   5.304   1.305   0.699
 1101SOL     H219559   5.234   1.437   0.724
 1102SOL    OH219560   0.170   4.954   5.559
 1102SOL     H119561   0.079   4.983   5.564
 1102SOL     H219562   0.163   4.858   5.553
 1103SOL    OH219563   2.805   5.048   4.992
 1103SOL     H119564   2.718   5.016   5.016
 1103SOL     H219565   2.865   4.986   5.033
 1104SOL    OH219566   4.977   5.715   0.044
 1104SOL     H119567   5.014   5.645   0.098
 1104SOL     H219568   4.886   5.687   0.028
 1105SOL    OH219569   4.614   5.247   0.431
 1105SOL     H119570   4.583   5.273   0.518
 1105SOL     H219571   4.708   5.234   0.443
 1106SOL    OH219572   4.142   5.219   0.716
 1106SOL     H119573   4.142   5.146   0.654
 1106SOL     H219574   4.060   5.209   0.765
 1107SOL    OH219575   4.715   2.716   5.846
 1107SOL     H119576   4.732   2.647   5.910
 1107SOL     H219577   4.797   2.726   5.798
 1108SOL    OH219578   2.445   4.864   1.397
 1108SOL     H119579   2.354   4.875   1.370
 1108SOL     H219580   2.485   4.813   1.327
 1109SOL    OH219581   1.211   1.280   6.554
 1109SOL     H119582   1.134   1.317   6.510
 1109SOL     H219583   1.233   1.202   6.503
 1110SOL    OH219584   3.016   2.678   6.487
 1110SOL     H119585   2.926   2.644   6.483
 1110SOL     H219586   3.065   2.609   6.532
 1111SOL    OH219587   1.627   6.312   0.758
 1111SOL     H119588   1.623   6.347   0.669
 1111SOL     H219589   1.536   6.308   0.787
 1112SOL    OH219590   1.002   1.151   0.290
 1112SOL     H119591   1.012   1.225   0.350
 1112SOL     H219592   1.003   1.074   0.347
 1113SOL    OH219593   4.637   1.647   0.270
 1113SOL     H119594   4.693   1.722   0.289
 1113SOL     H219595   4.553   1.685   0.245
 1114SOL    OH219596   3.451   3.417   0.065
 1114SOL     H119597   3.501   3.428   0.147
 1114SOL     H219598   3.436   3.323   0.059
 1115SOL    OH219599   6.271   4.754   0.876
 1115SOL     H119600   6.240   4.790   0.958
 1115SOL     H219601   6.193   4.717   0.834
 1116SOL    OH219602   3.160   5.375   1.113
 1116SOL     H119603   3.218   5.303   1.088
 1116SOL     H219604   3.092   5.334   1.165
 1117SOL    OH219605   3.861   1.398   1.235
 1117SOL     H119606   3.850   1.445   1.153
 1117SOL     H219607   3.907   1.460   1.292
 1118SOL    OH219608   3.341   3.062   6.285
 1118SOL     H119609   3.313   3.003   6.355
 1118SOL     H219610   3.370   3.004   6.215
 1119SOL    OH219611   0.241   0.543   1.466
 1119SOL     H119612   0.277   0.459   1.494
 1119SOL     H219613   0.146   0.534   1.479
 1120SOL    OH219614   0.198   5.856   0.380
 1120SOL     H119615   0.179   5.947   0.399
 1120SOL     H219616   0.159   5.807   0.452
 1121SOL    OH219617   0.739   0.626   6.038
 1121SOL     H119618   0.752   0.720   6.022
 1121SOL     H219619   0.820   0.585   6.010
 1122SOL    OH219620   2.261   1.447   6.679
 1122SOL     H119621   2.191   1.383   0.015
 1122SOL     H219622   2.340   1.394   6.673
 1123SOL    OH219623   1.018   4.562   0.608
 1123SOL     H119624   1.008   4.644   0.560
 1123SOL     H219625   1.113   4.549   0.614
 1124SOL    OH219626   5.225   2.184   1.222
 1124SOL     H119627   5.238   2.211   1.313
 1124SOL     H219628   5.174   2.254   1.183
 1125SOL    OH219629   2.669   2.264   0.620
 1125SOL     H119630   2.696   2.219   0.700
 1125SOL     H219631   2.641   2.193   0.562
 1126SOL    OH219632   1.249   1.382   6.063
 1126SOL     H119633   1.174   1.427   6.103
 1126SOL     H219634   1.215   1.347   5.980
 1127SOL    OH219635   0.384   6.294   0.701
 1127SOL     H119636   0.297   6.253   0.706
 1127SOL     H219637   0.408   6.311   0.792
 1128SOL    OH219638   3.400   2.001   4.947
 1128SOL     H119639   3.463   1.958   4.888
 1128SOL     H219640   3.335   2.038   4.888
 1129SOL    OH219641   5.660   5.083   5.508
 1129SOL     H119642   5.609   5.096   5.428
 1129SOL     H219643   5.699   5.168   5.526
 1130SOL    OH219644   3.259   1.522   6.220
 1130SOL     H119645   3.223   1.589   6.278
 1130SOL     H219646   3.305   1.571   6.152
 1131SOL    OH219647   1.202   5.841   5.329
 1131SOL     H119648   1.243   5.902   5.267
 1131SOL     H219649   1.227   5.754   5.297
 1132SOL    OH219650   3.560   2.532   0.320
 1132SOL     H119651   3.581   2.511   0.229
 1132SOL     H219652   3.503   2.608   0.315
 1133SOL    OH219653   4.575   2.956   5.238
 1133SOL     H119654   4.592   2.896   5.165
 1133SOL     H219655   4.628   3.034   5.218
 1134SOL    OH219656   2.153   0.644   1.487
 1134SOL     H119657   2.084   0.605   1.541
 1134SOL     H219658   2.158   0.586   1.411
 1135SOL    OH219659   5.432   0.843   6.233
 1135SOL     H119660   5.363   0.780   6.253
 1135SOL     H219661   5.386   0.915   6.190
 1136SOL    OH219662   4.773   2.990   0.195
 1136SOL     H119663   4.723   3.036   0.127
 1136SOL     H219664   4.858   2.973   0.155
 1137SOL    OH219665   5.449   3.198   1.698
 1137SOL     H119666   5.353   3.199   1.703
 1137SOL     H219667   5.472   3.108   1.723
 1138SOL    OH219668   4.611   0.181   0.455
 1138SOL     H119669   4.706   0.174   0.460
 1138SOL     H219670   4.588   0.140   0.371
 1139SOL    OH219671   0.890   0.255   6.114
 1139SOL     H119672   0.904   0.304   6.195
 1139SOL     H219673   0.798   0.228   6.118
 1140SOL    OH219674   5.708   1.479   6.227
 1140SOL     H119675   5.773   1.442   6.286
 1140SOL     H219676   5.628   1.429   6.245
 1141SOL    OH219677   5.698   1.363   0.574
 1141SOL     H119678   5.633   1.430   0.553
 1141SOL     H219679   5.694   1.354   0.669
 1142SOL    OH219680   4.606   2.113   0.673
 1142SOL     H119681   4.583   2.128   0.581
 1142SOL     H219682   4.671   2.181   0.692
 1143SOL    OH219683   5.713   2.477   5.695
 1143SOL     H119684   5.643   2.413   5.679
 1143SOL     H219685   5.736   2.464   5.787
 1144SOL    OH219686   5.456   6.235   5.968
 1144SOL     H119687   5.370   6.276   5.958
 1144SOL     H219688   5.463   6.216   6.062
 1145SOL    OH219689   4.011   3.642   6.237
 1145SOL     H119690   4.102   3.656   6.210
 1145SOL     H219691   3.973   3.730   6.236
 1146SOL    OH219692   5.590   2.916   0.262
 1146SOL     H119693   5.643   2.981   0.216
 1146SOL     H219694   5.510   2.962   0.285
 1147SOL    OH219695   2.394   3.691   5.487
 1147SOL     H119696   2.485   3.716   5.507
 1147SOL     H219697   2.343   3.770   5.506
 1148SOL    OH219698   1.958   4.783   6.429
 1148SOL     H119699   1.932   4.871   6.456
 1148SOL     H219700   2.046   4.794   6.394
 1149SOL    OH219701   1.083   6.107   1.539
 1149SOL     H119702   1.103   6.188   1.494
 1149SOL     H219703   1.032   6.056   1.476
 1150SOL    OH219704   0.378   0.540   0.442
 1150SOL     H119705   0.376   0.586   0.358
 1150SOL     H219706   0.431   0.463   0.426
 1151SOL    OH219707   4.437   5.067   1.237
 1151SOL     H119708   4.363   5.007   1.237
 1151SOL     H219709   4.479   5.053   1.322
 1152SOL    OH219710   3.074   1.805   6.638
 1152SOL     H119711   3.097   1.797   6.545
 1152SOL     H219712   3.155   1.834   6.680
 1153SOL    OH219713   4.892   1.746   5.671
 1153SOL     H119714   4.854   1.810   5.730
 1153SOL     H219715   4.918   1.673   5.727
 1154SOL    OH219716   4.760   3.197   0.371
 1154SOL     H119717   4.781   3.267   0.310
 1154SOL     H219718   4.761   3.118   0.318
 1155SOL    OH219719   4.652   2.514   4.931
 1155SOL     H119720   4.712   2.516   4.857
 1155SOL     H219721   4.637   2.421   4.948
 1156SOL    OH219722   1.593   1.426   5.290
 1156SOL     H119723   1.597   1.512   5.332
 1156SOL     H219724   1.659   1.431   5.220
 1157SOL    OH219725   5.434   2.623   6.391
 1157SOL     H119726   5.394   2.695   6.440
 1157SOL     H219727   5.519   2.609   6.433
 1158SOL    OH219728   1.778   5.855   5.198
 1158SOL     H119729   1.852   5.851   5.138
 1158SOL     H219730   1.709   5.806   5.154
 1159SOL    OH219731   1.775   2.662   1.407
 1159SOL     H119732   1.791   2.713   1.486
 1159SOL     H219733   1.707   2.599   1.431
 1160SOL    OH219734   5.168   2.078   6.401
 1160SOL     H119735   5.152   2.002   6.345
 1160SOL     H219736   5.138   2.153   6.350
 1161SOL    OH219737   4.048   4.620   0.702
 1161SOL     H119738   3.982   4.616   0.633
 1161SOL     H219739   4.118   4.562   0.672
 1162SOL    OH219740   3.366   4.167   5.272
 1162SOL     H119741   3.436   4.227   5.298
 1162SOL     H219742   3.315   4.216   5.207
 1163SOL    OH219743   4.177   6.173   0.221
 1163SOL     H119744   4.114   6.105   0.195
 1163SOL     H219745   4.156   6.191   0.313
 1164SOL    OH219746   1.027   1.756   0.336
 1164SOL     H119747   0.977   1.837   0.328
 1164SOL     H219748   1.086   1.757   0.261
 1165SOL    OH219749   2.709   1.674   6.585
 1165SOL     H119750   2.642   1.732   6.548
 1165SOL     H219751   2.704   1.689   6.679
 1166SOL    OH219752   1.299   4.532   0.637
 1166SOL     H119753   1.311   4.595   0.708
 1166SOL     H219754   1.353   4.566   0.566
 1167SOL    OH219755   6.150   2.211   5.774
 1167SOL     H119756   6.243   2.234   5.773
 1167SOL     H219757   6.109   2.282   5.823
 1168SOL    OH219758   0.894   4.023   5.565
 1168SOL     H119759   0.982   3.994   5.542
 1168SOL     H219760   0.896   4.031   5.661
 1169SOL    OH219761   2.867   5.085   0.754
 1169SOL     H119762   2.784   5.052   0.720
 1169SOL     H219763   2.844   5.163   0.804
 1170SOL    OH219764   0.330   5.458   1.352
 1170SOL     H119765   0.352   5.551   1.354
 1170SOL     H219766   0.396   5.418   1.296
 1171SOL    OH219767   1.197   0.157   5.767
 1171SOL     H119768   1.214   0.235   5.820
 1171SOL     H219769   1.105   0.167   5.739
 1172SOL    OH219770   2.303   1.490   6.233
 1172SOL     H119771   2.350   1.408   6.222
 1172SOL     H219772   2.351   1.554   6.181
 1173SOL    OH219773   2.228   6.223   1.328
 1173SOL     H119774   2.297   6.243   1.265
 1173SOL     H219775   2.275   6.198   1.408
 1174SOL    OH219776   5.488   3.056   0.884
 1174SOL     H119777   5.503   3.045   0.790
 1174SOL     H219778   5.544   2.990   0.925
 1175SOL    OH219779   1.556   5.379   0.182
 1175SOL     H119780   1.470   5.420   0.189
 1175SOL     H219781   1.547   5.295   0.228
 1176SOL    OH219782   4.475   5.234   0.198
 1176SOL     H119783   4.550   5.204   0.148
 1176SOL     H219784   4.510   5.254   0.285
 1177SOL    OH219785   0.759   3.434   5.745
 1177SOL     H119786   0.708   3.397   5.673
 1177SOL     H219787   0.727   3.524   5.753
 1178SOL    OH219788   2.749   4.572   4.912
 1178SOL     H119789   2.690   4.617   4.852
 1178SOL     H219790   2.696   4.552   4.989
 1179SOL    OH219791   2.128   4.731   5.395
 1179SOL     H119792   2.089   4.673   5.329
 1179SOL     H219793   2.159   4.806   5.344
 1180SOL    OH219794   5.785   4.607   5.443
 1180SOL     H119795   5.760   4.547   5.373
 1180SOL     H219796   5.776   4.694   5.403
 1181SOL    OH219797   3.522   3.412   0.562
 1181SOL     H119798   3.606   3.409   0.609
 1181SOL     H219799   3.469   3.344   0.604
 1182SOL    OH219800   4.784   1.957   5.829
 1182SOL     H119801   4.770   2.036   5.776
 1182SOL     H219802   4.704   1.948   5.881
 1183SOL    OH219803   1.698   6.250   1.597
 1183SOL     H119804   1.760   6.272   1.667
 1183SOL     H219805   1.639   6.186   1.637
 1184SOL    OH219806   2.761   3.416   0.372
 1184SOL     H119807   2.794   3.326   0.369
 1184SOL     H219808   2.666   3.407   0.367
 1185SOL    OH219809   5.043   5.777   5.459
 1185SOL     H119810   5.082   5.694   5.434
 1185SOL     H219811   4.951   5.757   5.476
 1186SOL    OH219812   2.720   5.803   0.773
 1186SOL     H119813   2.719   5.743   0.848
 1186SOL     H219814   2.806   5.845   0.778
 1187SOL    OH219815   1.872   4.514   0.181
 1187SOL     H119816   1.947   4.512   0.241
 1187SOL     H219817   1.906   4.553   0.101
 1188SOL    OH219818   4.396   3.025   5.439
 1188SOL     H119819   4.454   3.005   5.366
 1188SOL     H219820   4.372   3.117   5.426
 1189SOL    OH219821   2.064   2.744   6.103
 1189SOL     H119822   2.067   2.790   6.019
 1189SOL     H219823   2.086   2.810   6.168
 1190SOL    OH219824   2.398   1.617   0.174
 1190SOL     H119825   2.348   1.589   0.251
 1190SOL     H219826   2.358   1.570   0.101
 1191SOL    OH219827   2.038   0.496   0.072
 1191SOL     H119828   1.988   0.478   6.673
 1191SOL     H219829   1.991   0.449   0.141
 1192SOL    OH219830   4.772   1.948   5.380
 1192SOL     H119831   4.770   1.868   5.327
 1192SOL     H219832   4.705   1.933   5.447
 1193SOL    OH219833   4.177   2.161   6.093
 1193SOL     H119834   4.241   2.233   6.096
 1193SOL     H219835   4.092   2.205   6.088
 1194SOL    OH219836   3.022   5.600   0.710
 1194SOL     H119837   3.038   5.521   0.659
 1194SOL     H219838   3.083   5.593   0.783
 1195SOL    OH219839   5.166   1.352   4.629
 1195SOL     H119840   5.243   1.298   4.643
 1195SOL     H219841   5.200   1.442   4.625
 1196SOL    OH219842   3.296   4.290   0.004
 1196SOL     H119843   3.306   4.204   6.645
 1196SOL     H219844   3.342   4.283   0.088
 1197SOL    OH219845   4.442   5.649   1.064
 1197SOL     H119846   4.517   5.707   1.049
 1197SOL     H219847   4.464   5.602   1.144
 1198SOL    OH219848   0.114   4.278   6.280
 1198SOL     H119849   0.128   4.360   6.328
 1198SOL     H219850   0.030   4.290   6.236
 1199SOL    OH219851   1.347   3.638   1.364
 1199SOL     H119852   1.356   3.732   1.375
 1199SOL     H219853   1.310   3.627   1.277
 1200SOL    OH219854   2.953   3.441   1.087
 1200SOL     H119855   2.978   3.530   1.109
 1200SOL     H219856   2.900   3.449   1.008
 1201SOL    OH219857   5.930   4.817   6.360
 1201SOL     H119858   5.934   4.789   6.452
 1201SOL     H219859   6.010   4.867   6.347
 1202SOL    OH219860   0.946   5.681   0.637
 1202SOL     H119861   0.958   5.600   0.587
 1202SOL     H219862   0.863   5.716   0.605
 1203SOL    OH219863   5.640   5.328   6.471
 1203SOL     H119864   5.651   5.233   6.476
 1203SOL     H219865   5.643   5.357   6.562
 1204SOL    OH219866   2.244   4.689   0.064
 1204SOL     H119867   2.244   4.679   0.159
 1204SOL     H219868   2.253   4.783   0.049
 1205SOL    OH219869   0.507   3.551   6.548
 1205SOL     H119870   0.512   3.615   6.477
 1205SOL     H219871   0.513   3.466   6.504
 1206SOL    OH219872   5.823   2.734   6.003
 1206SOL     H119873   5.874   2.691   6.072
 1206SOL     H219874   5.734   2.699   6.014
 1207SOL    OH219875   6.285   3.231   5.562
 1207SOL     H119876   6.281   3.142   5.527
 1207SOL     H219877   0.017   3.283   5.490
 1208SOL    OH219878   0.564   1.745   1.742
 1208SOL     H119879   0.499   1.699   1.795
 1208SOL     H219880   0.597   1.678   1.681
 1209SOL    OH219881   0.211   0.354   1.202
 1209SOL     H119882   0.177   0.336   1.290
 1209SOL     H219883   0.262   0.434   1.212
 1210SOL    OH219884   2.430   1.680   6.064
 1210SOL     H119885   2.389   1.762   6.089
 1210SOL     H219886   2.410   1.669   5.971
 1211SOL    OH219887   1.842   5.142   1.222
 1211SOL     H119888   1.880   5.056   1.236
 1211SOL     H219889   1.748   5.130   1.238
 1212SOL    OH219890   4.935   2.260   5.700
 1212SOL     H119891   4.959   2.252   5.608
 1212SOL     H219892   4.997   2.324   5.735
 1213SOL    OH219893   0.049   1.038   5.735
 1213SOL     H119894   6.283   1.093   5.698
 1213SOL     H219895   0.090   1.093   5.801
 1214SOL    OH219896   4.837   5.213   6.127
 1214SOL     H119897   4.767   5.149   6.133
 1214SOL     H219898   4.798   5.287   6.080
 1215SOL    OH219899   6.047   6.343   0.024
 1215SOL     H119900   6.086   6.340   6.617
 1215SOL     H219901   6.010   0.013   0.031
 1216SOL    OH219902   4.291   1.725   0.597
 1216SOL     H119903   4.272   1.653   0.657
 1216SOL     H219904   4.319   1.797   0.653
 1217SOL    OH219905   0.153   1.865   0.319
 1217SOL     H119906   0.201   1.869   0.402
 1217SOL     H219907   0.083   1.929   0.328
 1218SOL    OH219908   1.676   1.244   5.997
 1218SOL     H119909   1.606   1.188   5.965
 1218SOL     H219910   1.633   1.327   6.017
 1219SOL    OH219911   4.481   0.833   0.046
 1219SOL     H119912   4.556   0.819   0.103
 1219SOL     H219913   4.405   0.814   0.100
 1220SOL    OH219914   3.955   4.125   0.027
 1220SOL     H119915   4.011   4.066   0.076
 1220SOL     H219916   3.998   4.210   0.033
 1221SOL    OH219917   0.250   4.209   5.618
 1221SOL     H119918   0.195   4.285   5.597
 1221SOL     H219919   0.339   4.241   5.609
 1222SOL    OH219920   0.617   0.153   0.119
 1222SOL     H119921   0.699   0.153   0.168
 1222SOL     H219922   0.613   0.239   0.078
 1223SOL    OH219923   5.214   5.694   1.396
 1223SOL     H119924   5.267   5.679   1.474
 1223SOL     H219925   5.126   5.711   1.430
 1224SOL    OH219926   2.805   6.378   5.751
 1224SOL     H119927   2.889   6.331   5.751
 1224SOL     H219928   2.830   0.052   5.755
 1225SOL    OH219929   5.061   0.976   0.741
 1225SOL     H119930   5.103   1.040   0.798
 1225SOL     H219931   4.968   0.980   0.764
 1226SOL    OH219932   4.264   1.365   1.099
 1226SOL     H119933   4.205   1.311   1.151
 1226SOL     H219934   4.351   1.326   1.113
 1227SOL    OH219935   2.339   6.336   0.949
 1227SOL     H119936   2.377   6.318   1.035
 1227SOL     H219937   2.412   6.369   0.897
 1228SOL    OH219938   5.090   5.084   0.086
 1228SOL     H119939   5.044   5.147   0.141
 1228SOL     H219940   5.118   5.135   0.009
 1229SOL    OH219941   4.073   5.795   6.615
 1229SOL     H119942   4.022   5.875   6.620
 1229SOL     H219943   4.034   5.738   0.000
 1230SOL    OH219944   6.119   5.340   0.966
 1230SOL     H119945   6.031   5.307   0.981
 1230SOL     H219946   6.161   5.336   1.052
 1231SOL    OH219947   3.255   5.322   6.286
 1231SOL     H119948   3.218   5.251   6.339
 1231SOL     H219949   3.235   5.401   6.335
 1232SOL    OH219950   4.497   1.163   5.302
 1232SOL     H119951   4.542   1.210   5.372
 1232SOL     H219952   4.497   1.224   5.228
 1233SOL    OH219953   1.400   5.876   0.867
 1233SOL     H119954   1.494   5.862   0.856
 1233SOL     H219955   1.369   5.796   0.910
 1234SOL    OH219956   3.197   1.387   5.741
 1234SOL     H119957   3.183   1.377   5.835
 1234SOL     H219958   3.237   1.304   5.714
 1235SOL    OH219959   4.153   6.276   5.073
 1235SOL     H119960   4.132   6.238   5.158
 1235SOL     H219961   4.239   6.239   5.051
 1236SOL    OH219962   2.689   4.285   5.526
 1236SOL     H119963   2.705   4.307   5.434
 1236SOL     H219964   2.667   4.192   5.525
 1237SOL    OH219965   6.243   2.191   6.377
 1237SOL     H119966   6.288   2.107   6.368
 1237SOL     H219967   6.278   2.228   6.459
 1238SOL    OH219968   6.265   2.318   0.845
 1238SOL     H119969   6.176   2.333   0.877
 1238SOL     H219970   6.262   2.347   0.754
 1239SOL    OH219971   2.941   1.519   1.122
 1239SOL     H119972   3.004   1.466   1.171
 1239SOL     H219973   2.873   1.541   1.185
 1240SOL    OH219974   0.243   4.908   6.001
 1240SOL     H119975   0.327   4.878   6.035
 1240SOL     H219976   0.265   4.957   5.922
 1241SOL    OH219977   3.537   5.582   0.008
 1241SOL     H119978   3.510   5.553   0.095
 1241SOL     H219979   3.565   5.502   6.644
 1242SOL    OH219980   3.483   5.337   6.131
 1242SOL     H119981   3.453   5.396   6.062
 1242SOL     H219982   3.412   5.337   6.195
 1243SOL    OH219983   0.642   1.663   0.788
 1243SOL     H119984   0.588   1.728   0.742
 1243SOL     H219985   0.610   1.666   0.878
 1244SOL    OH219986   1.379   1.921   6.106
 1244SOL     H119987   1.418   1.940   6.192
 1244SOL     H219988   1.321   1.846   6.122
 1245SOL    OH219989   5.403   5.631   0.893
 1245SOL     H119990   5.489   5.594   0.912
 1245SOL     H219991   5.418   5.689   0.819
 1246SOL    OH219992   2.709   1.823   5.646
 1246SOL     H119993   2.747   1.906   5.615
 1246SOL     H219994   2.727   1.823   5.740
 1247SOL    OH219995   3.432   1.671   0.393
 1247SOL     H119996   3.393   1.584   0.383
 1247SOL     H219997   3.464   1.693   0.306
 1248SOL    OH219998   0.316   1.291   5.538
 1248SOL     H119999   0.238   1.243   5.509
 1248SOL     H220000   0.344   1.246   5.618
 1249SOL    OH220001   0.333   6.304   5.480
 1249SOL     H120002   0.316   6.296   5.386
 1249SOL     H220003   0.253   6.345   5.515
 1250SOL    OH220004   0.210   2.648   0.157
 1250SOL     H120005   0.267   2.572   0.146
 1250SOL     H220006   0.235   2.708   0.087
 1251SOL    OH220007   2.204   1.139   6.632
 1251SOL     H120008   2.123   1.124   6.680
 1251SOL     H220009   2.272   1.100   0.006
 1252SOL    OH220010   1.676   5.846   0.865
 1252SOL     H120011   1.712   5.760   0.844
 1252SOL     H220012   1.683   5.851   0.961
 1253SOL    OH220013   4.809   6.176   1.500
 1253SOL     H120014   4.759   6.241   1.450
 1253SOL     H220015   4.772   6.179   1.588
 1254SOL    OH220016   5.683   5.951   5.541
 1254SOL     H120017   5.638   5.880   5.494
 1254SOL     H220018   5.693   6.020   5.475
 1255SOL    OH220019   0.504   2.195   6.563
 1255SOL     H120020   0.564   2.269   6.560
 1255SOL     H220021   0.437   2.215   6.498
 1256SOL    OH220022   5.151   3.291   6.277
 1256SOL     H120023   5.187   3.309   6.190
 1256SOL     H220024   5.199   3.349   6.336
 1257SOL    OH220025   2.287   0.689   5.909
 1257SOL     H120026   2.248   0.728   5.830
 1257SOL     H220027   2.313   0.765   5.962
 1258SOL    OH220028   4.539   4.351   5.859
 1258SOL     H120029   4.622   4.331   5.902
 1258SOL     H220030   4.520   4.274   5.806
 1259SOL    OH220031   2.536   5.885   5.847
 1259SOL     H120032   2.500   5.870   5.934
 1259SOL     H220033   2.470   5.940   5.804
 1260SOL    OH220034   2.032   2.962   6.513
 1260SOL     H120035   2.080   3.043   6.530
 1260SOL     H220036   1.940   2.987   6.520
 1261SOL    OH220037   0.392   1.172   5.775
 1261SOL     H120038   0.319   1.162   5.836
 1261SOL     H220039   0.446   1.094   5.789
 1262SOL    OH220040   5.975   4.349   6.306
 1262SOL     H120041   6.024   4.392   6.376
 1262SOL     H220042   6.042   4.305   6.253
 1263SOL    OH220043   5.810   0.202   5.959
 1263SOL     H120044   5.725   0.238   5.984
 1263SOL     H220045   5.796   0.166   5.871
 1264SOL    OH220046   3.660   4.719   5.599
 1264SOL     H120047   3.700   4.645   5.553
 1264SOL     H220048   3.601   4.758   5.534
 1265SOL    OH220049   2.206   1.534   0.359
 1265SOL     H120050   2.187   1.534   0.453
 1265SOL     H220051   2.148   1.600   0.322
 1266SOL    OH220052   0.230   3.474   1.534
 1266SOL     H120053   0.170   3.429   1.476
 1266SOL     H220054   0.175   3.530   1.588
 1267SOL    OH220055   2.533   1.467   0.723
 1267SOL     H120056   2.560   1.504   0.639
 1267SOL     H220057   2.587   1.512   0.788
 1268SOL    OH220058   1.553   6.297   5.578
 1268SOL     H120059   1.485   6.363   5.589
 1268SOL     H220060   1.607   6.330   5.506
 1269SOL    OH220061   0.864   4.469   5.384
 1269SOL     H120062   0.837   4.484   5.293
 1269SOL     H220063   0.844   4.551   5.429
 1270SOL    OH220064   3.066   3.642   5.467
 1270SOL     H120065   3.082   3.679   5.554
 1270SOL     H220066   2.972   3.624   5.466
 1271SOL    OH220067   4.490   3.972   6.017
 1271SOL     H120068   4.548   3.994   6.090
 1271SOL     H220069   4.405   4.010   6.043
 1272SOL    OH220070   2.215   6.157   0.335
 1272SOL     H120071   2.239   6.183   0.423
 1272SOL     H220072   2.157   6.227   0.304
 1273SOL    OH220073   0.211   0.701   5.572
 1273SOL     H120074   0.149   0.727   5.640
 1273SOL     H220075   0.206   0.771   5.507
 1274SOL    OH220076   5.534   0.277   5.960
 1274SOL     H120077   5.466   0.235   5.907
 1274SOL     H220078   5.500   0.274   6.050
 1275SOL    OH220079   6.159   1.767   0.677
 1275SOL     H120080   6.069   1.738   0.690
 1275SOL     H220081   6.151   1.860   0.655
 1276SOL    OH220082   0.449   5.943   0.304
 1276SOL     H120083   0.367   5.901   0.331
 1276SOL     H220084   0.479   5.990   0.383
 1277SOL    OH220085   3.966   0.959   5.844
 1277SOL     H120086   3.879   0.990   5.820
 1277SOL     H220087   3.976   0.876   5.796
 1278SOL    OH220088   2.412   0.776   0.517
 1278SOL     H120089   2.369   0.853   0.480
 1278SOL     H220090   2.438   0.724   0.441
 1279SOL    OH220091   5.855   5.499   1.088
 1279SOL     H120092   5.867   5.408   1.064
 1279SOL     H220093   5.912   5.512   1.164
 1280SOL    OH220094   2.270   5.764   5.581
 1280SOL     H120095   2.325   5.696   5.543
 1280SOL     H220096   2.236   5.812   5.505
 1281SOL    OH220097   0.117   4.930   0.004
 1281SOL     H120098   0.068   4.886   6.616
 1281SOL     H220099   0.083   5.020   0.004
 1282SOL    OH220100   0.014   2.786   6.264
 1282SOL     H120101   0.028   2.747   6.177
 1282SOL     H220102   6.295   2.712   6.320
 1283SOL    OH220103   1.590   3.192   0.784
 1283SOL     H120104   1.661   3.242   0.742
 1283SOL     H220105   1.534   3.259   0.823
 1284SOL    OH220106   4.945   0.406   1.172
 1284SOL     H120107   5.000   0.328   1.161
 1284SOL     H220108   5.005   0.473   1.206
 1285SOL    OH220109   2.210   3.975   1.595
 1285SOL     H120110   2.293   3.938   1.624
 1285SOL     H220111   2.166   3.902   1.551
 1286SOL    OH220112   2.981   4.602   5.881
 1286SOL     H120113   2.888   4.584   5.869
 1286SOL     H220114   3.025   4.529   5.837
 1287SOL    OH220115   1.264   5.468   1.385
 1287SOL     H120116   1.325   5.469   1.458
 1287SOL     H220117   1.253   5.560   1.361
 1288SOL    OH220118   5.470   1.406   5.654
 1288SOL     H120119   5.514   1.370   5.577
 1288SOL     H220120   5.482   1.500   5.647
 1289SOL    OH220121   2.059   5.612   6.383
 1289SOL     H120122   2.089   5.694   6.344
 1289SOL     H220123   2.013   5.638   6.463
 1290SOL    OH220124   3.791   1.689   5.377
 1290SOL     H120125   3.771   1.599   5.401
 1290SOL     H220126   3.863   1.681   5.314
 1291SOL    OH220127   5.567   1.050   5.953
 1291SOL     H120128   5.490   1.039   6.010
 1291SOL     H220129   5.552   0.990   5.880
 1292SOL    OH220130   5.751   4.619   1.461
 1292SOL     H120131   5.745   4.531   1.424
 1292SOL     H220132   5.680   4.624   1.524
 1293SOL    OH220133   5.498   5.205   0.510
 1293SOL     H120134   5.587   5.238   0.524
 1293SOL     H220135   5.464   5.188   0.597
 1294SOL    OH220136   2.287   4.963   0.074
 1294SOL     H120137   2.374   4.957   0.113
 1294SOL     H220138   2.246   5.039   0.115
 1295SOL    OH220139   0.781   0.301   0.498
 1295SOL     H120140   0.815   0.263   0.417
 1295SOL     H220141   0.778   0.228   0.559
 1296SOL    OH220142   4.841   2.594   5.529
 1296SOL     H120143   4.793   2.669   5.494
 1296SOL     H220144   4.859   2.539   5.452
 1297SOL    OH220145   1.195   5.250   0.073
 1297SOL     H120146   1.163   5.205   0.152
 1297SOL     H220147   1.268   5.196   0.043
 1298SOL    OH220148   1.680   2.829   5.950
 1298SOL     H120149   1.675   2.818   6.045
 1298SOL     H220150   1.728   2.753   5.919
 1299SOL    OH220151   0.292   4.791   0.610
 1299SOL     H120152   0.354   4.753   0.547
 1299SOL     H220153   0.227   4.835   0.556
 1300SOL    OH220154   4.262   4.002   1.863
 1300SOL     H120155   4.185   3.955   1.833
 1300SOL     H220156   4.280   3.966   1.950
 1301SOL    OH220157   4.862   5.650   0.386
 1301SOL     H120158   4.836   5.742   0.376
 1301SOL     H220159   4.785   5.600   0.360
 1302SOL    OH220160   5.077   2.964   0.597
 1302SOL     H120161   5.073   3.004   0.510
 1302SOL     H220162   5.041   3.031   0.656
 1303SOL    OH220163   5.426   3.181   6.397
 1303SOL     H120164   5.362   3.241   6.434
 1303SOL     H220165   5.507   3.232   6.393
 1304SOL    OH220166   5.850   4.677   5.819
 1304SOL     H120167   5.806   4.756   5.790
 1304SOL     H220168   5.829   4.669   5.912
 1305SOL    OH220169   0.548   4.167   5.163
 1305SOL     H120170   0.546   4.084   5.114
 1305SOL     H220171   0.600   4.226   5.109
 1306SOL    OH220172   3.556   1.297   1.415
 1306SOL     H120173   3.577   1.369   1.475
 1306SOL     H220174   3.477   1.326   1.370
 1307SOL    OH220175   0.528   3.920   5.053
 1307SOL     H120176   0.438   3.903   5.080
 1307SOL     H220177   0.549   3.848   4.993
 1308SOL    OH220178   6.152   1.401   6.245
 1308SOL     H120179   6.197   1.395   6.330
 1308SOL     H220180   6.198   1.470   6.198
 1309SOL    OH220181   5.568   2.653   4.972
 1309SOL     H120182   5.593   2.599   4.897
 1309SOL     H220183   5.490   2.610   5.007
 1310SOL    OH220184   2.609   1.549   0.456
 1310SOL     H120185   2.586   1.485   0.389
 1310SOL     H220186   2.704   1.543   0.464
 1311SOL    OH220187   1.395   1.365   0.530
 1311SOL     H120188   1.413   1.404   0.615
 1311SOL     H220189   1.480   1.333   0.500
 1312SOL    OH220190   0.479   6.208   6.263
 1312SOL     H120191   0.518   6.198   6.175
 1312SOL     H220192   0.535   6.272   6.306
 1313SOL    OH220193   4.802   6.134   0.483
 1313SOL     H120194   4.716   6.168   0.508
 1313SOL     H220195   4.846   6.117   0.567
 1314SOL    OH220196   5.659   4.915   1.035
 1314SOL     H120197   5.722   4.965   1.087
 1314SOL     H220198   5.582   4.972   1.031
 1315SOL    OH220199   2.639   5.964   0.084
 1315SOL     H120200   2.641   5.977   6.670
 1315SOL     H220201   2.559   6.007   0.113
 1316SOL    OH220202   1.435   4.523   0.981
 1316SOL     H120203   1.402   4.601   0.936
 1316SOL     H220204   1.505   4.557   1.038
 1317SOL    OH220205   4.139   5.952   5.213
 1317SOL     H120206   4.192   5.970   5.136
 1317SOL     H220207   4.119   6.038   5.250
 1318SOL    OH220208   1.484   0.150   0.973
 1318SOL     H120209   1.503   0.220   1.036
 1318SOL     H220210   1.465   0.195   0.891
 1319SOL    OH220211   4.497   2.418   0.508
 1319SOL     H120212   4.441   2.438   0.434
 1319SOL     H220213   4.525   2.327   0.494
 1320SOL    OH220214   2.308   0.162   5.855
 1320SOL     H120215   2.213   0.172   5.849
 1320SOL     H220216   2.329   0.090   5.796
 1321SOL    OH220217   1.745   3.021   6.469
 1321SOL     H120218   1.733   3.068   6.551
 1321SOL     H220219   1.656   2.999   6.440
 1322SOL    OH220220   3.727   1.384   0.481
 1322SOL     H120221   3.816   1.369   0.514
 1322SOL     H220222   3.724   1.477   0.461
 1323SOL    OH220223   2.798   6.044   1.737
 1323SOL     H120224   2.893   6.054   1.743
 1323SOL     H220225   2.770   6.028   1.827
 1324SOL    OH220226   4.028   2.940   5.778
 1324SOL     H120227   4.010   2.848   5.799
 1324SOL     H220228   4.092   2.936   5.707
 1325SOL    OH220229   3.731   4.896   1.670
 1325SOL     H120230   3.769   4.966   1.617
 1325SOL     H220231   3.637   4.908   1.661
 1326SOL    OH220232   4.644   2.259   6.610
 1326SOL     H120233   4.625   2.268   0.023
 1326SOL     H220234   4.608   2.174   6.586
 1327SOL    OH220235   0.530   1.222   0.398
 1327SOL     H120236   0.565   1.168   0.328
 1327SOL     H220237   0.453   1.264   0.360
 1328SOL    OH220238   0.184   4.715   0.178
 1328SOL     H120239   0.168   4.774   0.104
 1328SOL     H220240   0.169   4.770   0.255
 1329SOL    OH220241   5.896   5.943   0.952
 1329SOL     H120242   5.863   6.031   0.937
 1329SOL     H220243   5.900   5.935   1.047
 1330SOL    OH220244   3.262   0.664   6.331
 1330SOL     H120245   3.323   0.591   6.318
 1330SOL     H220246   3.289   0.703   6.414
 1331SOL    OH220247   5.561   0.034   6.283
 1331SOL     H120248   5.530   6.365   6.258
 1331SOL     H220249   5.564   0.032   6.379
 1332SOL    OH220250   3.409   2.755   0.317
 1332SOL     H120251   3.467   2.830   0.330
 1332SOL     H220252   3.339   2.767   0.381
 1333SOL    OH220253   4.938   3.571   0.924
 1333SOL     H120254   4.920   3.477   0.927
 1333SOL     H220255   5.026   3.579   0.960
 1334SOL    OH220256   4.024   4.816   5.211
 1334SOL     H120257   4.104   4.796   5.260
 1334SOL     H220258   4.043   4.898   5.166
 1335SOL    OH220259   3.568   1.760   0.150
 1335SOL     H120260   3.640   1.821   0.135
 1335SOL     H220261   3.607   1.673   0.137
 1336SOL    OH220262   5.368   1.818   0.322
 1336SOL     H120263   5.383   1.817   0.227
 1336SOL     H220264   5.346   1.727   0.343
 1337SOL    OH220265   1.848   4.253   1.466
 1337SOL     H120266   1.840   4.169   1.422
 1337SOL     H220267   1.925   4.243   1.522
 1338SOL    OH220268   2.057   3.913   6.117
 1338SOL     H120269   1.966   3.904   6.146
 1338SOL     H220270   2.077   3.830   6.073
 1339SOL    OH220271   3.384   2.784   5.319
 1339SOL     H120272   3.301   2.832   5.323
 1339SOL     H220273   3.405   2.780   5.226
 1340SOL    OH220274   3.089   0.881   0.176
 1340SOL     H120275   3.083   0.877   0.080
 1340SOL     H220276   3.167   0.934   0.193
 1341SOL    OH220277   2.937   1.792   0.368
 1341SOL     H120278   3.019   1.829   0.335
 1341SOL     H220279   2.929   1.827   0.457
 1342SOL    OH220280   5.007   2.271   5.437
 1342SOL     H120281   4.968   2.342   5.386
 1342SOL     H220282   5.011   2.197   5.377
 1343SOL    OH220283   2.231   4.534   5.980
 1343SOL     H120284   2.138   4.552   5.993
 1343SOL     H220285   2.238   4.507   5.888
 1344SOL    OH220286   2.933   3.418   1.367
 1344SOL     H120287   2.952   3.434   1.275
 1344SOL     H220288   3.003   3.462   1.414
 1345SOL    OH220289   3.142   2.247   0.964
 1345SOL     H120290   3.226   2.234   1.008
 1345SOL     H220291   3.130   2.169   0.910
 1346SOL    OH220292   5.002   3.454   6.640
 1346SOL     H120293   5.013   3.507   6.561
 1346SOL     H220294   5.025   3.514   0.031
 1347SOL    OH220295   6.040   0.571   0.128
 1347SOL     H120296   6.048   0.601   0.218
 1347SOL     H220297   6.094   0.492   0.124
 1348SOL    OH220298   2.891   1.226   1.289
 1348SOL     H120299   2.921   1.149   1.336
 1348SOL     H220300   2.970   1.279   1.277
 1349SOL    OH220301   3.672   3.319   6.152
 1349SOL     H120302   3.734   3.252   6.121
 1349SOL     H220303   3.720   3.402   6.141
 1350SOL    OH220304   3.446   3.983   5.909
 1350SOL     H120305   3.458   3.958   5.817
 1350SOL     H220306   3.359   4.021   5.913
 1351SOL    OH220307   4.828   3.413   5.327
 1351SOL     H120308   4.905   3.440   5.377
 1351SOL     H220309   4.763   3.480   5.346
 1352SOL    OH220310   2.956   0.529   4.932
 1352SOL     H120311   3.026   0.574   4.885
 1352SOL     H220312   2.990   0.521   5.022
 1353SOL    OH220313   0.620   3.626   5.516
 1353SOL     H120314   0.611   3.658   5.605
 1353SOL     H220315   0.617   3.530   5.524
 1354SOL    OH220316   3.134   5.709   6.678
 1354SOL     H120317   3.140   5.804   6.672
 1354SOL     H220318   3.161   5.689   0.087
 1355SOL    OH220319   2.756   5.508   0.678
 1355SOL     H120320   2.757   5.526   0.584
 1355SOL     H220321   2.830   5.557   0.713
 1356SOL    OH220322   4.078   5.482   6.234
 1356SOL     H120323   4.034   5.404   6.198
 1356SOL     H220324   4.125   5.519   6.159
 1357SOL    OH220325   5.320   3.671   0.206
 1357SOL     H120326   5.354   3.758   0.183
 1357SOL     H220327   5.360   3.651   0.290
 1358SOL    OH220328   2.859   5.828   6.405
 1358SOL     H120329   2.882   5.788   6.322
 1358SOL     H220330   2.889   5.918   6.398
 1359SOL    OH220331   3.320   3.665   5.358
 1359SOL     H120332   3.228   3.660   5.385
 1359SOL     H220333   3.325   3.745   5.306
 1360SOL    OH220334   1.213   0.235   0.406
 1360SOL     H120335   1.207   0.317   0.357
 1360SOL     H220336   1.185   0.258   0.494
 1361SOL    OH220337   3.768   1.652   0.415
 1361SOL     H120338   3.853   1.671   0.454
 1361SOL     H220339   3.711   1.723   0.445
 1362SOL    OH220340   1.003   3.347   6.243
 1362SOL     H120341   0.920   3.304   6.265
 1362SOL     H220342   1.070   3.294   6.288
 1363SOL    OH220343   0.177   1.156   5.952
 1363SOL     H120344   0.189   1.234   6.008
 1363SOL     H220345   0.129   1.094   6.007
 1364SOL    OH220346   2.746   4.848   5.830
 1364SOL     H120347   2.832   4.887   5.817
 1364SOL     H220348   2.688   4.897   5.772
 1365SOL    OH220349   0.134   0.740   1.140
 1365SOL     H120350   0.102   0.728   1.051
 1365SOL     H220351   0.056   0.742   1.195
 1366SOL    OH220352   2.531   0.238   6.591
 1366SOL     H120353   2.537   0.328   6.623
 1366SOL     H220354   2.527   0.185   6.671
 1367SOL    OH220355   6.118   1.664   5.704
 1367SOL     H120356   6.069   1.675   5.786
 1367SOL     H220357   6.137   1.754   5.677
 1368SOL    OH220358   4.610   5.055   6.140
 1368SOL     H120359   4.620   5.063   6.235
 1368SOL     H220360   4.517   5.039   6.127
 1369SOL    OH220361   5.768   1.735   6.302
 1369SOL     H120362   5.741   1.649   6.270
 1369SOL     H220363   5.813   1.717   6.385
 1370SOL    OH220364   5.969   5.301   0.148
 1370SOL     H120365   5.926   5.386   0.147
 1370SOL     H220366   5.899   5.239   0.171
 1371SOL    OH220367   1.347   3.146   5.278
 1371SOL     H120368   1.414   3.212   5.298
 1371SOL     H220369   1.392   3.083   5.222
 1372SOL    OH220370   0.161   3.341   6.525
 1372SOL     H120371   0.187   3.346   6.617
 1372SOL     H220372   0.162   3.432   6.495
 1373SOL    OH220373   1.986   6.131   6.062
 1373SOL     H120374   2.031   6.094   5.986
 1373SOL     H220375   2.052   6.130   6.131
 1374SOL    OH220376   1.291   4.279   5.962
 1374SOL     H120377   1.283   4.262   5.868
 1374SOL     H220378   1.298   4.374   5.968
 1375SOL    OH220379   2.713   1.018   0.764
 1375SOL     H120380   2.618   1.021   0.771
 1375SOL     H220381   2.733   0.928   0.742
 1376SOL    OH220382   2.199   4.038   0.999
 1376SOL     H120383   2.273   3.977   1.007
 1376SOL     H220384   2.156   4.034   1.085
 1377SOL    OH220385   2.953   3.343   6.358
 1377SOL     H120386   3.026   3.302   6.311
 1377SOL     H220387   2.975   3.329   6.450
 1378SOL    OH220388   3.689   5.773   0.739
 1378SOL     H120389   3.603   5.810   0.759
 1378SOL     H220390   3.673   5.680   0.723
 1379SOL    OH220391   2.819   5.405   6.609
 1379SOL     H120392   2.740   5.387   6.660
 1379SOL     H220393   2.834   5.499   6.619
 1380SOL    OH220394   3.792   5.549   6.493
 1380SOL     H120395   3.882   5.517   6.499
 1380SOL     H220396   3.739   5.476   6.524
 1381SOL    OH220397   5.201   4.791   0.594
 1381SOL     H120398   5.223   4.801   0.687
 1381SOL     H220399   5.128   4.851   0.580
 1382SOL    OH220400   4.435   6.144   0.130
 1382SOL     H120401   4.347   6.140   0.168
 1382SOL     H220402   4.421   6.175   0.041
 1383SOL    OH220403   4.349   1.148   1.397
 1383SOL     H120404   4.314   1.061   1.382
 1383SOL     H220405   4.401   1.167   1.318
 1384SOL    OH220406   4.555   5.695   6.450
 1384SOL     H120407   4.559   5.692   6.545
 1384SOL     H220408   4.462   5.692   6.429
 1385SOL    OH220409   1.165   5.809   6.219
 1385SOL     H120410   1.174   5.831   6.126
 1385SOL     H220411   1.255   5.794   6.249
 1386SOL    OH220412   4.765   1.963   6.187
 1386SOL     H120413   4.695   1.943   6.124
 1386SOL     H220414   4.760   1.892   6.251
 1387SOL    OH220415   0.201   0.764   6.080
 1387SOL     H120416   0.142   0.839   6.087
 1387SOL     H220417   0.288   0.803   6.071
 1388SOL    OH220418   6.194   4.303   0.278
 1388SOL     H120419   6.121   4.352   0.239
 1388SOL     H220420   6.272   4.351   0.251
 1389SOL    OH220421   1.792   0.954   6.650
 1389SOL     H120422   1.859   0.994   0.025
 1389SOL     H220423   1.793   1.007   6.570
 1390SOL    OH220424   2.704   4.586   5.848
 1390SOL     H120425   2.716   4.681   5.850
 1390SOL     H220426   2.663   4.569   5.763
 1391SOL    OH220427   4.003   4.975   1.075
 1391SOL     H120428   3.915   5.013   1.077
 1391SOL     H220429   4.013   4.941   0.986
 1392SOL    OH220430   4.410   5.412   6.297
 1392SOL     H120431   4.354   5.341   6.266
 1392SOL     H220432   4.433   5.387   6.386
 1393SOL    OH220433   3.163   0.057   1.154
 1393SOL     H120434   3.213   0.032   1.232
 1393SOL     H220435   3.228   0.095   1.095
 1394SOL    OH220436   4.464   4.177   6.313
 1394SOL     H120437   4.556   4.160   6.290
 1394SOL     H220438   4.430   4.227   6.239
 1395SOL    OH220439   2.450   1.236   6.194
 1395SOL     H120440   2.379   1.197   6.245
 1395SOL     H220441   2.492   1.162   6.151
 1396SOL    OH220442   5.866   3.880   5.420
 1396SOL     H120443   5.901   3.798   5.385
 1396SOL     H220444   5.882   3.944   5.350
 1397SOL    OH220445   4.779   1.726   5.225
 1397SOL     H120446   4.739   1.646   5.189
 1397SOL     H220447   4.793   1.781   5.148
 1398SOL    OH220448   1.493   0.224   0.478
 1398SOL     H120449   1.538   0.139   0.486
 1398SOL     H220450   1.410   0.203   0.435
 1399SOL    OH220451   0.908   1.466   0.978
 1399SOL     H120452   0.840   1.432   0.919
 1399SOL     H220453   0.876   1.443   1.065
 1400SOL    OH220454   4.763   0.608   6.066
 1400SOL     H120455   4.695   0.642   6.007
 1400SOL     H220456   4.775   0.678   6.131
 1401SOL    OH220457   1.457   4.607   0.421
 1401SOL     H120458   1.387   4.580   0.362
 1401SOL     H220459   1.532   4.554   0.397
 1402SOL    OH220460   4.888   3.717   1.878
 1402SOL     H120461   4.794   3.703   1.888
 1402SOL     H220462   4.909   3.784   1.944
 1403SOL    OH220463   2.681   1.750   6.161
 1403SOL     H120464   2.596   1.721   6.129
 1403SOL     H220465   2.663   1.832   6.207
 1404SOL    OH220466   3.769   0.493   6.072
 1404SOL     H120467   3.749   0.467   6.162
 1404SOL     H220468   3.846   0.549   6.079
 1405SOL    OH220469   6.034   0.514   0.788
 1405SOL     H120470   5.971   0.481   0.724
 1405SOL     H220471   6.117   0.472   0.763
 1406SOL    OH220472   4.280   3.803   0.771
 1406SOL     H120473   4.218   3.872   0.747
 1406SOL     H220474   4.336   3.794   0.694
 1407SOL    OH220475   6.017   4.073   5.885
 1407SOL     H120476   5.978   3.995   5.924
 1407SOL     H220477   5.942   4.120   5.847
 1408SOL    OH220478   1.206   2.538   6.454
 1408SOL     H120479   1.148   2.464   6.435
 1408SOL     H220480   1.155   2.616   6.430
 1409SOL    OH220481   0.631   1.199   6.205
 1409SOL     H120482   0.624   1.105   6.224
 1409SOL     H220483   0.564   1.239   6.260
 1410SOL    OH220484   5.629   3.826   5.973
 1410SOL     H120485   5.572   3.840   5.897
 1410SOL     H220486   5.569   3.826   6.048
 1411SOL    OH220487   2.761   1.863   5.914
 1411SOL     H120488   2.743   1.954   5.938
 1411SOL     H220489   2.741   1.813   5.993
 1412SOL    OH220490   3.067   3.950   6.419
 1412SOL     H120491   2.991   3.980   6.469
 1412SOL     H220492   3.049   3.979   6.330
 1413SOL    OH220493   4.998   0.072   5.008
 1413SOL     H120494   5.025   0.163   4.997
 1413SOL     H220495   5.070   0.031   5.054
 1414SOL    OH220496   4.664   3.620   5.407
 1414SOL     H120497   4.681   3.649   5.497
 1414SOL     H220498   4.665   3.700   5.355
 1415SOL    OH220499   0.449   4.747   5.050
 1415SOL     H120500   0.528   4.735   5.104
 1415SOL     H220501   0.483   4.773   4.965
 1416SOL    OH220502   1.492   3.865   5.191
 1416SOL     H120503   1.478   3.792   5.130
 1416SOL     H220504   1.468   3.942   5.140
 1417SOL    OH220505   6.007   4.661   1.887
 1417SOL     H120506   6.099   4.682   1.876
 1417SOL     H220507   5.961   4.734   1.846
 1418SOL    OH220508   4.415   6.335   0.575
 1418SOL     H120509   4.470   6.305   0.503
 1418SOL     H220510   4.381   6.255   0.615
 1419SOL    OH220511   5.182   5.913   0.111
 1419SOL     H120512   5.229   5.853   0.168
 1419SOL     H220513   5.101   5.868   0.090
 1420SOL    OH220514   0.786   4.370   6.294
 1420SOL     H120515   0.871   4.392   6.332
 1420SOL     H220516   0.768   4.282   6.326
 1421SOL    OH220517   5.026   3.863   1.285
 1421SOL     H120518   5.116   3.845   1.258
 1421SOL     H220519   4.974   3.857   1.205
 1422SOL    OH220520   4.758   3.386   6.082
 1422SOL     H120521   4.819   3.432   6.024
 1422SOL     H220522   4.796   3.299   6.093
 1423SOL    OH220523   0.878   2.876   6.586
 1423SOL     H120524   0.841   2.929   6.516
 1423SOL     H220525   0.942   2.933   6.628
 1424SOL    OH220526   4.921   5.197   0.940
 1424SOL     H120527   4.889   5.136   1.006
 1424SOL     H220528   4.873   5.278   0.958
 1425SOL    OH220529   1.583   1.923   0.115
 1425SOL     H120530   1.675   1.938   0.098
 1425SOL     H220531   1.582   1.860   0.188
 1426SOL    OH220532   6.056   4.646   5.473
 1426SOL     H120533   6.065   4.730   5.517
 1426SOL     H220534   5.962   4.628   5.474
 1427SOL    OH220535   1.619   4.284   6.244
 1427SOL     H120536   1.693   4.231   6.273
 1427SOL     H220537   1.589   4.329   6.323
 1428SOL    OH220538   2.384   2.153   6.253
 1428SOL     H120539   2.322   2.162   6.325
 1428SOL     H220540   2.392   2.241   6.216
 1429SOL    OH220541   5.078   5.104   6.068
 1429SOL     H120542   4.993   5.142   6.091
 1429SOL     H220543   5.113   5.072   6.151
 1430SOL    OH220544   1.077   2.621   0.609
 1430SOL     H120545   1.062   2.527   0.620
 1430SOL     H220546   1.051   2.660   0.692
 1431SOL    OH220547   5.562   5.180   5.253
 1431SOL     H120548   5.640   5.137   5.219
 1431SOL     H220549   5.491   5.149   5.195
 1432SOL    OH220550   3.572   5.247   5.802
 1432SOL     H120551   3.574   5.301   5.723
 1432SOL     H220552   3.636   5.286   5.861
 1433SOL    OH220553   5.268   2.276   1.475
 1433SOL     H120554   5.347   2.295   1.525
 1433SOL     H220555   5.202   2.337   1.509
 1434SOL    OH220556   1.055   2.757   6.403
 1434SOL     H120557   1.012   2.772   6.319
 1434SOL     H220558   0.988   2.779   6.468
 1435SOL    OH220559   4.813   1.851   0.328
 1435SOL     H120560   4.850   1.892   0.250
 1435SOL     H220561   4.821   1.918   0.396
 1436SOL    OH220562   4.163   1.449   6.573
 1436SOL     H120563   4.177   1.527   6.519
 1436SOL     H220564   4.069   1.447   6.589
 1437SOL    OH220565   0.930   1.754   0.983
 1437SOL     H120566   0.903   1.668   1.014
 1437SOL     H220567   0.945   1.743   0.890
 1438SOL    OH220568   3.630   6.019   6.340
 1438SOL     H120569   3.551   5.977   6.307
 1438SOL     H220570   3.675   5.950   6.389
 1439SOL    OH220571   4.180   1.686   6.439
 1439SOL     H120572   4.088   1.704   6.419
 1439SOL     H220573   4.228   1.759   6.400
 1440SOL    OH220574   0.997   2.744   0.841
 1440SOL     H120575   1.029   2.811   0.903
 1440SOL     H220576   0.955   2.678   0.897
 1441SOL    OH220577   4.764   1.378   5.898
 1441SOL     H120578   4.799   1.290   5.880
 1441SOL     H220579   4.831   1.437   5.865
 1442SOL    OH220580   0.421   3.661   1.496
 1442SOL     H120581   0.476   3.659   1.575
 1442SOL     H220582   0.360   3.589   1.508
 1443SOL    OH220583   0.122   3.127   1.535
 1443SOL     H120584   0.104   3.209   1.488
 1443SOL     H220585   0.187   3.083   1.481
 1444SOL    OH220586   0.723   5.653   0.260
 1444SOL     H120587   0.810   5.613   0.247
 1444SOL     H220588   0.724   5.729   0.202
 1445SOL    OH220589   5.387   4.937   5.633
 1445SOL     H120590   5.352   5.018   5.595
 1445SOL     H220591   5.432   4.966   5.712
 1446SOL    OH220592   1.536   5.935   4.976
 1446SOL     H120593   1.566   5.849   5.007
 1446SOL     H220594   1.594   5.955   4.903
 1447SOL    OH220595   3.935   3.372   1.942
 1447SOL     H120596   3.911   3.369   2.035
 1447SOL     H220597   3.852   3.372   1.896
 1448SOL    OH220598   3.610   4.639   6.036
 1448SOL     H120599   3.535   4.621   6.093
 1448SOL     H220600   3.571   4.673   5.955
 1449SOL    OH220601   4.570   1.052   1.721
 1449SOL     H120602   4.475   1.047   1.735
 1449SOL     H220603   4.602   0.964   1.741
 1450SOL    OH220604   6.068   3.648   5.551
 1450SOL     H120605   6.160   3.622   5.552
 1450SOL     H220606   6.044   3.652   5.459
 1451SOL    OH220607   0.974   6.080   5.603
 1451SOL     H120608   0.945   6.165   5.638
 1451SOL     H220609   0.892   6.031   5.591
 1452SOL    OH220610   2.928   2.381   1.072
 1452SOL     H120611   2.906   2.316   1.139
 1452SOL     H220612   3.004   2.345   1.027
 1453SOL    OH220613   4.822   2.309   0.649
 1453SOL     H120614   4.878   2.325   0.725
 1453SOL     H220615   4.824   2.391   0.600
 1454SOL    OH220616   5.638   5.342   0.070
 1454SOL     H120617   5.660   5.253   0.099
 1454SOL     H220618   5.542   5.344   0.070
 1455SOL    OH220619   0.821   0.972   6.523
 1455SOL     H120620   0.820   1.046   6.584
 1455SOL     H220621   0.750   0.990   6.462
 1456SOL    OH220622   0.947   1.412   0.010
 1456SOL     H120623   1.021   1.435   0.066
 1456SOL     H220624   0.892   1.490   0.010
 1457SOL    OH220625   2.415   2.613   0.100
 1457SOL     H120626   2.346   2.550   0.077
 1457SOL     H220627   2.437   2.592   0.191
 1458SOL    OH220628   2.315   3.347   6.323
 1458SOL     H120629   2.269   3.430   6.308
 1458SOL     H220630   2.407   3.368   6.309
 1459SOL    OH220631   0.399   1.136   0.627
 1459SOL     H120632   0.458   1.153   0.553
 1459SOL     H220633   0.361   1.222   0.646
 1460SOL    OH220634   1.326   2.244   1.701
 1460SOL     H120635   1.414   2.281   1.690
 1460SOL     H220636   1.326   2.206   1.789
 1461SOL    OH220637   1.710   5.529   6.006
 1461SOL     H120638   1.619   5.542   6.032
 1461SOL     H220639   1.758   5.523   6.088
 1462SOL    OH220640   1.214   2.582   5.009
 1462SOL     H120641   1.178   2.495   4.991
 1462SOL     H220642   1.175   2.638   4.941
 1463SOL    OH220643   3.123   3.509   1.547
 1463SOL     H120644   3.206   3.527   1.591
 1463SOL     H220645   3.057   3.555   1.598
 1464SOL    OH220646   5.911   1.380   6.378
 1464SOL     H120647   5.991   1.387   6.326
 1464SOL     H220648   5.886   1.288   6.372
 1465SOL    OH220649   4.655   3.183   0.014
 1465SOL     H120650   4.691   3.206   6.608
 1465SOL     H220651   4.561   3.196   0.005
 1466SOL    OH220652   5.966   1.433   0.576
 1466SOL     H120653   5.874   1.416   0.559
 1466SOL     H220654   5.968   1.523   0.609
 1467SOL    OH220655   4.899   1.142   5.816
 1467SOL     H120656   4.875   1.125   5.725
 1467SOL     H220657   4.880   1.061   5.862
 1468SOL    OH220658   5.697   1.175   6.665
 1468SOL     H120659   5.676   1.264   0.009
 1468SOL     H220660   5.792   1.176   6.650
 1469SOL    OH220661   2.163   0.500   0.473
 1469SOL     H120662   2.133   0.564   0.538
 1469SOL     H220663   2.194   0.554   0.400
 1470SOL    OH220664   0.931   1.379   6.419
 1470SOL     H120665   0.838   1.361   6.406
 1470SOL     H220666   0.940   1.394   6.513
 1471SOL    OH220667   5.131   3.653   0.644
 1471SOL     H120668   5.043   3.677   0.672
 1471SOL     H220669   5.128   3.558   0.629
 1472SOL    OH220670   5.840   3.375   6.212
 1472SOL     H120671   5.908   3.309   6.201
 1472SOL     H220672   5.886   3.455   6.237
 1473SOL    OH220673   2.714   1.854   1.228
 1473SOL     H120674   2.729   1.876   1.320
 1473SOL     H220675   2.628   1.891   1.208
 1474SOL    OH220676   4.789   1.023   0.806
 1474SOL     H120677   4.699   0.994   0.825
 1474SOL     H220678   4.781   1.072   0.725
 1475SOL    OH220679   0.504   5.127   4.397
 1475SOL     H120680   0.597   5.128   4.374
 1475SOL     H220681   0.475   5.038   4.378
 1476SOL    OH220682   3.351   1.592   5.640
 1476SOL     H120683   3.352   1.581   5.545
 1476SOL     H220684   3.308   1.513   5.673
 1477SOL    OH220685   2.523   3.998   6.616
 1477SOL     H120686   2.514   4.093   6.618
 1477SOL     H220687   2.537   3.977   6.524
 1478SOL    OH220688   6.109   4.462   0.965
 1478SOL     H120689   6.162   4.501   1.035
 1478SOL     H220690   6.098   4.371   0.992
 1479SOL    OH220691   1.733   6.374   6.399
 1479SOL     H120692   1.639   6.358   6.399
 1479SOL     H220693   1.772   6.293   6.365
 1480SOL    OH220694   2.968   6.026   0.450
 1480SOL     H120695   2.873   6.039   0.439
 1480SOL     H220696   3.007   6.103   0.408
 1481SOL    OH220697   2.982   1.084   5.820
 1481SOL     H120698   2.945   1.000   5.793
 1481SOL     H220699   3.071   1.063   5.847
 1482SOL    OH220700   3.335   6.345   5.700
 1482SOL     H120701   3.423   6.361   5.665
 1482SOL     H220702   3.305   6.267   5.654
 1483SOL    OH220703   0.410   3.222   0.420
 1483SOL     H120704   0.382   3.248   0.333
 1483SOL     H220705   0.329   3.205   0.468
 1484SOL    OH220706   0.285   3.176   6.344
 1484SOL     H120707   0.258   3.086   6.365
 1484SOL     H220708   0.232   3.231   6.401
 1485SOL    OH220709   5.110   2.213   6.632
 1485SOL     H120710   5.031   2.263   6.613
 1485SOL     H220711   5.126   2.161   6.553
 1486SOL    OH220712   2.335   2.897   1.161
 1486SOL     H120713   2.269   2.926   1.223
 1486SOL     H220714   2.285   2.858   1.089
 1487SOL    OH220715   2.781   0.457   0.215
 1487SOL     H120716   2.773   0.448   0.310
 1487SOL     H220717   2.855   0.517   0.202
 1488SOL    OH220718   4.591   0.212   5.834
 1488SOL     H120719   4.657   0.155   5.875
 1488SOL     H220720   4.539   0.245   5.907
 1489SOL    OH220721   0.564   0.956   5.806
 1489SOL     H120722   0.583   0.929   5.716
 1489SOL     H220723   0.644   0.936   5.854
 1490SOL    OH220724   3.014   3.842   1.375
 1490SOL     H120725   3.027   3.841   1.470
 1490SOL     H220726   3.012   3.935   1.352
 1491SOL    OH220727   5.192   1.152   0.914
 1491SOL     H120728   5.277   1.168   0.872
 1491SOL     H220729   5.214   1.101   0.992
 1492SOL    OH220730   4.563   2.349   1.022
 1492SOL     H120731   4.484   2.321   1.068
 1492SOL     H220732   4.532   2.377   0.936
 1493SOL    OH220733   4.621   4.640   0.054
 1493SOL     H120734   4.569   4.581   6.680
 1493SOL     H220735   4.566   4.657   0.130
 1494SOL    OH220736   2.464   1.579   5.265
 1494SOL     H120737   2.506   1.643   5.322
 1494SOL     H220738   2.536   1.522   5.237
 1495SOL    OH220739   2.869   2.735   0.589
 1495SOL     H120740   2.918   2.749   0.670
 1495SOL     H220741   2.809   2.663   0.608
 1496SOL    OH220742   3.908   5.248   5.067
 1496SOL     H120743   3.952   5.331   5.048
 1496SOL     H220744   3.815   5.270   5.071
 1497SOL    OH220745   4.575   4.582   1.572
 1497SOL     H120746   4.537   4.640   1.506
 1497SOL     H220747   4.613   4.510   1.521
 1498SOL    OH220748   1.177   1.868   5.333
 1498SOL     H120749   1.267   1.839   5.315
 1498SOL     H220750   1.124   1.789   5.322
 1499SOL    OH220751   1.398   3.320   1.691
 1499SOL     H120752   1.337   3.387   1.660
 1499SOL     H220753   1.348   3.239   1.687
 1500SOL    OH220754   3.009   1.897   4.788
 1500SOL     H120755   2.969   1.826   4.738
 1500SOL     H220756   2.937   1.932   4.840
 1501SOL    OH220757   0.819   5.011   1.038
 1501SOL     H120758   0.806   4.950   1.110
 1501SOL     H220759   0.780   5.093   1.069
 1502SOL    OH220760   3.205   4.112   5.944
 1502SOL     H120761   3.110   4.112   5.938
 1502SOL     H220762   3.227   4.202   5.967
 1503SOL    OH220763   0.652   4.927   6.026
 1503SOL     H120764   0.630   5.019   6.008
 1503SOL     H220765   0.745   4.921   6.006
 1504SOL    OH220766   1.620   1.619   4.963
 1504SOL     H120767   1.679   1.565   5.015
 1504SOL     H220768   1.615   1.702   5.011
 1505SOL    OH220769   3.776   2.842   6.458
 1505SOL     H120770   3.735   2.762   6.425
 1505SOL     H220771   3.864   2.815   6.482
 1506SOL    OH220772   2.905   6.366   1.116
 1506SOL     H120773   2.868   0.002   1.046
 1506SOL     H220774   2.995   6.397   1.125
 1507SOL    OH220775   5.563   3.003   0.626
 1507SOL     H120776   5.641   2.949   0.638
 1507SOL     H220777   5.499   2.944   0.586
 1508SOL    OH220778   6.126   2.962   6.353
 1508SOL     H120779   6.196   2.902   6.328
 1508SOL     H220780   6.171   3.043   6.379
 1509SOL    OH220781   3.450   3.089   1.108
 1509SOL     H120782   3.368   3.070   1.062
 1509SOL     H220783   3.486   3.002   1.129
 1510SOL    OH220784   1.432   2.133   5.945
 1510SOL     H120785   1.410   2.055   5.995
 1510SOL     H220786   1.450   2.200   6.010
 1511SOL    OH220787   6.037   5.696   6.012
 1511SOL     H120788   6.076   5.710   6.098
 1511SOL     H220789   5.974   5.625   6.025
 1512SOL    OH220790   3.306   3.547   0.428
 1512SOL     H120791   3.393   3.520   0.458
 1512SOL     H220792   3.260   3.465   0.410
 1513SOL    OH220793   1.883   4.260   5.853
 1513SOL     H120794   1.947   4.198   5.818
 1513SOL     H220795   1.884   4.245   5.948
 1514SOL    OH220796   5.932   0.659   6.375
 1514SOL     H120797   6.018   0.617   6.387
 1514SOL     H220798   5.883   0.635   6.454
 1515SOL    OH220799   1.574   5.075   5.442
 1515SOL     H120800   1.531   5.100   5.361
 1515SOL     H220801   1.558   5.148   5.502
 1516SOL    OH220802   3.361   4.371   1.309
 1516SOL     H120803   3.324   4.403   1.392
 1516SOL     H220804   3.453   4.353   1.330
 1517SOL    OH220805   3.172   6.132   5.312
 1517SOL     H120806   3.156   6.213   5.264
 1517SOL     H220807   3.131   6.064   5.259
 1518SOL    OH220808   1.871   1.390   0.063
 1518SOL     H120809   1.854   1.452   0.134
 1518SOL     H220810   1.903   1.444   6.672
 1519SOL    OH220811   4.771   2.819   0.424
 1519SOL     H120812   4.776   2.879   0.349
 1519SOL     H220813   4.773   2.877   0.501
 1520SOL    OH220814   1.837   5.207   6.300
 1520SOL     H120815   1.859   5.163   6.383
 1520SOL     H220816   1.750   5.173   6.277
 1521SOL    OH220817   3.887   2.792   0.418
 1521SOL     H120818   3.837   2.842   0.483
 1521SOL     H220819   3.880   2.844   0.337
 1522SOL    OH220820   5.943   4.744   1.224
 1522SOL     H120821   5.963   4.732   1.317
 1522SOL     H220822   5.899   4.662   1.199
 1523SOL    OH220823   5.415   5.622   0.061
 1523SOL     H120824   5.385   5.660   6.659
 1523SOL     H220825   5.397   5.528   0.052
 1524SOL    OH220826   1.078   3.827   1.187
 1524SOL     H120827   1.158   3.878   1.174
 1524SOL     H220828   1.013   3.892   1.214
 1525SOL    OH220829   1.486   4.237   1.254
 1525SOL     H120830   1.519   4.154   1.218
 1525SOL     H220831   1.562   4.295   1.253
 1526SOL    OH220832   5.540   2.491   0.039
 1526SOL     H120833   5.513   2.562   0.097
 1526SOL     H220834   5.469   2.428   0.044
 1527SOL    OH220835   3.108   3.700   5.730
 1527SOL     H120836   3.172   3.686   5.800
 1527SOL     H220837   3.034   3.644   5.754
 1528SOL    OH220838   4.251   5.208   6.224
 1528SOL     H120839   4.229   5.186   6.134
 1528SOL     H220840   4.191   5.155   6.277
 1529SOL    OH220841   1.125   0.231   6.569
 1529SOL     H120842   1.073   0.176   6.511
 1529SOL     H220843   1.216   0.211   6.546
 1530SOL    OH220844   0.007   1.541   5.856
 1530SOL     H120845   0.087   1.520   5.808
 1530SOL     H220846   6.255   1.585   5.792
 1531SOL    OH220847   6.155   2.035   0.612
 1531SOL     H120848   6.160   2.031   0.516
 1531SOL     H220849   6.226   2.093   0.638
 1532SOL    OH220850   6.018   2.398   5.935
 1532SOL     H120851   6.054   2.378   6.021
 1532SOL     H220852   5.924   2.402   5.948
 1533SOL    OH220853   0.255   0.400   6.610
 1533SOL     H120854   0.312   0.401   6.533
 1533SOL     H220855   0.311   0.374   0.001
 1534SOL    OH220856   5.859   5.715   6.271
 1534SOL     H120857   5.855   5.763   6.353
 1534SOL     H220858   5.857   5.782   6.203
 1535SOL    OH220859   4.192   2.356   0.818
 1535SOL     H120860   4.172   2.378   0.909
 1535SOL     H220861   4.282   2.387   0.805
 1536SOL    OH220862   0.312   1.887   0.554
 1536SOL     H120863   0.357   1.969   0.574
 1536SOL     H220864   0.263   1.867   0.633
 1537SOL    OH220865   5.327   2.826   6.545
 1537SOL     H120866   5.408   2.876   6.546
 1537SOL     H220867   5.303   2.815   6.637
 1538SOL    OH220868   2.390   1.841   0.828
 1538SOL     H120869   2.347   1.890   0.898
 1538SOL     H220870   2.484   1.846   0.849
 1539SOL    OH220871   6.006   1.431   6.629
 1539SOL     H120872   5.965   1.423   6.543
 1539SOL     H220873   6.005   1.342   6.664
 1540SOL    OH220874   5.442   3.950   0.990
 1540SOL     H120875   5.403   3.881   0.936
 1540SOL     H220876   5.457   4.022   0.929
 1541SOL    OH220877   4.033   1.551   1.399
 1541SOL     H120878   3.996   1.631   1.438
 1541SOL     H220879   4.087   1.514   1.468
 1542SOL    OH220880   3.791   1.927   0.142
 1542SOL     H120881   3.834   1.940   0.227
 1542SOL     H220882   3.852   1.874   0.092
 1543SOL    OH220883   1.420   3.888   5.537
 1543SOL     H120884   1.456   3.840   5.611
 1543SOL     H220885   1.454   3.843   5.460
 1544SOL    OH220886   4.177   5.706   4.934
 1544SOL     H120887   4.196   5.741   4.847
 1544SOL     H220888   4.195   5.779   4.994
 1545SOL    OH220889   5.226   1.548   0.867
 1545SOL     H120890   5.140   1.587   0.853
 1545SOL     H220891   5.226   1.521   0.959
 1546SOL    OH220892   4.599   0.959   5.468
 1546SOL     H120893   4.543   0.882   5.473
 1546SOL     H220894   4.562   1.012   5.398
 1547SOL    OH220895   3.960   1.569   4.909
 1547SOL     H120896   4.047   1.532   4.892
 1547SOL     H220897   3.966   1.605   4.997
 1548SOL    OH220898   4.260   4.782   5.345
 1548SOL     H120899   4.307   4.733   5.277
 1548SOL     H220900   4.278   4.734   5.425
 1549SOL    OH220901   0.632   2.433   0.612
 1549SOL     H120902   0.696   2.440   0.541
 1549SOL     H220903   0.563   2.496   0.588
 1550SOL    OH220904   1.571   3.367   6.182
 1550SOL     H120905   1.650   3.346   6.134
 1550SOL     H220906   1.598   3.371   6.274
 1551SOL    OH220907   5.298   0.208   4.593
 1551SOL     H120908   5.354   0.259   4.534
 1551SOL     H220909   5.352   0.192   4.670
 1552SOL    OH220910   3.723   5.926   5.481
 1552SOL     H120911   3.760   5.890   5.562
 1552SOL     H220912   3.774   6.005   5.465
 1553SOL    OH220913   5.592   0.395   1.677
 1553SOL     H120914   5.565   0.318   1.626
 1553SOL     H220915   5.680   0.374   1.708
 1554SOL    OH220916   4.420   3.908   6.342
 1554SOL     H120917   4.446   4.000   6.345
 1554SOL     H220918   4.335   3.909   6.298
 1555SOL    OH220919   1.624   3.779   0.393
 1555SOL     H120920   1.687   3.716   0.357
 1555SOL     H220921   1.645   3.861   0.350
 1556SOL    OH220922   1.160   2.432   6.103
 1556SOL     H120923   1.077   2.479   6.107
 1556SOL     H220924   1.223   2.497   6.072
 1557SOL    OH220925   3.938   0.822   0.367
 1557SOL     H120926   3.913   0.775   0.446
 1557SOL     H220927   4.028   0.851   0.384
 1558SOL    OH220928   4.378   3.230   6.648
 1558SOL     H120929   4.361   3.206   0.058
 1558SOL     H220930   4.314   3.298   6.628
 1559SOL    OH220931   2.777   3.011   0.566
 1559SOL     H120932   2.805   2.920   0.559
 1559SOL     H220933   2.794   3.049   0.480
 1560SOL    OH220934   3.200   2.940   5.908
 1560SOL     H120935   3.196   3.028   5.945
 1560SOL     H220936   3.185   2.952   5.814
 1561SOL    OH220937   3.766   4.515   5.441
 1561SOL     H120938   3.851   4.524   5.484
 1561SOL     H220939   3.777   4.557   5.356
 1562SOL    OH220940   6.259   0.377   0.712
 1562SOL     H120941   6.239   0.286   0.690
 1562SOL     H220942   0.046   0.390   0.681
 1563SOL    OH220943   6.074   0.316   0.459
 1563SOL     H120944   6.115   0.244   0.506
 1563SOL     H220945   6.147   0.374   0.436
 1564SOL    OH220946   1.179   3.061   5.473
 1564SOL     H120947   1.236   3.090   5.402
 1564SOL     H220948   1.093   3.094   5.450
 1565SOL    OH220949   3.615   0.502   0.394
 1565SOL     H120950   3.709   0.485   0.399
 1565SOL     H220951   3.583   0.446   0.324
 1566SOL    OH220952   5.862   4.241   1.018
 1566SOL     H120953   5.808   4.212   1.092
 1566SOL     H220954   5.952   4.226   1.046
 1567SOL    OH220955   2.509   2.963   6.043
 1567SOL     H120956   2.572   3.023   6.082
 1567SOL     H220957   2.486   3.003   5.959
 1568SOL    OH220958   6.071   0.813   0.002
 1568SOL     H120959   6.063   0.729   0.048
 1568SOL     H220960   5.981   0.836   6.659
 1569SOL    OH220961   3.961   3.814   0.234
 1569SOL     H120962   4.008   3.776   0.159
 1569SOL     H220963   3.870   3.789   0.219
 1570SOL    OH220964   0.433   5.797   5.786
 1570SOL     H120965   0.487   5.875   5.781
 1570SOL     H220966   0.479   5.732   5.733
 1571SOL    OH220967   2.100   2.788   0.158
 1571SOL     H120968   2.120   2.713   0.101
 1571SOL     H220969   2.180   2.841   0.155
 1572SOL    OH220970   2.604   3.191   1.505
 1572SOL     H120971   2.661   3.259   1.542
 1572SOL     H220972   2.519   3.234   1.495
 1573SOL    OH220973   2.553   0.700   6.384
 1573SOL     H120974   2.507   0.616   6.387
 1573SOL     H220975   2.582   0.715   6.474
 1574SOL    OH220976   2.659   5.514   5.772
 1574SOL     H120977   2.732   5.454   5.789
 1574SOL     H220978   2.604   5.508   5.849
 1575SOL    OH220979   4.346   4.632   5.557
 1575SOL     H120980   4.349   4.537   5.550
 1575SOL     H220981   4.437   4.659   5.568
 1576SOL    OH220982   3.779   2.273   5.361
 1576SOL     H120983   3.864   2.282   5.404
 1576SOL     H220984   3.799   2.234   5.275
 1577SOL    OH220985   3.051   0.417   6.598
 1577SOL     H120986   3.012   0.408   6.511
 1577SOL     H220987   3.045   0.330   6.636
 1578SOL    OH220988   2.243   1.150   1.441
 1578SOL     H120989   2.162   1.200   1.445
 1578SOL     H220990   2.215   1.059   1.435
 1579SOL    OH220991   3.985   3.205   6.301
 1579SOL     H120992   3.916   3.175   6.360
 1579SOL     H220993   3.950   3.187   6.213
 1580SOL    OH220994   3.399   1.017   0.609
 1580SOL     H120995   3.440   1.097   0.574
 1580SOL     H220996   3.305   1.033   0.601
 1581SOL    OH220997   4.261   2.110   6.639
 1581SOL     H120998   4.315   2.139   6.565
 1581SOL     H220999   4.184   2.071   6.599
 1582SOL    OH221000   3.155   4.396   0.304
 1582SOL     H121001   3.238   4.352   0.284
 1582SOL     H221002   3.179   4.486   0.324
 1583SOL    OH221003   5.661   0.298   5.551
 1583SOL     H121004   5.606   0.252   5.487
 1583SOL     H221005   5.728   0.341   5.498
 1584SOL    OH221006   1.662   4.429   0.329
 1584SOL     H121007   1.729   4.467   0.273
 1584SOL     H221008   1.615   4.367   0.273
 1585SOL    OH221009   1.505   0.201   0.050
 1585SOL     H121010   1.452   0.184   6.653
 1585SOL     H221011   1.531   0.292   0.043
 1586SOL    OH221012   2.081   0.528   5.978
 1586SOL     H121013   2.045   0.506   5.893
 1586SOL     H221014   2.151   0.591   5.960
 1587SOL    OH221015   4.324   2.136   1.547
 1587SOL     H121016   4.334   2.222   1.505
 1587SOL     H221017   4.414   2.105   1.559
 1588SOL    OH221018   2.902   0.080   0.368
 1588SOL     H121019   2.829   0.084   0.431
 1588SOL     H221020   2.863   0.109   0.285
 1589SOL    OH221021   4.913   4.411   1.035
 1589SOL     H121022   4.957   4.496   1.032
 1589SOL     H221023   4.985   4.347   1.034
 1590SOL    OH221024   4.173   5.804   5.443
 1590SOL     H121025   4.133   5.864   5.507
 1590SOL     H221026   4.171   5.853   5.361
 1591SOL    OH221027   3.184   1.811   5.622
 1591SOL     H121028   3.169   1.813   5.527
 1591SOL     H221029   3.255   1.748   5.634
 1592SOL    OH221030   5.982   2.614   0.500
 1592SOL     H121031   5.939   2.543   0.548
 1592SOL     H221032   5.909   2.664   0.463
 1593SOL    OH221033   0.623   1.419   5.126
 1593SOL     H121034   0.712   1.402   5.158
 1593SOL     H221035   0.566   1.376   5.190
 1594SOL    OH221036   4.182   0.253   6.510
 1594SOL     H121037   4.135   0.215   6.584
 1594SOL     H221038   4.212   0.178   6.459
 1595SOL    OH221039   4.859   4.014   6.005
 1595SOL     H121040   4.939   3.963   6.020
 1595SOL     H221041   4.824   3.979   5.923
 1596SOL    OH221042   6.059   5.181   6.591
 1596SOL     H121043   6.151   5.166   6.611
 1596SOL     H221044   6.023   5.221   6.670
 1597SOL    OH221045   5.368   4.511   6.450
 1597SOL     H121046   5.403   4.527   6.363
 1597SOL     H221047   5.364   4.598   6.490
 1598SOL    OH221048   1.556   5.155   1.635
 1598SOL     H121049   1.606   5.073   1.634
 1598SOL     H221050   1.617   5.220   1.671
 1599SOL    OH221051   2.434   5.568   5.475
 1599SOL     H121052   2.453   5.566   5.381
 1599SOL     H221053   2.503   5.622   5.512
 1600SOL    OH221054   1.155   3.527   0.595
 1600SOL     H121055   1.158   3.617   0.563
 1600SOL     H221056   1.106   3.479   0.528
 1601SOL    OH221057   4.039   4.070   1.077
 1601SOL     H121058   4.120   4.089   1.029
 1601SOL     H221059   3.995   4.155   1.082
 1602SOL    OH221060   4.673   0.784   0.244
 1602SOL     H121061   4.646   0.710   0.298
 1602SOL     H221062   4.711   0.846   0.306
 1603SOL    OH221063   0.591   1.099   0.158
 1603SOL     H121064   0.680   1.094   0.124
 1603SOL     H221065   0.556   1.181   0.124
 1604SOL    OH221066   4.861   4.960   1.374
 1604SOL     H121067   4.885   4.868   1.390
 1604SOL     H221068   4.830   4.992   1.458
 1605SOL    OH221069   1.020   0.589   5.714
 1605SOL     H121070   1.001   0.559   5.803
 1605SOL     H221071   1.070   0.517   5.675
 1606SOL    OH221072   5.464   2.783   5.875
 1606SOL     H121073   5.404   2.853   5.849
 1606SOL     H221074   5.527   2.778   5.803
 1607SOL    OH221075   2.574   3.532   1.580
 1607SOL     H121076   2.607   3.608   1.629
 1607SOL     H221077   2.493   3.508   1.625
 1608SOL    OH221078   2.831   6.216   6.144
 1608SOL     H121079   2.880   6.165   6.080
 1608SOL     H221080   2.857   6.306   6.128
 1609SOL    OH221081   3.493   6.201   6.493
 1609SOL     H121082   3.556   6.153   6.440
 1609SOL     H221083   3.413   6.148   6.491
 1610SOL    OH221084   0.425   3.666   5.940
 1610SOL     H121085   0.494   3.677   5.875
 1610SOL     H221086   0.425   3.747   5.991
 1611SOL    OH221087   5.800   1.446   5.517
 1611SOL     H121088   5.797   1.475   5.426
 1611SOL     H221089   5.739   1.373   5.521
 1612SOL    OH221090   1.331   2.291   0.091
 1612SOL     H121091   1.309   2.379   0.062
 1612SOL     H221092   1.253   2.260   0.136
 1613SOL    OH221093   4.220   1.521   0.765
 1613SOL     H121094   4.141   1.468   0.771
 1613SOL     H221095   4.274   1.494   0.839
 1614SOL    OH221096   0.869   0.190   0.252
 1614SOL     H121097   0.936   0.124   0.269
 1614SOL     H221098   0.914   0.257   0.201
 1615SOL    OH221099   3.230   5.430   0.364
 1615SOL     H121100   3.259   5.367   0.298
 1615SOL     H221101   3.213   5.510   0.314
 1616SOL    OH221102   2.430   6.092   6.353
 1616SOL     H121103   2.504   6.061   6.405
 1616SOL     H221104   2.469   6.123   6.271
 1617SOL    OH221105   6.037   1.602   5.968
 1617SOL     H121106   5.959   1.547   5.964
 1617SOL     H221107   6.110   1.541   5.954
 1618SOL    OH221108   5.227   2.389   1.794
 1618SOL     H121109   5.193   2.361   1.880
 1618SOL     H221110   5.322   2.381   1.803
 1619SOL    OH221111   0.984   5.663   5.413
 1619SOL     H121112   0.933   5.662   5.332
 1619SOL     H221113   1.050   5.731   5.399
 1620SOL    OH221114   2.278   5.769   0.531
 1620SOL     H121115   2.253   5.685   0.570
 1620SOL     H221116   2.373   5.769   0.535
 1621SOL    OH221117   2.247   3.440   0.910
 1621SOL     H121118   2.248   3.414   1.002
 1621SOL     H221119   2.308   3.379   0.867
 1622SOL    OH221120   6.217   2.856   0.991
 1622SOL     H121121   6.265   2.938   0.980
 1622SOL     H221122   6.281   2.795   1.027
 1623SOL    OH221123   5.316   5.300   0.319
 1623SOL     H121124   5.237   5.320   0.369
 1623SOL     H221125   5.378   5.266   0.384
 1624SOL    OH221126   5.428   0.220   0.059
 1624SOL     H121127   5.359   0.160   0.087
 1624SOL     H221128   5.389   0.307   0.069
 1625SOL    OH221129   4.242   1.489   0.409
 1625SOL     H121130   4.194   1.522   0.333
 1625SOL     H221131   4.271   1.568   0.455
 1626SOL    OH221132   5.844   5.888   6.036
 1626SOL     H121133   5.812   5.921   5.952
 1626SOL     H221134   5.917   5.831   6.013
 1627SOL    OH221135   4.389   0.118   1.509
 1627SOL     H121136   4.376   0.209   1.482
 1627SOL     H221137   4.463   0.121   1.569
 1628SOL    OH221138   3.673   5.710   1.785
 1628SOL     H121139   3.768   5.702   1.779
 1628SOL     H221140   3.658   5.803   1.800
 1629SOL    OH221141   5.218   4.111   6.116
 1629SOL     H121142   5.313   4.121   6.123
 1629SOL     H221143   5.185   4.130   6.203
 1630SOL    OH221144   6.168   3.069   0.019
 1630SOL     H121145   6.090   3.022   6.669
 1630SOL     H221146   6.146   3.094   0.109
 1631SOL    OH221147   0.455   4.185   6.303
 1631SOL     H121148   0.376   4.135   6.320
 1631SOL     H221149   0.443   4.220   6.215
 1632SOL    OH221150   4.890   2.465   5.283
 1632SOL     H121151   4.922   2.548   5.248
 1632SOL     H221152   4.873   2.411   5.206
 1633SOL    OH221153   5.232   2.788   6.146
 1633SOL     H121154   5.294   2.860   6.135
 1633SOL     H221155   5.166   2.803   6.079
 1634SOL    OH221156   0.815   3.845   4.823
 1634SOL     H121157   0.755   3.775   4.850
 1634SOL     H221158   0.757   3.918   4.800
 1635SOL    OH221159   0.760   3.612   0.351
 1635SOL     H121160   0.727   3.591   0.264
 1635SOL     H221161   0.686   3.594   0.410
 1636SOL    OH221162   0.967   2.442   6.681
 1636SOL     H121163   1.046   2.491   0.020
 1636SOL     H221164   0.987   2.394   6.600
 1637SOL    OH221165   2.900   4.886   0.297
 1637SOL     H121166   2.857   4.812   0.340
 1637SOL     H221167   2.912   4.950   0.367
 1638SOL    OH221168   1.312   5.996   5.133
 1638SOL     H121169   1.250   6.037   5.073
 1638SOL     H221170   1.392   5.985   5.082
 1639SOL    OH221171   2.475   0.387   0.348
 1639SOL     H121172   2.485   0.403   0.442
 1639SOL     H221173   2.469   0.474   0.309
 1640SOL    OH221174   4.335   5.643   5.599
 1640SOL     H121175   4.285   5.702   5.542
 1640SOL     H221176   4.275   5.570   5.615
 1641SOL    OH221177   2.553   2.132   5.031
 1641SOL     H121178   2.492   2.206   5.031
 1641SOL     H221179   2.612   2.149   5.104
 1642SOL    OH221180   1.082   6.340   6.405
 1642SOL     H121181   1.065   6.376   6.318
 1642SOL     H221182   1.119   6.253   6.388
 1643SOL    OH221183   2.335   2.942   0.140
 1643SOL     H121184   2.410   2.909   0.189
 1643SOL     H221185   2.368   2.955   0.052
 1644SOL    OH221186   3.968   3.172   6.673
 1644SOL     H121187   3.903   3.164   6.604
 1644SOL     H221188   3.946   3.254   0.037
 1645SOL    OH221189   0.995   5.255   0.720
 1645SOL     H121190   1.022   5.331   0.669
 1645SOL     H221191   0.911   5.279   0.758
 1646SOL    OH221192   5.799   2.455   1.642
 1646SOL     H121193   5.838   2.379   1.600
 1646SOL     H221194   5.869   2.493   1.694
 1647SOL    OH221195   4.805   2.520   6.015
 1647SOL     H121196   4.881   2.464   6.031
 1647SOL     H221197   4.779   2.550   6.103
 1648SOL    OH221198   4.359   1.498   0.079
 1648SOL     H121199   4.287   1.493   0.015
 1648SOL     H221200   4.361   1.410   0.118
 1649SOL    OH221201   2.163   0.688   0.242
 1649SOL     H121202   2.091   0.726   0.293
 1649SOL     H221203   2.120   0.635   0.176
 1650SOL    OH221204   3.001   4.870   5.106
 1650SOL     H121205   3.053   4.905   5.034
 1650SOL     H221206   2.990   4.778   5.085
 1651SOL    OH221207   1.176   0.499   5.317
 1651SOL     H121208   1.089   0.473   5.287
 1651SOL     H221209   1.219   0.533   5.238
 1652SOL    OH221210   2.609   4.845   6.589
 1652SOL     H121211   2.585   4.778   6.525
 1652SOL     H221212   2.654   4.912   6.537
 1653SOL    OH221213   2.015   3.147   0.757
 1653SOL     H121214   1.989   3.157   0.849
 1653SOL     H221215   2.052   3.059   0.751
 1654SOL    OH221216   2.360   3.319   1.476
 1654SOL     H121217   2.272   3.339   1.444
 1654SOL     H221218   2.369   3.373   1.555
 1655SOL    OH221219   0.180   5.137   0.517
 1655SOL     H121220   0.215   5.125   0.605
 1655SOL     H221221   0.215   5.221   0.487
 1656SOL    OH221222   5.889   1.768   1.135
 1656SOL     H121223   5.856   1.678   1.140
 1656SOL     H221224   5.868   1.806   1.220
 1657SOL    OH221225   4.057   6.028   0.669
 1657SOL     H121226   4.004   5.965   0.620
 1657SOL     H221227   4.016   6.031   0.756
 1658SOL    OH221228   1.802   3.590   0.282
 1658SOL     H121229   1.889   3.630   0.283
 1658SOL     H221230   1.791   3.559   0.192
 1659SOL    OH221231   5.764   5.300   0.573
 1659SOL     H121232   5.808   5.385   0.582
 1659SOL     H221233   5.830   5.242   0.536
 1660SOL    OH221234   3.894   5.180   0.209
 1660SOL     H121235   3.950   5.193   0.133
 1660SOL     H221236   3.883   5.268   0.246
 1661SOL    OH221237   2.317   3.944   5.772
 1661SOL     H121238   2.299   3.928   5.680
 1661SOL     H221239   2.396   3.997   5.772
 1662SOL    OH221240   2.041   2.209   5.702
 1662SOL     H121241   2.094   2.130   5.714
 1662SOL     H221242   2.036   2.247   5.790
 1663SOL    OH221243   4.829   1.549   6.555
 1663SOL     H121244   4.752   1.527   6.607
 1663SOL     H221245   4.901   1.551   6.617
 1664SOL    OH221246   4.391   0.627   0.464
 1664SOL     H121247   4.409   0.666   0.550
 1664SOL     H221248   4.461   0.562   0.453
 1665SOL    OH221249   3.342   2.275   1.493
 1665SOL     H121250   3.386   2.334   1.555
 1665SOL     H221251   3.411   2.249   1.432
 1666SOL    OH221252   2.419   4.932   0.817
 1666SOL     H121253   2.449   4.925   0.908
 1666SOL     H221254   2.385   5.021   0.810
 1667SOL    OH221255   2.782   2.879   6.277
 1667SOL     H121256   2.834   2.842   6.206
 1667SOL     H221257   2.742   2.958   6.238
 1668SOL    OH221258   6.127   4.629   0.521
 1668SOL     H121259   6.086   4.650   0.604
 1668SOL     H221260   6.141   4.534   0.523
 1669SOL    OH221261   0.181   2.259   0.148
 1669SOL     H121262   0.255   2.319   0.144
 1669SOL     H221263   0.214   2.178   0.109
 1670SOL    OH221264   6.234   5.305   0.224
 1670SOL     H121265   6.228   5.283   0.318
 1670SOL     H221266   6.143   5.311   0.195
 1671SOL    OH221267   1.358   2.615   6.037
 1671SOL     H121268   1.428   2.578   5.984
 1671SOL     H221269   1.390   2.609   6.128
 1672SOL    OH221270   1.257   6.062   0.143
 1672SOL     H121271   1.272   6.132   0.207
 1672SOL     H221272   1.310   5.989   0.174
 1673SOL    OH221273   1.426   1.434   4.927
 1673SOL     H121274   1.488   1.506   4.940
 1673SOL     H221275   1.450   1.397   4.842
 1674SOL    OH221276   3.102   1.425   0.602
 1674SOL     H121277   3.164   1.497   0.615
 1674SOL     H221278   3.057   1.417   0.686
 1675SOL    OH221279   6.174   5.368   6.161
 1675SOL     H121280   6.130   5.426   6.224
 1675SOL     H221281   6.120   5.289   6.159
 1676SOL    OH221282   0.782   3.834   1.617
 1676SOL     H121283   0.766   3.832   1.523
 1676SOL     H221284   0.778   3.926   1.641
 1677SOL    OH221285   5.181   5.230   6.555
 1677SOL     H121286   5.118   5.253   6.486
 1677SOL     H221287   5.247   5.178   6.510
 1678SOL    OH221288   2.554   5.740   0.550
 1678SOL     H121289   2.601   5.785   0.480
 1678SOL     H221290   2.607   5.754   0.628
 1679SOL    OH221291   2.532   2.181   1.041
 1679SOL     H121292   2.526   2.097   1.086
 1679SOL     H221293   2.600   2.168   0.975
 1680SOL    OH221294   5.099   3.876   6.049
 1680SOL     H121295   5.145   3.958   6.067
 1680SOL     H221296   5.127   3.851   5.961
 1681SOL    OH221297   1.556   5.572   5.433
 1681SOL     H121298   1.537   5.539   5.345
 1681SOL     H221299   1.470   5.578   5.476
 1682SOL    OH221300   4.084   5.549   5.409
 1682SOL     H121301   4.113   5.640   5.419
 1682SOL     H221302   4.014   5.553   5.344
 1683SOL    OH221303   2.901   5.262   6.399
 1683SOL     H121304   2.914   5.329   6.332
 1683SOL     H221305   2.874   5.310   6.477
 1684SOL    OH221306   2.864   5.675   6.634
 1684SOL     H121307   2.956   5.682   6.657
 1684SOL     H221308   2.854   5.729   6.556
 1685SOL    OH221309   1.275   2.291   5.545
 1685SOL     H121310   1.231   2.206   5.554
 1685SOL     H221311   1.204   2.352   5.524
 1686SOL    OH221312   2.917   3.187   6.039
 1686SOL     H121313   2.991   3.206   6.097
 1686SOL     H221314   2.943   3.221   5.954
 1687SOL    OH221315   4.590   0.098   0.194
 1687SOL     H121316   4.496   0.081   0.191
 1687SOL     H221317   4.602   0.177   0.141
 1688SOL    OH221318   6.245   6.381   0.403
 1688SOL     H121319   0.036   6.393   0.405
 1688SOL     H221320   6.229   6.320   0.331
 1689SOL    OH221321   3.196   5.831   0.890
 1689SOL     H121322   3.106   5.858   0.876
 1689SOL     H221323   3.190   5.736   0.904
 1690SOL    OH221324   3.889   1.468   6.619
 1690SOL     H121325   3.830   1.420   6.561
 1690SOL     H221326   3.833   1.500   0.009
 1691SOL    OH221327   4.536   1.911   0.953
 1691SOL     H121328   4.492   1.860   1.021
 1691SOL     H221329   4.476   1.909   0.878
 1692SOL    OH221330   5.559   1.956   5.849
 1692SOL     H121331   5.493   1.989   5.788
 1692SOL     H221332   5.524   1.872   5.879
 1693SOL    OH221333   3.062   2.979   0.255
 1693SOL     H121334   3.151   3.011   0.266
 1693SOL     H221335   3.057   2.950   0.164
 1694SOL    OH221336   5.155   5.475   1.235
 1694SOL     H121337   5.087   5.444   1.295
 1694SOL     H221338   5.186   5.557   1.275
 1695SOL    OH221339   3.925   1.250   6.263
 1695SOL     H121340   3.871   1.185   6.219
 1695SOL     H221341   3.869   1.286   6.332
 1696SOL    OH221342   2.510   4.292   0.303
 1696SOL     H121343   2.556   4.372   0.278
 1696SOL     H221344   2.580   4.230   0.324
 1697SOL    OH221345   5.664   5.527   0.892
 1697SOL     H121346   5.733   5.541   0.957
 1697SOL     H221347   5.667   5.434   0.872
 1698SOL    OH221348   2.916   2.199   1.287
 1698SOL     H121349   2.986   2.254   1.321
 1698SOL     H221350   2.843   2.213   1.348
 1699SOL    OH221351   3.291   5.568   5.704
 1699SOL     H121352   3.202   5.545   5.733
 1699SOL     H221353   3.303   5.518   5.623
 1700SOL    OH221354   0.557   4.892   6.459
 1700SOL     H121355   0.592   4.952   6.394
 1700SOL     H221356   0.489   4.943   6.505
 1701SOL    OH221357   0.209   0.241   0.955
 1701SOL     H121358   0.277   0.288   0.906
 1701SOL     H221359   0.216   0.276   1.044
 1702SOL    OH221360   2.720   5.048   6.421
 1702SOL     H121361   2.642   5.105   6.418
 1702SOL     H221362   2.794   5.108   6.414
 1703SOL    OH221363   5.601   2.528   0.416
 1703SOL     H121364   5.594   2.434   0.404
 1703SOL     H221365   5.607   2.540   0.511
 1704SOL    OH221366   0.319   5.041   5.775
 1704SOL     H121367   0.331   5.135   5.767
 1704SOL     H221368   0.262   5.017   5.701
 1705SOL    OH221369   0.792   5.850   5.935
 1705SOL     H121370   0.736   5.788   5.983
 1705SOL     H221371   0.866   5.797   5.905
 1706SOL    OH221372   1.862   0.423   6.541
 1706SOL     H121373   1.850   0.343   6.490
 1706SOL     H221374   1.872   0.492   6.475
 1707SOL    OH221375   2.142   2.222   0.229
 1707SOL     H121376   2.230   2.219   0.268
 1707SOL     H221377   2.131   2.136   0.189
 1708SOL    OH221378   1.540   6.313   6.036
 1708SOL     H121379   1.547   6.406   6.015
 1708SOL     H221380   1.507   6.273   5.956
 1709SOL    OH221381   1.232   1.721   0.516
 1709SOL     H121382   1.282   1.667   0.454
 1709SOL     H221383   1.150   1.740   0.470
 1710SOL    OH221384   5.952   6.417   6.093
 1710SOL     H121385   5.993   0.052   6.161
 1710SOL     H221386   5.886   0.055   6.054
 1711SOL    OH221387   3.318   3.077   0.285
 1711SOL     H121388   3.391   3.040   0.334
 1711SOL     H221389   3.356   3.100   0.200
 1712SOL    OH221390   3.461   0.201   0.621
 1712SOL     H121391   3.551   0.189   0.592
 1712SOL     H221392   3.450   0.296   0.624
 1713SOL    OH221393   5.031   0.978   5.388
 1713SOL     H121394   5.118   0.998   5.352
 1713SOL     H221395   5.035   0.885   5.408
 1714SOL    OH221396   1.941   3.549   0.646
 1714SOL     H121397   2.019   3.497   0.631
 1714SOL     H221398   1.870   3.485   0.650
 1715SOL    OH221399   5.846   6.414   1.090
 1715SOL     H121400   5.797   0.021   1.170
 1715SOL     H221401   5.818   0.060   1.025
 1716SOL    OH221402   2.785   1.269   6.614
 1716SOL     H121403   2.840   1.347   6.607
 1716SOL     H221404   2.716   1.282   6.550
 1717SOL    OH221405   5.052   0.807   0.345
 1717SOL     H121406   4.969   0.841   0.380
 1717SOL     H221407   5.038   0.802   0.251
 1718SOL    OH221408   0.289   1.378   0.680
 1718SOL     H121409   0.220   1.377   0.614
 1718SOL     H221410   0.279   1.462   0.725
 1719SOL    OH221411   3.672   3.156   0.202
 1719SOL     H121412   3.674   3.248   0.230
 1719SOL     H221413   3.606   3.154   0.133
 1720SOL    OH221414   0.699   1.398   0.805
 1720SOL     H121415   0.674   1.490   0.795
 1720SOL     H221416   0.712   1.367   0.715
 1721SOL    OH221417   4.845   0.192   6.654
 1721SOL     H121418   4.867   0.136   0.049
 1721SOL     H221419   4.771   0.244   0.003
 1722SOL    OH221420   2.548   1.258   0.929
 1722SOL     H121421   2.571   1.319   0.860
 1722SOL     H221422   2.603   1.283   1.003
 1723SOL    OH221423   5.916   1.462   0.924
 1723SOL     H121424   5.883   1.486   1.011
 1723SOL     H221425   5.995   1.410   0.942
 1724SOL    OH221426   0.912   0.403   5.278
 1724SOL     H121427   0.887   0.470   5.341
 1724SOL     H221428   0.835   0.347   5.269
 1725SOL    OH221429   2.218   0.411   5.244
 1725SOL     H121430   2.301   0.441   5.208
 1725SOL     H221431   2.153   0.434   5.178
 1726SOL    OH221432   2.780   0.195   0.144
 1726SOL     H121433   2.785   0.288   0.165
 1726SOL     H221434   2.689   0.172   0.159
 1727SOL    OH221435   0.916   1.951   0.692
 1727SOL     H121436   0.834   1.991   0.723
 1727SOL     H221437   0.953   2.016   0.632
 1728SOL    OH221438   0.448   0.219   5.947
 1728SOL     H121439   0.525   0.243   5.895
 1728SOL     H221440   0.438   0.125   5.934
 1729SOL    OH221441   2.999   5.131   5.733
 1729SOL     H121442   3.079   5.160   5.688
 1729SOL     H221443   3.017   5.042   5.760
 1730SOL    OH221444   0.142   6.114   0.455
 1730SOL     H121445   0.150   6.130   0.549
 1730SOL     H221446   0.175   6.194   0.414
 1731SOL    OH221447   2.243   3.634   0.723
 1731SOL     H121448   2.237   3.570   0.795
 1731SOL     H221449   2.195   3.711   0.755
 1732SOL    OH221450   1.220   5.509   6.263
 1732SOL     H121451   1.200   5.422   6.297
 1732SOL     H221452   1.247   5.559   6.340
 1733SOL    OH221453   1.091   5.154   0.310
 1733SOL     H121454   1.004   5.181   0.340
 1733SOL     H221455   1.152   5.209   0.359
 1734SOL    OH221456   4.045   3.847   1.785
 1734SOL     H121457   3.954   3.861   1.757
 1734SOL     H221458   4.039   3.778   1.851
 1735SOL    OH221459   0.020   1.276   0.247
 1735SOL     H121460   6.230   1.276   0.270
 1735SOL     H221461   0.021   1.267   0.152
 1736SOL    OH221462   2.465   6.255   1.176
 1736SOL     H121463   2.538   6.300   1.220
 1736SOL     H221464   2.501   6.170   1.151
 1737SOL    OH221465   2.877   3.611   1.677
 1737SOL     H121466   2.942   3.653   1.734
 1737SOL     H221467   2.800   3.666   1.685
 1738SOL    OH221468   0.307   3.772   1.060
 1738SOL     H121469   0.358   3.782   1.140
 1738SOL     H221470   0.370   3.737   0.997
 1739SOL    OH221471   4.274   4.675   1.029
 1739SOL     H121472   4.352   4.640   1.072
 1739SOL     H221473   4.308   4.726   0.955
 1740SOL    OH221474   1.644   3.389   1.579
 1740SOL     H121475   1.719   3.369   1.635
 1740SOL     H221476   1.568   3.365   1.631
 1741SOL    OH221477   4.873   0.902   5.943
 1741SOL     H121478   4.825   0.901   6.026
 1741SOL     H221479   4.961   0.872   5.965
 1742SOL    OH221480   6.198   1.947   6.095
 1742SOL     H121481   6.147   1.992   6.028
 1742SOL     H221482   6.140   1.880   6.130
 1743SOL    OH221483   0.754   5.263   0.847
 1743SOL     H121484   0.740   5.257   0.942
 1743SOL     H221485   0.735   5.176   0.814
 1744SOL    OH221486   6.051   6.090   5.633
 1744SOL     H121487   6.014   6.131   5.711
 1744SOL     H221488   6.135   6.134   5.620
 1745SOL    OH221489   6.273   3.299   0.663
 1745SOL     H121490   0.021   3.379   0.678
 1745SOL     H221491   6.223   3.317   0.584
 1746SOL    OH221492   3.167   1.897   5.081
 1746SOL     H121493   3.247   1.915   5.032
 1746SOL     H221494   3.146   1.806   5.062
 1747SOL    OH221495   1.755   0.434   0.857
 1747SOL     H121496   1.660   0.447   0.854
 1747SOL     H221497   1.778   0.402   0.770
 1748SOL    OH221498   6.227   0.798   1.324
 1748SOL     H121499   6.192   0.886   1.339
 1748SOL     H221500   6.261   0.771   1.409
 1749SOL    OH221501   1.277   4.555   5.978
 1749SOL     H121502   1.199   4.599   5.942
 1749SOL     H221503   1.350   4.596   5.932
 1750SOL    OH221504   2.512   5.222   6.411
 1750SOL     H121505   2.436   5.189   6.364
 1750SOL     H221506   2.548   5.290   6.354
 1751SOL    OH221507   0.058   4.363   6.641
 1751SOL     H121508   0.113   4.416   6.584
 1751SOL     H221509   0.076   4.396   0.048
 1752SOL    OH221510   1.364   0.432   1.369
 1752SOL     H121511   1.329   0.503   1.315
 1752SOL     H221512   1.408   0.477   1.442
 1753SOL    OH221513   6.159   4.465   6.468
 1753SOL     H121514   6.217   4.434   6.537
 1753SOL     H221515   6.214   4.523   6.415
 1754SOL    OH221516   3.944   1.712   2.030
 1754SOL     H121517   3.950   1.798   1.988
 1754SOL     H221518   3.960   1.650   1.959
 1755SOL    OH221519   1.504   3.671   0.858
 1755SOL     H121520   1.538   3.718   0.781
 1755SOL     H221521   1.472   3.740   0.916
 1756SOL    OH221522   0.274   4.247   5.170
 1756SOL     H121523   0.243   4.187   5.102
 1756SOL     H221524   0.367   4.229   5.177
 1757SOL    OH221525   4.435   3.038   5.949
 1757SOL     H121526   4.350   3.082   5.945
 1757SOL     H221527   4.422   2.955   5.903
 1758SOL    OH221528   0.743   1.605   6.649
 1758SOL     H121529   0.707   1.531   6.600
 1758SOL     H221530   0.705   1.597   0.055
 1759SOL    OH221531   2.113   5.115   0.782
 1759SOL     H121532   2.190   5.149   0.828
 1759SOL     H221533   2.138   5.116   0.690
 1760SOL    OH221534   1.248   0.053   1.062
 1760SOL     H121535   1.198   0.134   1.067
 1760SOL     H221536   1.332   0.078   1.025
 1761SOL    OH221537   2.960   4.040   6.184
 1761SOL     H121538   2.891   3.975   6.194
 1761SOL     H221539   2.950   4.074   6.095
 1762SOL    OH221540   5.357   2.383   0.711
 1762SOL     H121541   5.428   2.385   0.775
 1762SOL     H221542   5.301   2.310   0.739
 1763SOL    OH221543   1.066   0.871   5.709
 1763SOL     H121544   1.060   0.776   5.718
 1763SOL     H221545   1.031   0.888   5.621
 1764SOL    OH221546   3.017   0.161   0.013
 1764SOL     H121547   2.995   0.132   6.606
 1764SOL     H221548   2.932   0.167   0.058
 1765SOL    OH221549   2.108   5.031   5.552
 1765SOL     H121550   2.187   5.080   5.532
 1765SOL     H221551   2.140   4.945   5.582
 1766SOL    OH221552   0.073   4.617   4.980
 1766SOL     H121553   0.155   4.664   4.964
 1766SOL     H221554   0.093   4.563   5.057
 1767SOL    OH221555   3.655   2.483   0.071
 1767SOL     H121556   3.614   2.484   6.665
 1767SOL     H221557   3.723   2.550   0.065
 1768SOL    OH221558   1.911   5.154   0.089
 1768SOL     H121559   2.004   5.170   0.104
 1768SOL     H221560   1.874   5.144   0.177
 1769SOL    OH221561   1.547   2.428   6.576
 1769SOL     H121562   1.561   2.385   6.660
 1769SOL     H221563   1.611   2.388   6.517
 1770SOL    OH221564   5.664   0.475   0.797
 1770SOL     H121565   5.695   0.470   0.887
 1770SOL     H221566   5.737   0.441   0.745
 1771SOL    OH221567   2.594   2.601   1.710
 1771SOL     H121568   2.527   2.563   1.653
 1771SOL     H221569   2.553   2.680   1.746
 1772SOL    OH221570   3.186   1.783   0.897
 1772SOL     H121571   3.230   1.707   0.859
 1772SOL     H221572   3.255   1.828   0.946
 1773SOL    OH221573   3.869   3.523   0.387
 1773SOL     H121574   3.839   3.571   0.463
 1773SOL     H221575   3.965   3.526   0.392
 1774SOL    OH221576   0.944   4.158   0.909
 1774SOL     H121577   0.912   4.069   0.925
 1774SOL     H221578   0.984   4.185   0.992
 1775SOL    OH221579   4.469   2.732   0.796
 1775SOL     H121580   4.421   2.781   0.862
 1775SOL     H221581   4.435   2.764   0.713
 1776SOL    OH221582   2.911   1.714   0.846
 1776SOL     H121583   2.991   1.752   0.883
 1776SOL     H221584   2.935   1.624   0.824
 1777SOL    OH221585   4.046   3.315   5.470
 1777SOL     H121586   3.967   3.276   5.509
 1777SOL     H221587   4.013   3.385   5.414
 1778SOL    OH221588   4.135   0.006   5.879
 1778SOL     H121589   4.124   0.090   5.836
 1778SOL     H221590   4.192   6.374   5.820
 1779SOL    OH221591   0.744   3.245   6.266
 1779SOL     H121592   0.668   3.280   6.313
 1779SOL     H221593   0.729   3.268   6.175
 1780SOL    OH221594   4.894   2.356   6.541
 1780SOL     H121595   4.887   2.444   6.579
 1780SOL     H221596   4.810   2.314   6.563
 1781SOL    OH221597   3.410   4.262   0.254
 1781SOL     H121598   3.489   4.316   0.252
 1781SOL     H221599   3.439   4.179   0.292
 1782SOL    OH221600   3.156   3.337   0.874
 1782SOL     H121601   3.118   3.304   0.956
 1782SOL     H221602   3.159   3.432   0.885
 1783SOL    OH221603   4.519   0.289   5.273
 1783SOL     H121604   4.474   0.365   5.309
 1783SOL     H221605   4.494   0.287   5.180
 1784SOL    OH221606   2.335   5.381   5.649
 1784SOL     H121607   2.375   5.447   5.592
 1784SOL     H221608   2.333   5.302   5.596
 1785SOL    OH221609   0.171   2.434   0.978
 1785SOL     H121610   0.089   2.408   0.936
 1785SOL     H221611   0.176   2.378   1.055
 1786SOL    OH221612   4.316   3.283   5.423
 1786SOL     H121613   4.354   3.364   5.457
 1786SOL     H221614   4.222   3.292   5.439
 1787SOL    OH221615   3.279   2.484   1.188
 1787SOL     H121616   3.351   2.539   1.221
 1787SOL     H221617   3.323   2.406   1.155
 1788SOL    OH221618   2.970   4.683   0.602
 1788SOL     H121619   2.901   4.665   0.539
 1788SOL     H221620   3.037   4.616   0.585
 1789SOL    OH221621   5.746   2.001   5.371
 1789SOL     H121622   5.714   2.046   5.293
 1789SOL     H221623   5.673   1.945   5.399
 1790SOL    OH221624   5.546   4.018   0.297
 1790SOL     H121625   5.548   3.996   0.390
 1790SOL     H221626   5.626   4.069   0.283
 1791SOL    OH221627   0.254   1.759   6.159
 1791SOL     H121628   0.255   1.832   6.097
 1791SOL     H221629   0.300   1.689   6.114
 1792SOL    OH221630   2.763   6.324   0.006
 1792SOL     H121631   2.698   6.335   6.617
 1792SOL     H221632   2.831   6.387   6.667
 1793SOL    OH221633   0.131   5.973   5.451
 1793SOL     H121634   0.086   6.053   5.423
 1793SOL     H221635   0.144   5.985   5.545
 1794SOL    OH221636   2.913   3.175   1.156
 1794SOL     H121637   2.932   3.267   1.137
 1794SOL     H221638   2.823   3.175   1.187
 1795SOL    OH221639   5.644   5.551   6.307
 1795SOL     H121640   5.660   5.483   6.372
 1795SOL     H221641   5.727   5.599   6.303
 1796SOL    OH221642   2.171   6.083   6.268
 1796SOL     H121643   2.156   5.989   6.260
 1796SOL     H221644   2.262   6.091   6.296
 1797SOL    OH221645   4.210   3.729   1.580
 1797SOL     H121646   4.290   3.697   1.622
 1797SOL     H221647   4.157   3.762   1.653
 1798SOL    OH221648   0.019   1.580   6.122
 1798SOL     H121649   0.071   1.657   6.145
 1798SOL     H221650   0.014   1.581   6.026
 1799SOL    OH221651   4.058   0.905   0.676
 1799SOL     H121652   4.113   0.832   0.702
 1799SOL     H221653   3.973   0.866   0.657
 1800SOL    OH221654   4.743   6.078   6.545
 1800SOL     H121655   4.746   6.006   6.481
 1800SOL     H221656   4.689   6.145   6.503
 1801SOL    OH221657   2.800   2.004   0.248
 1801SOL     H121658   2.837   1.921   0.279
 1801SOL     H221659   2.740   1.977   0.178
 1802SOL    OH221660   0.107   1.803   5.308
 1802SOL     H121661   0.113   1.893   5.275
 1802SOL     H221662   0.176   1.756   5.262
 1803SOL    OH221663   0.749   5.929   5.566
 1803SOL     H121664   0.674   5.904   5.512
 1803SOL     H221665   0.785   5.846   5.597
 1804SOL    OH221666   4.910   1.541   4.982
 1804SOL     H121667   4.829   1.533   5.034
 1804SOL     H221668   4.886   1.598   4.909
 1805SOL    OH221669   2.425   3.710   5.876
 1805SOL     H121670   2.357   3.644   5.864
 1805SOL     H221671   2.383   3.793   5.855
 1806SOL    OH221672   0.768   2.989   6.357
 1806SOL     H121673   0.676   2.962   6.360
 1806SOL     H221674   0.765   3.080   6.327
 1807SOL    OH221675   1.258   4.305   5.237
 1807SOL     H121676   1.307   4.384   5.257
 1807SOL     H221677   1.279   4.285   5.146
 1808SOL    OH221678   2.441   1.126   0.531
 1808SOL     H121679   2.389   1.166   0.460
 1808SOL     H221680   2.530   1.124   0.496
 1809SOL    OH221681   0.627   0.009   6.354
 1809SOL     H121682   0.549   0.048   6.393
 1809SOL     H221683   0.650   0.068   6.282
 1810SOL    OH221684   0.473   2.907   0.512
 1810SOL     H121685   0.398   2.904   0.572
 1810SOL     H221686   0.513   2.992   0.528
 1811SOL    OH221687   5.669   4.416   0.351
 1811SOL     H121688   5.665   4.508   0.374
 1811SOL     H221689   5.599   4.405   0.286
 1812SOL    OH221690   0.890   5.228   5.245
 1812SOL     H121691   0.959   5.173   5.282
 1812SOL     H221692   0.809   5.182   5.266
 1813SOL    OH221693   0.190   3.463   1.172
 1813SOL     H121694   0.148   3.416   1.244
 1813SOL     H221695   0.175   3.555   1.193
 1814SOL    OH221696   5.035   0.508   0.796
 1814SOL     H121697   5.087   0.431   0.819
 1814SOL     H221698   5.099   0.579   0.793
 1815SOL    OH221699   5.290   1.568   0.411
 1815SOL     H121700   5.224   1.602   0.472
 1815SOL     H221701   5.254   1.485   0.381
 1816SOL    OH221702   5.053   0.361   6.585
 1816SOL     H121703   5.077   0.377   6.676
 1816SOL     H221704   4.981   0.298   6.591
 1817SOL    OH221705   1.841   3.399   5.166
 1817SOL     H121706   1.821   3.335   5.234
 1817SOL     H221707   1.756   3.438   5.145
 1818SOL    OH221708   5.649   4.800   6.498
 1818SOL     H121709   5.668   4.799   6.404
 1818SOL     H221710   5.729   4.765   6.538
 1819SOL    OH221711   3.106   1.631   5.083
 1819SOL     H121712   3.155   1.556   5.116
 1819SOL     H221713   3.015   1.611   5.106
 1820SOL    OH221714   0.460   4.376   4.920
 1820SOL     H121715   0.548   4.352   4.948
 1820SOL     H221716   0.436   4.450   4.975
 1821SOL    OH221717   4.848   2.293   5.070
 1821SOL     H121718   4.764   2.279   5.026
 1821SOL     H221719   4.914   2.281   5.002
 1822SOL    OH221720   0.385   5.862   0.911
 1822SOL     H121721   0.455   5.829   0.854
 1822SOL     H221722   0.429   5.882   0.994
 1823SOL    OH221723   1.588   5.200   4.966
 1823SOL     H121724   1.508   5.204   4.914
 1823SOL     H221725   1.634   5.281   4.944
 1824SOL    OH221726   1.844   5.129   0.722
 1824SOL     H121727   1.934   5.128   0.755
 1824SOL     H221728   1.792   5.094   0.794
 1825SOL    OH221729   1.279   0.759   0.713
 1825SOL     H121730   1.285   0.821   0.641
 1825SOL     H221731   1.273   0.673   0.671
 1826SOL    OH221732   3.279   3.647   5.943
 1826SOL     H121733   3.280   3.679   6.034
 1826SOL     H221734   3.372   3.642   5.919
 1827SOL    OH221735   4.788   0.900   6.527
 1827SOL     H121736   4.842   0.953   6.468
 1827SOL     H221737   4.705   0.948   6.532
 1828SOL    OH221738   0.573   5.631   5.617
 1828SOL     H121739   0.667   5.636   5.634
 1828SOL     H221740   0.558   5.540   5.590
 1829SOL    OH221741   5.131   2.701   0.575
 1829SOL     H121742   5.108   2.670   0.663
 1829SOL     H221743   5.111   2.794   0.577
 1830SOL    OH221744   5.149   0.403   1.460
 1830SOL     H121745   5.217   0.376   1.398
 1830SOL     H221746   5.103   0.474   1.415
 1831SOL    OH221747   5.944   2.145   0.770
 1831SOL     H121748   5.911   2.068   0.816
 1831SOL     H221749   6.002   2.109   0.702
 1832SOL    OH221750   3.491   4.473   0.820
 1832SOL     H121751   3.478   4.394   0.874
 1832SOL     H221752   3.494   4.544   0.884
 1833SOL    OH221753   3.478   5.243   0.659
 1833SOL     H121754   3.525   5.160   0.653
 1833SOL     H221755   3.430   5.238   0.742
 1834SOL    OH221756   3.368   0.218   6.613
 1834SOL     H121757   3.332   0.191   0.017
 1834SOL     H221758   3.371   0.313   6.617
 1835SOL    OH221759   2.481   0.512   0.612
 1835SOL     H121760   2.422   0.499   0.687
 1835SOL     H221761   2.474   0.605   0.592
 1836SOL    OH221762   3.847   3.316   5.141
 1836SOL     H121763   3.909   3.358   5.201
 1836SOL     H221764   3.816   3.388   5.085
 1837SOL    OH221765   1.654   1.093   0.623
 1837SOL     H121766   1.659   1.144   0.542
 1837SOL     H221767   1.561   1.089   0.642
 1838SOL    OH221768   0.497   2.733   6.059
 1838SOL     H121769   0.442   2.679   6.002
 1838SOL     H221770   0.489   2.693   6.145
 1839SOL    OH221771   1.933   2.512   6.080
 1839SOL     H121772   1.991   2.588   6.087
 1839SOL     H221773   1.881   2.514   6.160
 1840SOL    OH221774   4.507   0.164   6.329
 1840SOL     H121775   4.428   0.111   6.342
 1840SOL     H221776   4.579   0.106   6.357
 1841SOL    OH221777   3.696   6.161   5.672
 1841SOL     H121778   3.769   6.156   5.610
 1841SOL     H221779   3.731   6.127   5.754
 1842SOL    OH221780   1.305   3.171   0.282
 1842SOL     H121781   1.386   3.204   0.322
 1842SOL     H221782   1.249   3.150   0.356
 1843SOL    OH221783   0.617   1.735   5.940
 1843SOL     H121784   0.539   1.681   5.937
 1843SOL     H221785   0.589   1.821   5.911
 1844SOL    OH221786   2.034   2.289   5.965
 1844SOL     H121787   2.001   2.216   6.016
 1844SOL     H221788   1.995   2.367   6.005
 1845SOL    OH221789   0.643   0.471   6.253
 1845SOL     H121790   0.661   0.537   6.186
 1845SOL     H221791   0.727   0.458   6.298
 1846SOL    OH221792   3.158   4.870   0.195
 1846SOL     H121793   3.070   4.882   0.231
 1846SOL     H221794   3.191   4.792   0.239
 1847SOL    OH221795   2.280   0.941   0.309
 1847SOL     H121796   2.233   0.862   0.282
 1847SOL     H221797   2.211   1.004   0.328
 1848SOL    OH221798   3.685   3.214   1.079
 1848SOL     H121799   3.730   3.140   1.037
 1848SOL     H221800   3.599   3.180   1.100
 1849SOL    OH221801   1.651   0.138   5.934
 1849SOL     H121802   1.728   0.084   5.955
 1849SOL     H221803   1.653   0.146   5.839
 1850SOL    OH221804   2.898   3.529   5.799
 1850SOL     H121805   2.819   3.583   5.803
 1850SOL     H221806   2.928   3.524   5.890
 1851SOL    OH221807   3.940   5.679   1.767
 1851SOL     H121808   3.991   5.624   1.827
 1851SOL     H221809   3.998   5.753   1.747
 1852SOL    OH221810   1.561   5.911   6.127
 1852SOL     H121811   1.652   5.894   6.150
 1852SOL     H221812   1.559   5.903   6.031
 1853SOL    OH221813   5.714   2.006   6.266
 1853SOL     H121814   5.734   1.913   6.272
 1853SOL     H221815   5.795   2.046   6.232
 1854SOL    OH221816   4.741   5.404   1.002
 1854SOL     H121817   4.770   5.445   1.084
 1854SOL     H221818   4.657   5.364   1.023
 1855SOL    OH221819   5.199   2.161   0.788
 1855SOL     H121820   5.283   2.115   0.788
 1855SOL     H221821   5.138   2.101   0.744
 1856SOL    OH221822   4.591   2.303   0.197
 1856SOL     H121823   4.516   2.360   0.215
 1856SOL     H221824   4.667   2.357   0.217
 1857SOL    OH221825   0.187   4.405   4.596
 1857SOL     H121826   0.198   4.350   4.674
 1857SOL     H221827   0.276   4.419   4.564
 1858SOL    OH221828   5.818   4.510   1.142
 1858SOL     H121829   5.781   4.470   1.220
 1858SOL     H221830   5.845   4.436   1.088
 1859SOL    OH221831   2.325   2.807   1.582
 1859SOL     H121832   2.237   2.794   1.618
 1859SOL     H221833   2.380   2.826   1.658
 1860SOL    OH221834   3.010   2.127   4.999
 1860SOL     H121835   3.063   2.059   5.043
 1860SOL     H221836   2.924   2.087   4.988
 1861SOL    OH221837   5.670   4.323   0.842
 1861SOL     H121838   5.715   4.341   0.759
 1861SOL     H221839   5.741   4.298   0.902
 1862SOL    OH221840   0.678   6.347   0.485
 1862SOL     H121841   0.592   6.351   0.443
 1862SOL     H221842   0.738   6.321   0.415
 1863SOL    OH221843   5.129   3.380   0.605
 1863SOL     H121844   5.191   3.368   0.677
 1863SOL     H221845   5.180   3.359   0.526
 1864SOL    OH221846   1.211   4.947   6.558
 1864SOL     H121847   1.201   4.964   6.464
 1864SOL     H221848   1.151   4.874   6.575
 1865SOL    OH221849   5.149   6.282   0.594
 1865SOL     H121850   5.108   6.367   0.608
 1865SOL     H221851   5.236   6.291   0.632
 1866SOL    OH221852   1.870   6.281   0.453
 1866SOL     H121853   1.939   6.321   0.401
 1866SOL     H221854   1.820   6.228   0.392
 1867SOL    OH221855   3.027   4.285   6.584
 1867SOL     H121856   3.001   4.336   6.508
 1867SOL     H221857   3.120   4.304   6.594
 1868SOL    OH221858   3.873   2.775   4.931
 1868SOL     H121859   3.779   2.789   4.943
 1868SOL     H221860   3.910   2.864   4.932
 1869SOL    OH221861   5.730   4.403   6.215
 1869SOL     H121862   5.724   4.330   6.153
 1869SOL     H221863   5.815   4.391   6.257
 1870SOL    OH221864   4.734   2.287   5.878
 1870SOL     H121865   4.753   2.374   5.913
 1870SOL     H221866   4.801   2.274   5.811
 1871SOL    OH221867   5.455   0.678   5.485
 1871SOL     H121868   5.451   0.680   5.581
 1871SOL     H221869   5.530   0.733   5.463
 1872SOL    OH221870   3.021   2.162   0.174
 1872SOL     H121871   3.006   2.248   0.215
 1872SOL     H221872   2.939   2.115   0.187
 1873SOL    OH221873   0.392   0.402   6.362
 1873SOL     H121874   0.326   0.453   6.316
 1873SOL     H221875   0.476   0.437   6.332
 1874SOL    OH221876   1.404   5.076   0.018
 1874SOL     H121877   1.483   5.062   6.646
 1874SOL     H221878   1.337   5.023   6.657
 1875SOL    OH221879   2.376   2.937   6.291
 1875SOL     H121880   2.422   2.939   6.207
 1875SOL     H221881   2.283   2.940   6.267
 1876SOL    OH221882   2.782   1.978   4.939
 1876SOL     H121883   2.708   2.039   4.951
 1876SOL     H221884   2.750   1.895   4.974
 1877SOL    OH221885   4.123   4.340   0.069
 1877SOL     H121886   4.090   4.428   0.052
 1877SOL     H221887   4.183   4.322   6.676
 1878SOL    OH221888   2.982   4.607   5.048
 1878SOL     H121889   2.906   4.596   4.990
 1878SOL     H221890   2.990   4.522   5.092
 1879SOL    OH221891   0.101   1.370   0.485
 1879SOL     H121892   0.058   1.454   0.496
 1879SOL     H221893   0.069   1.337   0.401
 1880SOL    OH221894   0.869   6.296   0.980
 1880SOL     H121895   0.827   6.377   1.011
 1880SOL     H221896   0.857   6.298   0.885
 1881SOL    OH221897   4.765   2.972   0.655
 1881SOL     H121898   4.827   3.045   0.648
 1881SOL     H221899   4.702   2.999   0.721
 1882SOL    OH221900   0.834   0.508   6.609
 1882SOL     H121901   0.746   0.478   6.634
 1882SOL     H221902   0.836   0.600   6.637
 1883SOL    OH221903   4.812   1.332   5.358
 1883SOL     H121904   4.737   1.318   5.416
 1883SOL     H221905   4.834   1.424   5.367
 1884SOL    OH221906   0.301   3.292   0.175
 1884SOL     H121907   0.210   3.300   0.202
 1884SOL     H221908   0.323   3.378   0.139
 1885SOL    OH221909   5.525   3.253   0.490
 1885SOL     H121910   5.543   3.170   0.535
 1885SOL     H221911   5.518   3.317   0.561
 1886SOL    OH221912   3.459   4.445   0.557
 1886SOL     H121913   3.478   4.459   0.650
 1886SOL     H221914   3.478   4.352   0.543
 1887SOL    OH221915   3.682   4.378   6.520
 1887SOL     H121916   3.681   4.294   6.566
 1887SOL     H221917   3.619   4.432   6.567
 1888SOL    OH221918   3.195   0.985   6.366
 1888SOL     H121919   3.150   1.059   6.326
 1888SOL     H221920   3.272   1.025   6.408
 1889SOL    OH221921   0.741   0.105   1.062
 1889SOL     H121922   0.753   0.189   1.106
 1889SOL     H221923   0.676   0.122   0.994
 1890SOL    OH221924   4.899   0.838   0.093
 1890SOL     H121925   4.875   0.845   0.001
 1890SOL     H221926   4.821   0.804   0.136
 1891SOL    OH221927   0.828   4.706   5.524
 1891SOL     H121928   0.848   4.765   5.451
 1891SOL     H221929   0.780   4.760   5.587
 1892SOL    OH221930   1.614   0.214   5.667
 1892SOL     H121931   1.573   0.298   5.685
 1892SOL     H221932   1.544   0.159   5.632
 1893SOL    OH221933   4.888   3.358   1.204
 1893SOL     H121934   4.916   3.330   1.117
 1893SOL     H221935   4.793   3.344   1.204
 1894SOL    OH221936   3.635   3.832   0.528
 1894SOL     H121937   3.571   3.784   0.581
 1894SOL     H221938   3.720   3.801   0.560
 1895SOL    OH221939   0.654   4.171   0.217
 1895SOL     H121940   0.712   4.207   0.150
 1895SOL     H221941   0.696   4.193   0.300
 1896SOL    OH221942   5.724   5.981   5.805
 1896SOL     H121943   5.712   6.076   5.813
 1896SOL     H221944   5.719   5.963   5.711
 1897SOL    OH221945   0.721   1.656   1.224
 1897SOL     H121946   0.755   1.567   1.217
 1897SOL     H221947   0.770   1.694   1.298
 1898SOL    OH221948   2.873   2.027   1.082
 1898SOL     H121949   2.819   1.961   1.125
 1898SOL     H221950   2.892   2.091   1.150
 1899SOL    OH221951   4.219   1.771   0.976
 1899SOL     H121952   4.295   1.785   1.032
 1899SOL     H221953   4.172   1.698   1.017
 1900SOL    OH221954   3.617   1.217   5.304
 1900SOL     H121955   3.524   1.211   5.283
 1900SOL     H221956   3.632   1.144   5.365
 1901SOL    OH221957   1.380   1.236   6.251
 1901SOL     H121958   1.320   1.176   6.297
 1901SOL     H221959   1.325   1.277   6.184
 1902SOL    OH221960   1.537   2.511   1.009
 1902SOL     H121961   1.488   2.537   1.087
 1902SOL     H221962   1.511   2.576   0.943
 1903SOL    OH221963   3.749   0.082   5.819
 1903SOL     H121964   3.754   0.177   5.828
 1903SOL     H221965   3.810   0.049   5.885
 1904SOL    OH221966   5.420   1.046   5.510
 1904SOL     H121967   5.358   1.103   5.555
 1904SOL     H221968   5.373   1.014   5.434
 1905SOL    OH221969   1.801   2.601   5.855
 1905SOL     H121970   1.863   2.611   5.782
 1905SOL     H221971   1.854   2.566   5.927
 1906SOL    OH221972   6.099   3.983   6.398
 1906SOL     H121973   6.125   4.049   6.463
 1906SOL     H221974   6.179   3.965   6.349
 1907SOL    OH221975   5.121   4.535   5.882
 1907SOL     H121976   5.071   4.457   5.861
 1907SOL     H221977   5.126   4.535   5.978
 1908SOL    OH221978   5.832   3.762   0.814
 1908SOL     H121979   5.814   3.856   0.811
 1908SOL     H221980   5.922   3.756   0.847
 1909SOL    OH221981   2.738   3.928   5.924
 1909SOL     H121982   2.727   3.848   5.874
 1909SOL     H221983   2.735   3.900   6.016
 1910SOL    OH221984   2.128   4.890   0.479
 1910SOL     H121985   2.033   4.903   0.485
 1910SOL     H221986   2.165   4.977   0.491
 1911SOL    OH221987   2.047   5.267   1.086
 1911SOL     H121988   1.969   5.230   1.129
 1911SOL     H221989   2.114   5.200   1.098
 1912SOL    OH221990   4.059   0.648   5.251
 1912SOL     H121991   4.017   0.724   5.292
 1912SOL     H221992   4.152   0.669   5.250
 1913SOL    OH221993   0.192   1.875   0.814
 1913SOL     H121994   0.156   1.953   0.857
 1913SOL     H221995   0.132   1.805   0.837
 1914SOL    OH221996   1.057   2.952   0.291
 1914SOL     H121997   1.097   3.006   0.360
 1914SOL     H221998   0.996   2.896   0.338
 1915SOL    OH221999   3.570   0.152   5.403
 1915SOL     H122000   3.498   0.114   5.354
 1915SOL     H222001   3.580   0.095   5.479
 1916SOL    OH222002   6.166   0.151   5.608
 1916SOL     H122003   6.157   0.240   5.572
 1916SOL     H222004   6.139   0.159   5.699
 1917SOL    OH222005   5.801   2.663   5.308
 1917SOL     H122006   5.836   2.621   5.386
 1917SOL     H222007   5.776   2.590   5.251
 1918SOL    OH222008   0.336   3.041   0.068
 1918SOL     H122009   0.251   3.002   0.088
 1918SOL     H222010   0.333   3.128   0.108
 1919SOL    OH222011   0.468   6.113   1.715
 1919SOL     H122012   0.535   6.166   1.758
 1919SOL     H222013   0.467   6.031   1.764
 1920SOL    OH222014   0.394   5.490   0.987
 1920SOL     H122015   0.458   5.472   0.918
 1920SOL     H222016   0.433   5.451   1.066
 1921SOL    OH222017   2.592   4.741   5.252
 1921SOL     H122018   2.591   4.663   5.198
 1921SOL     H222019   2.665   4.728   5.312
 1922SOL    OH222020   5.484   1.287   0.294
 1922SOL     H122021   5.395   1.295   0.330
 1922SOL     H222022   5.508   1.196   0.312
 1923SOL    OH222023   0.760   0.796   1.042
 1923SOL     H122024   0.779   0.707   1.012
 1923SOL     H222025   0.814   0.808   1.120
 1924SOL    OH222026   4.434   6.128   5.224
 1924SOL     H122027   4.494   6.053   5.226
 1924SOL     H222028   4.427   6.150   5.131
 1925SOL    OH222029   1.445   1.597   5.593
 1925SOL     H122030   1.471   1.507   5.611
 1925SOL     H222031   1.506   1.627   5.526
 1926SOL    OH222032   4.433   2.297   5.774
 1926SOL     H122033   4.460   2.289   5.866
 1926SOL     H222034   4.497   2.357   5.736
 1927SOL    OH222035   2.722   1.584   1.297
 1927SOL     H122036   2.721   1.673   1.262
 1927SOL     H222037   2.663   1.587   1.372
 1928SOL    OH222038   2.769   3.937   0.658
 1928SOL     H122039   2.688   3.914   0.705
 1928SOL     H222040   2.749   3.919   0.566
 1929SOL    OH222041   3.427   2.994   5.675
 1929SOL     H122042   3.440   3.087   5.691
 1929SOL     H222043   3.333   2.986   5.657
 1930SOL    OH222044   5.191   2.755   1.585
 1930SOL     H122045   5.203   2.660   1.594
 1930SOL     H222046   5.201   2.772   1.492
 1931SOL    OH222047   3.732   5.015   6.306
 1931SOL     H122048   3.762   5.029   6.396
 1931SOL     H222049   3.783   4.940   6.275
 1932SOL    OH222050   0.253   2.387   0.710
 1932SOL     H122051   0.228   2.408   0.800
 1932SOL     H222052   0.170   2.385   0.663
 1933SOL    OH222053   1.435   2.555   6.293
 1933SOL     H122054   1.491   2.609   6.349
 1933SOL     H222055   1.357   2.539   6.346
 1934SOL    OH222056   6.023   1.761   6.189
 1934SOL     H122057   5.930   1.758   6.211
 1934SOL     H222058   6.031   1.705   6.112
 1935SOL    OH222059   3.992   1.909   1.842
 1935SOL     H122060   4.022   1.825   1.808
 1935SOL     H222061   4.019   1.973   1.777
 1936SOL    OH222062   0.605   5.616   1.499
 1936SOL     H122063   0.678   5.675   1.515
 1936SOL     H222064   0.646   5.534   1.472
 1937SOL    OH222065   1.786   3.767   6.652
 1937SOL     H122066   1.877   3.787   6.675
 1937SOL     H222067   1.744   3.852   6.642
 1938SOL    OH222068   2.558   0.479   0.030
 1938SOL     H122069   2.582   0.568   0.002
 1938SOL     H222070   2.616   0.462   0.105
 1939SOL    OH222071   4.007   1.735   0.547
 1939SOL     H122072   3.999   1.772   0.635
 1939SOL     H222073   4.101   1.734   0.530
 1940SOL    OH222074   5.563   5.895   6.574
 1940SOL     H122075   5.486   5.842   6.552
 1940SOL     H222076   5.536   5.946   6.650
 1941SOL    OH222077   3.837   0.253   1.053
 1941SOL     H122078   3.763   0.198   1.027
 1941SOL     H222079   3.838   0.250   1.149
 1942SOL    OH222080   0.761   0.525   0.955
 1942SOL     H122081   0.670   0.552   0.942
 1942SOL     H222082   0.791   0.500   0.867
 1943SOL    OH222083   5.292   3.453   6.457
 1943SOL     H122084   5.366   3.503   6.423
 1943SOL     H222085   5.217   3.511   6.443
 1944SOL    OH222086   5.009   0.540   6.373
 1944SOL     H122087   5.027   0.487   6.451
 1944SOL     H222088   4.921   0.575   6.387
 1945SOL    OH222089   5.268   0.251   1.868
 1945SOL     H122090   5.341   0.300   1.906
 1945SOL     H222091   5.192   0.275   1.921
 1946SOL    OH222092   1.992   5.784   5.994
 1946SOL     H122093   2.022   5.857   5.939
 1946SOL     H222094   1.930   5.737   5.938
 1947SOL    OH222095   4.157   0.613   1.333
 1947SOL     H122096   4.128   0.700   1.304
 1947SOL     H222097   4.200   0.629   1.417
 1948SOL    OH222098   2.048   1.220   0.602
 1948SOL     H122099   2.131   1.241   0.645
 1948SOL     H222100   1.986   1.210   0.674
 1949SOL    OH222101   2.689   1.711   0.175
 1949SOL     H122102   2.605   1.671   0.200
 1949SOL     H222103   2.746   1.695   0.250
 1950SOL    OH222104   3.803   5.790   0.988
 1950SOL     H122105   3.768   5.793   0.898
 1950SOL     H222106   3.744   5.731   1.034
 1951SOL    OH222107   1.105   2.245   0.231
 1951SOL     H122108   1.088   2.333   0.265
 1951SOL     H222109   1.026   2.223   0.181
 1952SOL    OH222110   2.976   0.857   6.210
 1952SOL     H122111   2.962   0.950   6.223
 1952SOL     H222112   3.052   0.837   6.265
 1953SOL    OH222113   4.971   6.209   1.234
 1953SOL     H122114   4.933   6.295   1.213
 1953SOL     H222115   4.911   6.171   1.298
 1954SOL    OH222116   6.185   0.748   5.998
 1954SOL     H122117   6.232   0.749   5.915
 1954SOL     H222118   6.092   0.751   5.972
 1955SOL    OH222119   5.249   1.476   1.132
 1955SOL     H122120   5.160   1.462   1.164
 1955SOL     H222121   5.305   1.427   1.192
 1956SOL    OH222122   0.330   0.872   0.558
 1956SOL     H122123   0.365   0.868   0.469
 1956SOL     H222124   0.344   0.962   0.586
 1957SOL    OH222125   5.745   3.347   5.947
 1957SOL     H122126   5.664   3.296   5.948
 1957SOL     H222127   5.765   3.362   6.039
 1958SOL    OH222128   0.816   6.220   0.694
 1958SOL     H122129   0.767   6.138   0.707
 1958SOL     H222130   0.769   6.265   0.624
 1959SOL    OH222131   4.136   2.547   5.651
 1959SOL     H122132   4.093   2.609   5.710
 1959SOL     H222133   4.187   2.601   5.591
 1960SOL    OH222134   5.810   5.538   0.138
 1960SOL     H122135   5.757   5.617   0.143
 1960SOL     H222136   5.749   5.468   0.114
 1961SOL    OH222137   5.559   2.214   6.334
 1961SOL     H122138   5.629   2.278   6.341
 1961SOL     H222139   5.603   2.133   6.307
 1962SOL    OH222140   2.851   0.229   5.764
 1962SOL     H122141   2.820   0.245   5.854
 1962SOL     H222142   2.853   0.316   5.724
 1963SOL    OH222143   4.775   5.705   5.482
 1963SOL     H122144   4.713   5.641   5.517
 1963SOL     H222145   4.761   5.703   5.388
 1964SOL    OH222146   0.089   6.058   1.251
 1964SOL     H122147   6.298   6.054   1.266
 1964SOL     H222148   0.111   6.151   1.262
 1965SOL    OH222149   5.287   3.216   0.123
 1965SOL     H122150   5.333   3.293   0.092
 1965SOL     H222151   5.219   3.200   0.058
 1966SOL    OH222152   4.032   2.578   0.729
 1966SOL     H122153   4.069   2.599   0.643
 1966SOL     H222154   4.081   2.501   0.757
 1967SOL    OH222155   4.751   0.641   6.426
 1967SOL     H122156   4.656   0.644   6.432
 1967SOL     H222157   4.780   0.727   6.459
 1968SOL    OH222158   0.361   3.468   5.695
 1968SOL     H122159   0.339   3.426   5.612
 1968SOL     H222160   0.330   3.558   5.685
 1969SOL    OH222161   4.598   2.469   5.634
 1969SOL     H122162   4.692   2.491   5.630
 1969SOL     H222163   4.553   2.553   5.623
 1970SOL    OH222164   0.544   2.400   5.920
 1970SOL     H122165   0.593   2.411   5.839
 1970SOL     H222166   0.467   2.456   5.910
 1971SOL    OH222167   5.788   1.635   5.727
 1971SOL     H122168   5.796   1.585   5.808
 1971SOL     H222169   5.806   1.572   5.658
 1972SOL    OH222170   6.211   3.414   5.755
 1972SOL     H122171   6.255   3.492   5.720
 1972SOL     H222172   6.230   3.345   5.692
 1973SOL    OH222173   1.944   0.505   1.607
 1973SOL     H122174   1.857   0.498   1.646
 1973SOL     H222175   1.944   0.441   1.537
 1974SOL    OH222176   4.726   5.895   1.770
 1974SOL     H122177   4.815   5.862   1.762
 1974SOL     H222178   4.735   5.990   1.774
 1975SOL    OH222179   3.824   1.076   5.496
 1975SOL     H122180   3.792   1.075   5.586
 1975SOL     H222181   3.883   1.151   5.492
 1976SOL    OH222182   6.098   3.268   6.194
 1976SOL     H122183   6.122   3.345   6.143
 1976SOL     H222184   6.150   3.275   6.274
 1977SOL    OH222185   5.540   4.287   6.402
 1977SOL     H122186   5.611   4.340   6.366
 1977SOL     H222187   5.477   4.350   6.437
 1978SOL    OH222188   4.137   4.368   5.716
 1978SOL     H122189   4.105   4.278   5.708
 1978SOL     H222190   4.219   4.368   5.665
 1979SOL    OH222191   1.303   5.623   5.538
 1979SOL     H122192   1.270   5.706   5.573
 1979SOL     H222193   1.276   5.623   5.446
 1980SOL    OH222194   1.761   5.942   5.456
 1980SOL     H122195   1.704   5.881   5.504
 1980SOL     H222196   1.758   5.911   5.366
 1981SOL    OH222197   5.654   1.497   4.872
 1981SOL     H122198   5.616   1.523   4.788
 1981SOL     H222199   5.580   1.465   4.923
 1982SOL    OH222200   5.735   5.756   1.437
 1982SOL     H122201   5.814   5.811   1.443
 1982SOL     H222202   5.668   5.815   1.402
 1983SOL    OH222203   4.095   2.450   0.313
 1983SOL     H122204   4.003   2.473   0.326
 1983SOL     H222205   4.092   2.373   0.255
 1984SOL    OH222206   0.909   1.683   0.712
 1984SOL     H122207   0.816   1.665   0.727
 1984SOL     H222208   0.911   1.775   0.686
 1985SOL    OH222209   0.744   0.106   0.684
 1985SOL     H122210   0.708   0.041   0.624
 1985SOL     H222211   0.675   0.119   0.749
 1986SOL    OH222212   6.191   6.317   6.471
 1986SOL     H122213   6.141   6.294   6.393
 1986SOL     H222214   6.255   6.246   6.480
 1987SOL    OH222215   4.107   1.581   1.134
 1987SOL     H122216   4.090   1.579   1.228
 1987SOL     H222217   4.168   1.509   1.119
 1988SOL    OH222218   5.265   0.228   0.333
 1988SOL     H122219   5.311   0.144   0.331
 1988SOL     H222220   5.308   0.277   0.403
 1989SOL    OH222221   2.472   4.458   1.235
 1989SOL     H122222   2.536   4.423   1.297
 1989SOL     H222223   2.491   4.551   1.230
 1990SOL    OH222224   0.202   4.681   5.508
 1990SOL     H122225   0.224   4.698   5.416
 1990SOL     H222226   0.279   4.636   5.543
 1991SOL    OH222227   3.226   3.009   0.983
 1991SOL     H122228   3.261   2.932   0.939
 1991SOL     H222229   3.133   3.010   0.960
 1992SOL    OH222230   3.193   4.293   5.095
 1992SOL     H122231   3.124   4.325   5.153
 1992SOL     H222232   3.149   4.274   5.013
 1993SOL    OH222233   6.259   5.322   5.227
 1993SOL     H122234   6.257   5.316   5.323
 1993SOL     H222235   6.195   5.390   5.206
 1994SOL    OH222236   4.387   3.965   1.154
 1994SOL     H122237   4.444   4.003   1.220
 1994SOL     H222238   4.438   3.893   1.116
 1995SOL    OH222239   1.130   3.049   5.957
 1995SOL     H122240   1.149   2.955   5.952
 1995SOL     H222241   1.034   3.054   5.965
 1996SOL    OH222242   3.709   1.324   6.431
 1996SOL     H122243   3.618   1.353   6.426
 1996SOL     H222244   3.704   1.229   6.441
 1997SOL    OH222245   1.162   1.998   6.663
 1997SOL     H122246   1.086   2.047   0.014
 1997SOL     H222247   1.147   1.987   6.569
 1998SOL    OH222248   1.447   4.298   0.683
 1998SOL     H122249   1.435   4.239   0.609
 1998SOL     H222250   1.392   4.373   0.663
 1999SOL    OH222251   0.889   5.311   6.300
 1999SOL     H122252   0.855   5.287   6.214
 1999SOL     H222253   0.818   5.288   6.360
 2000SOL    OH222254   4.218   4.224   0.722
 2000SOL     H122255   4.173   4.144   0.697
 2000SOL     H222256   4.238   4.213   0.815
 2001SOL    OH222257   5.697   5.125   6.218
 2001SOL     H122258   5.636   5.195   6.195
 2001SOL     H222259   5.778   5.171   6.241
 2002SOL    OH222260   2.053   1.744   0.262
 2002SOL     H122261   2.051   1.801   0.339
 2002SOL     H222262   2.083   1.801   0.191
 2003SOL    OH222263   4.041   2.291   5.438
 2003SOL     H122264   4.086   2.292   5.523
 2003SOL     H222265   4.086   2.358   5.387
 2004SOL    OH222266   5.259   1.235   5.635
 2004SOL     H122267   5.326   1.303   5.646
 2004SOL     H222268   5.183   1.282   5.601
 2005SOL    OH222269   0.684   1.578   1.548
 2005SOL     H122270   0.746   1.638   1.507
 2005SOL     H222271   0.729   1.493   1.549
 2006SOL    OH222272   5.677   2.676   1.198
 2006SOL     H122273   5.679   2.751   1.140
 2006SOL     H222274   5.584   2.667   1.222
 2007SOL    OH222275   4.640   4.101   0.493
 2007SOL     H122276   4.734   4.119   0.502
 2007SOL     H222277   4.598   4.169   0.546
 2008SOL    OH222278   5.166   0.109   6.155
 2008SOL     H122279   5.108   0.184   6.164
 2008SOL     H222280   5.255   0.145   6.162
 2009SOL    OH222281   4.074   2.036   5.705
 2009SOL     H122282   4.056   2.009   5.615
 2009SOL     H222283   4.104   2.126   5.698
 2010SOL    OH222284   3.355   3.959   1.925
 2010SOL     H122285   3.265   3.938   1.950
 2010SOL     H222286   3.360   4.054   1.933
 2011SOL    OH222287   2.823   3.599   0.881
 2011SOL     H122288   2.883   3.659   0.839
 2011SOL     H222289   2.775   3.653   0.944
 2012SOL    OH222290   0.630   2.949   0.816
 2012SOL     H122291   0.586   3.009   0.756
 2012SOL     H222292   0.576   2.870   0.815
 2013SOL    OH222293   5.394   6.320   0.731
 2013SOL     H122294   5.479   6.362   0.718
 2013SOL     H222295   5.409   6.229   0.705
 2014SOL    OH222296   1.341   1.428   5.189
 2014SOL     H122297   1.431   1.426   5.223
 2014SOL     H222298   1.352   1.438   5.094
 2015SOL    OH222299   2.020   4.473   5.745
 2015SOL     H122300   2.007   4.530   5.821
 2015SOL     H222301   1.978   4.390   5.770
 2016SOL    OH222302   1.299   3.914   5.886
 2016SOL     H122303   1.317   3.991   5.833
 2016SOL     H222304   1.369   3.853   5.863
 2017SOL    OH222305   6.092   3.781   0.927
 2017SOL     H122306   6.114   3.867   0.891
 2017SOL     H222307   6.049   3.799   1.010
 2018SOL    OH222308   1.224   3.512   1.580
 2018SOL     H122309   1.268   3.562   1.510
 2018SOL     H222310   1.157   3.572   1.614
 2019SOL    OH222311   2.713   0.536   5.077
 2019SOL     H122312   2.755   0.586   5.147
 2019SOL     H222313   2.777   0.537   5.005
 2020SOL    OH222314   2.188   5.441   0.925
 2020SOL     H122315   2.133   5.376   0.969
 2020SOL     H222316   2.275   5.428   0.963
 2021SOL    OH222317   1.836   2.243   5.291
 2021SOL     H122318   1.869   2.276   5.208
 2021SOL     H222319   1.913   2.240   5.348
 2022SOL    OH222320   2.691   3.124   6.170
 2022SOL     H122321   2.770   3.144   6.120
 2022SOL     H222322   2.664   3.207   6.208
 2023SOL    OH222323   1.278   5.593   5.263
 2023SOL     H122324   1.362   5.577   5.220
 2023SOL     H222325   1.229   5.511   5.249
 2024SOL    OH222326   1.037   1.504   6.191
 2024SOL     H122327   0.999   1.463   6.268
 2024SOL     H222328   0.962   1.528   6.137
 2025SOL    OH222329   5.410   1.331   1.300
 2025SOL     H122330   5.373   1.245   1.319
 2025SOL     H222331   5.469   1.348   1.373
 2026SOL    OH222332   5.984   5.217   6.333
 2026SOL     H122333   5.981   5.313   6.332
 2026SOL     H222334   6.000   5.194   6.424
 2027SOL    OH222335   5.410   2.106   6.539
 2027SOL     H122336   5.468   2.144   6.472
 2027SOL     H222337   5.329   2.086   6.492
 2028SOL    OH222338   2.748   6.202   1.524
 2028SOL     H122339   2.684   6.264   1.558
 2028SOL     H222340   2.764   6.142   1.597
 2029SOL    OH222341   5.431   1.467   6.032
 2029SOL     H122342   5.442   1.442   6.124
 2029SOL     H222343   5.496   1.414   5.986
 2030SOL    OH222344   0.523   4.048   5.418
 2030SOL     H122345   0.470   3.970   5.401
 2030SOL     H222346   0.532   4.091   5.333
 2031SOL    OH222347   4.631   1.479   0.051
 2031SOL     H122348   4.653   1.531   0.128
 2031SOL     H222349   4.537   1.490   0.040
 2032SOL    OH222350   0.971   3.618   6.209
 2032SOL     H122351   0.910   3.649   6.275
 2032SOL     H222352   0.976   3.523   6.224
 2033SOL    OH222353   0.316   3.384   5.436
 2033SOL     H122354   0.356   3.452   5.381
 2033SOL     H222355   0.224   3.383   5.409
 2034SOL    OH222356   0.262   1.237   1.106
 2034SOL     H122357   0.254   1.163   1.166
 2034SOL     H222358   0.271   1.197   1.019
 2035SOL    OH222359   4.434   3.511   5.527
 2035SOL     H122360   4.506   3.538   5.470
 2035SOL     H222361   4.423   3.585   5.587
 2036SOL    OH222362   1.300   4.780   5.688
 2036SOL     H122363   1.269   4.691   5.678
 2036SOL     H222364   1.222   4.835   5.678
 2037SOL    OH222365   0.627   4.036   4.770
 2037SOL     H122366   0.570   4.089   4.825
 2037SOL     H222367   0.653   4.094   4.699
 2038SOL    OH222368   0.797   5.750   6.292
 2038SOL     H122369   0.869   5.695   6.260
 2038SOL     H222370   0.838   5.835   6.307
 2039SOL    OH222371   3.698   3.397   1.802
 2039SOL     H122372   3.632   3.339   1.763
 2039SOL     H222373   3.677   3.484   1.769
 2040SOL    OH222374   0.746   3.557   5.045
 2040SOL     H122375   0.690   3.488   5.081
 2040SOL     H222376   0.687   3.609   4.991
 2041SOL    OH222377   2.905   3.648   0.339
 2041SOL     H122378   2.856   3.569   0.361
 2041SOL     H222379   2.951   3.626   0.259
 2042SOL    OH222380   3.965   0.425   0.130
 2042SOL     H122381   3.985   0.337   0.097
 2042SOL     H222382   4.041   0.478   0.104
 2043SOL    OH222383   0.523   0.423   1.336
 2043SOL     H122384   0.460   0.374   1.389
 2043SOL     H222385   0.470   0.486   1.287
 2044SOL    OH222386   5.821   4.034   0.815
 2044SOL     H122387   5.877   4.088   0.758
 2044SOL     H222388   5.818   4.082   0.898
 2045SOL    OH222389   1.620   1.426   0.948
 2045SOL     H122390   1.658   1.344   0.979
 2045SOL     H222391   1.538   1.401   0.908
 2046SOL    OH222392   4.000   6.404   0.794
 2046SOL     H122393   3.929   6.373   0.850
 2046SOL     H222394   3.969   6.388   0.704
 2047SOL    OH222395   2.769   4.387   0.567
 2047SOL     H122396   2.838   4.340   0.520
 2047SOL     H222397   2.768   4.474   0.526
 2048SOL    OH222398   5.992   4.309   5.249
 2048SOL     H122399   5.965   4.217   5.243
 2048SOL     H222400   5.910   4.358   5.261
 2049SOL    OH222401   3.355   4.606   5.391
 2049SOL     H122402   3.396   4.563   5.316
 2049SOL     H222403   3.409   4.684   5.406
 2050SOL    OH222404   1.538   1.430   6.356
 2050SOL     H122405   1.477   1.359   6.338
 2050SOL     H222406   1.600   1.393   6.418
 2051SOL    OH222407   1.231   1.509   5.436
 2051SOL     H122408   1.300   1.549   5.489
 2051SOL     H222409   1.273   1.488   5.353
 2052SOL    OH222410   0.097   1.999   5.764
 2052SOL     H122411   0.179   1.985   5.716
 2052SOL     H222412   0.122   1.984   5.856
 2053SOL    OH222413   2.795   3.174   0.779
 2053SOL     H122414   2.753   3.257   0.758
 2053SOL     H222415   2.776   3.118   0.704
 2054SOL    OH222416   1.981   2.636   5.652
 2054SOL     H122417   2.064   2.594   5.672
 2054SOL     H222418   2.004   2.706   5.591
 2055SOL    OH222419   5.126   4.566   6.152
 2055SOL     H122420   5.111   4.509   6.227
 2055SOL     H222421   5.166   4.645   6.189
 2056SOL    OH222422   0.095   2.096   0.952
 2056SOL     H122423   0.044   2.164   0.908
 2056SOL     H222424   0.127   2.138   1.033
 2057SOL    OH222425   4.330   4.006   6.680
 2057SOL     H122426   4.417   4.020   0.038
 2057SOL     H222427   4.270   4.008   0.073
 2058SOL    OH222428   4.344   4.361   5.529
 2058SOL     H122429   4.419   4.302   5.520
 2058SOL     H222430   4.278   4.323   5.471
 2059SOL    OH222431   3.355   0.188   6.242
 2059SOL     H122432   3.354   0.129   6.318
 2059SOL     H222433   3.379   0.131   6.169
 2060SOL    OH222434   3.401   3.245   0.775
 2060SOL     H122435   3.312   3.264   0.803
 2060SOL     H222436   3.456   3.303   0.829
 2061SOL    OH222437   1.340   1.128   5.493
 2061SOL     H122438   1.331   1.036   5.471
 2061SOL     H222439   1.290   1.174   5.425
 2062SOL    OH222440   5.671   4.318   5.015
 2062SOL     H122441   5.710   4.341   4.931
 2062SOL     H222442   5.602   4.255   4.994
 2063SOL    OH222443   2.384   2.423   6.193
 2063SOL     H122444   2.474   2.456   6.197
 2063SOL     H222445   2.343   2.458   6.272
 2064SOL    OH222446   1.449   6.190   5.807
 2064SOL     H122447   1.491   6.216   5.725
 2064SOL     H222448   1.469   6.096   5.815
 2065SOL    OH222449   5.095   5.906   6.243
 2065SOL     H122450   5.124   5.827   6.196
 2065SOL     H222451   5.075   5.875   6.331
 2066SOL    OH222452   5.517   1.543   4.649
 2066SOL     H122453   5.547   1.483   4.581
 2066SOL     H222454   5.424   1.557   4.630
 2067SOL    OH222455   0.447   2.484   0.975
 2067SOL     H122456   0.462   2.471   1.069
 2067SOL     H222457   0.354   2.468   0.963
 2068SOL    OH222458   1.054   4.900   0.205
 2068SOL     H122459   1.064   4.989   0.238
 2068SOL     H222460   1.144   4.867   0.197
 2069SOL    OH222461   1.451   4.888   0.428
 2069SOL     H122462   1.485   4.920   0.511
 2069SOL     H222463   1.465   4.793   0.432
 2070SOL    OH222464   2.705   0.799   6.171
 2070SOL     H122465   2.797   0.810   6.195
 2070SOL     H222466   2.662   0.772   6.252
 2071SOL    OH222467   5.669   4.633   0.697
 2071SOL     H122468   5.590   4.602   0.742
 2071SOL     H222469   5.723   4.670   0.767
 2072SOL    OH222470   5.684   4.896   1.421
 2072SOL     H122471   5.600   4.894   1.375
 2072SOL     H222472   5.721   4.809   1.410
 2073SOL    OH222473   4.143   5.407   0.494
 2073SOL     H122474   4.105   5.489   0.526
 2073SOL     H222475   4.149   5.352   0.573
 2074SOL    OH222476   5.797   1.475   5.963
 2074SOL     H122477   5.736   1.411   5.928
 2074SOL     H222478   5.770   1.488   6.054
 2075SOL    OH222479   2.359   0.903   6.056
 2075SOL     H122480   2.297   0.974   6.038
 2075SOL     H222481   2.445   0.945   6.049
 2076SOL    OH222482   3.047   6.240   5.753
 2076SOL     H122483   3.098   6.190   5.689
 2076SOL     H222484   3.113   6.289   5.803
 2077SOL    OH222485   3.272   1.083   0.258
 2077SOL     H122486   3.256   1.097   0.351
 2077SOL     H222487   3.251   1.166   0.217
 2078SOL    OH222488   4.186   4.861   1.698
 2078SOL     H122489   4.143   4.907   1.626
 2078SOL     H222490   4.117   4.809   1.738
 2079SOL    OH222491   5.478   4.713   1.077
 2079SOL     H122492   5.478   4.649   1.006
 2079SOL     H222493   5.546   4.776   1.053
 2080SOL    OH222494   4.148   4.016   0.200
 2080SOL     H122495   4.133   4.087   0.262
 2080SOL     H222496   4.089   3.946   0.230
 2081SOL    OH222497   4.099   0.137   6.127
 2081SOL     H122498   4.109   0.080   6.051
 2081SOL     H222499   4.116   0.225   6.094
 2082SOL    OH222500   5.505   1.692   6.453
 2082SOL     H122501   5.554   1.722   6.530
 2082SOL     H222502   5.552   1.727   6.378
 2083SOL    OH222503   4.854   0.950   4.984
 2083SOL     H122504   4.858   1.006   5.061
 2083SOL     H222505   4.761   0.939   4.966
 2084SOL    OH222506   4.009   0.163   0.028
 2084SOL     H122507   4.057   0.081   0.035
 2084SOL     H222508   3.923   0.139   6.676
 2085SOL    OH222509   3.760   0.114   6.597
 2085SOL     H122510   3.713   0.197   6.606
 2085SOL     H222511   3.786   0.111   6.505
 2086SOL    OH222512   1.465   6.314   6.421
 2086SOL     H122513   1.405   6.286   6.490
 2086SOL     H222514   1.450   6.252   6.349
 2087SOL    OH222515   3.481   3.279   1.683
 2087SOL     H122516   3.422   3.227   1.738
 2087SOL     H222517   3.436   3.362   1.671
 2088SOL    OH222518   2.797   0.720   0.402
 2088SOL     H122519   2.774   0.635   0.438
 2088SOL     H222520   2.875   0.704   0.350
 2089SOL    OH222521   5.605   5.919   6.157
 2089SOL     H122522   5.617   5.980   6.229
 2089SOL     H222523   5.691   5.911   6.117
 2090SOL    OH222524   4.571   0.665   5.691
 2090SOL     H122525   4.530   0.691   5.609
 2090SOL     H222526   4.609   0.579   5.672
 2091SOL    OH222527   3.995   3.452   6.433
 2091SOL     H122528   4.001   3.517   6.364
 2091SOL     H222529   3.996   3.368   6.387
 2092SOL    OH222530   4.957   5.720   1.504
 2092SOL     H122531   4.957   5.746   1.596
 2092SOL     H222532   4.905   5.787   1.460
 2093SOL    OH222533   5.706   0.713   5.740
 2093SOL     H122534   5.663   0.630   5.759
 2093SOL     H222535   5.637   0.778   5.749
 2094SOL    OH222536   2.328   0.710   5.272
 2094SOL     H122537   2.377   0.645   5.223
 2094SOL     H222538   2.244   0.717   5.226
 2095SOL    OH222539   3.955   0.460   5.080
 2095SOL     H122540   3.870   0.496   5.055
 2095SOL     H222541   3.992   0.526   5.140
 2096SOL    OH222542   6.177   6.189   0.735
 2096SOL     H122543   6.089   6.223   0.721
 2096SOL     H222544   6.164   6.099   0.763
 2097SOL    OH222545   2.398   6.380   5.686
 2097SOL     H122546   2.341   6.322   5.637
 2097SOL     H222547   2.473   6.394   5.629
 2098SOL    OH222548   2.887   4.408   6.377
 2098SOL     H122549   2.878   4.501   6.359
 2098SOL     H222550   2.800   4.379   6.404
 2099SOL    OH222551   1.601   1.084   6.232
 2099SOL     H122552   1.526   1.144   6.235
 2099SOL     H222553   1.646   1.106   6.150
 2100SOL    OH222554   4.346   4.473   6.302
 2100SOL     H122555   4.441   4.479   6.310
 2100SOL     H222556   4.332   4.425   6.220
 2101SOL    OH222557   4.956   4.893   0.839
 2101SOL     H122558   4.964   4.919   0.748
 2101SOL     H222559   4.973   4.973   0.889
 2102SOL    OH222560   1.059   3.777   4.953
 2102SOL     H122561   1.143   3.797   4.913
 2102SOL     H222562   0.995   3.798   4.886
 2103SOL    OH222563   5.414   1.993   0.723
 2103SOL     H122564   5.506   1.977   0.705
 2103SOL     H222565   5.373   1.997   0.637
 2104SOL    OH222566   2.919   1.883   0.622
 2104SOL     H122567   2.907   1.822   0.694
 2104SOL     H222568   2.957   1.961   0.664
 2105SOL    OH222569   0.841   3.913   0.993
 2105SOL     H122570   0.877   3.824   0.992
 2105SOL     H222571   0.852   3.942   1.083
 2106SOL    OH222572   4.789   4.900   0.255
 2106SOL     H122573   4.809   4.839   0.327
 2106SOL     H222574   4.844   4.871   0.182
 2107SOL    OH222575   3.301   1.584   5.373
 2107SOL     H122576   3.248   1.661   5.353
 2107SOL     H222577   3.282   1.522   5.302
 2108SOL    OH222578   0.382   0.132   6.403
 2108SOL     H122579   0.389   0.227   6.391
 2108SOL     H222580   0.323   0.103   6.333
 2109SOL    OH222581   0.639   4.882   0.311
 2109SOL     H122582   0.653   4.944   0.383
 2109SOL     H222583   0.601   4.936   0.241
 2110SOL    OH222584   0.187   0.549   6.244
 2110SOL     H122585   0.211   0.622   6.188
 2110SOL     H222586   0.096   0.529   6.220
 2111SOL    OH222587   4.974   3.113   6.366
 2111SOL     H122588   5.018   3.028   6.369
 2111SOL     H222589   5.042   3.173   6.334
 2112SOL    OH222590   3.338   0.008   6.446
 2112SOL     H122591   3.354   0.077   6.511
 2112SOL     H222592   3.404   6.359   6.466
 2113SOL    OH222593   0.734   1.338   0.542
 2113SOL     H122594   0.772   1.405   0.485
 2113SOL     H222595   0.662   1.301   0.490
 2114SOL    OH222596   5.789   1.106   5.263
 2114SOL     H122597   5.833   1.092   5.179
 2114SOL     H222598   5.718   1.166   5.243
 2115SOL    OH222599   4.936   1.968   0.116
 2115SOL     H122600   5.031   1.960   0.117
 2115SOL     H222601   4.912   1.955   0.024
 2116SOL    OH222602   4.172   0.077   4.913
 2116SOL     H122603   4.147   6.417   4.962
 2116SOL     H222604   4.266   0.067   4.898
 2117SOL    OH222605   0.042   3.337   0.237
 2117SOL     H122606   6.292   3.266   0.275
 2117SOL     H222607   6.286   3.382   0.177
 2118SOL    OH222608   1.682   5.024   0.911
 2118SOL     H122609   1.708   4.957   0.974
 2118SOL     H222610   1.622   5.080   0.959
 2119SOL    OH222611   5.952   2.914   0.909
 2119SOL     H122612   5.988   2.993   0.869
 2119SOL     H222613   6.028   2.870   0.948
 2120SOL    OH222614   0.099   5.418   6.538
 2120SOL     H122615   0.168   5.481   6.561
 2120SOL     H222616   0.030   5.472   6.499
 2121SOL    OH222617   2.437   5.023   1.790
 2121SOL     H122618   2.503   4.993   1.727
 2121SOL     H222619   2.487   5.048   1.867
 2122SOL    OH222620   0.268   5.287   4.385
 2122SOL     H122621   0.358   5.257   4.379
 2122SOL     H222622   0.216   5.207   4.394
 2123SOL    OH222623   0.331   1.801   0.116
 2123SOL     H122624   0.403   1.776   0.174
 2123SOL     H222625   0.257   1.819   0.175
 2124SOL    OH222626   0.421   4.980   5.450
 2124SOL     H122627   0.331   4.979   5.482
 2124SOL     H222628   0.412   4.981   5.355
 2125SOL    OH222629   0.973   1.026   0.862
 2125SOL     H122630   0.953   1.076   0.783
 2125SOL     H222631   0.904   1.050   0.924
 2126SOL    OH222632   5.682   2.562   6.499
 2126SOL     H122633   5.714   2.482   6.457
 2126SOL     H222634   5.638   2.531   6.578
 2127SOL    OH222635   6.130   5.931   0.810
 2127SOL     H122636   6.108   5.864   0.745
 2127SOL     H222637   6.053   5.934   0.867
 2128SOL    OH222638   3.883   4.587   0.483
 2128SOL     H122639   3.795   4.625   0.487
 2128SOL     H222640   3.868   4.494   0.467
 2129SOL    OH222641   1.107   4.229   6.153
 2129SOL     H122642   1.023   4.240   6.108
 2129SOL     H222643   1.172   4.250   6.086
 2130SOL    OH222644   0.584   3.366   5.156
 2130SOL     H122645   0.546   3.292   5.107
 2130SOL     H222646   0.641   3.325   5.221
 2131SOL    OH222647   0.385   0.776   1.480
 2131SOL     H122648   0.414   0.809   1.395
 2131SOL     H222649   0.338   0.695   1.460
 2132SOL    OH222650   4.768   4.275   5.985
 2132SOL     H122651   4.802   4.186   5.998
 2132SOL     H222652   4.773   4.315   6.072
 2133SOL    OH222653   3.228   0.890   5.756
 2133SOL     H122654   3.198   0.838   5.682
 2133SOL     H222655   3.176   0.859   5.830
 2134SOL    OH222656   6.059   0.161   6.283
 2134SOL     H122657   6.154   0.167   6.294
 2134SOL     H222658   6.023   0.204   6.360
 2135SOL    OH222659   1.179   0.490   0.290
 2135SOL     H122660   1.215   0.570   0.251
 2135SOL     H222661   1.116   0.458   0.225
 2136SOL    OH222662   2.475   2.894   0.790
 2136SOL     H122663   2.412   2.849   0.846
 2136SOL     H222664   2.516   2.959   0.847
 2137SOL    OH222665   3.849   3.134   6.063
 2137SOL     H122666   3.829   3.119   5.971
 2137SOL     H222667   3.831   3.050   6.105
 2138SOL    OH222668   6.036   1.500   1.351
 2138SOL     H122669   6.066   1.541   1.432
 2138SOL     H222670   5.945   1.476   1.369
 2139SOL    OH222671   4.535   2.690   0.394
 2139SOL     H122672   4.549   2.606   0.437
 2139SOL     H222673   4.620   2.734   0.402
 2140SOL    OH222674   0.371   6.176   5.730
 2140SOL     H122675   0.456   6.132   5.736
 2140SOL     H222676   0.370   6.214   5.642
 2141SOL    OH222677   4.558   4.303   0.665
 2141SOL     H122678   4.635   4.340   0.709
 2141SOL     H222679   4.502   4.379   0.647
 2142SOL    OH222680   5.954   1.090   1.084
 2142SOL     H122681   6.019   1.153   1.052
 2142SOL     H222682   5.917   1.131   1.162
 2143SOL    OH222683   1.468   4.776   6.648
 2143SOL     H122684   1.522   4.844   6.609
 2143SOL     H222685   1.433   4.728   6.573
 2144SOL    OH222686   1.437   4.120   0.474
 2144SOL     H122687   1.381   4.171   0.416
 2144SOL     H222688   1.507   4.087   0.418
 2145SOL    OH222689   1.132   1.809   1.161
 2145SOL     H122690   1.091   1.849   1.237
 2145SOL     H222691   1.061   1.799   1.097
 2146SOL    OH222692   0.793   4.295   5.585
 2146SOL     H122693   0.832   4.209   5.571
 2146SOL     H222694   0.817   4.345   5.507
 2147SOL    OH222695   4.409   1.805   1.170
 2147SOL     H122696   4.390   1.886   1.217
 2147SOL     H222697   4.415   1.739   1.238
 2148SOL    OH222698   4.856   2.586   0.018
 2148SOL     H122699   4.780   2.645   0.023
 2148SOL     H222700   4.852   2.536   0.100
 2149SOL    OH222701   2.214   3.169   6.517
 2149SOL     H122702   2.246   3.231   6.452
 2149SOL     H222703   2.290   3.115   6.538
 2150SOL    OH222704   0.226   0.985   1.218
 2150SOL     H122705   0.196   0.898   1.191
 2150SOL     H222706   0.317   0.972   1.244
 2151SOL    OH222707   3.506   6.175   0.464
 2151SOL     H122708   3.456   6.097   0.489
 2151SOL     H222709   3.572   6.184   0.533
 2152SOL    OH222710   1.307   4.800   0.192
 2152SOL     H122711   1.362   4.793   0.115
 2152SOL     H222712   1.364   4.836   0.260
 2153SOL    OH222713   2.173   5.812   6.203
 2153SOL     H122714   2.119   5.795   6.125
 2153SOL     H222715   2.262   5.823   6.168
 2154SOL    OH222716   2.032   3.376   0.008
 2154SOL     H122717   1.952   3.429   0.007
 2154SOL     H222718   2.045   3.350   6.598
 2155SOL    OH222719   2.307   3.833   0.437
 2155SOL     H122720   2.386   3.803   0.393
 2155SOL     H222721   2.256   3.754   0.451
 2156SOL    OH222722   1.102   4.349   5.454
 2156SOL     H122723   1.024   4.392   5.418
 2156SOL     H222724   1.153   4.325   5.377
 2157SOL    OH222725   5.111   3.835   1.556
 2157SOL     H122726   5.071   3.756   1.592
 2157SOL     H222727   5.061   3.852   1.476
 2158SOL    OH222728   1.027   4.856   6.168
 2158SOL     H122729   0.991   4.877   6.082
 2158SOL     H222730   0.954   4.817   6.216
 2159SOL    OH222731   3.396   5.897   6.278
 2159SOL     H122732   3.335   5.949   6.330
 2159SOL     H222733   3.403   5.814   6.324
 2160SOL    OH222734   6.254   6.231   5.810
 2160SOL     H122735   6.292   6.315   5.838
 2160SOL     H222736   6.162   6.237   5.837
 2161SOL    OH222737   0.189   5.741   5.309
 2161SOL     H122738   0.171   5.819   5.362
 2161SOL     H222739   0.274   5.758   5.269
 2162SOL    OH222740   4.083   1.230   1.253
 2162SOL     H122741   4.001   1.277   1.241
 2162SOL     H222742   4.092   1.221   1.347
 2163SOL    OH222743   5.158   0.376   5.536
 2163SOL     H122744   5.132   0.446   5.596
 2163SOL     H222745   5.201   0.422   5.463
 2164SOL    OH222746   3.139   1.157   0.503
 2164SOL     H122747   3.134   1.245   0.539
 2164SOL     H222748   3.087   1.103   0.562
 2165SOL    OH222749   1.364   6.274   0.823
 2165SOL     H122750   1.288   6.332   0.825
 2165SOL     H222751   1.332   6.194   0.782
 2166SOL    OH222752   4.333   2.040   1.291
 2166SOL     H122753   4.333   2.072   1.381
 2166SOL     H222754   4.342   2.118   1.237
 2167SOL    OH222755   1.161   4.502   6.594
 2167SOL     H122756   1.104   4.468   6.525
 2167SOL     H222757   1.115   4.579   6.628
 2168SOL    OH222758   3.017   3.826   0.518
 2168SOL     H122759   2.978   3.764   0.457
 2168SOL     H222760   2.945   3.854   0.573
 2169SOL    OH222761   3.840   5.012   0.666
 2169SOL     H122762   3.747   4.998   0.682
 2169SOL     H222763   3.852   4.995   0.573
 2170SOL    OH222764   0.851   6.333   5.670
 2170SOL     H122765   0.888   0.003   5.662
 2170SOL     H222766   0.758   6.344   5.651
 2171SOL    OH222767   2.332   5.774   5.209
 2171SOL     H122768   2.338   5.796   5.116
 2171SOL     H222769   2.383   5.693   5.218
 2172SOL    OH222770   5.641   0.023   0.697
 2172SOL     H122771   5.642   0.100   0.640
 2172SOL     H222772   5.726   6.400   0.684
 2173SOL    OH222773   3.388   0.006   0.801
 2173SOL     H122774   3.433   0.069   0.745
 2173SOL     H222775   3.370   0.054   0.882
 2174SOL    OH222776   4.404   3.423   1.083
 2174SOL     H122777   4.334   3.377   1.129
 2174SOL     H222778   4.364   3.506   1.055
 2175SOL    OH222779   4.546   4.172   5.513
 2175SOL     H122780   4.541   4.142   5.604
 2175SOL     H222781   4.631   4.142   5.482
 2176SOL    OH222782   2.259   0.919   5.441
 2176SOL     H122783   2.201   0.966   5.381
 2176SOL     H222784   2.289   0.844   5.391
 2177SOL    OH222785   5.107   3.969   0.906
 2177SOL     H122786   5.049   3.911   0.955
 2177SOL     H222787   5.178   3.911   0.875
 2178SOL    OH222788   2.529   1.882   6.489
 2178SOL     H122789   2.559   1.933   6.564
 2178SOL     H222790   2.569   1.924   6.413
 2179SOL    OH222791   3.711   1.049   5.763
 2179SOL     H122792   3.723   1.129   5.815
 2179SOL     H222793   3.628   1.013   5.794
 2180SOL    OH222794   2.878   5.769   5.267
 2180SOL     H122795   2.815   5.724   5.209
 2180SOL     H222796   2.927   5.827   5.208
 2181SOL    OH222797   2.281   1.109   0.909
 2181SOL     H122798   2.297   1.191   0.861
 2181SOL     H222799   2.336   1.045   0.865
 2182SOL    OH222800   4.897   5.215   0.465
 2182SOL     H122801   4.915   5.298   0.508
 2182SOL     H222802   4.921   5.230   0.374
 2183SOL    OH222803   0.274   3.722   5.604
 2183SOL     H122804   0.277   3.797   5.664
 2183SOL     H222805   0.309   3.756   5.522
 2184SOL    OH222806   3.876   3.580   1.162
 2184SOL     H122807   3.920   3.622   1.236
 2184SOL     H222808   3.806   3.529   1.202
 2185SOL    OH222809   2.986   1.014   0.667
 2185SOL     H122810   3.009   0.947   0.731
 2185SOL     H222811   2.897   1.040   0.689
 2186SOL    OH222812   0.476   5.219   4.654
 2186SOL     H122813   0.446   5.149   4.712
 2186SOL     H222814   0.467   5.183   4.566
 2187SOL    OH222815   1.860   4.411   0.536
 2187SOL     H122816   1.791   4.410   0.469
 2187SOL     H222817   1.865   4.502   0.564
 2188SOL    OH222818   4.177   6.365   0.028
 2188SOL     H122819   4.167   6.296   0.093
 2188SOL     H222820   4.240   6.330   6.646
 2189SOL    OH222821   3.918   1.152   0.628
 2189SOL     H122822   3.978   1.077   0.635
 2189SOL     H222823   3.864   1.132   0.552
 2190SOL    OH222824   1.138   0.833   5.166
 2190SOL     H122825   1.157   0.902   5.102
 2190SOL     H222826   1.044   0.841   5.183
 2191SOL    OH222827   1.793   3.332   0.384
 2191SOL     H122828   1.800   3.424   0.357
 2191SOL     H222829   1.843   3.283   0.318
 2192SOL    OH222830   1.351   3.924   0.643
 2192SOL     H122831   1.437   3.886   0.661
 2192SOL     H222832   1.368   3.998   0.586
 2193SOL    OH222833   1.328   5.654   1.010
 2193SOL     H122834   1.401   5.667   1.070
 2193SOL     H222835   1.293   5.568   1.032
 2194SOL    OH222836   2.469   3.432   0.356
 2194SOL     H122837   2.405   3.416   0.287
 2194SOL     H222838   2.447   3.369   0.425
 2195SOL    OH222839   2.590   3.211   6.489
 2195SOL     H122840   2.595   3.271   6.414
 2195SOL     H222841   2.568   3.268   6.563
 2196SOL    OH222842   2.727   2.113   0.853
 2196SOL     H122843   2.695   2.022   0.847
 2196SOL     H222844   2.802   2.108   0.912
 2197SOL    OH222845   4.852   0.449   0.590
 2197SOL     H122846   4.932   0.468   0.639
 2197SOL     H222847   4.782   0.491   0.641
 2198SOL    OH222848   5.333   4.936   0.073
 2198SOL     H122849   5.392   4.972   0.139
 2198SOL     H222850   5.251   4.983   0.086
 2199SOL    OH222851   3.007   0.626   0.240
 2199SOL     H122852   3.039   0.713   0.217
 2199SOL     H222853   3.086   0.573   0.248
 2200SOL    OH222854   5.958   1.887   5.231
 2200SOL     H122855   6.021   1.845   5.291
 2200SOL     H222856   5.887   1.916   5.288
 2201SOL    OH222857   6.169   1.847   0.023
 2201SOL     H122858   6.164   1.844   6.608
 2201SOL     H222859   6.130   1.931   0.047
 2202SOL    OH222860   6.054   1.055   5.359
 2202SOL     H122861   6.098   1.055   5.275
 2202SOL     H222862   5.962   1.075   5.338
 2203SOL    OH222863   5.821   6.199   0.924
 2203SOL     H122864   5.843   6.226   0.834
 2203SOL     H222865   5.838   6.278   0.976
 2204SOL    OH222866   3.765   6.343   0.926
 2204SOL     H122867   3.727   0.005   0.893
 2204SOL     H222868   3.715   6.324   1.006
 2205SOL    OH222869   2.596   5.234   0.009
 2205SOL     H122870   2.576   5.218   6.597
 2205SOL     H222871   2.665   5.171   0.029
 2206SOL    OH222872   4.280   0.301   0.945
 2206SOL     H122873   4.324   0.264   0.869
 2206SOL     H222874   4.187   0.301   0.921
 2207SOL    OH222875   2.624   5.645   0.089
 2207SOL     H122876   2.566   5.681   0.022
 2207SOL     H222877   2.712   5.660   0.055
 2208SOL    OH222878   3.680   3.418   1.259
 2208SOL     H122879   3.690   3.348   1.195
 2208SOL     H222880   3.670   3.373   1.343
 2209SOL    OH222881   5.410   0.238   6.207
 2209SOL     H122882   5.361   0.256   6.288
 2209SOL     H222883   5.469   0.167   6.231
 2210SOL    OH222884   3.293   0.497   0.004
 2210SOL     H122885   3.282   0.484   0.098
 2210SOL     H222886   3.209   0.474   6.646
 2211SOL    OH222887   2.601   1.031   6.055
 2211SOL     H122888   2.642   0.952   6.091
 2211SOL     H222889   2.674   1.090   6.037
 2212SOL    OH222890   1.872   4.177   0.047
 2212SOL     H122891   1.849   4.257   0.000
 2212SOL     H222892   1.805   4.114   0.020
 2213SOL    OH222893   4.409   1.651   1.406
 2213SOL     H122894   4.385   1.561   1.429
 2213SOL     H222895   4.504   1.655   1.422
 2214SOL    OH222896   4.270   1.144   6.275
 2214SOL     H122897   4.244   1.215   6.216
 2214SOL     H222898   4.198   1.082   6.271
 2215SOL    OH222899   3.823   5.423   0.314
 2215SOL     H122900   3.858   5.510   0.299
 2215SOL     H222901   3.732   5.428   0.286
 2216SOL    OH222902   4.322   4.877   0.842
 2216SOL     H122903   4.349   4.871   0.750
 2216SOL     H222904   4.228   4.892   0.838
 2217SOL    OH222905   4.413   5.677   0.250
 2217SOL     H122906   4.324   5.712   0.244
 2217SOL     H222907   4.449   5.715   0.330
 2218SOL    OH222908   4.917   5.394   2.331
 2218SOL     H122909   4.989   5.379   2.270
 2218SOL     H222910   4.951   5.457   2.394
 2219SOL    OH222911   0.405   6.188   1.218
 2219SOL     H122912   0.374   6.182   1.309
 2219SOL     H222913   0.429   6.098   1.196
 2220SOL    OH222914   1.266   0.396   5.897
 2220SOL     H122915   1.248   0.490   5.895
 2220SOL     H222916   1.306   0.381   5.982
 2221SOL    OH222917   3.154   4.212   1.551
 2221SOL     H122918   3.130   4.179   1.637
 2221SOL     H222919   3.191   4.299   1.568
 2222SOL    OH222920   4.889   2.573   0.480
 2222SOL     H122921   4.978   2.598   0.506
 2222SOL     H222922   4.843   2.655   0.465
 2223SOL    OH222923   0.088   4.993   0.830
 2223SOL     H122924   0.055   4.904   0.839
 2223SOL     H222925   0.010   5.046   0.816
 2224SOL    OH222926   2.096   0.911   1.425
 2224SOL     H122927   2.032   0.921   1.496
 2224SOL     H222928   2.130   0.822   1.437
 2225SOL    OH222929   3.766   6.174   6.164
 2225SOL     H122930   3.713   6.120   6.222
 2225SOL     H222931   3.833   6.212   6.220
 2226SOL    OH222932   0.472   4.690   0.429
 2226SOL     H122933   0.518   4.619   0.474
 2226SOL     H222934   0.542   4.747   0.397
 2227SOL    OH222935   3.835   3.984   0.811
 2227SOL     H122936   3.846   3.894   0.839
 2227SOL     H222937   3.802   4.030   0.888
 2228SOL    OH222938   4.096   5.057   5.110
 2228SOL     H122939   4.178   5.100   5.085
 2228SOL     H222940   4.028   5.122   5.092
 2229SOL    OH222941   2.204   3.141   5.387
 2229SOL     H122942   2.119   3.122   5.427
 2229SOL     H222943   2.186   3.146   5.293
 2230SOL    OH222944   0.424   3.142   6.110
 2230SOL     H122945   0.422   3.223   6.059
 2230SOL     H222946   0.377   3.163   6.190
 2231SOL    OH222947   0.019   3.884   6.253
 2231SOL     H122948   0.091   3.937   6.289
 2231SOL     H222949   0.061   3.800   6.232
 2232SOL    OH222950   3.996   3.956   5.983
 2232SOL     H122951   3.952   3.945   5.899
 2232SOL     H222952   3.933   3.924   6.048
 2233SOL    OH222953   5.969   1.946   4.969
 2233SOL     H122954   5.937   2.036   4.970
 2233SOL     H222955   5.966   1.919   5.061
 2234SOL    OH222956   3.459   2.283   6.300
 2234SOL     H122957   3.544   2.255   6.334
 2234SOL     H222958   3.443   2.223   6.227
 2235SOL    OH222959   6.068   1.291   0.348
 2235SOL     H122960   6.062   1.347   0.426
 2235SOL     H222961   5.978   1.285   0.316
 2236SOL    OH222962   4.274   0.586   1.585
 2236SOL     H122963   4.185   0.598   1.619
 2236SOL     H222964   4.329   0.637   1.645
 2237SOL    OH222965   2.920   3.839   0.044
 2237SOL     H122966   2.896   3.906   6.661
 2237SOL     H222967   2.998   3.874   0.088
 2238SOL    OH222968   1.991   3.265   1.204
 2238SOL     H122969   1.955   3.215   1.130
 2238SOL     H222970   1.982   3.206   1.279
 2239SOL    OH222971   4.294   1.001   1.769
 2239SOL     H122972   4.249   1.015   1.685
 2239SOL     H222973   4.224   0.988   1.832
 2240SOL    OH222974   0.463   6.128   0.107
 2240SOL     H122975   0.459   6.066   0.180
 2240SOL     H222976   0.502   6.077   0.036
 2241SOL    OH222977   2.537   3.346   0.039
 2241SOL     H122978   2.561   3.437   0.058
 2241SOL     H222979   2.449   3.337   0.077
 2242SOL    OH222980   3.420   4.177   6.344
 2242SOL     H122981   3.409   4.137   6.431
 2242SOL     H222982   3.380   4.116   6.284
 2243SOL    OH222983   3.034   2.427   5.375
 2243SOL     H122984   3.100   2.438   5.307
 2243SOL     H222985   3.020   2.515   5.411
 2244SOL    OH222986   2.061   0.413   6.218
 2244SOL     H122987   2.026   0.326   6.198
 2244SOL     H222988   2.069   0.456   6.133
 2245SOL    OH222989   5.613   4.924   1.680
 2245SOL     H122990   5.547   4.992   1.689
 2245SOL     H222991   5.637   4.925   1.587
 2246SOL    OH222992   5.810   0.279   5.181
 2246SOL     H122993   5.716   0.298   5.173
 2246SOL     H222994   5.836   0.321   5.264
 2247SOL    OH222995   2.512   0.156   0.191
 2247SOL     H122996   2.425   0.132   0.159
 2247SOL     H222997   2.496   0.229   0.251
 2248SOL    OH222998   3.736   1.075   6.165
 2248SOL     H122999   3.695   1.062   6.250
 2248SOL     H223000   3.743   0.987   6.128
 2249SOL    OH223001   1.717   0.800   0.373
 2249SOL     H123002   1.674   0.844   0.300
 2249SOL     H223003   1.649   0.744   0.411
 2250SOL    OH223004   6.268   5.791   4.900
 2250SOL     H123005   6.184   5.756   4.871
 2250SOL     H223006   6.265   5.785   4.995
 2251SOL    OH223007   5.651   6.069   6.380
 2251SOL     H123008   5.614   6.017   6.452
 2251SOL     H223009   5.738   6.095   6.410
 2252SOL    OH223010   5.657   0.556   0.128
 2252SOL     H123011   5.708   0.617   0.182
 2252SOL     H223012   5.570   0.597   0.124
 2253SOL    OH223013   4.580   4.147   1.611
 2253SOL     H123014   4.542   4.199   1.683
 2253SOL     H223015   4.543   4.059   1.624
 2254SOL    OH223016   5.378   3.457   0.037
 2254SOL     H123017   5.337   3.531   0.082
 2254SOL     H223018   5.342   3.460   6.630
 2255SOL    OH223019   4.550   1.944   5.995
 2255SOL     H123020   4.531   2.038   6.000
 2255SOL     H223021   4.472   1.902   6.031
 2256SOL    OH223022   2.291   1.744   5.563
 2256SOL     H123023   2.259   1.667   5.516
 2256SOL     H223024   2.376   1.762   5.524
 2257SOL    OH223025   4.200   2.891   5.572
 2257SOL     H123026   4.266   2.950   5.537
 2257SOL     H223027   4.215   2.808   5.526
 2258SOL    OH223028   2.777   2.576   0.957
 2258SOL     H123029   2.829   2.506   0.996
 2258SOL     H223030   2.842   2.638   0.923
 2259SOL    OH223031   4.750   4.661   1.138
 2259SOL     H123032   4.845   4.658   1.133
 2259SOL     H223033   4.723   4.698   1.054
 2260SOL    OH223034   0.546   4.318   6.536
 2260SOL     H123035   0.485   4.290   6.605
 2260SOL     H223036   0.512   4.278   6.456
 2261SOL    OH223037   1.028   4.745   6.649
 2261SOL     H123038   0.937   4.744   6.621
 2261SOL     H223039   1.026   4.791   0.053
 2262SOL    OH223040   4.007   3.279   1.398
 2262SOL     H123041   3.977   3.348   1.457
 2262SOL     H223042   3.954   3.203   1.421
 2263SOL    OH223043   1.952   4.184   6.112
 2263SOL     H123044   1.913   4.166   6.197
 2263SOL     H223045   1.999   4.104   6.090
 2264SOL    OH223046   4.229   6.076   5.779
 2264SOL     H123047   4.168   6.049   5.710
 2264SOL     H223048   4.264   6.160   5.750
 2265SOL    OH223049   4.739   3.941   5.768
 2265SOL     H123050   4.779   3.977   5.689
 2265SOL     H223051   4.655   3.985   5.775
 2266SOL    OH223052   3.919   0.115   6.347
 2266SOL     H123053   3.967   0.110   6.264
 2266SOL     H223054   3.923   0.208   6.371
 2267SOL    OH223055   3.667   5.630   6.256
 2267SOL     H123056   3.721   5.586   6.323
 2267SOL     H223057   3.583   5.645   6.299
 2268SOL    OH223058   2.100   3.276   5.867
 2268SOL     H123059   2.042   3.206   5.837
 2268SOL     H223060   2.129   3.248   5.954
 2269SOL    OH223061   4.784   2.854   6.138
 2269SOL     H123062   4.781   2.769   6.182
 2269SOL     H223063   4.698   2.892   6.154
 2270SOL    OH223064   0.009   0.773   5.747
 2270SOL     H123065   0.030   0.867   5.750
 2270SOL     H223066   6.238   0.767   5.687
 2271SOL    OH223067   5.065   1.953   0.643
 2271SOL     H123068   5.141   1.967   0.586
 2271SOL     H223069   4.991   1.988   0.594
 2272SOL    OH223070   0.328   2.890   0.968
 2272SOL     H123071   0.261   2.838   1.012
 2272SOL     H223072   0.387   2.825   0.929
 2273SOL    OH223073   1.527   4.733   4.831
 2273SOL     H123074   1.621   4.727   4.848
 2273SOL     H223075   1.493   4.645   4.850
 2274SOL    OH223076   2.081   4.103   5.769
 2274SOL     H123077   2.156   4.049   5.793
 2274SOL     H223078   2.052   4.068   5.685
 2275SOL    OH223079   4.525   3.915   0.334
 2275SOL     H123080   4.543   3.945   0.245
 2275SOL     H223081   4.563   3.982   0.390
 2276SOL    OH223082   0.320   3.971   5.736
 2276SOL     H123083   0.292   4.051   5.691
 2276SOL     H223084   0.291   3.983   5.827
 2277SOL    OH223085   1.160   2.787   5.422
 2277SOL     H123086   1.181   2.795   5.329
 2277SOL     H223087   1.161   2.876   5.455
 2278SOL    OH223088   1.907   1.706   5.973
 2278SOL     H123089   1.959   1.640   6.017
 2278SOL     H223090   1.821   1.701   6.015
 2279SOL    OH223091   3.737   0.238   0.567
 2279SOL     H123092   3.786   0.317   0.546
 2279SOL     H223093   3.749   0.181   0.491
 2280SOL    OH223094   3.914   3.430   1.604
 2280SOL     H123095   3.843   3.407   1.664
 2280SOL     H223096   3.899   3.522   1.583
 2281SOL    OH223097   1.197   0.877   6.052
 2281SOL     H123098   1.228   0.809   5.993
 2281SOL     H223099   1.200   0.836   6.139
 2282SOL    OH223100   1.713   4.237   0.711
 2282SOL     H123101   1.621   4.261   0.711
 2282SOL     H223102   1.757   4.310   0.669
 2283SOL    OH223103   3.496   3.707   6.367
 2283SOL     H123104   3.525   3.621   6.396
 2283SOL     H223105   3.486   3.758   6.448
 2284SOL    OH223106   4.124   3.012   0.139
 2284SOL     H123107   4.197   3.062   0.174
 2284SOL     H223108   4.081   3.072   0.078
 2285SOL    OH223109   6.118   3.944   1.735
 2285SOL     H123110   6.126   4.008   1.805
 2285SOL     H223111   6.083   3.866   1.778
 2286SOL    OH223112   0.194   6.055   0.976
 2286SOL     H123113   0.261   5.992   0.950
 2286SOL     H223114   0.179   6.036   1.069
 2287SOL    OH223115   3.403   4.996   0.134
 2287SOL     H123116   3.421   4.959   0.048
 2287SOL     H223117   3.323   4.953   0.163
 2288SOL    OH223118   3.730   5.693   0.182
 2288SOL     H123119   3.821   5.671   0.163
 2288SOL     H223120   3.682   5.665   0.104
 2289SOL    OH223121   0.949   5.354   0.017
 2289SOL     H123122   0.891   5.278   0.020
 2289SOL     H223123   1.037   5.317   0.020
 2290SOL    OH223124   1.438   1.645   1.778
 2290SOL     H123125   1.447   1.670   1.686
 2290SOL     H223126   1.525   1.663   1.816
 2291SOL    OH223127   0.470   4.744   6.084
 2291SOL     H123128   0.532   4.814   6.068
 2291SOL     H223129   0.515   4.685   6.144
 2292SOL    OH223130   3.816   5.038   6.572
 2292SOL     H123131   3.895   5.088   6.595
 2292SOL     H223132   3.749   5.071   6.631
 2293SOL    OH223133   1.700   5.313   5.844
 2293SOL     H123134   1.787   5.276   5.859
 2293SOL     H223135   1.702   5.398   5.889
 2294SOL    OH223136   2.577   6.342   6.484
 2294SOL     H123137   2.583   6.378   6.396
 2294SOL     H223138   2.484   6.347   6.506
 2295SOL    OH223139   0.847   2.017   1.009
 2295SOL     H123140   0.877   1.926   1.007
 2295SOL     H223141   0.779   2.021   0.942
 2296SOL    OH223142   1.965   5.837   5.001
 2296SOL     H123143   2.019   5.758   4.997
 2296SOL     H223144   1.977   5.880   4.916
 2297SOL    OH223145   3.397   5.812   1.149
 2297SOL     H123146   3.470   5.761   1.115
 2297SOL     H223147   3.332   5.748   1.177
 2298SOL    OH223148   4.521   1.016   6.275
 2298SOL     H123149   4.538   1.028   6.368
 2298SOL     H223150   4.447   1.074   6.256
 2299SOL    OH223151   1.266   1.050   6.413
 2299SOL     H123152   1.341   0.990   6.406
 2299SOL     H223153   1.193   0.993   6.436
 2300SOL    OH223154   4.858   0.051   0.222
 2300SOL     H123155   4.879   0.098   0.303
 2300SOL     H223156   4.762   0.055   0.217
 2301SOL    OH223157   6.067   0.615   5.668
 2301SOL     H123158   6.017   0.652   5.741
 2301SOL     H223159   6.071   0.686   5.604
 2302SOL    OH223160   6.198   0.434   5.833
 2302SOL     H123161   6.155   0.502   5.781
 2302SOL     H223162   6.280   0.473   5.863
 2303SOL    OH223163   3.283   1.620   0.633
 2303SOL     H123164   3.341   1.610   0.708
 2303SOL     H223165   3.338   1.656   0.564
 2304SOL    OH223166   3.931   0.484   5.437
 2304SOL     H123167   3.875   0.424   5.389
 2304SOL     H223168   3.966   0.544   5.370
 2305SOL    OH223169   4.575   1.877   5.557
 2305SOL     H123170   4.518   1.945   5.592
 2305SOL     H223171   4.578   1.810   5.626
 2306SOL    OH223172   3.180   0.220   0.661
 2306SOL     H123173   3.137   0.154   0.715
 2306SOL     H223174   3.273   0.195   0.661
 2307SOL    OH223175   5.583   0.471   5.762
 2307SOL     H123176   5.603   0.413   5.688
 2307SOL     H223177   5.570   0.412   5.836
 2308SOL    OH223178   1.380   0.155   6.487
 2308SOL     H123179   1.427   0.211   6.425
 2308SOL     H223180   1.402   0.066   6.458
 2309SOL    OH223181   2.434   1.104   5.573
 2309SOL     H123182   2.465   1.163   5.504
 2309SOL     H223183   2.373   1.045   5.529
 2310SOL    OH223184   5.704   3.059   5.268
 2310SOL     H123185   5.660   2.980   5.236
 2310SOL     H223186   5.698   3.121   5.195
 2311SOL    OH223187   5.815   3.197   6.577
 2311SOL     H123188   5.884   3.263   6.571
 2311SOL     H223189   5.744   3.232   6.524
 2312SOL    OH223190   5.996   1.209   0.735
 2312SOL     H123191   5.995   1.283   0.674
 2312SOL     H223192   6.044   1.241   0.811
 2313SOL    OH223193   0.188   4.026   0.624
 2313SOL     H123194   0.164   4.108   0.666
 2313SOL     H223195   0.261   4.049   0.567
 2314SOL    OH223196   2.655   6.074   6.509
 2314SOL     H123197   2.637   6.168   6.510
 2314SOL     H223198   2.745   6.067   6.476
 2315SOL    OH223199   1.434   1.673   0.004
 2315SOL     H123200   1.449   1.685   6.591
 2315SOL     H223201   1.510   1.713   0.046
 2316SOL    OH223202   1.539   5.924   5.826
 2316SOL     H123203   1.623   5.962   5.853
 2316SOL     H223204   1.562   5.864   5.755
 2317SOL    OH223205   3.154   1.940   0.269
 2317SOL     H123206   3.114   2.017   0.230
 2317SOL     H223207   3.217   1.909   0.203
 2318SOL    OH223208   5.388   3.533   6.155
 2318SOL     H123209   5.384   3.602   6.089
 2318SOL     H223210   5.347   3.457   6.112
 2319SOL    OH223211   2.510   3.657   1.170
 2319SOL     H123212   2.425   3.640   1.209
 2319SOL     H223213   2.568   3.592   1.209
 2320SOL    OH223214   6.172   2.337   1.164
 2320SOL     H123215   6.148   2.406   1.225
 2320SOL     H223216   6.108   2.343   1.094
 2321SOL    OH223217   5.807   4.641   6.085
 2321SOL     H123218   5.762   4.712   6.130
 2321SOL     H223219   5.777   4.561   6.129
 2322SOL    OH223220   2.615   4.943   1.597
 2322SOL     H123221   2.559   4.917   1.523
 2322SOL     H223222   2.694   4.978   1.556
 2323SOL    OH223223   5.479   1.936   0.063
 2323SOL     H123224   5.463   1.995   6.669
 2323SOL     H223225   5.545   1.875   0.031
 2324SOL    OH223226   5.690   1.323   0.850
 2324SOL     H123227   5.639   1.350   0.926
 2324SOL     H223228   5.773   1.369   0.860
 2325SOL    OH223229   0.219   0.855   0.015
 2325SOL     H123230   0.220   0.795   0.090
 2325SOL     H223231   0.220   0.798   6.619
 2326SOL    OH223232   2.649   4.035   0.936
 2326SOL     H123233   2.719   4.092   0.903
 2326SOL     H223234   2.570   4.067   0.894
 2327SOL    OH223235   1.270   0.539   0.549
 2327SOL     H123236   1.222   0.473   0.599
 2327SOL     H223237   1.235   0.531   0.460
 2328SOL    OH223238   4.602   0.457   0.446
 2328SOL     H123239   4.583   0.363   0.448
 2328SOL     H223240   4.692   0.464   0.479
 2329SOL    OH223241   4.215   0.906   1.376
 2329SOL     H123242   4.142   0.887   1.316
 2329SOL     H223243   4.174   0.940   1.455
 2330SOL    OH223244   4.527   2.713   6.590
 2330SOL     H123245   4.553   2.633   6.544
 2330SOL     H223246   4.482   2.766   6.524
 2331SOL    OH223247   4.693   5.110   0.098
 2331SOL     H123248   4.743   5.060   0.162
 2331SOL     H223249   4.672   5.047   0.029
 2332SOL    OH223250   1.637   3.925   5.974
 2332SOL     H123251   1.577   3.992   6.008
 2332SOL     H223252   1.705   3.917   6.041
 2333SOL    OH223253   5.566   6.003   0.166
 2333SOL     H123254   5.510   6.041   0.234
 2333SOL     H223255   5.595   6.079   0.115
 2334SOL    OH223256   5.288   0.719   5.769
 2334SOL     H123257   5.210   0.679   5.729
 2334SOL     H223258   5.316   0.655   5.835
 2335SOL    OH223259   4.448   3.921   1.672
 2335SOL     H123260   4.391   3.952   1.743
 2335SOL     H223261   4.447   3.826   1.681
 2336SOL    OH223262   3.092   2.692   5.840
 2336SOL     H123263   3.149   2.668   5.766
 2336SOL     H223264   3.133   2.770   5.877
 2337SOL    OH223265   3.900   1.024   5.073
 2337SOL     H123266   3.956   0.982   5.008
 2337SOL     H223267   3.845   0.953   5.107
 2338SOL    OH223268   1.612   2.261   0.945
 2338SOL     H123269   1.582   2.349   0.970
 2338SOL     H223270   1.551   2.232   0.877
 2339SOL    OH223271   1.519   1.461   6.081
 2339SOL     H123272   1.527   1.453   6.176
 2339SOL     H223273   1.426   1.443   6.063
 2340SOL    OH223274   0.988   3.925   0.054
 2340SOL     H123275   1.081   3.949   0.056
 2340SOL     H223276   0.949   3.984   6.671
 2341SOL    OH223277   1.084   3.018   0.025
 2341SOL     H123278   1.099   3.112   0.034
 2341SOL     H223279   1.076   2.986   0.115
 2342SOL    OH223280   5.006   1.415   1.234
 2342SOL     H123281   4.947   1.347   1.266
 2342SOL     H223282   5.008   1.480   1.304
 2343SOL    OH223283   2.415   2.664   5.377
 2343SOL     H123284   2.475   2.642   5.306
 2343SOL     H223285   2.413   2.586   5.433
 2344SOL    OH223286   4.541   4.975   0.370
 2344SOL     H123287   4.560   5.065   0.397
 2344SOL     H223288   4.625   4.942   0.337
 2345SOL    OH223289   6.003   3.580   6.307
 2345SOL     H123290   6.045   3.614   6.228
 2345SOL     H223291   6.047   3.626   6.379
 2346SOL    OH223292   4.021   1.275   1.540
 2346SOL     H123293   4.072   1.344   1.582
 2346SOL     H223294   3.932   1.309   1.538
 2347SOL    OH223295   4.934   3.202   0.687
 2347SOL     H123296   4.854   3.254   0.692
 2347SOL     H223297   4.998   3.262   0.648
 2348SOL    OH223298   3.144   2.340   4.892
 2348SOL     H123299   3.081   2.279   4.931
 2348SOL     H223300   3.090   2.410   4.856
 2349SOL    OH223301   2.968   1.731   6.203
 2349SOL     H123302   2.874   1.744   6.188
 2349SOL     H223303   3.008   1.740   6.117
 2350SOL    OH223304   5.853   5.491   5.993
 2350SOL     H123305   5.765   5.470   6.025
 2350SOL     H223306   5.862   5.443   5.911
 2351SOL    OH223307   1.172   3.946   6.134
 2351SOL     H123308   1.145   4.038   6.130
 2351SOL     H223309   1.218   3.932   6.051
 2352SOL    OH223310   5.133   6.158   1.021
 2352SOL     H123311   5.219   6.177   1.058
 2352SOL     H223312   5.073   6.162   1.096
 2353SOL    OH223313   3.662   6.207   0.701
 2353SOL     H123314   3.717   6.237   0.774
 2353SOL     H223315   3.581   6.178   0.743
 2354SOL    OH223316   2.041   4.198   0.620
 2354SOL     H123317   1.988   4.272   0.588
 2354SOL     H223318   1.981   4.124   0.618
 2355SOL    OH223319   4.124   4.591   5.881
 2355SOL     H123320   4.129   4.506   5.837
 2355SOL     H223321   4.040   4.590   5.927
 2356SOL    OH223322   3.723   4.778   6.571
 2356SOL     H123323   3.788   4.711   6.546
 2356SOL     H223324   3.773   4.859   6.572
 2357SOL    OH223325   6.090   6.323   1.239
 2357SOL     H123326   6.014   6.335   1.183
 2357SOL     H223327   6.093   6.229   1.256
 2358SOL    OH223328   1.080   2.606   5.749
 2358SOL     H123329   1.151   2.579   5.691
 2358SOL     H223330   1.001   2.576   5.705
 2359SOL    OH223331   1.586   4.467   6.036
 2359SOL     H123332   1.602   4.397   6.100
 2359SOL     H223333   1.560   4.542   6.088
 2360SOL    OH223334   3.781   1.042   0.420
 2360SOL     H123335   3.833   0.964   0.402
 2360SOL     H223336   3.720   1.048   0.347
 2361SOL    OH223337   5.794   2.846   0.686
 2361SOL     H123338   5.836   2.850   0.772
 2361SOL     H223339   5.841   2.911   0.633
 2362SOL    OH223340   6.122   3.734   6.111
 2362SOL     H123341   6.056   3.787   6.065
 2362SOL     H223342   6.181   3.798   6.151
 2363SOL    OH223343   4.178   1.756   6.089
 2363SOL     H123344   4.188   1.814   6.014
 2363SOL     H223345   4.090   1.719   6.079
 2364SOL    OH223346   5.656   4.040   6.448
 2364SOL     H123347   5.585   3.980   6.470
 2364SOL     H223348   5.613   4.126   6.445
 2365SOL    OH223349   4.501   2.993   1.100
 2365SOL     H123350   4.473   3.048   1.173
 2365SOL     H223351   4.420   2.956   1.065
 2366SOL    OH223352   4.977   5.661   5.169
 2366SOL     H123353   5.019   5.609   5.237
 2366SOL     H223354   4.887   5.672   5.199
 2367SOL    OH223355   3.092   4.806   1.085
 2367SOL     H123356   3.131   4.719   1.078
 2367SOL     H223357   3.055   4.822   0.998
 2368SOL    OH223358   2.306   0.476   6.336
 2368SOL     H123359   2.296   0.490   6.430
 2368SOL     H223360   2.218   0.455   6.305
 2369SOL    OH223361   3.567   1.909   4.748
 2369SOL     H123362   3.505   1.898   4.677
 2369SOL     H223363   3.653   1.900   4.707
 2370SOL    OH223364   3.018   1.602   5.740
 2370SOL     H123365   3.079   1.529   5.730
 2370SOL     H223366   3.055   1.672   5.687
 2371SOL    OH223367   5.177   3.173   1.700
 2371SOL     H123368   5.124   3.095   1.712
 2371SOL     H223369   5.114   3.245   1.693
 2372SOL    OH223370   2.277   5.595   5.822
 2372SOL     H123371   2.285   5.520   5.764
 2372SOL     H223372   2.272   5.671   5.764
 2373SOL    OH223373   5.203   4.754   1.384
 2373SOL     H123374   5.234   4.727   1.470
 2373SOL     H223375   5.108   4.748   1.390
 2374SOL    OH223376   6.176   3.464   0.065
 2374SOL     H123377   6.125   3.422   6.676
 2374SOL     H223378   6.125   3.541   0.089
 2375SOL    OH223379   2.200   5.152   0.526
 2375SOL     H123380   2.293   5.174   0.515
 2375SOL     H223381   2.154   5.234   0.515
 2376SOL    OH223382   5.379   5.605   5.872
 2376SOL     H123383   5.340   5.603   5.959
 2376SOL     H223384   5.431   5.686   5.870
 2377SOL    OH223385   1.413   4.555   1.349
 2377SOL     H123386   1.346   4.495   1.316
 2377SOL     H223387   1.433   4.521   1.436
 2378SOL    OH223388   4.341   3.337   6.210
 2378SOL     H123389   4.395   3.364   6.135
 2378SOL     H223390   4.344   3.413   6.269
 2379SOL    OH223391   0.852   2.438   0.435
 2379SOL     H123392   0.916   2.487   0.385
 2379SOL     H223393   0.901   2.402   0.508
 2380SOL    OH223394   5.226   6.111   6.385
 2380SOL     H123395   5.150   6.135   6.439
 2380SOL     H223396   5.192   6.046   6.324
 2381SOL    OH223397   5.611   2.818   5.187
 2381SOL     H123398   5.674   2.765   5.236
 2381SOL     H223399   5.593   2.766   5.109
 2382SOL    OH223400   5.262   1.846   6.056
 2382SOL     H123401   5.261   1.932   6.013
 2382SOL     H223402   5.323   1.794   6.004
 2383SOL    OH223403   4.449   2.456   0.782
 2383SOL     H123404   4.472   2.440   0.690
 2383SOL     H223405   4.455   2.551   0.792
 2384SOL    OH223406   4.644   5.709   5.927
 2384SOL     H123407   4.594   5.648   5.980
 2384SOL     H223408   4.577   5.756   5.876
 2385SOL    OH223409   1.770   6.143   5.643
 2385SOL     H123410   1.764   6.074   5.577
 2385SOL     H223411   1.693   6.198   5.626
 2386SOL    OH223412   0.663   2.456   6.165
 2386SOL     H123413   0.601   2.511   6.213
 2386SOL     H223414   0.622   2.441   6.080
 2387SOL    OH223415   5.526   3.161   5.933
 2387SOL     H123416   5.597   3.098   5.928
 2387SOL     H223417   5.468   3.128   6.001
 2388SOL    OH223418   4.952   1.614   0.886
 2388SOL     H123419   4.872   1.613   0.833
 2388SOL     H223420   4.960   1.524   0.919
 2389SOL    OH223421   4.520   0.992   0.864
 2389SOL     H123422   4.461   0.964   0.934
 2389SOL     H223423   4.497   1.083   0.848
 2390SOL    OH223424   3.346   5.264   0.178
 2390SOL     H123425   3.314   5.278   0.088
 2390SOL     H223426   3.362   5.170   0.183
 2391SOL    OH223427   2.768   0.089   5.337
 2391SOL     H123428   2.739   0.164   5.285
 2391SOL     H223429   2.818   0.035   5.276
 2392SOL    OH223430   2.052   1.511   6.104
 2392SOL     H123431   2.083   1.479   6.020
 2392SOL     H223432   2.126   1.499   6.163
 2393SOL    OH223433   2.372   3.485   5.312
 2393SOL     H123434   2.373   3.553   5.379
 2393SOL     H223435   2.280   3.472   5.292
 2394SOL    OH223436   3.536   3.000   0.784
 2394SOL     H123437   3.495   3.087   0.792
 2394SOL     H223438   3.593   2.993   0.860
 2395SOL    OH223439   1.431   0.426   5.683
 2395SOL     H123440   1.382   0.405   5.762
 2395SOL     H223441   1.450   0.519   5.691
 2396SOL    OH223442   1.713   2.813   0.563
 2396SOL     H123443   1.666   2.892   0.536
 2396SOL     H223444   1.794   2.814   0.511
 2397SOL    OH223445   4.150   2.962   6.326
 2397SOL     H123446   4.113   3.049   6.342
 2397SOL     H223447   4.135   2.947   6.232
 2398SOL    OH223448   3.841   2.529   0.361
 2398SOL     H123449   3.856   2.621   0.383
 2398SOL     H223450   3.747   2.523   0.348
 2399SOL    OH223451   4.256   3.223   1.514
 2399SOL     H123452   4.234   3.242   1.605
 2399SOL     H223453   4.178   3.246   1.464
 2400SOL    OH223454   2.677   0.117   0.519
 2400SOL     H123455   2.584   0.095   0.520
 2400SOL     H223456   2.687   0.187   0.584
 2401SOL    OH223457   5.245   5.962   0.852
 2401SOL     H123458   5.194   6.024   0.905
 2401SOL     H223459   5.180   5.905   0.812
 2402SOL    OH223460   2.078   5.942   0.024
 2402SOL     H123461   2.163   5.958   6.664
 2402SOL     H223462   2.098   5.919   0.115
 2403SOL    OH223463   0.227   6.241   0.020
 2403SOL     H123464   0.300   6.193   0.058
 2403SOL     H223465   0.262   6.330   0.006
 2404SOL    OH223466   4.818   5.748   6.134
 2404SOL     H123467   4.882   5.804   6.091
 2404SOL     H223468   4.751   5.732   6.067
 2405SOL    OH223469   0.453   4.261   6.029
 2405SOL     H123470   0.514   4.333   6.010
 2405SOL     H223471   0.497   4.183   5.995
 2406SOL    OH223472   4.498   3.443   6.018
 2406SOL     H123473   4.496   3.535   5.990
 2406SOL     H223474   4.590   3.427   6.041
 2407SOL    OH223475   1.144   1.251   5.844
 2407SOL     H123476   1.212   1.193   5.809
 2407SOL     H223477   1.078   1.191   5.879
 2408SOL    OH223478   3.556   5.422   0.252
 2408SOL     H123479   3.528   5.443   0.342
 2408SOL     H223480   3.490   5.360   0.221
 2409SOL    OH223481   4.877   2.085   0.490
 2409SOL     H123482   4.915   2.127   0.413
 2409SOL     H223483   4.851   2.157   0.547
 2410SOL    OH223484   0.836   6.053   6.590
 2410SOL     H123485   0.828   6.148   6.578
 2410SOL     H223486   0.864   6.021   6.504
 2411SOL    OH223487   0.971   0.488   5.976
 2411SOL     H123488   1.032   0.511   6.045
 2411SOL     H223489   0.942   0.399   5.998
 2412SOL    OH223490   2.797   5.050   0.092
 2412SOL     H123491   2.864   5.041   0.024
 2412SOL     H223492   2.830   4.997   0.165
 2413SOL    OH223493   2.972   1.116   0.279
 2413SOL     H123494   3.019   1.131   0.362
 2413SOL     H223495   3.000   1.029   0.251
 2414SOL    OH223496   0.136   2.706   1.071
 2414SOL     H123497   0.148   2.612   1.054
 2414SOL     H223498   0.161   2.717   1.162
 2415SOL    OH223499   2.265   2.518   0.598
 2415SOL     H123500   2.284   2.445   0.657
 2415SOL     H223501   2.334   2.581   0.615
 2416SOL    OH223502   4.003   4.789   6.374
 2416SOL     H123503   3.966   4.714   6.420
 2416SOL     H223504   3.957   4.792   6.291
 2417SOL    OH223505   6.184   5.764   6.235
 2417SOL     H123506   6.243   5.838   6.221
 2417SOL     H223507   6.212   5.725   6.318
 2418SOL    OH223508   6.268   2.564   6.412
 2418SOL     H123509   6.194   2.503   6.412
 2418SOL     H223510   6.285   2.581   6.505
 2419SOL    OH223511   5.228   0.025   6.483
 2419SOL     H123512   5.152   6.408   6.436
 2419SOL     H223513   5.233   0.117   6.455
 2420SOL    OH223514   0.661   2.787   0.339
 2420SOL     H123515   0.601   2.834   0.397
 2420SOL     H223516   0.746   2.793   0.382
 2421SOL    OH223517   4.789   5.586   0.787
 2421SOL     H123518   4.779   5.526   0.861
 2421SOL     H223519   4.701   5.593   0.750
 2422SOL    OH223520   3.897   3.736   0.916
 2422SOL     H123521   3.843   3.689   0.980
 2422SOL     H223522   3.974   3.764   0.966
 2423SOL    OH223523   0.252   6.298   5.203
 2423SOL     H123524   0.172   6.256   5.170
 2423SOL     H223525   0.269   6.369   5.142
 2424SOL    OH223526   0.848   6.083   6.078
 2424SOL     H123527   0.844   6.002   6.027
 2424SOL     H223528   0.901   6.142   6.025
 2425SOL    OH223529   3.178   5.132   1.412
 2425SOL     H123530   3.214   5.044   1.421
 2425SOL     H223531   3.255   5.189   1.408
 2426SOL    OH223532   3.224   5.522   6.488
 2426SOL     H123533   3.181   5.586   6.545
 2426SOL     H223534   3.236   5.445   6.544
 2427SOL    OH223535   1.389   2.299   5.296
 2427SOL     H123536   1.358   2.304   5.387
 2427SOL     H223537   1.329   2.238   5.253
 2428SOL    OH223538   2.288   0.089   0.048
 2428SOL     H123539   2.290   0.103   6.635
 2428SOL     H223540   2.211   0.033   0.062
 2429SOL    OH223541   1.214   5.019   6.278
 2429SOL     H123542   1.292   4.980   6.241
 2429SOL     H223543   1.141   4.969   6.241
 2430SOL    OH223544   0.147   0.960   0.310
 2430SOL     H123545   0.087   1.001   0.248
 2430SOL     H223546   0.135   0.866   0.297
 2431SOL    OH223547   3.651   2.691   6.063
 2431SOL     H123548   3.637   2.740   5.982
 2431SOL     H223549   3.601   2.610   6.051
 2432SOL    OH223550   2.719   5.133   1.097
 2432SOL     H123551   2.733   5.187   1.019
 2432SOL     H223552   2.797   5.147   1.150
 2433SOL    OH223553   1.771   0.153   0.107
 2433SOL     H123554   1.793   0.069   0.067
 2433SOL     H223555   1.678   0.166   0.086
 2434SOL    OH223556   5.704   4.856   6.224
 2434SOL     H123557   5.694   4.951   6.215
 2434SOL     H223558   5.790   4.845   6.264
 2435SOL    OH223559   3.116   2.358   1.369
 2435SOL     H123560   3.160   2.409   1.301
 2435SOL     H223561   3.188   2.326   1.424
 2436SOL    OH223562   2.148   4.228   0.011
 2436SOL     H123563   2.056   4.202   0.018
 2436SOL     H223564   2.170   4.260   0.098
 2437SOL    OH223565   0.495   6.083   0.541
 2437SOL     H123566   0.457   6.161   0.582
 2437SOL     H223567   0.556   6.049   0.605
 2438SOL    OH223568   4.950   2.094   5.232
 2438SOL     H123569   4.880   2.045   5.275
 2438SOL     H223570   4.905   2.154   5.173
 2439SOL    OH223571   3.711   3.173   5.328
 2439SOL     H123572   3.719   3.083   5.295
 2439SOL     H223573   3.756   3.227   5.263
 2440SOL    OH223574   4.014   1.337   0.820
 2440SOL     H123575   3.974   1.313   0.736
 2440SOL     H223576   4.075   1.266   0.838
 2441SOL    OH223577   4.743   6.176   1.782
 2441SOL     H123578   4.687   6.219   1.847
 2441SOL     H223579   4.824   6.228   1.783
 2442SOL    OH223580   0.716   5.774   0.509
 2442SOL     H123581   0.734   5.864   0.480
 2442SOL     H223582   0.703   5.725   0.428
 2443SOL    OH223583   1.521   5.118   0.269
 2443SOL     H123584   1.479   5.099   0.185
 2443SOL     H223585   1.495   5.046   0.326
 2444SOL    OH223586   1.220   2.549   0.053
 2444SOL     H123587   1.297   2.588   0.095
 2444SOL     H223588   1.235   2.561   6.640
 2445SOL    OH223589   3.955   0.381   6.427
 2445SOL     H123590   4.039   0.340   6.450
 2445SOL     H223591   3.965   0.472   6.454
 2446SOL    OH223592   2.329   0.115   6.450
 2446SOL     H123593   2.300   0.168   6.375
 2446SOL     H223594   2.403   0.163   6.487
 2447SOL    OH223595   1.581   5.081   1.295
 2447SOL     H123596   1.573   4.987   1.308
 2447SOL     H223597   1.513   5.119   1.350
 2448SOL    OH223598   1.825   6.361   6.046
 2448SOL     H123599   1.739   6.323   6.064
 2448SOL     H223600   1.885   6.287   6.050
 2449SOL    OH223601   3.422   1.593   0.863
 2449SOL     H123602   3.413   1.515   0.919
 2449SOL     H223603   3.511   1.624   0.879
 2450SOL    OH223604   5.648   1.108   1.502
 2450SOL     H123605   5.611   1.197   1.498
 2450SOL     H223606   5.578   1.056   1.541
 2451SOL    OH223607   2.669   3.419   0.748
 2451SOL     H123608   2.617   3.477   0.692
 2451SOL     H223609   2.727   3.478   0.796
 2452SOL    OH223610   2.038   5.645   0.186
 2452SOL     H123611   2.113   5.588   0.200
 2452SOL     H223612   2.064   5.729   0.224
 2453SOL    OH223613   4.060   4.106   5.682
 2453SOL     H123614   4.138   4.052   5.682
 2453SOL     H223615   3.989   4.047   5.706
 2454SOL    OH223616   4.178   2.287   5.678
 2454SOL     H123617   4.267   2.285   5.715
 2454SOL     H223618   4.154   2.379   5.680
 2455SOL    OH223619   1.385   0.090   5.583
 2455SOL     H123620   1.355   0.124   5.498
 2455SOL     H223621   1.317   0.116   5.645
 2456SOL    OH223622   3.357   5.973   0.566
 2456SOL     H123623   3.395   5.924   0.639
 2456SOL     H223624   3.270   5.999   0.598
 2457SOL    OH223625   4.480   3.171   6.379
 2457SOL     H123626   4.441   3.175   6.466
 2457SOL     H223627   4.423   3.225   6.325
 2458SOL    OH223628   0.005   4.629   6.283
 2458SOL     H123629   6.227   4.628   6.233
 2458SOL     H223630   0.075   4.634   6.218
 2459SOL    OH223631   4.839   4.736   0.470
 2459SOL     H123632   4.884   4.658   0.436
 2459SOL     H223633   4.780   4.703   0.538
 2460SOL    OH223634   2.624   4.547   5.586
 2460SOL     H123635   2.643   4.457   5.560
 2460SOL     H223636   2.679   4.601   5.530
 2461SOL    OH223637   3.219   3.792   0.322
 2461SOL     H123638   3.160   3.807   0.396
 2461SOL     H223639   3.261   3.708   0.342
 2462SOL    OH223640   3.170   1.746   6.379
 2462SOL     H123641   3.226   1.812   6.337
 2462SOL     H223642   3.090   1.745   6.327
 2463SOL    OH223643   3.748   5.469   1.459
 2463SOL     H123644   3.681   5.533   1.482
 2463SOL     H223645   3.831   5.515   1.472
 2464SOL    OH223646   2.655   5.810   4.949
 2464SOL     H123647   2.709   5.889   4.956
 2464SOL     H223648   2.692   5.751   5.015
 2465SOL    OH223649   2.813   4.695   1.291
 2465SOL     H123650   2.789   4.656   1.375
 2465SOL     H223651   2.886   4.753   1.310
 2466SOL    OH223652   5.044   5.938   5.229
 2466SOL     H123653   5.019   5.862   5.176
 2466SOL     H223654   5.046   5.905   5.318
 2467SOL    OH223655   5.438   4.158   5.802
 2467SOL     H123656   5.342   4.149   5.803
 2467SOL     H223657   5.470   4.068   5.796
 2468SOL    OH223658   0.207   4.644   6.095
 2468SOL     H123659   0.300   4.664   6.107
 2468SOL     H223660   0.173   4.718   6.044
 2469SOL    OH223661   5.917   2.687   6.593
 2469SOL     H123662   5.920   2.781   6.577
 2469SOL     H223663   5.827   2.662   6.572
 2470SOL    OH223664   2.786   5.312   0.884
 2470SOL     H123665   2.802   5.367   0.960
 2470SOL     H223666   2.770   5.373   0.812
 2471SOL    OH223667   4.032   4.544   0.975
 2471SOL     H123668   4.115   4.585   1.001
 2471SOL     H223669   4.024   4.565   0.881
 2472SOL    OH223670   5.979   4.198   0.651
 2472SOL     H123671   6.057   4.242   0.618
 2472SOL     H223672   5.909   4.262   0.639
 2473SOL    OH223673   5.203   1.998   0.107
 2473SOL     H123674   5.297   1.979   0.102
 2473SOL     H223675   5.191   2.076   0.053
 2474SOL    OH223676   1.739   1.728   6.602
 2474SOL     H123677   1.812   1.668   6.587
 2474SOL     H223678   1.781   1.806   6.641
 2475SOL    OH223679   2.389   5.818   4.947
 2475SOL     H123680   2.484   5.812   4.942
 2475SOL     H223681   2.357   5.757   4.880
 2476SOL    OH223682   3.465   0.589   1.134
 2476SOL     H123683   3.394   0.582   1.198
 2476SOL     H223684   3.537   0.540   1.173
 2477SOL    OH223685   5.842   4.002   0.488
 2477SOL     H123686   5.822   4.060   0.414
 2477SOL     H223687   5.901   4.053   0.543
 2478SOL    OH223688   2.846   3.135   0.327
 2478SOL     H123689   2.815   3.154   0.239
 2478SOL     H223690   2.926   3.085   0.314
 2479SOL    OH223691   3.273   3.259   2.101
 2479SOL     H123692   3.281   3.268   2.196
 2479SOL     H223693   3.340   3.317   2.066
 2480SOL    OH223694   5.319   2.517   1.034
 2480SOL     H123695   5.300   2.596   0.984
 2480SOL     H223696   5.393   2.476   0.988
 2481SOL    OH223697   0.448   2.519   5.566
 2481SOL     H123698   0.426   2.600   5.611
 2481SOL     H223699   0.525   2.486   5.613
 2482SOL    OH223700   3.764   0.598   0.044
 2482SOL     H123701   3.796   0.684   0.072
 2482SOL     H223702   3.830   0.536   0.076
 2483SOL    OH223703   2.313   5.521   6.458
 2483SOL     H123704   2.357   5.489   6.379
 2483SOL     H223705   2.223   5.538   6.430
 2484SOL    OH223706   2.712   4.877   6.211
 2484SOL     H123707   2.780   4.912   6.153
 2484SOL     H223708   2.711   4.936   6.286
 2485SOL    OH223709   0.445   5.326   0.123
 2485SOL     H123710   0.461   5.360   0.035
 2485SOL     H223711   0.354   5.352   0.142
 2486SOL    OH223712   1.135   3.791   0.526
 2486SOL     H123713   1.205   3.834   0.575
 2486SOL     H223714   1.134   3.836   0.441
 2487SOL    OH223715   4.213   0.036   0.433
 2487SOL     H123716   4.288   0.005   0.483
 2487SOL     H223717   4.149   6.383   0.439
 2488SOL    OH223718   5.071   6.208   5.140
 2488SOL     H123719   5.080   6.115   5.161
 2488SOL     H223720   5.160   6.236   5.117
 2489SOL    OH223721   5.076   3.190   6.622
 2489SOL     H123722   5.050   3.282   6.629
 2489SOL     H223723   5.040   3.162   6.538
 2490SOL    OH223724   0.142   0.299   0.316
 2490SOL     H123725   0.109   0.237   0.251
 2490SOL     H223726   0.070   0.362   0.327
 2491SOL    OH223727   0.441   1.581   1.403
 2491SOL     H123728   0.463   1.516   1.335
 2491SOL     H223729   0.520   1.586   1.457
 2492SOL    OH223730   0.069   1.097   0.553
 2492SOL     H123731   0.116   1.058   0.480
 2492SOL     H223732   0.076   1.192   0.538
 2493SOL    OH223733   0.060   2.322   6.590
 2493SOL     H123734   0.026   2.409   6.613
 2493SOL     H223735   0.092   2.287   6.673
 2494SOL    OH223736   2.283   0.528   6.609
 2494SOL     H123737   2.211   0.506   6.667
 2494SOL     H223738   2.362   0.506   6.659
 2495SOL    OH223739   2.124   3.334   0.582
 2495SOL     H123740   2.212   3.301   0.562
 2495SOL     H223741   2.089   3.270   0.644
 2496SOL    OH223742   1.208   1.129   0.109
 2496SOL     H123743   1.136   1.151   0.169
 2496SOL     H223744   1.200   1.191   0.037
 2497SOL    OH223745   4.239   0.981   5.817
 2497SOL     H123746   4.241   0.928   5.737
 2497SOL     H223747   4.146   0.994   5.834
 2498SOL    OH223748   3.717   2.125   6.034
 2498SOL     H123749   3.686   2.188   5.970
 2498SOL     H223750   3.767   2.061   5.984
 2499SOL    OH223751   0.286   5.612   6.600
 2499SOL     H123752   0.287   5.695   6.552
 2499SOL     H223753   0.266   5.637   0.010
 2500SOL    OH223754   3.079   0.423   1.448
 2500SOL     H123755   3.016   0.404   1.517
 2500SOL     H223756   3.127   0.341   1.436
 2501SOL    OH223757   3.709   2.276   0.529
 2501SOL     H123758   3.661   2.354   0.560
 2501SOL     H223759   3.714   2.287   0.434
 2502SOL    OH223760   5.938   0.172   4.963
 2502SOL     H123761   5.909   0.082   4.952
 2502SOL     H223762   5.885   0.205   5.036
 2503SOL    OH223763   3.741   5.340   6.000
 2503SOL     H123764   3.664   5.354   6.055
 2503SOL     H223765   3.810   5.315   6.061
 2504SOL    OH223766   3.620   1.516   1.558
 2504SOL     H123767   3.656   1.589   1.508
 2504SOL     H223768   3.584   1.557   1.637
 2505SOL    OH223769   5.229   5.670   6.118
 2505SOL     H123770   5.203   5.585   6.153
 2505SOL     H223771   5.305   5.695   6.171
 2506SOL    OH223772   4.364   4.288   6.076
 2506SOL     H123773   4.417   4.329   6.007
 2506SOL     H223774   4.308   4.226   6.030
 2507SOL    OH223775   3.808   4.648   5.209
 2507SOL     H123776   3.886   4.703   5.207
 2507SOL     H223777   3.757   4.676   5.133
 2508SOL    OH223778   1.629   6.405   0.492
 2508SOL     H123779   1.589   6.389   0.407
 2508SOL     H223780   1.717   6.367   0.485
 2509SOL    OH223781   5.104   5.373   2.129
 2509SOL     H123782   5.110   5.288   2.085
 2509SOL     H223783   5.148   5.434   2.071
 2510SOL    OH223784   2.384   4.568   5.716
 2510SOL     H123785   2.463   4.582   5.664
 2510SOL     H223786   2.402   4.488   5.766
 2511SOL    OH223787   0.480   0.585   5.971
 2511SOL     H123788   0.466   0.497   5.937
 2511SOL     H223789   0.574   0.589   5.989
 2512SOL    OH223790   5.160   1.027   0.482
 2512SOL     H123791   5.125   1.012   0.570
 2512SOL     H223792   5.133   0.950   0.432
 2513SOL    OH223793   2.181   2.463   0.920
 2513SOL     H123794   2.100   2.461   0.869
 2513SOL     H223795   2.208   2.372   0.926
 2514SOL    OH223796   3.038   4.946   6.634
 2514SOL     H123797   3.092   4.935   0.032
 2514SOL     H223798   3.010   4.858   6.612
 2515SOL    OH223799   3.973   1.676   5.775
 2515SOL     H123800   4.068   1.664   5.771
 2515SOL     H223801   3.954   1.684   5.868
 2516SOL    OH223802   4.606   1.268   5.534
 2516SOL     H123803   4.673   1.207   5.567
 2516SOL     H223804   4.530   1.253   5.590
 2517SOL    OH223805   0.829   6.317   6.522
 2517SOL     H123806   0.913   6.335   6.481
 2517SOL     H223807   0.765   6.358   6.465
 2518SOL    OH223808   4.534   5.504   1.284
 2518SOL     H123809   4.518   5.426   1.231
 2518SOL     H223810   4.630   5.515   1.282
 2519SOL    OH223811   2.168   1.523   0.636
 2519SOL     H123812   2.225   1.447   0.652
 2519SOL     H223813   2.098   1.514   0.701
 2520SOL    OH223814   5.340   0.411   1.259
 2520SOL     H123815   5.374   0.324   1.240
 2520SOL     H223816   5.406   0.451   1.316
 2521SOL    OH223817   1.811   5.604   0.781
 2521SOL     H123818   1.787   5.525   0.732
 2521SOL     H223819   1.836   5.668   0.715
 2522SOL    OH223820   2.686   0.270   5.153
 2522SOL     H123821   2.594   0.247   5.138
 2522SOL     H223822   2.693   0.361   5.124
 2523SOL    OH223823   2.669   2.583   5.776
 2523SOL     H123824   2.613   2.506   5.768
 2523SOL     H223825   2.645   2.622   5.860
 2524SOL    OH223826   4.651   5.970   0.105
 2524SOL     H123827   4.573   6.024   0.117
 2524SOL     H223828   4.693   6.007   0.027
 2525SOL    OH223829   0.940   0.738   0.643
 2525SOL     H123830   0.970   0.751   0.732
 2525SOL     H223831   0.906   0.649   0.641
 2526SOL    OH223832   3.302   3.904   5.224
 2526SOL     H123833   3.230   3.920   5.163
 2526SOL     H223834   3.337   3.991   5.244
 2527SOL    OH223835   4.908   3.526   5.901
 2527SOL     H123836   4.985   3.496   5.853
 2527SOL     H223837   4.863   3.585   5.840
 2528SOL    OH223838   0.638   4.456   5.977
 2528SOL     H123839   0.614   4.519   5.908
 2528SOL     H223840   0.638   4.508   6.058
 2529SOL    OH223841   3.497   0.398   5.807
 2529SOL     H123842   3.447   0.318   5.823
 2529SOL     H223843   3.588   0.370   5.816
 2530SOL    OH223844   4.416   5.733   1.379
 2530SOL     H123845   4.448   5.750   1.467
 2530SOL     H223846   4.456   5.649   1.355
 2531SOL    OH223847   0.725   4.995   0.779
 2531SOL     H123848   0.759   4.982   0.868
 2531SOL     H223849   0.634   4.968   0.784
 2532SOL    OH223850   1.106   4.215   5.692
 2532SOL     H123851   1.099   4.263   5.610
 2532SOL     H223852   1.190   4.169   5.686
 2533SOL    OH223853   2.507   4.202   6.268
 2533SOL     H123854   2.482   4.275   6.212
 2533SOL     H223855   2.570   4.240   6.330
 2534SOL    OH223856   5.345   3.760   1.437
 2534SOL     H123857   5.270   3.793   1.486
 2534SOL     H223858   5.410   3.738   1.504
 2535SOL    OH223859   0.926   5.569   6.525
 2535SOL     H123860   0.933   5.488   6.576
 2535SOL     H223861   0.833   5.589   6.525
 2536SOL    OH223862   3.256   0.440   0.277
 2536SOL     H123863   3.208   0.365   0.311
 2536SOL     H223864   3.344   0.407   0.260
 2537SOL    OH223865   3.986   5.992   0.164
 2537SOL     H123866   3.908   5.981   0.219
 2537SOL     H223867   3.952   6.017   0.078
 2538SOL    OH223868   0.591   3.662   1.713
 2538SOL     H123869   0.659   3.724   1.686
 2538SOL     H223870   0.640   3.585   1.743
 2539SOL    OH223871   0.930   4.523   5.705
 2539SOL     H123872   0.896   4.583   5.639
 2539SOL     H223873   0.885   4.440   5.689
 2540SOL    OH223874   5.000   1.349   0.960
 2540SOL     H123875   4.998   1.364   1.055
 2540SOL     H223876   5.066   1.281   0.948
 2541SOL    OH223877   5.576   2.622   6.062
 2541SOL     H123878   5.527   2.674   5.999
 2541SOL     H223879   5.525   2.627   6.143
 2542SOL    OH223880   0.550   0.951   0.991
 2542SOL     H123881   0.575   1.043   0.982
 2542SOL     H223882   0.632   0.904   1.000
 2543SOL    OH223883   0.920   2.556   6.125
 2543SOL     H123884   0.832   2.523   6.142
 2543SOL     H223885   0.913   2.651   6.139
 2544SOL    OH223886   5.854   3.962   6.276
 2544SOL     H123887   5.938   3.976   6.320
 2544SOL     H223888   5.789   4.002   6.333
 2545SOL    OH223889   4.753   0.074   6.019
 2545SOL     H123890   4.703   0.012   6.071
 2545SOL     H223891   4.757   0.153   6.073
 2546SOL    OH223892   1.511   5.176   5.990
 2546SOL     H123893   1.572   5.227   5.936
 2546SOL     H223894   1.496   5.095   5.941
 2547SOL    OH223895   2.691   3.328   5.607
 2547SOL     H123896   2.652   3.326   5.520
 2547SOL     H223897   2.735   3.244   5.616
 2548SOL    OH223898   2.414   4.277   6.620
 2548SOL     H123899   2.435   4.362   6.660
 2548SOL     H223900   2.322   4.264   6.640
 2549SOL    OH223901   2.955   3.019   0.938
 2549SOL     H123902   2.904   3.070   0.875
 2549SOL     H223903   2.941   3.063   1.021
 2550SOL    OH223904   3.212   5.012   0.544
 2550SOL     H123905   3.129   5.023   0.497
 2550SOL     H223906   3.206   5.071   0.619
 2551SOL    OH223907   4.619   3.827   0.770
 2551SOL     H123908   4.593   3.918   0.784
 2551SOL     H223909   4.562   3.796   0.699
 2552SOL    OH223910   2.154   1.943   0.083
 2552SOL     H123911   2.239   1.936   0.126
 2552SOL     H223912   2.172   1.925   6.671
 2553SOL    OH223913   4.902   3.839   1.044
 2553SOL     H123914   4.875   3.757   1.001
 2553SOL     H223915   4.833   3.901   1.019
 2554SOL    OH223916   5.723   5.089   0.151
 2554SOL     H123917   5.647   5.059   0.201
 2554SOL     H223918   5.795   5.035   0.183
 2555SOL    OH223919   5.787   4.389   0.603
 2555SOL     H123920   5.751   4.381   0.515
 2555SOL     H223921   5.774   4.481   0.626
 2556SOL    OH223922   4.683   3.509   6.329
 2556SOL     H123923   4.711   3.439   6.389
 2556SOL     H223924   4.716   3.482   6.243
 2557SOL    OH223925   2.156   2.242   4.905
 2557SOL     H123926   2.241   2.252   4.947
 2557SOL     H223927   2.150   2.317   4.846
 2558SOL    OH223928   1.247   3.654   6.256
 2558SOL     H123929   1.285   3.579   6.209
 2558SOL     H223930   1.155   3.654   6.229
 2559SOL    OH223931   1.286   4.284   0.317
 2559SOL     H123932   1.201   4.247   0.338
 2559SOL     H223933   1.269   4.377   0.303
 2560SOL    OH223934   1.042   4.191   0.391
 2560SOL     H123935   0.997   4.274   0.376
 2560SOL     H223936   1.014   4.164   0.478
 2561SOL    OH223937   1.494   2.978   6.358
 2561SOL     H123938   1.465   3.033   6.286
 2561SOL     H223939   1.414   2.959   6.407
 2562SOL    OH223940   1.747   4.363   1.238
 2562SOL     H123941   1.777   4.334   1.325
 2562SOL     H223942   1.810   4.326   1.177
 2563SOL    OH223943   0.555   3.150   0.635
 2563SOL     H123944   0.502   3.180   0.562
 2563SOL     H223945   0.614   3.223   0.654
 2564SOL    OH223946   0.927   4.092   5.846
 2564SOL     H123947   0.989   4.144   5.796
 2564SOL     H223948   0.896   4.151   5.915
 2565SOL    OH223949   3.129   6.210   0.923
 2565SOL     H123950   3.138   6.162   0.841
 2565SOL     H223951   3.188   6.164   0.984
 2566SOL    OH223952   3.612   6.323   0.026
 2566SOL     H123953   3.572   6.277   6.632
 2566SOL     H223954   3.672   6.386   6.667
 2567SOL    OH223955   1.804   3.303   0.657
 2567SOL     H123956   1.877   3.246   0.678
 2567SOL     H223957   1.801   3.304   0.561
 2568SOL    OH223958   3.416   6.240   5.394
 2568SOL     H123959   3.409   6.329   5.360
 2568SOL     H223960   3.335   6.197   5.368
 2569SOL    OH223961   4.148   5.397   0.223
 2569SOL     H123962   4.150   5.416   0.317
 2569SOL     H223963   4.162   5.303   0.217
 2570SOL    OH223964   0.503   1.770   0.348
 2570SOL     H123965   0.436   1.784   0.415
 2570SOL     H223966   0.549   1.853   0.341
 2571SOL    OH223967   5.846   0.534   6.615
 2571SOL     H123968   5.770   0.549   6.671
 2571SOL     H223969   5.921   0.550   6.672
 2572SOL    OH223970   4.429   0.274   5.013
 2572SOL     H123971   4.339   0.300   4.994
 2572SOL     H223972   4.438   0.187   4.974
 2573SOL    OH223973   0.195   2.480   1.325
 2573SOL     H123974   0.158   2.453   1.409
 2573SOL     H223975   0.193   2.575   1.327
 2574SOL    OH223976   5.583   6.214   6.665
 2574SOL     H123977   5.497   6.171   6.656
 2574SOL     H223978   5.570   6.300   6.624
 2575SOL    OH223979   0.493   3.854   0.393
 2575SOL     H123980   0.527   3.870   0.305
 2575SOL     H223981   0.440   3.774   0.384
 2576SOL    OH223982   4.987   3.639   6.148
 2576SOL     H123983   4.960   3.591   6.070
 2576SOL     H223984   5.022   3.722   6.115
 2577SOL    OH223985   3.388   1.367   1.025
 2577SOL     H123986   3.312   1.311   1.014
 2577SOL     H223987   3.391   1.386   1.119
 2578SOL    OH223988   1.963   3.793   0.505
 2578SOL     H123989   1.953   3.716   0.562
 2578SOL     H223990   1.916   3.863   0.551
 2579SOL    OH223991   6.008   2.347   0.942
 2579SOL     H123992   5.928   2.391   0.972
 2579SOL     H223993   5.976   2.277   0.886
 2580SOL    OH223994   1.630   2.721   5.151
 2580SOL     H123995   1.560   2.656   5.157
 2580SOL     H223996   1.709   2.670   5.131
 2581SOL    OH223997   5.613   0.710   0.667
 2581SOL     H123998   5.603   0.766   0.744
 2581SOL     H223999   5.620   0.621   0.703
 2582SOL    OH224000   3.423   4.157   0.639
 2582SOL     H124001   3.333   4.128   0.630
 2582SOL     H224002   3.433   4.178   0.731
 2583SOL    OH224003   2.628   2.710   6.011
 2583SOL     H124004   2.609   2.654   6.087
 2583SOL     H224005   2.577   2.789   6.027
 2584SOL    OH224006   4.316   3.193   0.238
 2584SOL     H124007   4.246   3.228   0.292
 2584SOL     H224008   4.394   3.199   0.294
 2585SOL    OH224009   3.056   3.492   6.018
 2585SOL     H124010   3.073   3.452   6.104
 2585SOL     H224011   3.137   3.537   5.996
 2586SOL    OH224012   1.442   3.400   0.887
 2586SOL     H124013   1.389   3.395   0.966
 2586SOL     H224014   1.459   3.494   0.875
 2587SOL    OH224015   1.582   1.435   1.498
 2587SOL     H124016   1.626   1.409   1.579
 2587SOL     H224017   1.499   1.388   1.499
 2588SOL    OH224018   3.929   4.717   1.732
 2588SOL     H124019   3.873   4.642   1.754
 2588SOL     H224020   3.868   4.788   1.715
 2589SOL    OH224021   3.786   4.882   5.796
 2589SOL     H124022   3.755   4.818   5.731
 2589SOL     H224023   3.706   4.914   5.838
 2590SOL    OH224024   1.417   0.284   0.737
 2590SOL     H124025   1.450   0.372   0.759
 2590SOL     H224026   1.450   0.268   0.649
 2591SOL    OH224027   2.245   2.408   1.358
 2591SOL     H124028   2.318   2.402   1.297
 2591SOL     H224029   2.169   2.429   1.303
 2592SOL    OH224030   5.866   1.185   1.334
 2592SOL     H124031   5.795   1.142   1.382
 2592SOL     H224032   5.852   1.279   1.351
 2593SOL    OH224033   5.916   3.045   5.731
 2593SOL     H124034   5.929   3.140   5.735
 2593SOL     H224035   5.860   3.031   5.655
 2594SOL    OH224036   2.432   4.425   6.124
 2594SOL     H124037   2.360   4.463   6.073
 2594SOL     H224038   2.499   4.493   6.124
 2595SOL    OH224039   2.444   3.274   0.807
 2595SOL     H124040   2.523   3.328   0.797
 2595SOL     H224041   2.471   3.204   0.867
 2596SOL    OH224042   5.684   4.440   1.764
 2596SOL     H124043   5.706   4.476   1.850
 2596SOL     H224044   5.630   4.507   1.722
 2597SOL    OH224045   6.290   2.618   5.433
 2597SOL     H124046   6.208   2.661   5.458
 2597SOL     H224047   0.055   2.678   5.462
 2598SOL    OH224048   4.393   0.781   6.223
 2598SOL     H124049   4.423   0.735   6.301
 2598SOL     H224050   4.439   0.865   6.225
 2599SOL    OH224051   5.277   3.806   1.181
 2599SOL     H124052   5.316   3.790   1.267
 2599SOL     H224053   5.341   3.862   1.136
 2600SOL    OH224054   4.593   4.041   0.093
 2600SOL     H124055   4.648   4.109   0.133
 2600SOL     H224056   4.646   4.007   0.021
 2601SOL    OH224057   5.385   6.206   1.131
 2601SOL     H124058   5.452   6.235   1.193
 2601SOL     H224059   5.415   6.120   1.101
 2602SOL    OH224060   3.471   4.707   5.797
 2602SOL     H124061   3.419   4.787   5.788
 2602SOL     H224062   3.542   4.718   5.734
 2603SOL    OH224063   3.253   4.482   1.551
 2603SOL     H124064   3.164   4.513   1.532
 2603SOL     H224065   3.297   4.559   1.589
 2604SOL    OH224066   5.477   3.843   6.536
 2604SOL     H124067   5.483   3.760   6.488
 2604SOL     H224068   5.517   3.824   6.621
 2605SOL    OH224069   1.816   5.853   6.203
 2605SOL     H124070   1.864   5.857   6.286
 2605SOL     H224071   1.882   5.825   6.139
 2606SOL    OH224072   2.534   1.780   5.443
 2606SOL     H124073   2.539   1.872   5.417
 2606SOL     H224074   2.600   1.771   5.512
 2607SOL    OH224075   5.933   2.057   5.562
 2607SOL     H124076   5.867   2.043   5.493
 2607SOL     H224077   5.895   2.014   5.639
 2608SOL    OH224078   2.802   4.685   5.424
 2608SOL     H124079   2.857   4.764   5.427
 2608SOL     H224080   2.864   4.614   5.408
 2609SOL    OH224081   5.509   4.822   5.413
 2609SOL     H124082   5.601   4.848   5.406
 2609SOL     H224083   5.477   4.865   5.492
 2610SOL    OH224084   5.825   4.703   0.220
 2610SOL     H124085   5.863   4.788   0.241
 2610SOL     H224086   5.760   4.688   0.289
 2611SOL    OH224087   4.293   0.759   0.240
 2611SOL     H124088   4.251   0.830   0.289
 2611SOL     H224089   4.333   0.704   0.307
 2612SOL    OH224090   1.347   5.103   0.839
 2612SOL     H124091   1.398   5.137   0.912
 2612SOL     H224092   1.257   5.100   0.872
 2613SOL    OH224093   4.075   2.342   5.098
 2613SOL     H124094   4.063   2.415   5.036
 2613SOL     H224095   4.113   2.383   5.176
 2614SOL    OH224096   6.136   1.292   0.964
 2614SOL     H124097   6.211   1.244   0.931
 2614SOL     H224098   6.173   1.354   1.027
 2615SOL    OH224099   1.481   2.950   5.122
 2615SOL     H124100   1.517   2.997   5.047
 2615SOL     H224101   1.539   2.875   5.134
 2616SOL    OH224102   0.204   5.508   6.021
 2616SOL     H124103   0.119   5.525   5.982
 2616SOL     H224104   0.209   5.569   6.095
 2617SOL    OH224105   0.596   6.179   6.018
 2617SOL     H124106   0.684   6.160   6.052
 2617SOL     H224107   0.590   6.126   5.938
 2618SOL    OH224108   5.806   0.867   6.623
 2618SOL     H124109   5.738   0.890   0.006
 2618SOL     H224110   5.764   0.875   6.538
 2619SOL    OH224111   3.480   5.715   0.313
 2619SOL     H124112   3.491   5.685   0.404
 2619SOL     H224113   3.568   5.707   0.275
 2620SOL    OH224114   2.703   6.105   0.427
 2620SOL     H124115   2.693   6.139   0.516
 2620SOL     H224116   2.672   6.176   0.371
 2621SOL    OH224117   0.317   2.785   6.625
 2621SOL     H124118   0.395   2.733   6.606
 2621SOL     H224119   0.351   2.865   6.667
 2622SOL    OH224120   3.275   5.273   6.598
 2622SOL     H124121   3.204   5.219   6.563
 2622SOL     H224122   3.353   5.241   6.553
 2623SOL    OH224123   6.286   3.841   0.641
 2623SOL     H124124   6.233   3.894   0.700
 2623SOL     H224125   0.060   3.895   0.623
 2624SOL    OH224126   1.246   4.157   6.392
 2624SOL     H124127   1.196   4.077   6.409
 2624SOL     H224128   1.211   4.190   6.309
 2625SOL    OH224129   3.613   4.667   0.489
 2625SOL     H124130   3.572   4.581   0.498
 2625SOL     H224131   3.547   4.729   0.521
 2626SOL    OH224132   4.318   1.218   6.539
 2626SOL     H124133   4.301   1.193   6.448
 2626SOL     H224134   4.265   1.296   6.553
 2627SOL    OH224135   5.036   0.573   4.790
 2627SOL     H124136   5.047   0.536   4.702
 2627SOL     H224137   5.043   0.667   4.777
 2628SOL    OH224138   1.047   2.101   0.504
 2628SOL     H124139   0.991   2.071   0.432
 2628SOL     H224140   1.136   2.083   0.474
 2629SOL    OH224141   0.850   4.279   6.038
 2629SOL     H124142   0.793   4.334   5.984
 2629SOL     H224143   0.826   4.301   6.128
 2630SOL    OH224144   0.036   3.101   0.970
 2630SOL     H124145   0.069   3.103   1.059
 2630SOL     H224146   0.072   3.179   0.929
 2631SOL    OH224147   1.363   5.184   1.442
 2631SOL     H124148   1.417   5.179   1.520
 2631SOL     H224149   1.333   5.275   1.439
 2632SOL    OH224150   1.545   6.217   0.051
 2632SOL     H124151   1.460   6.243   0.016
 2632SOL     H224152   1.566   6.134   0.007
 2633SOL    OH224153   2.715   5.663   1.003
 2633SOL     H124154   2.676   5.708   1.077
 2633SOL     H224155   2.768   5.593   1.043
 2634SOL    OH224156   3.862   0.843   0.111
 2634SOL     H124157   3.942   0.869   0.065
 2634SOL     H224158   3.889   0.832   0.202
 2635SOL    OH224159   4.527   5.781   0.476
 2635SOL     H124160   4.613   5.811   0.448
 2635SOL     H224161   4.544   5.717   0.544
 2636SOL    OH224162   5.731   4.421   5.256
 2636SOL     H124163   5.703   4.394   5.168
 2636SOL     H224164   5.720   4.342   5.309
 2637SOL    OH224165   1.156   5.992   1.235
 2637SOL     H124166   1.144   6.076   1.190
 2637SOL     H224167   1.075   5.981   1.285
 2638SOL    OH224168   0.904   2.830   6.181
 2638SOL     H124169   0.922   2.888   6.108
 2638SOL     H224170   0.850   2.882   6.241
 2639SOL    OH224171   0.660   5.665   6.520
 2639SOL     H124172   0.693   5.706   6.440
 2639SOL     H224173   0.611   5.733   6.564
 2640SOL    OH224174   4.049   3.459   0.988
 2640SOL     H124175   4.115   3.525   0.968
 2640SOL     H224176   3.983   3.506   1.039
 2641SOL    OH224177   0.720   5.306   4.586
 2641SOL     H124178   0.633   5.284   4.618
 2641SOL     H224179   0.728   5.259   4.503
 2642SOL    OH224180   2.901   6.101   6.382
 2642SOL     H124181   2.873   6.138   6.298
 2642SOL     H224182   2.974   6.156   6.410
 2643SOL    OH224183   3.050   0.040   0.819
 2643SOL     H124184   2.956   0.046   0.840
 2643SOL     H224185   3.079   6.378   0.862
 2644SOL    OH224186   1.662   5.618   0.089
 2644SOL     H124187   1.582   5.647   0.045
 2644SOL     H224188   1.642   5.531   0.121
 2645SOL    OH224189   5.458   2.677   0.225
 2645SOL     H124190   5.486   2.626   0.301
 2645SOL     H224191   5.506   2.760   0.234
 2646SOL    OH224192   0.365   3.819   5.359
 2646SOL     H124193   0.403   3.734   5.338
 2646SOL     H224194   0.330   3.851   5.275
 2647SOL    OH224195   4.916   4.132   0.779
 2647SOL     H124196   4.995   4.084   0.802
 2647SOL     H224197   4.852   4.107   0.846
 2648SOL    OH224198   5.534   1.818   5.397
 2648SOL     H124199   5.440   1.835   5.390
 2648SOL     H224200   5.562   1.805   5.306
 2649SOL    OH224201   3.745   5.828   6.508
 2649SOL     H124202   3.757   5.733   6.509
 2649SOL     H224203   3.678   5.845   6.574
 2650SOL    OH224204   5.477   0.202   1.517
 2650SOL     H124205   5.462   0.179   1.425
 2650SOL     H224206   5.419   0.144   1.566
 2651SOL    OH224207   0.091   0.711   0.593
 2651SOL     H124208   0.173   0.760   0.581
 2651SOL     H224209   0.022   0.773   0.567
 2652SOL    OH224210   2.438   0.518   5.103
 2652SOL     H124211   2.532   0.528   5.088
 2652SOL     H224212   2.407   0.466   5.030
 2653SOL    OH224213   1.511   5.447   0.510
 2653SOL     H124214   1.481   5.537   0.500
 2653SOL     H224215   1.433   5.394   0.493
 2654SOL    OH224216   1.017   0.958   0.494
 2654SOL     H124217   0.981   1.024   0.553
 2654SOL     H224218   0.986   0.875   0.529
 2655SOL    OH224219   0.906   4.071   6.516
 2655SOL     H124220   0.836   4.077   6.450
 2655SOL     H224221   0.975   4.022   6.472
 2656SOL    OH224222   3.367   0.195   1.012
 2656SOL     H124223   3.409   0.263   0.959
 2656SOL     H224224   3.404   0.207   1.099
 2657SOL    OH224225   5.053   6.153   0.370
 2657SOL     H124226   4.963   6.147   0.399
 2657SOL     H224227   5.097   6.204   0.438
 2658SOL    OH224228   0.038   1.128   0.853
 2658SOL     H124229   0.022   1.113   0.760
 2658SOL     H224230   0.132   1.115   0.864
 2659SOL    OH224231   0.120   3.527   0.699
 2659SOL     H124232   0.078   3.583   0.764
 2659SOL     H224233   0.204   3.571   0.680
 2660SOL    OH224234   0.203   6.206   6.278
 2660SOL     H124235   0.184   6.286   6.230
 2660SOL     H224236   0.298   6.200   6.278
 2661SOL    OH224237   3.909   0.847   5.359
 2661SOL     H124238   3.891   0.929   5.405
 2661SOL     H224239   3.841   0.841   5.292
 2662SOL    OH224240   5.200   3.848   6.316
 2662SOL     H124241   5.185   3.936   6.351
 2662SOL     H224242   5.154   3.848   6.231
 2663SOL    OH224243   5.491   2.222   1.159
 2663SOL     H124244   5.398   2.202   1.175
 2663SOL     H224245   5.515   2.282   1.229
 2664SOL    OH224246   2.085   5.467   5.990
 2664SOL     H124247   2.160   5.521   5.967
 2664SOL     H224248   2.050   5.507   6.070
 2665SOL    OH224249   3.940   5.233   6.158
 2665SOL     H124250   3.930   5.160   6.097
 2665SOL     H224251   3.966   5.192   6.241
 2666SOL    OH224252   6.107   4.768   5.877
 2666SOL     H124253   6.121   4.724   5.961
 2666SOL     H224254   6.026   4.730   5.843
 2667SOL    OH224255   2.691   6.167   0.703
 2667SOL     H124256   2.633   6.104   0.745
 2667SOL     H224257   2.766   6.175   0.763
 2668SOL    OH224258   2.326   1.284   0.344
 2668SOL     H124259   2.408   1.313   0.305
 2668SOL     H224260   2.270   1.362   0.345
 2669SOL    OH224261   0.023   5.187   6.678
 2669SOL     H124262   0.055   5.260   6.625
 2669SOL     H224263   6.301   5.227   0.081
 2670SOL    OH224264   6.103   3.020   6.079
 2670SOL     H124265   6.088   3.111   6.105
 2670SOL     H224266   6.089   2.970   6.160
 2671SOL    OH224267   0.765   0.902   5.998
 2671SOL     H124268   0.738   0.930   6.086
 2671SOL     H224269   0.847   0.948   5.982
 2672SOL    OH224270   2.962   2.674   0.329
 2672SOL     H124271   2.899   2.719   0.272
 2672SOL     H224272   2.931   2.693   0.417
 2673SOL    OH224273   0.521   5.837   0.030
 2673SOL     H124274   0.612   5.854   0.056
 2673SOL     H224275   0.472   5.842   0.112
 2674SOL    OH224276   0.366   0.585   1.175
 2674SOL     H124277   0.416   0.602   1.095
 2674SOL     H224278   0.290   0.642   1.169
 2675SOL    OH224279   3.517   0.650   6.028
 2675SOL     H124280   3.430   0.622   5.999
 2675SOL     H224281   3.569   0.570   6.028
 2676SOL    OH224282   4.132   3.034   0.793
 2676SOL     H124283   4.193   3.055   0.723
 2676SOL     H224284   4.071   2.971   0.754
 2677SOL    OH224285   2.252   5.086   1.153
 2677SOL     H124286   2.333   5.055   1.112
 2677SOL     H224287   2.228   5.016   1.214
 2678SOL    OH224288   3.641   1.047   6.425
 2678SOL     H124289   3.549   1.066   6.443
 2678SOL     H224290   3.657   0.965   6.471
 2679SOL    OH224291   6.237   5.777   0.075
 2679SOL     H124292   6.203   5.763   0.163
 2679SOL     H224293   6.188   5.852   0.042
 2680SOL    OH224294   0.993   3.697   0.217
 2680SOL     H124295   0.988   3.786   0.182
 2680SOL     H224296   0.913   3.686   0.269
 2681SOL    OH224297   2.177   0.792   5.679
 2681SOL     H124298   2.084   0.776   5.667
 2681SOL     H224299   2.204   0.840   5.601
 2682SOL    OH224300   0.304   1.332   0.279
 2682SOL     H124301   0.268   1.384   0.351
 2682SOL     H224302   0.227   1.294   0.236
 2683SOL    OH224303   3.558   5.669   1.538
 2683SOL     H124304   3.466   5.689   1.554
 2683SOL     H224305   3.602   5.686   1.621
 2684SOL    OH224306   0.596   4.558   6.678
 2684SOL     H124307   0.531   4.552   0.068
 2684SOL     H224308   0.600   4.469   6.642
 2685SOL    OH224309   3.417   0.878   0.153
 2685SOL     H124310   3.372   0.954   0.191
 2685SOL     H224311   3.440   0.824   0.229
 2686SOL    OH224312   5.913   1.697   6.535
 2686SOL     H124313   5.993   1.745   6.512
 2686SOL     H224314   5.945   1.621   6.584
 2687SOL    OH224315   1.531   3.374   0.077
 2687SOL     H124316   1.463   3.352   0.013
 2687SOL     H224317   1.483   3.409   0.151
 2688SOL    OH224318   0.829   2.072   6.455
 2688SOL     H124319   0.780   2.113   6.383
 2688SOL     H224320   0.780   1.992   6.475
 2689SOL    OH224321   2.440   2.985   0.515
 2689SOL     H124322   2.489   2.942   0.445
 2689SOL     H224323   2.482   2.956   0.596
 2690SOL    OH224324   0.657   6.237   1.859
 2690SOL     H124325   0.748   6.215   1.837
 2690SOL     H224326   0.655   6.333   1.860
 2691SOL    OH224327   5.352   3.249   5.495
 2691SOL     H124328   5.339   3.332   5.451
 2691SOL     H224329   5.286   3.191   5.458
 2692SOL    OH224330   6.283   0.509   0.409
 2692SOL     H124331   0.023   0.541   0.489
 2692SOL     H224332   6.207   0.567   0.398
 2693SOL    OH224333   0.065   0.904   5.152
 2693SOL     H124334   6.290   0.959   5.141
 2693SOL     H224335   0.034   0.815   5.133
 2694SOL    OH224336   3.268   3.617   6.650
 2694SOL     H124337   3.330   3.689   6.642
 2694SOL     H224338   3.319   3.544   0.004
 2695SOL    OH224339   6.195   5.022   5.852
 2695SOL     H124340   6.163   4.932   5.859
 2695SOL     H224341   6.235   5.040   5.937
 2696SOL    OH224342   4.536   5.336   5.770
 2696SOL     H124343   4.451   5.358   5.810
 2696SOL     H224344   4.527   5.245   5.743
 2697SOL    OH224345   3.219   2.435   6.047
 2697SOL     H124346   3.165   2.361   6.075
 2697SOL     H224347   3.181   2.510   6.092
 2698SOL    OH224348   2.785   2.803   0.149
 2698SOL     H124349   2.725   2.782   0.079
 2698SOL     H224350   2.858   2.848   0.106
 2699SOL    OH224351   5.756   2.776   6.336
 2699SOL     H124352   5.827   2.730   6.293
 2699SOL     H224353   5.715   2.711   6.393
 2700SOL    OH224354   3.541   3.393   5.922
 2700SOL     H124355   3.575   3.367   6.007
 2700SOL     H224356   3.552   3.488   5.919
 2701SOL    OH224357   1.508   1.951   6.345
 2701SOL     H124358   1.480   1.993   6.427
 2701SOL     H224359   1.523   1.860   6.369
 2702SOL    OH224360   3.186   2.409   0.745
 2702SOL     H124361   3.156   2.368   0.826
 2702SOL     H224362   3.127   2.376   0.678
 2703SOL    OH224363   1.479   1.065   5.940
 2703SOL     H124364   1.434   1.013   6.007
 2703SOL     H224365   1.421   1.061   5.864
 2704SOL    OH224366   4.742   4.065   0.987
 2704SOL     H124367   4.660   4.067   0.938
 2704SOL     H224368   4.730   4.131   1.056
 2705SOL    OH224369   4.180   0.945   0.417
 2705SOL     H124370   4.202   1.035   0.394
 2705SOL     H224371   4.163   0.947   0.511
 2706SOL    OH224372   0.024   5.038   6.103
 2706SOL     H124373   0.066   5.120   6.129
 2706SOL     H224374   0.096   4.983   6.071
 2707SOL    OH224375   5.662   0.085   0.321
 2707SOL     H124376   5.577   0.046   0.303
 2707SOL     H224377   5.680   0.138   0.243
 2708SOL    OH224378   0.201   0.719   6.463
 2708SOL     H124379   0.113   0.756   6.456
 2708SOL     H224380   0.204   0.651   6.396
 2709SOL    OH224381   3.241   4.375   6.020
 2709SOL     H124382   3.186   4.354   6.095
 2709SOL     H224383   3.276   4.462   6.040
 2710SOL    OH224384   3.692   1.925   0.752
 2710SOL     H124385   3.655   1.900   0.667
 2710SOL     H224386   3.695   1.844   0.802
 2711SOL    OH224387   3.407   2.889   6.080
 2711SOL     H124388   3.484   2.888   6.024
 2711SOL     H224389   3.333   2.895   6.019
 2712SOL    OH224390   0.524   1.361   0.107
 2712SOL     H124391   0.571   1.431   0.151
 2712SOL     H224392   0.436   1.362   0.145
 2713SOL    OH224393   0.659   1.566   0.232
 2713SOL     H124394   0.607   1.632   0.277
 2713SOL     H224395   0.735   1.552   0.288
 2714SOL    OH224396   6.245   0.839   6.468
 2714SOL     H124397   6.200   0.801   6.544
 2714SOL     H224398   6.186   0.907   6.436
 2715SOL    OH224399   2.587   3.091   0.959
 2715SOL     H124400   2.672   3.114   0.921
 2715SOL     H224401   2.595   3.116   1.051
 2716SOL    OH224402   6.111   4.208   1.123
 2716SOL     H124403   6.200   4.240   1.133
 2716SOL     H224404   6.107   4.130   1.179
 2717SOL    OH224405   1.407   5.675   6.664
 2717SOL     H124406   1.379   5.604   6.607
 2717SOL     H224407   1.385   5.755   6.616
 2718SOL    OH224408   1.151   3.353   1.360
 2718SOL     H124409   1.056   3.339   1.365
 2718SOL     H224410   1.173   3.399   1.441
 2719SOL    OH224411   3.739   0.806   6.097
 2719SOL     H124412   3.757   0.771   6.184
 2719SOL     H224413   3.662   0.758   6.067
 2720SOL    OH224414   0.264   2.923   0.699
 2720SOL     H124415   0.286   2.938   0.791
 2720SOL     H224416   0.210   2.845   0.700
 2721SOL    OH224417   2.033   0.227   5.839
 2721SOL     H124418   1.980   0.178   5.776
 2721SOL     H224419   2.031   0.317   5.807
 2722SOL    OH224420   5.256   3.319   6.023
 2722SOL     H124421   5.293   3.338   5.937
 2722SOL     H224422   5.214   3.234   6.013
 2723SOL    OH224423   2.252   4.812   6.005
 2723SOL     H124424   2.254   4.717   5.997
 2723SOL     H224425   2.313   4.832   6.076
 2724SOL    OH224426   2.942   5.080   0.482
 2724SOL     H124427   2.910   5.164   0.447
 2724SOL     H224428   2.913   5.079   0.573
 2725SOL    OH224429   4.536   4.955   1.006
 2725SOL     H124430   4.498   4.995   1.085
 2725SOL     H224431   4.461   4.938   0.949
 2726SOL    OH224432   6.214   5.048   5.584
 2726SOL     H124433   6.132   5.010   5.555
 2726SOL     H224434   6.210   5.046   5.680
 2727SOL    OH224435   4.811   4.063   5.542
 2727SOL     H124436   4.844   4.153   5.545
 2727SOL     H224437   4.869   4.018   5.480
 2728SOL    OH224438   3.719   1.741   1.448
 2728SOL     H124439   3.689   1.825   1.412
 2728SOL     H224440   3.806   1.760   1.482
 2729SOL    OH224441   4.222   5.044   5.716
 2729SOL     H124442   4.202   4.952   5.696
 2729SOL     H224443   4.317   5.051   5.701
 2730SOL    OH224444   4.452   5.353   6.557
 2730SOL     H124445   4.399   5.422   6.597
 2730SOL     H224446   4.406   5.272   6.580
 2731SOL    OH224447   5.367   4.317   5.140
 2731SOL     H124448   5.352   4.409   5.119
 2731SOL     H224449   5.399   4.279   5.058
 2732SOL    OH224450   3.271   4.037   6.576
 2732SOL     H124451   3.229   4.012   6.658
 2732SOL     H224452   3.208   4.012   6.508
 2733SOL    OH224453   2.282   3.613   1.305
 2733SOL     H124454   2.281   3.647   1.394
 2733SOL     H224455   2.225   3.537   1.307
 2734SOL    OH224456   5.200   0.734   0.751
 2734SOL     H124457   5.149   0.814   0.742
 2734SOL     H224458   5.223   0.709   0.661
 2735SOL    OH224459   0.407   5.945   6.305
 2735SOL     H124460   0.444   6.033   6.301
 2735SOL     H224461   0.423   5.909   6.218
 2736SOL    OH224462   3.880   4.984   0.398
 2736SOL     H124463   3.890   5.053   0.332
 2736SOL     H224464   3.824   4.919   0.356
 2737SOL    OH224465   3.652   2.032   5.671
 2737SOL     H124466   3.666   1.940   5.649
 2737SOL     H224467   3.609   2.069   5.594
 2738SOL    OH224468   2.991   0.201   1.645
 2738SOL     H124469   3.055   0.178   1.577
 2738SOL     H224470   3.044   0.223   1.722
 2739SOL    OH224471   5.468   0.424   1.927
 2739SOL     H124472   5.510   0.428   1.841
 2739SOL     H224473   5.445   0.515   1.946
 2740SOL    OH224474   2.738   2.650   6.435
 2740SOL     H124475   2.684   2.683   6.507
 2740SOL     H224476   2.751   2.726   6.378
 2741SOL    OH224477   3.542   2.106   0.899
 2741SOL     H124478   3.495   2.156   0.832
 2741SOL     H224479   3.598   2.046   0.850
 2742SOL    OH224480   2.194   3.203   6.112
 2742SOL     H124481   2.242   3.252   6.179
 2742SOL     H224482   2.180   3.117   6.151
 2743SOL    OH224483   5.337   4.134   5.345
 2743SOL     H124484   5.360   4.197   5.277
 2743SOL     H224485   5.247   4.157   5.370
 2744SOL    OH224486   3.301   3.994   6.185
 2744SOL     H124487   3.260   4.023   6.104
 2744SOL     H224488   3.280   3.901   6.190
 2745SOL    OH224489   5.681   1.930   0.678
 2745SOL     H124490   5.735   1.979   0.616
 2745SOL     H224491   5.733   1.925   0.758
 2746SOL    OH224492   5.470   5.560   5.608
 2746SOL     H124493   5.458   5.473   5.571
 2746SOL     H224494   5.442   5.552   5.699
 2747SOL    OH224495   2.509   1.391   5.965
 2747SOL     H124496   2.500   1.481   5.998
 2747SOL     H224497   2.498   1.337   6.043
 2748SOL    OH224498   4.894   1.588   5.437
 2748SOL     H124499   4.888   1.645   5.513
 2748SOL     H224500   4.865   1.642   5.363
 2749SOL    OH224501   2.246   1.867   6.509
 2749SOL     H124502   2.226   1.775   6.494
 2749SOL     H224503   2.341   1.873   6.501
 2750SOL    OH224504   4.769   5.164   0.714
 2750SOL     H124505   4.827   5.170   0.790
 2750SOL     H224506   4.828   5.168   0.638
 2751SOL    OH224507   3.139   5.178   6.074
 2751SOL     H124508   3.179   5.240   6.135
 2751SOL     H224509   3.198   5.179   5.998
 2752SOL    OH224510   4.126   0.587   0.994
 2752SOL     H124511   4.115   0.501   1.035
 2752SOL     H224512   4.042   0.631   1.007
 2753SOL    OH224513   4.020   0.731   5.713
 2753SOL     H124514   4.093   0.754   5.656
 2753SOL     H224515   4.015   0.635   5.708
 2754SOL    OH224516   2.063   6.394   0.300
 2754SOL     H124517   2.059   6.384   0.205
 2754SOL     H224518   2.071   0.070   0.314
 2755SOL    OH224519   3.355   2.241   5.860
 2755SOL     H124520   3.301   2.314   5.889
 2755SOL     H224521   3.307   2.202   5.787
 2756SOL    OH224522   4.501   3.235   0.457
 2756SOL     H124523   4.591   3.211   0.437
 2756SOL     H224524   4.507   3.326   0.487
 2757SOL    OH224525   2.888   1.504   6.479
 2757SOL     H124526   2.831   1.568   6.522
 2757SOL     H224527   2.855   1.498   6.389
 2758SOL    OH224528   2.721   3.790   1.051
 2758SOL     H124529   2.694   3.875   1.015
 2758SOL     H224530   2.643   3.755   1.093
 2759SOL    OH224531   4.072   4.376   6.438
 2759SOL     H124532   4.164   4.349   6.437
 2759SOL     H224533   4.029   4.316   6.376
 2760SOL    OH224534   0.902   0.423   6.341
 2760SOL     H124535   0.986   0.460   6.312
 2760SOL     H224536   0.897   0.445   6.434
 2761SOL    OH224537   3.130   1.730   4.495
 2761SOL     H124538   3.136   1.638   4.468
 2761SOL     H224539   3.048   1.736   4.544
 2762SOL    OH224540   5.145   2.255   4.631
 2762SOL     H124541   5.201   2.332   4.628
 2762SOL     H224542   5.103   2.259   4.717
 2763SOL    OH224543   5.959   5.601   6.589
 2763SOL     H124544   5.918   5.685   6.567
 2763SOL     H224545   5.919   5.575   6.672
 2764SOL    OH224546   1.870   6.058   1.092
 2764SOL     H124547   1.808   5.988   1.112
 2764SOL     H224548   1.855   6.080   1.001
 2765SOL    OH224549   4.147   1.017   1.091
 2765SOL     H124550   4.135   1.095   1.145
 2765SOL     H224551   4.096   0.949   1.135
 2766SOL    OH224552   0.445   4.636   6.454
 2766SOL     H124553   0.489   4.605   6.533
 2766SOL     H224554   0.470   4.728   6.448
 2767SOL    OH224555   3.510   0.070   0.213
 2767SOL     H124556   3.415   0.072   0.204
 2767SOL     H224557   3.539   0.009   0.146
 2768SOL    OH224558   3.787   0.706   6.348
 2768SOL     H124559   3.730   0.748   6.412
 2768SOL     H224560   3.870   0.694   6.394
 2769SOL    OH224561   4.036   2.760   6.492
 2769SOL     H124562   4.085   2.823   6.439
 2769SOL     H224563   4.076   2.765   6.579
 2770SOL    OH224564   3.654   4.352   1.107
 2770SOL     H124565   3.633   4.337   1.199
 2770SOL     H224566   3.583   4.311   1.059
 2771SOL    OH224567   4.960   1.325   0.683
 2771SOL     H124568   5.051   1.339   0.658
 2771SOL     H224569   4.959   1.335   0.778
 2772SOL    OH224570   5.647   2.486   4.776
 2772SOL     H124571   5.656   2.459   4.685
 2772SOL     H224572   5.728   2.458   4.819
 2773SOL    OH224573   2.978   4.237   0.454
 2773SOL     H124574   3.038   4.291   0.402
 2773SOL     H224575   3.036   4.188   0.513
 2774SOL    OH224576   1.147   3.630   0.853
 2774SOL     H124577   1.145   3.724   0.832
 2774SOL     H224578   1.153   3.587   0.768
 2775SOL    OH224579   1.493   0.513   0.867
 2775SOL     H124580   1.420   0.483   0.922
 2775SOL     H224581   1.493   0.608   0.877
 2776SOL    OH224582   5.091   2.402   1.121
 2776SOL     H124583   5.172   2.441   1.087
 2776SOL     H224584   5.067   2.457   1.195
 2777SOL    OH224585   2.327   5.985   6.603
 2777SOL     H124586   2.362   6.037   6.676
 2777SOL     H224587   2.345   6.037   6.525
 2778SOL    OH224588   5.798   4.702   0.930
 2778SOL     H124589   5.799   4.641   1.004
 2778SOL     H224590   5.757   4.781   0.964
 2779SOL    OH224591   5.656   0.911   5.424
 2779SOL     H124592   5.579   0.958   5.455
 2779SOL     H224593   5.705   0.976   5.375
 2780SOL    OH224594   1.938   2.497   0.792
 2780SOL     H124595   1.914   2.586   0.819
 2780SOL     H224596   1.946   2.501   0.697
 2781SOL    OH224597   2.272   1.122   6.370
 2781SOL     H124598   2.252   1.133   6.463
 2781SOL     H224599   2.287   1.028   6.360
 2782SOL    OH224600   3.822   5.853   5.726
 2782SOL     H124601   3.792   5.897   5.806
 2782SOL     H224602   3.795   5.762   5.736
 2783SOL    OH224603   4.822   0.968   0.394
 2783SOL     H124604   4.857   1.026   0.326
 2783SOL     H224605   4.800   1.026   0.466
 2784SOL    OH224606   2.816   4.231   1.272
 2784SOL     H124607   2.816   4.267   1.184
 2784SOL     H224608   2.756   4.287   1.322
 2785SOL    OH224609   1.244   1.449   1.738
 2785SOL     H124610   1.312   1.512   1.762
 2785SOL     H224611   1.164   1.486   1.775
 2786SOL    OH224612   2.440   4.916   5.404
 2786SOL     H124613   2.356   4.915   5.359
 2786SOL     H224614   2.494   4.853   5.357
 2787SOL    OH224615   5.067   2.326   6.318
 2787SOL     H124616   5.128   2.399   6.306
 2787SOL     H224617   5.011   2.353   6.390
 2788SOL    OH224618   0.106   3.563   0.409
 2788SOL     H124619   0.095   3.541   0.501
 2788SOL     H224620   0.077   3.485   0.362
 2789SOL    OH224621   1.325   2.648   1.939
 2789SOL     H124622   1.399   2.589   1.924
 2789SOL     H224623   1.341   2.722   1.880
 2790SOL    OH224624   2.403   2.223   0.307
 2790SOL     H124625   2.459   2.243   0.232
 2790SOL     H224626   2.459   2.172   0.366
 2791SOL    OH224627   2.789   3.023   6.515
 2791SOL     H124628   2.726   3.092   6.491
 2791SOL     H224629   2.794   2.967   6.437
 2792SOL    OH224630   1.056   4.681   5.890
 2792SOL     H124631   1.013   4.766   5.891
 2792SOL     H224632   1.001   4.627   5.833
 2793SOL    OH224633   1.078   4.941   5.653
 2793SOL     H124634   0.983   4.937   5.651
 2793SOL     H224635   1.099   5.034   5.645
 2794SOL    OH224636   4.389   2.690   0.145
 2794SOL     H124637   4.441   2.706   0.066
 2794SOL     H224638   4.446   2.720   0.217
 2795SOL    OH224639   3.440   3.136   0.040
 2795SOL     H124640   3.354   3.131   6.678
 2795SOL     H224641   3.487   3.060   0.005
 2796SOL    OH224642   4.453   0.732   0.787
 2796SOL     H124643   4.493   0.818   0.772
 2796SOL     H224644   4.413   0.739   0.873
 2797SOL    OH224645   5.313   0.168   5.837
 2797SOL     H124646   5.278   0.085   5.868
 2797SOL     H224647   5.319   0.158   5.742
 2798SOL    OH224648   1.522   6.184   4.677
 2798SOL     H124649   1.516   6.265   4.626
 2798SOL     H224650   1.449   6.189   4.739
 2799SOL    OH224651   4.477   0.698   6.478
 2799SOL     H124652   4.422   0.622   6.499
 2799SOL     H224653   4.481   0.748   6.559
 2800SOL    OH224654   2.334   0.857   6.324
 2800SOL     H124655   2.414   0.810   6.345
 2800SOL     H224656   2.334   0.863   6.229
 2801SOL    OH224657   3.184   3.118   6.631
 2801SOL     H124658   3.127   3.195   6.632
 2801SOL     H224659   3.124   3.044   6.638
 2802SOL    OH224660   2.810   5.434   1.128
 2802SOL     H124661   2.740   5.459   1.188
 2802SOL     H224662   2.875   5.391   1.184
 2803SOL    OH224663   0.388   0.095   0.531
 2803SOL     H124664   0.320   0.062   0.471
 2803SOL     H224665   0.396   0.026   0.597
 2804SOL    OH224666   1.898   5.048   6.521
 2804SOL     H124667   1.888   5.082   6.609
 2804SOL     H224668   1.993   5.042   6.508
 2805SOL    OH224669   1.464   1.719   0.686
 2805SOL     H124670   1.396   1.738   0.621
 2805SOL     H224671   1.463   1.796   0.744
 2806SOL    OH224672   0.173   5.758   5.710
 2806SOL     H124673   0.264   5.758   5.741
 2806SOL     H224674   0.146   5.849   5.714
 2807SOL    OH224675   0.610   4.050   5.945
 2807SOL     H124676   0.698   4.040   5.980
 2807SOL     H224677   0.618   4.029   5.852
 2808SOL    OH224678   5.294   1.042   6.089
 2808SOL     H124679   5.255   1.093   6.018
 2808SOL     H224680   5.261   1.083   6.168
 2809SOL    OH224681   3.603   5.627   1.095
 2809SOL     H124682   3.581   5.582   1.177
 2809SOL     H224683   3.562   5.573   1.027
 2810SOL    OH224684   2.762   6.066   4.964
 2810SOL     H124685   2.852   6.097   4.965
 2810SOL     H224686   2.713   6.135   4.920
 2811SOL    OH224687   4.111   3.295   1.741
 2811SOL     H124688   4.057   3.348   1.683
 2811SOL     H224689   4.070   3.305   1.827
 2812SOL    OH224690   2.815   1.509   5.563
 2812SOL     H124691   2.730   1.502   5.607
 2812SOL     H224692   2.872   1.547   5.630
 2813SOL    OH224693   5.439   0.194   4.830
 2813SOL     H124694   5.375   0.242   4.883
 2813SOL     H224695   5.494   0.149   4.894
 2814SOL    OH224696   1.003   1.023   5.928
 2814SOL     H124697   1.014   0.977   5.845
 2814SOL     H224698   1.070   0.986   5.986
 2815SOL    OH224699   5.510   1.561   0.574
 2815SOL     H124700   5.433   1.560   0.518
 2815SOL     H224701   5.477   1.584   0.660
 2816SOL    OH224702   5.392   3.027   6.158
 2816SOL     H124703   5.369   3.083   6.232
 2816SOL     H224704   5.483   3.003   6.173
 2817SOL    OH224705   1.265   2.399   1.483
 2817SOL     H124706   1.177   2.435   1.490
 2817SOL     H224707   1.271   2.337   1.556
 2818SOL    OH224708   3.151   4.070   0.630
 2818SOL     H124709   3.124   3.987   0.590
 2818SOL     H224710   3.153   4.051   0.724
 2819SOL    OH224711   0.873   2.954   0.698
 2819SOL     H124712   0.789   2.957   0.744
 2819SOL     H224713   0.927   2.896   0.751
 2820SOL    OH224714   1.964   6.252   1.262
 2820SOL     H124715   1.939   6.178   1.206
 2820SOL     H224716   2.056   6.235   1.284
 2821SOL    OH224717   5.015   1.576   1.456
 2821SOL     H124718   4.964   1.641   1.504
 2821SOL     H224719   5.031   1.506   1.519
 2822SOL    OH224720   2.102   0.951   1.033
 2822SOL     H124721   2.052   1.003   1.096
 2822SOL     H224722   2.159   1.014   0.989
 2823SOL    OH224723   0.658   3.701   5.784
 2823SOL     H124724   0.646   3.791   5.754
 2823SOL     H224725   0.725   3.707   5.852
 2824SOL    OH224726   5.859   5.804   0.716
 2824SOL     H124727   5.858   5.842   0.804
 2824SOL     H224728   5.889   5.876   0.659
 2825SOL    OH224729   4.389   1.744   0.194
 2825SOL     H124730   4.367   1.661   0.153
 2825SOL     H224731   4.304   1.784   0.214
 2826SOL    OH224732   3.571   2.058   0.290
 2826SOL     H124733   3.629   2.133   0.277
 2826SOL     H224734   3.611   1.988   0.238
 2827SOL    OH224735   2.742   4.132   0.327
 2827SOL     H124736   2.822   4.163   0.370
 2827SOL     H224737   2.738   4.039   0.347
 2828SOL    OH224738   2.788   4.315   5.790
 2828SOL     H124739   2.750   4.397   5.823
 2828SOL     H224740   2.750   4.305   5.703
 2829SOL    OH224741   5.497   0.029   6.550
 2829SOL     H124742   5.407   0.011   6.523
 2829SOL     H224743   5.489   0.101   6.613
 2830SOL    OH224744   2.568   0.905   1.491
 2830SOL     H124745   2.546   0.991   1.528
 2830SOL     H224746   2.508   0.844   1.535
 2831SOL    OH224747   5.205   6.353   5.951
 2831SOL     H124748   5.191   6.404   6.030
 2831SOL     H224749   5.118   6.325   5.924
 2832SOL    OH224750   5.011   4.679   1.025
 2832SOL     H124751   5.076   4.734   1.068
 2832SOL     H224752   4.984   4.729   0.948
 2833SOL    OH224753   2.843   5.322   5.837
 2833SOL     H124754   2.820   5.292   5.925
 2833SOL     H224755   2.897   5.251   5.801
 2834SOL    OH224756   3.704   2.207   6.387
 2834SOL     H124757   3.761   2.280   6.363
 2834SOL     H224758   3.722   2.192   6.480
 2835SOL    OH224759   5.523   2.450   1.620
 2835SOL     H124760   5.616   2.441   1.640
 2835SOL     H224761   5.496   2.530   1.665
 2836SOL    OH224762   0.431   1.027   5.327
 2836SOL     H124763   0.449   1.120   5.313
 2836SOL     H224764   0.509   0.982   5.293
 2837SOL    OH224765   2.174   3.109   0.285
 2837SOL     H124766   2.169   3.069   0.372
 2837SOL     H224767   2.231   3.051   0.235
 2838SOL    OH224768   1.798   3.923   6.210
 2838SOL     H124769   1.758   3.851   6.257
 2838SOL     H224770   1.794   3.997   6.270
 2839SOL    OH224771   5.851   2.617   1.414
 2839SOL     H124772   5.808   2.557   1.474
 2839SOL     H224773   5.789   2.627   1.342
 2840SOL    OH224774   1.232   2.957   6.482
 2840SOL     H124775   1.182   2.974   6.562
 2840SOL     H224776   1.191   2.880   6.444
 2841SOL    OH224777   0.454   0.847   6.038
 2841SOL     H124778   0.481   0.894   5.960
 2841SOL     H224779   0.464   0.755   6.016
 2842SOL    OH224780   6.048   6.213   6.255
 2842SOL     H124781   6.005   6.279   6.201
 2842SOL     H224782   6.079   6.147   6.193
 2843SOL    OH224783   1.083   2.517   0.299
 2843SOL     H124784   1.125   2.571   0.366
 2843SOL     H224785   1.125   2.542   0.217
 2844SOL    OH224786   4.817   3.358   0.150
 2844SOL     H124787   4.755   3.301   0.104
 2844SOL     H224788   4.878   3.387   0.082
 2845SOL    OH224789   3.419   5.264   1.394
 2845SOL     H124790   3.447   5.349   1.361
 2845SOL     H224791   3.484   5.242   1.461
 2846SOL    OH224792   4.116   1.113   5.221
 2846SOL     H124793   4.032   1.090   5.180
 2846SOL     H224794   4.156   1.174   5.160
 2847SOL    OH224795   1.483   2.820   1.050
 2847SOL     H124796   1.560   2.779   1.090
 2847SOL     H224797   1.489   2.796   0.957
 2848SOL    OH224798   3.676   3.499   5.610
 2848SOL     H124799   3.692   3.583   5.652
 2848SOL     H224800   3.581   3.496   5.598
 2849SOL    OH224801   5.893   3.667   1.364
 2849SOL     H124802   5.968   3.699   1.414
 2849SOL     H224803   5.899   3.713   1.280
 2850SOL    OH224804   5.979   1.154   6.665
 2850SOL     H124805   5.964   1.086   0.050
 2850SOL     H224806   6.029   1.110   6.597
 2851SOL    OH224807   4.018   3.707   1.376
 2851SOL     H124808   4.098   3.704   1.429
 2851SOL     H224809   3.947   3.698   1.439
 2852SOL    OH224810   1.871   2.088   0.498
 2852SOL     H124811   1.950   2.038   0.481
 2852SOL     H224812   1.886   2.172   0.454
 2853SOL    OH224813   1.644   0.442   0.031
 2853SOL     H124814   1.724   0.428   6.661
 2853SOL     H224815   1.673   0.484   0.112
 2854SOL    OH224816   4.366   4.947   6.094
 2854SOL     H124817   4.348   4.861   6.057
 2854SOL     H224818   4.300   5.004   6.056
 2855SOL    OH224819   0.395   2.586   0.582
 2855SOL     H124820   0.333   2.645   0.540
 2855SOL     H224821   0.341   2.520   0.625
 2856SOL    OH224822   4.554   4.086   1.329
 2856SOL     H124823   4.614   4.144   1.281
 2856SOL     H224824   4.573   4.102   1.421
 2857SOL    OH224825   0.672   0.306   5.823
 2857SOL     H124826   0.671   0.370   5.751
 2857SOL     H224827   0.763   0.275   5.825
 2858SOL    OH224828   2.678   2.397   6.572
 2858SOL     H124829   2.703   2.475   6.522
 2858SOL     H224830   2.707   2.324   6.517
 2859SOL    OH224831   4.949   1.462   0.128
 2859SOL     H124832   5.029   1.410   0.120
 2859SOL     H224833   4.879   1.397   0.133
 2860SOL    OH224834   3.156   1.357   6.013
 2860SOL     H124835   3.194   1.269   6.024
 2860SOL     H224836   3.197   1.408   6.083
 2861SOL    OH224837   1.150   3.904   0.825
 2861SOL     H124838   1.224   3.921   0.767
 2861SOL     H224839   1.165   3.961   0.900
 2862SOL    OH224840   2.515   3.711   0.313
 2862SOL     H124841   2.510   3.615   0.316
 2862SOL     H224842   2.552   3.730   0.226
 2863SOL    OH224843   0.275   1.792   1.481
 2863SOL     H124844   0.194   1.747   1.506
 2863SOL     H224845   0.337   1.722   1.460
 2864SOL    OH224846   5.105   3.091   5.967
 2864SOL     H124847   5.089   2.997   5.974
 2864SOL     H224848   5.029   3.131   6.009
 2865SOL    OH224849   5.844   1.914   0.906
 2865SOL     H124850   5.777   1.967   0.949
 2865SOL     H224851   5.876   1.856   0.975
 2866SOL    OH224852   1.291   0.626   5.100
 2866SOL     H124853   1.231   0.697   5.123
 2866SOL     H224854   1.340   0.660   5.025
 2867SOL    OH224855   3.903   5.841   5.130
 2867SOL     H124856   3.870   5.910   5.073
 2867SOL     H224857   3.984   5.875   5.166
 2868SOL    OH224858   6.110   3.725   6.502
 2868SOL     H124859   6.097   3.724   6.597
 2868SOL     H224860   6.105   3.818   6.479
 2869SOL    OH224861   4.910   0.458   5.864
 2869SOL     H124862   4.869   0.505   5.937
 2869SOL     H224863   4.988   0.417   5.901
 2870SOL    OH224864   4.936   1.605   0.371
 2870SOL     H124865   4.948   1.564   0.285
 2870SOL     H224866   4.895   1.690   0.351
 2871SOL    OH224867   5.078   3.614   6.412
 2871SOL     H124868   5.030   3.602   6.330
 2871SOL     H224869   5.120   3.700   6.404
 2872SOL    OH224870   1.553   2.608   0.447
 2872SOL     H124871   1.473   2.633   0.493
 2872SOL     H224872   1.620   2.668   0.481
 2873SOL    OH224873   0.840   5.239   0.395
 2873SOL     H124874   0.773   5.293   0.353
 2873SOL     H224875   0.790   5.169   0.438
 2874SOL    OH224876   5.485   1.608   0.902
 2874SOL     H124877   5.487   1.701   0.927
 2874SOL     H224878   5.392   1.591   0.884
 2875SOL    OH224879   3.840   2.450   5.870
 2875SOL     H124880   3.763   2.397   5.847
 2875SOL     H224881   3.884   2.400   5.938
 2876SOL    OH224882   5.976   6.246   5.872
 2876SOL     H124883   5.882   6.237   5.857
 2876SOL     H224884   5.983   6.306   5.946
 2877SOL    OH224885   1.661   1.921   0.486
 2877SOL     H124886   1.736   1.981   0.482
 2877SOL     H224887   1.585   1.977   0.499
 2878SOL    OH224888   5.315   3.887   0.491
 2878SOL     H124889   5.333   3.793   0.482
 2878SOL     H224890   5.396   3.922   0.528
 2879SOL    OH224891   0.691   5.244   6.478
 2879SOL     H124892   0.726   5.202   6.557
 2879SOL     H224893   0.620   5.299   6.509
 2880SOL    OH224894   1.622   4.005   1.181
 2880SOL     H124895   1.694   4.012   1.244
 2880SOL     H224896   1.660   4.033   1.098
 2881SOL    OH224897   6.218   4.021   0.287
 2881SOL     H124898   6.207   4.116   0.287
 2881SOL     H224899   6.253   4.000   0.201
 2882SOL    OH224900   2.286   3.689   1.561
 2882SOL     H124901   2.300   3.606   1.606
 2882SOL     H224902   2.344   3.751   1.605
 2883SOL    OH224903   5.912   2.548   5.528
 2883SOL     H124904   5.837   2.514   5.576
 2883SOL     H224905   5.986   2.539   5.588
 2884SOL    OH224906   0.285   5.480   5.368
 2884SOL     H124907   0.262   5.423   5.294
 2884SOL     H224908   0.256   5.567   5.341
 2885SOL    OH224909   5.031   2.971   0.106
 2885SOL     H124910   5.055   3.037   0.041
 2885SOL     H224911   5.100   2.905   0.099
 2886SOL    OH224912   0.694   1.035   1.397
 2886SOL     H124913   0.742   0.978   1.458
 2886SOL     H224914   0.762   1.088   1.356
 2887SOL    OH224915   5.776   4.171   0.286
 2887SOL     H124916   5.748   4.261   0.304
 2887SOL     H224917   5.835   4.179   0.211
 2888SOL    OH224918   4.309   5.941   0.456
 2888SOL     H124919   4.387   5.887   0.466
 2888SOL     H224920   4.312   6.002   0.530
 2889SOL    OH224921   5.347   2.296   0.054
 2889SOL     H124922   5.395   2.233   6.680
 2889SOL     H224923   5.257   2.291   0.023
 2890SOL    OH224924   5.676   2.592   0.679
 2890SOL     H124925   5.611   2.607   0.748
 2890SOL     H224926   5.718   2.678   0.668
 2891SOL    OH224927   0.762   5.829   4.861
 2891SOL     H124928   0.718   5.796   4.939
 2891SOL     H224929   0.807   5.908   4.891
 2892SOL    OH224930   0.571   5.455   0.776
 2892SOL     H124931   0.643   5.400   0.805
 2892SOL     H224932   0.538   5.412   0.697
 2893SOL    OH224933   0.088   2.349   6.031
 2893SOL     H124934   0.096   2.327   5.938
 2893SOL     H224935   0.156   2.298   6.074
 2894SOL    OH224936   3.968   1.778   1.543
 2894SOL     H124937   4.048   1.816   1.508
 2894SOL     H224938   3.993   1.742   1.628
 2895SOL    OH224939   1.157   5.839   0.554
 2895SOL     H124940   1.087   5.786   0.591
 2895SOL     H224941   1.125   5.864   0.467
 2896SOL    OH224942   1.905   0.739   5.659
 2896SOL     H124943   1.858   0.769   5.581
 2896SOL     H224944   1.835   0.714   5.720
 2897SOL    OH224945   3.255   1.752   4.820
 2897SOL     H124946   3.170   1.796   4.823
 2897SOL     H224947   3.297   1.786   4.741
 2898SOL    OH224948   5.219   1.928   1.115
 2898SOL     H124949   5.149   1.915   1.051
 2898SOL     H224950   5.210   2.020   1.143
 2899SOL    OH224951   5.337   5.750   6.514
 2899SOL     H124952   5.248   5.786   6.512
 2899SOL     H224953   5.360   5.740   6.422
 2900SOL    OH224954   5.268   1.856   5.355
 2900SOL     H124955   5.256   1.921   5.286
 2900SOL     H224956   5.191   1.865   5.410
 2901SOL    OH224957   1.811   2.617   1.804
 2901SOL     H124958   1.813   2.684   1.736
 2901SOL     H224959   1.894   2.570   1.794
 2902SOL    OH224960   4.401   5.366   4.740
 2902SOL     H124961   4.484   5.321   4.753
 2902SOL     H224962   4.425   5.456   4.717
 2903SOL    OH224963   1.162   0.233   1.367
 2903SOL     H124964   1.103   0.283   1.423
 2903SOL     H224965   1.238   0.289   1.355
 2904SOL    OH224966   0.758   4.626   0.243
 2904SOL     H124967   0.733   4.716   0.266
 2904SOL     H224968   0.716   4.610   0.159
 2905SOL    OH224969   2.279   4.034   0.625
 2905SOL     H124970   2.213   4.099   0.601
 2905SOL     H224971   2.288   3.979   0.548
 2906SOL    OH224972   1.664   3.082   5.858
 2906SOL     H124973   1.669   2.992   5.890
 2906SOL     H224974   1.571   3.103   5.858
 2907SOL    OH224975   5.950   2.956   6.564
 2907SOL     H124976   5.997   2.958   6.481
 2907SOL     H224977   5.893   3.032   6.561
 2908SOL    OH224978   5.734   4.186   5.377
 2908SOL     H124979   5.720   4.134   5.456
 2908SOL     H224980   5.789   4.132   5.322
 2909SOL    OH224981   5.568   5.965   1.356
 2909SOL     H124982   5.609   6.011   1.283
 2909SOL     H224983   5.599   6.010   1.434
 2910SOL    OH224984   5.069   2.443   1.583
 2910SOL     H124985   5.120   2.435   1.663
 2910SOL     H224986   4.989   2.393   1.601
 2911SOL    OH224987   0.581   0.898   5.527
 2911SOL     H124988   0.637   0.890   5.449
 2911SOL     H224989   0.510   0.956   5.499
 2912SOL    OH224990   4.853   6.177   5.652
 2912SOL     H124991   4.867   6.233   5.728
 2912SOL     H224992   4.777   6.123   5.675
 2913SOL    OH224993   6.241   2.041   0.343
 2913SOL     H124994   6.179   2.028   0.271
 2913SOL     H224995   6.260   2.135   0.342
 2914SOL    OH224996   0.548   2.145   6.025
 2914SOL     H124997   0.539   2.078   5.957
 2914SOL     H224998   0.546   2.228   5.977
 2915SOL    OH224999   2.541   4.639   6.418
 2915SOL     H125000   2.453   4.605   6.402
 2915SOL     H225001   2.587   4.629   6.335
 2916SOL    OH225002   5.352   0.581   5.997
 2916SOL     H125003   5.316   0.605   6.082
 2916SOL     H225004   5.446   0.594   6.006
 2917SOL    OH225005   5.326   4.167   0.218
 2917SOL     H125006   5.400   4.110   0.241
 2917SOL     H225007   5.258   4.144   0.282
 2918SOL    OH225008   2.396   0.720   1.597
 2918SOL     H125009   2.309   0.696   1.563
 2918SOL     H225010   2.433   0.637   1.628
 2919SOL    OH225011   3.275   6.304   0.573
 2919SOL     H125012   3.306   6.349   0.651
 2919SOL     H225013   3.354   6.279   0.526
 2920SOL    OH225014   1.106   1.369   0.522
 2920SOL     H125015   1.199   1.367   0.498
 2920SOL     H225016   1.103   1.418   0.604
 2921SOL    OH225017   4.173   3.922   6.223
 2921SOL     H125018   4.112   3.959   6.159
 2921SOL     H225019   4.201   3.839   6.184
 2922SOL    OH225020   6.127   0.833   5.519
 2922SOL     H125021   6.096   0.911   5.472
 2922SOL     H225022   6.179   0.786   5.454
 2923SOL    OH225023   0.985   4.094   0.640
 2923SOL     H125024   1.022   4.014   0.678
 2923SOL     H225025   0.960   4.147   0.716
 2924SOL    OH225026   3.910   6.034   6.587
 2924SOL     H125027   3.910   6.110   6.528
 2924SOL     H225028   3.845   5.975   6.550
 2925SOL    OH225029   4.638   1.393   1.585
 2925SOL     H125030   4.658   1.472   1.534
 2925SOL     H225031   4.548   1.372   1.563
 2926SOL    OH225032   3.845   3.865   6.192
 2926SOL     H125033   3.753   3.863   6.165
 2926SOL     H225034   3.844   3.911   6.276
 2927SOL    OH225035   5.447   4.860   1.305
 2927SOL     H125036   5.450   4.808   1.225
 2927SOL     H225037   5.360   4.841   1.342
 2928SOL    OH225038   4.979   3.828   0.007
 2928SOL     H125039   4.996   3.742   0.047
 2928SOL     H225040   5.065   3.859   6.660
 2929SOL    OH225041   2.060   1.509   5.623
 2929SOL     H125042   1.981   1.549   5.587
 2929SOL     H225043   2.121   1.505   5.549
 2930SOL    OH225044   5.272   4.627   1.618
 2930SOL     H125045   5.264   4.648   1.711
 2930SOL     H225046   5.190   4.582   1.597
 2931SOL    OH225047   1.967   4.441   6.209
 2931SOL     H125048   1.961   4.359   6.160
 2931SOL     H225049   2.024   4.420   6.283
 2932SOL    OH225050   3.570   2.510   0.590
 2932SOL     H125051   3.571   2.524   0.496
 2932SOL     H225052   3.488   2.550   0.620
 2933SOL    OH225053   0.856   0.023   1.744
 2933SOL     H125054   0.777   0.054   1.788
 2933SOL     H225055   0.915   0.099   1.743
 2934SOL    OH225056   4.959   3.706   0.424
 2934SOL     H125057   5.046   3.701   0.464
 2934SOL     H225058   4.899   3.710   0.499
 2935SOL    OH225059   0.903   0.802   1.274
 2935SOL     H125060   0.873   0.834   1.359
 2935SOL     H225061   0.942   0.717   1.293
 2936SOL    OH225062   1.543   0.311   6.331
 2936SOL     H125063   1.633   0.279   6.333
 2936SOL     H225064   1.546   0.393   6.381
 2937SOL    OH225065   0.499   5.376   5.526
 2937SOL     H125066   0.432   5.406   5.465
 2937SOL     H225067   0.450   5.341   5.600
 2938SOL    OH225068   2.856   1.208   0.903
 2938SOL     H125069   2.793   1.155   0.853
 2938SOL     H225070   2.910   1.144   0.949
 2939SOL    OH225071   3.330   2.621   0.661
 2939SOL     H125072   3.272   2.550   0.688
 2939SOL     H225073   3.279   2.671   0.597
 2940SOL    OH225074   4.450   3.132   1.343
 2940SOL     H125075   4.391   3.182   1.399
 2940SOL     H225076   4.428   3.040   1.360
 2941SOL    OH225077   5.246   1.626   6.361
 2941SOL     H125078   5.332   1.648   6.396
 2941SOL     H225079   5.205   1.710   6.343
 2942SOL    OH225080   0.144   3.616   5.905
 2942SOL     H125081   0.240   3.625   5.904
 2942SOL     H225082   0.112   3.695   5.862
 2943SOL    OH225083   3.224   5.214   5.601
 2943SOL     H125084   3.277   5.143   5.566
 2943SOL     H225085   3.254   5.292   5.554
 2944SOL    OH225086   4.741   3.252   6.442
 2944SOL     H125087   4.664   3.211   6.402
 2944SOL     H225088   4.814   3.198   6.412
 2945SOL    OH225089   3.421   4.701   0.981
 2945SOL     H125090   3.365   4.710   0.904
 2945SOL     H225091   3.369   4.650   1.043
 2946SOL    OH225092   1.720   3.183   0.003
 2946SOL     H125093   1.645   3.227   0.043
 2946SOL     H225094   1.790   3.190   0.069
 2947SOL    OH225095   0.195   3.159   0.568
 2947SOL     H125096   0.117   3.196   0.609
 2947SOL     H225097   0.209   3.077   0.615
 2948SOL    OH225098   0.136   3.639   6.179
 2948SOL     H125099   0.107   3.639   6.088
 2948SOL     H225100   0.203   3.571   6.184
 2949SOL    OH225101   3.154   5.567   6.075
 2949SOL     H125102   3.148   5.663   6.066
 2949SOL     H225103   3.244   5.547   6.049
 2950SOL    OH225104   2.129   1.276   5.372
 2950SOL     H125105   2.120   1.194   5.324
 2950SOL     H225106   2.055   1.330   5.343
 2951SOL    OH225107   2.658   3.476   1.323
 2951SOL     H125108   2.619   3.494   1.408
 2951SOL     H225109   2.752   3.466   1.341
 2952SOL    OH225110   0.647   5.661   6.072
 2952SOL     H125111   0.623   5.568   6.067
 2952SOL     H225112   0.688   5.670   6.158
 2953SOL    OH225113   0.192   4.510   6.452
 2953SOL     H125114   0.280   4.548   6.450
 2953SOL     H225115   0.140   4.568   6.397
 2954SOL    OH225116   1.024   4.886   1.312
 2954SOL     H125117   1.017   4.879   1.407
 2954SOL     H225118   0.934   4.877   1.280
 2955SOL    OH225119   0.429   0.753   1.873
 2955SOL     H125120   0.340   0.766   1.840
 2955SOL     H225121   0.485   0.797   1.810
 2956SOL    OH225122   6.280   4.097   5.912
 2956SOL     H125123   6.186   4.082   5.903
 2956SOL     H225124   6.296   4.181   5.869
 2957SOL    OH225125   5.451   6.203   6.247
 2957SOL     H125126   5.520   6.157   6.296
 2957SOL     H225127   5.370   6.180   6.293
 2958SOL    OH225128   4.221   4.425   0.538
 2958SOL     H125129   4.301   4.473   0.559
 2958SOL     H225130   4.218   4.353   0.600
 2959SOL    OH225131   0.543   3.551   0.519
 2959SOL     H125132   0.488   3.548   0.441
 2959SOL     H225133   0.489   3.594   0.585
 2960SOL    OH225134   1.354   0.990   1.258
 2960SOL     H125135   1.260   1.008   1.261
 2960SOL     H225136   1.368   0.924   1.326
 2961SOL    OH225137   2.661   1.848   0.906
 2961SOL     H125138   2.659   1.830   0.999
 2961SOL     H225139   2.740   1.803   0.874
 2962SOL    OH225140   4.705   4.284   1.177
 2962SOL     H125141   4.705   4.324   1.264
 2962SOL     H225142   4.772   4.332   1.128
 2963SOL    OH225143   2.073   2.850   5.502
 2963SOL     H125144   2.144   2.856   5.566
 2963SOL     H225145   2.031   2.936   5.505
 2964SOL    OH225146   5.392   4.783   0.395
 2964SOL     H125147   5.330   4.788   0.467
 2964SOL     H225148   5.346   4.732   0.328
 2965SOL    OH225149   5.486   4.533   6.209
 2965SOL     H125150   5.451   4.510   6.122
 2965SOL     H225151   5.576   4.499   6.208
 2966SOL    OH225152   3.846   3.414   2.192
 2966SOL     H125153   3.848   3.509   2.195
 2966SOL     H225154   3.759   3.391   2.225
 2967SOL    OH225155   0.777   3.740   6.377
 2967SOL     H125156   0.682   3.739   6.362
 2967SOL     H225157   0.787   3.754   6.471
 2968SOL    OH225158   5.883   4.728   6.630
 2968SOL     H125159   5.975   4.707   6.646
 2968SOL     H225160   5.841   4.718   0.034
 2969SOL    OH225161   3.302   1.144   5.675
 2969SOL     H125162   3.282   1.057   5.710
 2969SOL     H225163   3.345   1.127   5.592
 2970SOL    OH225164   3.874   5.819   6.245
 2970SOL     H125165   3.807   5.752   6.230
 2970SOL     H225166   3.873   5.832   6.340
 2971SOL    OH225167   2.993   2.909   6.658
 2971SOL     H125168   2.925   2.953   6.607
 2971SOL     H225169   3.017   2.833   6.605
 2972SOL    OH225170   2.095   5.923   0.669
 2972SOL     H125171   2.164   5.881   0.619
 2972SOL     H225172   2.132   6.007   0.696
 2973SOL    OH225173   2.711   2.865   5.728
 2973SOL     H125174   2.633   2.864   5.672
 2973SOL     H225175   2.717   2.776   5.762
 2974SOL    OH225176   5.592   3.821   0.109
 2974SOL     H125177   5.566   3.882   0.178
 2974SOL     H225178   5.673   3.859   0.073
 2975SOL    OH225179   1.431   6.136   6.215
 2975SOL     H125180   1.463   6.202   6.153
 2975SOL     H225181   1.474   6.055   6.188
 2976SOL    OH225182   3.439   6.159   0.849
 2976SOL     H125183   3.398   6.136   0.932
 2976SOL     H225184   3.417   6.251   0.836
 2977SOL    OH225185   1.326   0.781   0.244
 2977SOL     H125186   1.318   0.821   0.331
 2977SOL     H225187   1.412   0.811   0.212
 2978SOL    OH225188   0.665   4.201   0.533
 2978SOL     H125189   0.687   4.111   0.557
 2978SOL     H225190   0.729   4.255   0.580
 2979SOL    OH225191   4.499   5.069   5.711
 2979SOL     H125192   4.542   5.021   5.781
 2979SOL     H225193   4.531   5.029   5.631
 2980SOL    OH225194   5.830   2.038   0.483
 2980SOL     H125195   5.891   2.107   0.458
 2980SOL     H225196   5.772   2.028   0.407
 2981SOL    OH225197   3.699   4.812   0.274
 2981SOL     H125198   3.622   4.814   0.218
 2981SOL     H225199   3.674   4.758   0.348
 2982SOL    OH225200   4.205   1.408   5.612
 2982SOL     H125201   4.218   1.475   5.679
 2982SOL     H225202   4.262   1.336   5.638
 2983SOL    OH225203   4.493   5.303   1.103
 2983SOL     H125204   4.479   5.218   1.146
 2983SOL     H225205   4.444   5.298   1.022
 2984SOL    OH225206   1.481   6.102   1.702
 2984SOL     H125207   1.435   6.021   1.678
 2984SOL     H225208   1.417   6.151   1.753
 2985SOL    OH225209   1.760   5.382   0.630
 2985SOL     H125210   1.674   5.392   0.591
 2985SOL     H225211   1.765   5.290   0.654
 2986SOL    OH225212   2.081   2.756   1.678
 2986SOL     H125213   2.074   2.668   1.713
 2986SOL     H225214   1.993   2.779   1.650
 2987SOL    OH225215   4.086   3.800   1.116
 2987SOL     H125216   4.064   3.777   1.206
 2987SOL     H225217   4.076   3.895   1.113
 2988SOL    OH225218   1.997   6.292   5.611
 2988SOL     H125219   1.964   6.379   5.631
 2988SOL     H225220   1.924   6.233   5.629
 2989SOL    OH225221   5.068   1.352   1.609
 2989SOL     H125222   4.996   1.343   1.671
 2989SOL     H225223   5.067   1.269   1.560
 2990SOL    OH225224   1.997   3.130   1.437
 2990SOL     H125225   2.063   3.061   1.423
 2990SOL     H225226   1.958   3.109   1.521
 2991SOL    OH225227   1.534   5.272   5.623
 2991SOL     H125228   1.595   5.288   5.695
 2991SOL     H225229   1.453   5.314   5.651
 2992SOL    OH225230   0.774   3.902   6.152
 2992SOL     H125231   0.800   3.844   6.080
 2992SOL     H225232   0.790   3.852   6.231
 2993SOL    OH225233   5.378   5.073   6.447
 2993SOL     H125234   5.461   5.078   6.494
 2993SOL     H225235   5.355   4.980   6.449
 2994SOL    OH225236   4.037   2.558   4.945
 2994SOL     H125237   4.107   2.571   4.881
 2994SOL     H225238   3.981   2.635   4.937
 2995SOL    OH225239   0.247   4.713   5.238
 2995SOL     H125240   0.320   4.721   5.176
 2995SOL     H225241   0.214   4.624   5.224
 2996SOL    OH225242   2.679   3.707   5.772
 2996SOL     H125243   2.665   3.729   5.680
 2996SOL     H225244   2.591   3.697   5.808
 2997SOL    OH225245   4.195   6.183   6.345
 2997SOL     H125246   4.177   6.187   6.251
 2997SOL     H225247   4.202   6.090   6.365
 2998SOL    OH225248   4.397   1.227   0.128
 2998SOL     H125249   4.366   1.210   0.039
 2998SOL     H225250   4.489   1.199   0.126
 2999SOL    OH225251   0.928   2.406   1.225
 2999SOL     H125252   0.883   2.417   1.308
 2999SOL     H225253   0.951   2.313   1.222
 3000SOL    OH225254   5.015   2.631   0.816
 3000SOL     H125255   4.924   2.662   0.807
 3000SOL     H225256   5.007   2.537   0.828
 3001SOL    OH225257   6.113   1.045   1.343
 3001SOL     H125258   6.153   1.063   1.258
 3001SOL     H225259   6.034   1.098   1.344
 3002SOL    OH225260   5.640   5.743   0.159
 3002SOL     H125261   5.614   5.835   0.150
 3002SOL     H225262   5.564   5.694   0.128
 3003SOL    OH225263   5.746   2.978   5.527
 3003SOL     H125264   5.659   2.992   5.563
 3003SOL     H225265   5.737   2.996   5.434
 3004SOL    OH225266   3.434   2.513   5.291
 3004SOL     H125267   3.360   2.481   5.240
 3004SOL     H225268   3.420   2.608   5.295
 3005SOL    OH225269   3.479   5.986   5.618
 3005SOL     H125270   3.523   6.065   5.651
 3005SOL     H225271   3.545   5.944   5.562
 3006SOL    OH225272   0.619   2.017   0.311
 3006SOL     H125273   0.590   2.106   0.333
 3006SOL     H225274   0.615   2.014   0.216
 3007SOL    OH225275   2.369   2.344   5.056
 3007SOL     H125276   2.309   2.352   5.129
 3007SOL     H225277   2.373   2.432   5.018
 3008SOL    OH225278   1.849   1.589   1.027
 3008SOL     H125279   1.764   1.546   1.017
 3008SOL     H225280   1.848   1.624   1.116
 3009SOL    OH225281   2.166   2.392   5.228
 3009SOL     H125282   2.087   2.396   5.175
 3009SOL     H225283   2.138   2.356   5.312
 3010SOL    OH225284   4.186   0.672   0.738
 3010SOL     H125285   4.156   0.631   0.819
 3010SOL     H225286   4.281   0.679   0.748
 3011SOL    OH225287   2.025   3.990   6.474
 3011SOL     H125288   2.033   3.922   6.541
 3011SOL     H225289   2.107   3.983   6.424
 3012SOL    OH225290   0.291   2.055   0.005
 3012SOL     H125291   0.306   1.964   0.031
 3012SOL     H225292   0.376   2.084   6.652
 3013SOL    OH225293   2.076   0.247   0.410
 3013SOL     H125294   2.112   0.335   0.411
 3013SOL     H225295   2.121   0.202   0.481
 3014SOL    OH225296   0.003   2.882   0.416
 3014SOL     H125297   0.090   2.843   0.424
 3014SOL     H225298   6.257   2.846   0.489
 3015SOL    OH225299   5.494   5.863   5.910
 3015SOL     H125300   5.517   5.884   6.001
 3015SOL     H225301   5.569   5.893   5.859
 3016SOL    OH225302   0.737   0.351   1.183
 3016SOL     H125303   0.662   0.382   1.234
 3016SOL     H225304   0.744   0.414   1.111
 3017SOL    OH225305   0.856   1.578   5.983
 3017SOL     H125306   0.783   1.636   5.962
 3017SOL     H225307   0.819   1.490   5.977
 3018SOL    OH225308   3.406   2.414   5.540
 3018SOL     H125309   3.415   2.441   5.449
 3018SOL     H225310   3.444   2.325   5.543
 3019SOL    OH225311   5.826   1.127   6.336
 3019SOL     H125312   5.819   1.111   6.242
 3019SOL     H225313   5.761   1.069   6.375
 3020SOL    OH225314   5.201   5.047   1.571
 3020SOL     H125315   5.279   5.054   1.625
 3020SOL     H225316   5.128   5.053   1.633
 3021SOL    OH225317   2.972   3.829   0.823
 3021SOL     H125318   3.033   3.892   0.860
 3021SOL     H225319   2.899   3.881   0.789
 3022SOL    OH225320   2.978   1.444   0.854
 3022SOL     H125321   2.989   1.472   0.945
 3022SOL     H225322   2.935   1.359   0.860
 3023SOL    OH225323   4.805   5.523   1.243
 3023SOL     H125324   4.858   5.489   1.316
 3023SOL     H225325   4.863   5.582   1.197
 3024SOL    OH225326   1.679   5.972   4.733
 3024SOL     H125327   1.646   5.904   4.674
 3024SOL     H225328   1.629   6.050   4.708
 3025SOL    OH225329   3.536   1.671   5.826
 3025SOL     H125330   3.609   1.709   5.777
 3025SOL     H225331   3.476   1.640   5.758
 3026SOL    OH225332   3.876   5.859   0.549
 3026SOL     H125333   3.804   5.841   0.609
 3026SOL     H225334   3.834   5.891   0.469
 3027SOL    OH225335   1.292   5.332   5.161
 3027SOL     H125336   1.367   5.388   5.144
 3027SOL     H225337   1.244   5.329   5.078
 3028SOL    OH225338   6.150   6.298   4.887
 3028SOL     H125339   6.172   6.359   4.817
 3028SOL     H225340   6.055   6.303   4.894
 3029SOL    OH225341   0.666   2.030   0.796
 3029SOL     H125342   0.619   2.108   0.767
 3029SOL     H225343   0.598   1.969   0.825
 3030SOL    OH225344   1.515   3.583   6.534
 3030SOL     H125345   1.567   3.509   6.504
 3030SOL     H225346   1.427   3.547   6.545
 3031SOL    OH225347   0.607   4.564   6.240
 3031SOL     H125348   0.547   4.570   6.314
 3031SOL     H225349   0.665   4.492   6.262
 3032SOL    OH225350   2.746   0.261   6.018
 3032SOL     H125351   2.655   0.234   6.028
 3032SOL     H225352   2.746   0.354   6.044
 3033SOL    OH225353   5.569   3.971   0.570
 3033SOL     H125354   5.665   3.965   0.565
 3033SOL     H225355   5.552   4.016   0.653
 3034SOL    OH225356   5.522   0.508   1.434
 3034SOL     H125357   5.592   0.460   1.389
 3034SOL     H225358   5.526   0.477   1.524
 3035SOL    OH225359   0.386   2.440   0.123
 3035SOL     H125360   0.439   2.462   0.046
 3035SOL     H225361   0.438   2.470   0.197
 3036SOL    OH225362   5.245   1.081   1.778
 3036SOL     H125363   5.152   1.095   1.797
 3036SOL     H225364   5.276   1.167   1.751
 3037SOL    OH225365   2.004   5.466   5.732
 3037SOL     H125366   2.038   5.478   5.820
 3037SOL     H225367   1.976   5.374   5.729
 3038SOL    OH225368   2.807   0.459   0.491
 3038SOL     H125369   2.896   0.458   0.526
 3038SOL     H225370   2.756   0.409   0.555
 3039SOL    OH225371   1.076   1.016   1.242
 3039SOL     H125372   1.025   0.935   1.240
 3039SOL     H225373   1.014   1.083   1.271
 3040SOL    OH225374   4.496   4.079   5.768
 3040SOL     H125375   4.498   4.051   5.860
 3040SOL     H225376   4.416   4.038   5.733
 3041SOL    OH225377   4.618   3.321   1.230
 3041SOL     H125378   4.566   3.252   1.272
 3041SOL     H225379   4.555   3.366   1.173
 3042SOL    OH225380   3.508   4.037   0.397
 3042SOL     H125381   3.558   3.963   0.431
 3042SOL     H225382   3.476   4.082   0.475
 3043SOL    OH225383   4.860   5.333   5.274
 3043SOL     H125384   4.799   5.294   5.337
 3043SOL     H225385   4.947   5.316   5.311
 3044SOL    OH225386   2.806   5.240   6.095
 3044SOL     H125387   2.850   5.156   6.109
 3044SOL     H225388   2.866   5.304   6.133
 3045SOL    OH225389   2.444   5.427   1.034
 3045SOL     H125390   2.486   5.455   1.116
 3045SOL     H225391   2.506   5.452   0.966
 3046SOL    OH225392   4.508   5.814   1.626
 3046SOL     H125393   4.586   5.839   1.675
 3046SOL     H225394   4.472   5.897   1.595
 3047SOL    OH225395   1.434   1.389   0.003
 3047SOL     H125396   1.353   1.362   6.641
 3047SOL     H225397   1.425   1.484   0.014
 3048SOL    OH225398   0.421   5.810   6.064
 3048SOL     H125399   0.402   5.812   5.970
 3048SOL     H225400   0.503   5.760   6.070
 3049SOL    OH225401   4.738   5.542   6.314
 3049SOL     H125402   4.671   5.595   6.356
 3049SOL     H225403   4.779   5.601   6.250
 3050SOL    OH225404   0.122   2.255   1.184
 3050SOL     H125405   0.028   2.273   1.181
 3050SOL     H225406   0.157   2.319   1.246
 3051SOL    OH225407   1.880   3.143   6.265
 3051SOL     H125408   1.826   3.101   6.333
 3051SOL     H225409   1.914   3.222   6.306
 3052SOL    OH225410   4.684   1.209   0.050
 3052SOL     H125411   4.668   1.303   0.038
 3052SOL     H225412   4.652   1.169   6.650
 3053SOL    OH225413   2.557   6.390   0.788
 3053SOL     H125414   2.602   6.317   0.747
 3053SOL     H225415   2.513   0.017   0.715
 3054SOL    OH225416   5.569   2.212   5.964
 3054SOL     H125417   5.576   2.118   5.946
 3054SOL     H225418   5.496   2.219   6.025
 3055SOL    OH225419   1.139   0.798   1.487
 3055SOL     H125420   1.233   0.797   1.467
 3055SOL     H225421   1.104   0.719   1.446
 3056SOL    OH225422   5.068   5.346   1.677
 3056SOL     H125423   5.041   5.255   1.691
 3056SOL     H225424   5.155   5.351   1.717
 3057SOL    OH225425   1.540   5.327   6.435
 3057SOL     H125426   1.598   5.305   6.509
 3057SOL     H225427   1.543   5.250   6.379
 3058SOL    OH225428   5.801   0.681   5.479
 3058SOL     H125429   5.785   0.681   5.573
 3058SOL     H225430   5.759   0.762   5.448
 3059SOL    OH225431   2.226   4.791   6.351
 3059SOL     H125432   2.295   4.829   6.298
 3059SOL     H225433   2.248   4.697   6.355
 3060SOL    OH225434   0.631   5.398   0.310
 3060SOL     H125435   0.652   5.490   0.292
 3060SOL     H225436   0.569   5.374   0.241
 3061SOL    OH225437   3.105   3.680   6.421
 3061SOL     H125438   3.152   3.650   6.499
 3061SOL     H225439   3.095   3.774   6.434
 3062SOL    OH225440   1.259   5.935   1.672
 3062SOL     H125441   1.200   5.862   1.693
 3062SOL     H225442   1.203   5.996   1.624
 3063SOL    OH225443   0.106   2.705   0.754
 3063SOL     H125444   0.089   2.702   0.848
 3063SOL     H225445   0.020   2.722   0.715
 3064SOL    OH225446   1.288   0.919   0.487
 3064SOL     H125447   1.194   0.936   0.481
 3064SOL     H225448   1.323   0.992   0.537
 3065SOL    OH225449   5.357   3.314   5.766
 3065SOL     H125450   5.365   3.289   5.674
 3065SOL     H225451   5.424   3.261   5.811
 3066SOL    OH225452   3.681   0.161   0.828
 3066SOL     H125453   3.618   0.231   0.847
 3066SOL     H225454   3.714   0.182   0.741
 3067SOL    OH225455   1.103   3.924   6.401
 3067SOL     H125456   1.120   3.907   6.308
 3067SOL     H225457   1.127   3.842   6.445
 3068SOL    OH225458   4.118   3.913   6.500
 3068SOL     H125459   4.138   3.925   6.407
 3068SOL     H225460   4.188   3.960   6.546
 3069SOL    OH225461   5.938   3.313   5.759
 3069SOL     H125462   6.019   3.359   5.783
 3069SOL     H225463   5.878   3.333   5.831
 3070SOL    OH225464   6.106   1.148   6.143
 3070SOL     H125465   6.116   1.241   6.164
 3070SOL     H225466   6.017   1.140   6.111
 3071SOL    OH225467   5.528   2.133   1.693
 3071SOL     H125468   5.507   2.210   1.745
 3071SOL     H225469   5.503   2.059   1.748
 3072SOL    OH225470   2.003   1.278   1.446
 3072SOL     H125471   1.936   1.337   1.412
 3072SOL     H225472   2.002   1.292   1.540
 3073SOL    OH225473   3.055   0.458   0.606
 3073SOL     H125474   3.097   0.375   0.628
 3073SOL     H225475   3.125   0.514   0.574
 3074SOL    OH225476   3.148   1.322   0.177
 3074SOL     H125477   3.122   1.393   0.117
 3074SOL     H225478   3.067   1.275   0.195
 3075SOL    OH225479   5.108   1.416   6.257
 3075SOL     H125480   5.115   1.434   6.163
 3075SOL     H225481   5.158   1.487   6.298
 3076SOL    OH225482   3.978   5.617   1.500
 3076SOL     H125483   4.060   5.664   1.484
 3076SOL     H225484   3.958   5.635   1.592
 3077SOL    OH225485   0.567   0.872   1.670
 3077SOL     H125486   0.578   0.967   1.676
 3077SOL     H225487   0.506   0.860   1.598
 3078SOL    OH225488   4.814   4.857   6.258
 3078SOL     H125489   4.741   4.808   6.221
 3078SOL     H225490   4.773   4.932   6.302
 3079SOL    OH225491   4.349   2.811   0.556
 3079SOL     H125492   4.268   2.765   0.536
 3079SOL     H225493   4.412   2.778   0.492
 3080SOL    OH225494   4.239   2.127   0.406
 3080SOL     H125495   4.332   2.149   0.414
 3080SOL     H225496   4.206   2.133   0.496
 3081SOL    OH225497   3.142   5.987   0.021
 3081SOL     H125498   3.184   6.020   0.100
 3081SOL     H225499   3.051   6.016   0.028
 3082SOL    OH225500   1.225   4.875   1.031
 3082SOL     H125501   1.173   4.948   0.997
 3082SOL     H225502   1.254   4.905   1.117
 3083SOL    OH225503   0.312   3.542   0.064
 3083SOL     H125504   0.238   3.600   0.047
 3083SOL     H225505   0.373   3.559   6.673
 3084SOL    OH225506   5.446   3.877   5.774
 3084SOL     H125507   5.453   3.889   5.679
 3084SOL     H225508   5.354   3.854   5.788
 3085SOL    OH225509   1.157   6.408   1.647
 3085SOL     H125510   1.135   6.394   1.554
 3085SOL     H225511   1.098   0.058   1.676
 3086SOL    OH225512   1.618   1.264   0.408
 3086SOL     H125513   1.696   1.313   0.383
 3086SOL     H225514   1.581   1.232   0.325
 3087SOL    OH225515   4.363   1.188   5.660
 3087SOL     H125516   4.330   1.141   5.583
 3087SOL     H225517   4.340   1.131   5.734
 3088SOL    OH225518   6.016   0.810   1.129
 3088SOL     H125519   6.091   0.802   1.188
 3088SOL     H225520   6.004   0.905   1.118
 3089SOL    OH225521   0.613   3.959   0.855
 3089SOL     H125522   0.633   3.961   0.762
 3089SOL     H225523   0.698   3.946   0.898
 3090SOL    OH225524   1.964   5.224   5.888
 3090SOL     H125525   1.991   5.139   5.923
 3090SOL     H225526   2.012   5.288   5.941
 3091SOL    OH225527   3.365   2.695   6.275
 3091SOL     H125528   3.395   2.757   6.208
 3091SOL     H225529   3.274   2.676   6.251
 3092SOL    OH225530   5.592   3.517   1.057
 3092SOL     H125531   5.624   3.524   1.147
 3092SOL     H225532   5.596   3.423   1.038
 3093SOL    OH225533   4.811   5.923   1.403
 3093SOL     H125534   4.818   6.008   1.446
 3093SOL     H225535   4.728   5.927   1.355
 3094SOL    OH225536   1.587   2.832   0.065
 3094SOL     H125537   1.677   2.860   0.080
 3094SOL     H225538   1.536   2.913   0.067
 3095SOL    OH225539   4.260   5.518   6.671
 3095SOL     H125540   4.253   5.613   6.678
 3095SOL     H225541   4.235   5.485   0.077
 3096SOL    OH225542   3.034   4.864   5.788
 3096SOL     H125543   3.129   4.869   5.777
 3096SOL     H225544   3.019   4.775   5.822
 3097SOL    OH225545   2.504   4.764   0.399
 3097SOL     H125546   2.417   4.730   0.379
 3097SOL     H225547   2.524   4.824   0.328
 3098SOL    OH225548   2.826   5.606   0.414
 3098SOL     H125549   2.772   5.674   0.373
 3098SOL     H225550   2.911   5.648   0.426
 3099SOL    OH225551   5.964   4.945   5.490
 3099SOL     H125552   5.898   4.897   5.440
 3099SOL     H225553   5.958   5.035   5.457
 3100SOL    OH225554   5.633   0.252   0.531
 3100SOL     H125555   5.550   0.297   0.520
 3100SOL     H225556   5.641   0.196   0.454
 3101SOL    OH225557   1.992   1.938   5.875
 3101SOL     H125558   1.965   1.850   5.902
 3101SOL     H225559   1.973   1.993   5.951
 3102SOL    OH225560   1.819   1.447   1.354
 3102SOL     H125561   1.731   1.445   1.390
 3102SOL     H225562   1.828   1.536   1.317
 3103SOL    OH225563   3.073   1.340   6.336
 3103SOL     H125564   3.140   1.397   6.297
 3103SOL     H225565   3.024   1.397   6.394
 3104SOL    OH225566   2.162   5.002   6.513
 3104SOL     H125567   2.197   4.935   6.455
 3104SOL     H225568   2.211   4.993   6.594
 3105SOL    OH225569   0.265   5.668   6.240
 3105SOL     H125570   0.317   5.725   6.183
 3105SOL     H225571   0.229   5.726   6.306
 3106SOL    OH225572   5.330   3.016   0.305
 3106SOL     H125573   5.333   3.076   0.230
 3106SOL     H225574   5.244   3.032   0.345
 3107SOL    OH225575   3.909   3.173   0.549
 3107SOL     H125576   3.920   3.205   0.638
 3107SOL     H225577   3.845   3.103   0.556
 3108SOL    OH225578   5.269   0.332   4.986
 3108SOL     H125579   5.296   0.412   5.032
 3108SOL     H225580   5.175   0.344   4.971
 3109SOL    OH225581   1.855   0.682   0.809
 3109SOL     H125582   1.785   0.730   0.767
 3109SOL     H225583   1.819   0.595   0.825
 3110SOL    OH225584   0.857   3.710   5.971
 3110SOL     H125585   0.930   3.748   5.922
 3110SOL     H225586   0.899   3.665   6.045
 3111SOL    OH225587   4.316   0.112   0.194
 3111SOL     H125588   4.277   0.087   0.278
 3111SOL     H225589   4.267   0.063   0.128
 3112SOL    OH225590   2.598   5.732   5.619
 3112SOL     H125591   2.579   5.792   5.691
 3112SOL     H225592   2.639   5.657   5.661
 3113SOL    OH225593   5.673   1.759   6.660
 3113SOL     H125594   5.689   1.718   0.065
 3113SOL     H225595   5.757   1.753   6.615
 3114SOL    OH225596   1.029   0.578   1.363
 3114SOL     H125597   1.035   0.509   1.430
 3114SOL     H225598   1.035   0.531   1.280
 3115SOL    OH225599   4.125   2.667   0.485
 3115SOL     H125600   4.049   2.719   0.459
 3115SOL     H225601   4.128   2.595   0.421
 3116SOL    OH225602   3.391   6.413   6.055
 3116SOL     H125603   3.306   6.369   6.044
 3116SOL     H225604   3.456   6.344   6.047
 3117SOL    OH225605   2.530   3.942   6.341
 3117SOL     H125606   2.439   3.913   6.332
 3117SOL     H225607   2.531   4.031   6.307
 3118SOL    OH225608   2.812   4.195   0.771
 3118SOL     H125609   2.792   4.266   0.709
 3118SOL     H225610   2.805   4.115   0.718
 3119SOL    OH225611   3.928   6.252   6.398
 3119SOL     H125612   3.920   6.347   6.391
 3119SOL     H225613   4.021   6.234   6.384
 3120SOL    OH225614   4.644   1.408   0.944
 3120SOL     H125615   4.668   1.474   0.879
 3120SOL     H225616   4.568   1.364   0.907
 3121SOL    OH225617   0.743   3.821   1.345
 3121SOL     H125618   0.801   3.884   1.303
 3121SOL     H225619   0.782   3.736   1.326
 3122SOL    OH225620   0.098   1.150   5.437
 3122SOL     H125621   0.019   1.157   5.491
 3122SOL     H225622   0.122   1.057   5.443
 3123SOL    OH225623   0.510   2.899   6.383
 3123SOL     H125624   0.517   2.809   6.352
 3123SOL     H225625   0.417   2.920   6.375
 3124SOL    OH225626   3.103   6.184   5.005
 3124SOL     H125627   3.136   6.252   5.063
 3124SOL     H225628   3.049   6.231   4.942
 3125SOL    OH225629   1.290   6.260   6.623
 3125SOL     H125630   1.214   6.304   6.585
 3125SOL     H225631   1.253   6.197   0.005
 3126SOL    OH225632   0.976   4.781   0.451
 3126SOL     H125633   0.986   4.812   0.361
 3126SOL     H225634   0.968   4.860   0.503
 3127SOL    OH225635   0.456   4.958   0.774
 3127SOL     H125636   0.404   5.038   0.773
 3127SOL     H225637   0.403   4.894   0.727
 3128SOL    OH225638   5.732   1.638   0.217
 3128SOL     H125639   5.827   1.623   0.216
 3128SOL     H225640   5.716   1.681   0.301
 3129SOL    OH225641   5.960   6.404   0.444
 3129SOL     H125642   5.927   0.054   0.385
 3129SOL     H225643   6.054   6.399   0.425
 3130SOL    OH225644   2.506   5.561   0.320
 3130SOL     H125645   2.549   5.601   0.245
 3130SOL     H225646   2.524   5.622   0.392
 3131SOL    OH225647   1.188   4.634   6.228
 3131SOL     H125648   1.225   4.604   6.145
 3131SOL     H225649   1.136   4.711   6.205
 3132SOL    OH225650   5.518   3.601   6.383
 3132SOL     H125651   5.480   3.588   6.295
 3132SOL     H225652   5.602   3.643   6.367
 3133SOL    OH225653   1.789   5.166   0.334
 3133SOL     H125654   1.803   5.261   0.343
 3133SOL     H225655   1.695   5.157   0.320
 3134SOL    OH225656   5.657   1.086   0.612
 3134SOL     H125657   5.692   1.174   0.593
 3134SOL     H225658   5.714   1.053   0.682
 3135SOL    OH225659   3.361   2.798   0.865
 3135SOL     H125660   3.423   2.863   0.833
 3135SOL     H225661   3.348   2.738   0.791
 3136SOL    OH225662   6.159   3.087   0.306
 3136SOL     H125663   6.222   3.029   0.350
 3136SOL     H225664   6.080   3.034   0.298
 3137SOL    OH225665   0.244   5.213   6.421
 3137SOL     H125666   0.221   5.220   6.328
 3137SOL     H225667   0.196   5.284   6.463
 3138SOL    OH225668   2.189   5.936   5.372
 3138SOL     H125669   2.197   6.024   5.335
 3138SOL     H225670   2.233   5.879   5.308
 3139SOL    OH225671   1.108   5.217   5.609
 3139SOL     H125672   1.048   5.280   5.568
 3139SOL     H225673   1.185   5.270   5.633
 3140SOL    OH225674   5.205   3.603   1.007
 3140SOL     H125675   5.219   3.657   1.084
 3140SOL     H225676   5.242   3.653   0.934
 3141SOL    OH225677   2.152   5.883   0.296
 3141SOL     H125678   2.196   5.840   0.369
 3141SOL     H225679   2.168   5.976   0.310
 3142SOL    OH225680   3.498   4.965   0.987
 3142SOL     H125681   3.466   4.994   1.072
 3142SOL     H225682   3.478   4.871   0.985
 3143SOL    OH225683   3.153   3.971   0.134
 3143SOL     H125684   3.152   4.050   0.188
 3143SOL     H225685   3.187   3.903   0.191
 3144SOL    OH225686   5.514   0.756   0.414
 3144SOL     H125687   5.539   0.740   0.505
 3144SOL     H225688   5.596   0.753   0.366
 3145SOL    OH225689   6.291   2.312   0.331
 3145SOL     H125690   0.056   2.297   0.266
 3145SOL     H225691   6.240   2.385   0.296
 3146SOL    OH225692   2.349   5.370   0.007
 3146SOL     H125693   2.340   5.419   6.606
 3146SOL     H225694   2.436   5.329   0.000
 3147SOL    OH225695   1.206   1.211   5.276
 3147SOL     H125696   1.122   1.199   5.232
 3147SOL     H225697   1.241   1.293   5.241
 3148SOL    OH225698   2.006   5.926   5.579
 3148SOL     H125699   2.070   5.937   5.509
 3148SOL     H225700   1.922   5.939   5.536
 3149SOL    OH225701   3.245   0.128   0.161
 3149SOL     H125702   3.166   0.125   0.107
 3149SOL     H225703   3.213   0.151   0.249
 3150SOL    OH225704   3.570   4.992   5.913
 3150SOL     H125705   3.566   5.078   5.870
 3150SOL     H225706   3.534   5.007   6.000
 3151SOL    OH225707   4.415   2.036   5.702
 3151SOL     H125708   4.353   2.002   5.766
 3151SOL     H225709   4.423   2.129   5.723
 3152SOL    OH225710   0.507   3.742   6.319
 3152SOL     H125711   0.444   3.773   6.385
 3152SOL     H225712   0.487   3.793   6.241
 3153SOL    OH225713   3.050   5.760   0.469
 3153SOL     H125714   3.047   5.737   0.562
 3153SOL     H225715   3.024   5.852   0.466
 3154SOL    OH225716   4.230   4.891   1.192
 3154SOL     H125717   4.151   4.931   1.156
 3154SOL     H225718   4.248   4.816   1.135
 3155SOL    OH225719   3.568   5.414   5.576
 3155SOL     H125720   3.477   5.412   5.544
 3155SOL     H225721   3.621   5.412   5.497
 3156SOL    OH225722   4.768   0.058   6.422
 3156SOL     H125723   4.851   0.027   6.385
 3156SOL     H225724   4.794   0.107   6.501
 3157SOL    OH225725   3.666   1.293   0.220
 3157SOL     H125726   3.685   1.294   0.313
 3157SOL     H225727   3.660   1.200   0.197
 3158SOL    OH225728   1.382   3.130   5.875
 3158SOL     H125729   1.359   3.182   5.798
 3158SOL     H225730   1.300   3.090   5.902
 3159SOL    OH225731   2.760   1.489   6.234
 3159SOL     H125732   2.809   1.468   6.155
 3159SOL     H225733   2.730   1.579   6.221
 3160SOL    OH225734   3.133   0.221   0.391
 3160SOL     H125735   3.154   0.219   0.485
 3160SOL     H225736   3.049   0.177   0.384
 3161SOL    OH225737   1.103   6.250   1.124
 3161SOL     H125738   1.024   6.255   1.071
 3161SOL     H225739   1.159   6.321   1.091
 3162SOL    OH225740   5.007   2.342   6.051
 3162SOL     H125741   4.985   2.251   6.029
 3162SOL     H225742   5.035   2.338   6.143
 3163SOL    OH225743   1.784   6.107   0.840
 3163SOL     H125744   1.723   6.173   0.807
 3163SOL     H225745   1.739   6.023   0.825
 3164SOL    OH225746   1.412   3.150   6.156
 3164SOL     H125747   1.404   3.135   6.062
 3164SOL     H225748   1.464   3.230   6.163
 3165SOL    OH225749   1.975   5.108   1.475
 3165SOL     H125750   1.926   5.174   1.426
 3165SOL     H225751   1.971   5.030   1.420
 3166SOL    OH225752   6.209   6.201   1.532
 3166SOL     H125753   6.271   6.140   1.573
 3166SOL     H225754   6.180   6.156   1.453
 3167SOL    OH225755   5.957   3.366   5.079
 3167SOL     H125756   5.986   3.407   4.997
 3167SOL     H225757   6.018   3.400   5.145
 3168SOL    OH225758   4.196   5.279   4.891
 3168SOL     H125759   4.268   5.311   4.836
 3168SOL     H225760   4.163   5.202   4.845
 3169SOL    OH225761   0.214   0.308   4.857
 3169SOL     H125762   0.189   0.398   4.879
 3169SOL     H225763   0.188   0.297   4.766
 3170SOL    OH225764   2.649   3.207   1.225
 3170SOL     H125765   2.635   3.301   1.234
 3170SOL     H225766   2.626   3.171   1.311
 3171SOL    OH225767   3.117   6.098   0.666
 3171SOL     H125768   3.060   6.073   0.593
 3171SOL     H225769   3.164   6.175   0.636
 3172SOL    OH225770   0.618   6.009   5.793
 3172SOL     H125771   0.659   6.005   5.707
 3172SOL     H225772   0.675   5.957   5.850
 3173SOL    OH225773   2.629   6.396   5.544
 3173SOL     H125774   2.674   0.023   5.472
 3173SOL     H225775   2.694   6.391   5.613
 3174SOL    OH225776   0.944   5.390   5.466
 3174SOL     H125777   0.961   5.483   5.454
 3174SOL     H225778   0.930   5.357   5.378
 3175SOL    OH225779   0.136   0.562   5.888
 3175SOL     H125780   0.106   0.631   5.828
 3175SOL     H225781   0.175   0.610   5.961
 3176SOL    OH225782   1.558   2.688   6.512
 3176SOL     H125783   1.543   2.598   6.544
 3176SOL     H225784   1.547   2.742   6.590
 3177SOL    OH225785   1.858   2.897   0.086
 3177SOL     H125786   1.941   2.857   0.112
 3177SOL     H225787   1.866   2.989   0.112
 3178SOL    OH225788   4.150   6.044   1.101
 3178SOL     H125789   4.171   5.974   1.163
 3178SOL     H225790   4.232   6.061   1.055
 3179SOL    OH225791   3.991   1.453   0.545
 3179SOL     H125792   4.076   1.434   0.503
 3179SOL     H225793   3.991   1.547   0.557
 3180SOL    OH225794   3.716   3.703   0.152
 3180SOL     H125795   3.675   3.632   0.201
 3180SOL     H225796   3.745   3.662   0.070
 3181SOL    OH225797   1.578   5.444   1.124
 3181SOL     H125798   1.666   5.454   1.088
 3181SOL     H225799   1.550   5.534   1.141
 3182SOL    OH225800   0.891   1.519   0.393
 3182SOL     H125801   0.964   1.466   0.424
 3182SOL     H225802   0.930   1.604   0.373
 3183SOL    OH225803   1.178   1.864   0.749
 3183SOL     H125804   1.189   1.812   0.670
 3183SOL     H225805   1.088   1.898   0.742
 3184SOL    OH225806   0.124   1.007   6.346
 3184SOL     H125807   0.095   1.005   6.254
 3184SOL     H225808   0.064   0.949   6.391
 3185SOL    OH225809   4.076   6.220   0.472
 3185SOL     H125810   4.086   6.147   0.532
 3185SOL     H225811   3.993   6.261   0.496
 3186SOL    OH225812   1.871   2.913   1.183
 3186SOL     H125813   1.809   2.842   1.169
 3186SOL     H225814   1.939   2.875   1.239
 3187SOL    OH225815   4.127   2.750   0.068
 3187SOL     H125816   4.126   2.841   0.099
 3187SOL     H225817   4.212   2.716   0.095
 3188SOL    OH225818   4.231   2.703   5.974
 3188SOL     H125819   4.266   2.662   6.052
 3188SOL     H225820   4.307   2.723   5.920
 3189SOL    OH225821   5.312   0.729   1.431
 3189SOL     H125822   5.280   0.751   1.519
 3189SOL     H225823   5.382   0.666   1.446
 3190SOL    OH225824   4.091   4.764   1.390
 3190SOL     H125825   4.071   4.843   1.440
 3190SOL     H225826   4.140   4.795   1.313
 3191SOL    OH225827   6.074   4.412   5.928
 3191SOL     H125828   6.000   4.404   5.868
 3191SOL     H225829   6.152   4.395   5.874
 3192SOL    OH225830   3.656   5.501   0.698
 3192SOL     H125831   3.584   5.504   0.635
 3192SOL     H225832   3.719   5.439   0.661
 3193SOL    OH225833   1.169   1.137   1.014
 3193SOL     H125834   1.145   1.096   1.097
 3193SOL     H225835   1.105   1.105   0.951
 3194SOL    OH225836   1.367   1.564   0.337
 3194SOL     H125837   1.396   1.492   0.393
 3194SOL     H225838   1.448   1.611   0.316
 3195SOL    OH225839   2.380   4.590   2.060
 3195SOL     H125840   2.383   4.497   2.082
 3195SOL     H225841   2.471   4.619   2.063
 3196SOL    OH225842   3.258   0.619   0.486
 3196SOL     H125843   3.251   0.557   0.413
 3196SOL     H225844   3.320   0.685   0.455
 3197SOL    OH225845   4.232   4.078   5.940
 3197SOL     H125846   4.254   4.042   5.854
 3197SOL     H225847   4.147   4.040   5.961
 3198SOL    OH225848   1.360   4.610   6.441
 3198SOL     H125849   1.302   4.575   6.508
 3198SOL     H225850   1.303   4.626   6.366
 3199SOL    OH225851   1.266   3.256   5.654
 3199SOL     H125852   1.188   3.309   5.671
 3199SOL     H225853   1.234   3.185   5.598
 3200SOL    OH225854   5.447   3.857   6.178
 3200SOL     H125855   5.460   3.951   6.185
 3200SOL     H225856   5.374   3.838   6.237
 3201SOL    OH225857   4.147   2.125   0.676
 3201SOL     H125858   4.158   2.209   0.721
 3201SOL     H225859   4.053   2.121   0.656
 3202SOL    OH225860   3.337   1.889   4.593
 3202SOL     H125861   3.271   1.842   4.541
 3202SOL     H225862   3.291   1.968   4.623
 3203SOL    OH225863   5.404   0.379   0.797
 3203SOL     H125864   5.368   0.428   0.870
 3203SOL     H225865   5.497   0.404   0.796
 3204SOL    OH225866   3.412   2.251   0.717
 3204SOL     H125867   3.418   2.236   0.622
 3204SOL     H225868   3.335   2.307   0.727
 3205SOL    OH225869   4.469   1.872   0.426
 3205SOL     H125870   4.407   1.829   0.485
 3205SOL     H225871   4.449   1.837   0.340
 3206SOL    OH225872   1.178   2.213   6.258
 3206SOL     H125873   1.256   2.223   6.313
 3206SOL     H225874   1.181   2.287   6.198
 3207SOL    OH225875   4.335   2.284   1.168
 3207SOL     H125876   4.263   2.335   1.133
 3207SOL     H225877   4.350   2.319   1.256
 3208SOL    OH225878   4.312   5.147   6.674
 3208SOL     H125879   4.359   5.191   0.064
 3208SOL     H225880   4.330   5.054   0.007
 3209SOL    OH225881   2.935   1.125   6.246
 3209SOL     H125882   2.983   1.204   6.273
 3209SOL     H225883   2.891   1.151   6.166
 3210SOL    OH225884   1.926   5.900   6.465
 3210SOL     H125885   1.899   5.820   6.511
 3210SOL     H225886   1.991   5.941   6.523
 3211SOL    OH225887   4.867   5.622   4.926
 3211SOL     H125888   4.820   5.705   4.914
 3211SOL     H225889   4.921   5.636   5.003
 3212SOL    OH225890   5.916   1.666   0.742
 3212SOL     H125891   5.864   1.738   0.779
 3212SOL     H225892   5.910   1.596   0.807
 3213SOL    OH225893   5.444   0.163   1.222
 3213SOL     H125894   5.417   0.120   1.141
 3213SOL     H225895   5.537   0.143   1.231
 3214SOL    OH225896   5.996   3.660   5.289
 3214SOL     H125897   6.003   3.724   5.218
 3214SOL     H225898   6.052   3.587   5.262
 3215SOL    OH225899   4.610   6.265   6.120
 3215SOL     H125900   4.664   6.203   6.071
 3215SOL     H225901   4.522   6.252   6.086
 3216SOL    OH225902   6.132   3.620   0.586
 3216SOL     H125903   6.186   3.695   0.610
 3216SOL     H225904   6.154   3.602   0.495
 3217SOL    OH225905   0.240   1.729   5.543
 3217SOL     H125906   0.187   1.757   5.469
 3217SOL     H225907   0.265   1.811   5.587
 3218SOL    OH225908   0.409   4.555   0.195
 3218SOL     H125909   0.436   4.588   0.280
 3218SOL     H225910   0.331   4.605   0.173
 3219SOL    OH225911   2.620   4.625   6.122
 3219SOL     H125912   2.652   4.608   6.034
 3219SOL     H225913   2.652   4.713   6.143
 3220SOL    OH225914   1.251   2.843   1.204
 3220SOL     H125915   1.331   2.832   1.154
 3220SOL     H225916   1.225   2.754   1.227
 3221SOL    OH225917   0.477   0.645   5.553
 3221SOL     H125918   0.513   0.733   5.553
 3221SOL     H225919   0.383   0.657   5.571
 3222SOL    OH225920   3.682   1.699   0.912
 3222SOL     H125921   3.750   1.634   0.930
 3222SOL     H225922   3.658   1.732   0.999
 3223SOL    OH225923   2.176   5.210   0.148
 3223SOL     H125924   2.173   5.267   0.225
 3223SOL     H225925   2.229   5.257   0.085
 3224SOL    OH225926   3.158   3.398   5.565
 3224SOL     H125927   3.111   3.472   5.527
 3224SOL     H225928   3.096   3.359   5.627
 3225SOL    OH225929   3.313   4.641   6.060
 3225SOL     H125930   3.235   4.683   6.097
 3225SOL     H225931   3.334   4.693   5.983
 3226SOL    OH225932   5.941   3.056   0.600
 3226SOL     H125933   5.907   3.138   0.564
 3226SOL     H225934   6.011   3.083   0.659
 3227SOL    OH225935   5.380   4.789   6.523
 3227SOL     H125936   5.475   4.789   6.522
 3227SOL     H225937   5.357   4.829   6.607
 3228SOL    OH225938   1.724   2.684   1.136
 3228SOL     H125939   1.736   2.668   1.229
 3228SOL     H225940   1.683   2.604   1.102
 3229SOL    OH225941   5.890   3.870   6.022
 3229SOL     H125942   5.880   3.896   6.113
 3229SOL     H225943   5.802   3.846   5.994
 3230SOL    OH225944   3.786   2.903   6.180
 3230SOL     H125945   3.747   2.827   6.139
 3230SOL     H225946   3.786   2.883   6.274
 3231SOL    OH225947   3.292   4.923   6.283
 3231SOL     H125948   3.354   4.974   6.232
 3231SOL     H225949   3.229   4.987   6.316
 3232SOL    OH225950   1.842   1.223   0.786
 3232SOL     H125951   1.812   1.203   0.875
 3232SOL     H225952   1.780   1.176   0.730
 3233SOL    OH225953   1.149   5.276   6.387
 3233SOL     H125954   1.171   5.186   6.364
 3233SOL     H225955   1.055   5.284   6.366
 3234SOL    OH225956   2.306   6.108   0.796
 3234SOL     H125957   2.389   6.064   0.812
 3234SOL     H225958   2.307   6.183   0.855
 3235SOL    OH225959   0.098   2.348   5.757
 3235SOL     H125960   0.147   2.329   5.677
 3235SOL     H225961   0.085   2.443   5.755
 3236SOL    OH225962   5.925   2.587   6.217
 3236SOL     H125963   6.016   2.560   6.230
 3236SOL     H225964   5.873   2.511   6.242
 3237SOL    OH225965   1.989   1.457   0.831
 3237SOL     H125966   1.934   1.381   0.818
 3237SOL     H225967   1.943   1.510   0.896
 3238SOL    OH225968   4.392   6.034   1.533
 3238SOL     H125969   4.300   6.034   1.506
 3238SOL     H225970   4.425   6.119   1.506
 3239SOL    OH225971   0.589   6.393   5.601
 3239SOL     H125972   0.611   0.065   5.581
 3239SOL     H225973   0.500   6.381   5.567
 3240SOL    OH225974   3.659   4.295   6.261
 3240SOL     H125975   3.577   4.248   6.271
 3240SOL     H225976   3.671   4.340   6.345
 3241SOL    OH225977   5.154   0.257   0.853
 3241SOL     H125978   5.246   0.277   0.839
 3241SOL     H225979   5.148   0.236   0.946
 3242SOL    OH225980   1.392   2.840   1.745
 3242SOL     H125981   1.394   2.767   1.683
 3242SOL     H225982   1.484   2.860   1.760
 3243SOL    OH225983   6.174   6.009   5.220
 3243SOL     H125984   6.193   5.916   5.205
 3243SOL     H225985   6.091   6.009   5.267
 3244SOL    OH225986   1.378   3.485   0.279
 3244SOL     H125987   1.284   3.467   0.273
 3244SOL     H225988   1.384   3.581   0.275
 3245SOL    OH225989   5.645   3.343   6.404
 3245SOL     H125990   5.707   3.346   6.331
 3245SOL     H225991   5.607   3.431   6.407
 3246SOL    OH225992   4.007   0.638   6.503
 3246SOL     H125993   4.063   0.682   6.438
 3246SOL     H225994   4.061   0.634   6.582
 3247SOL    OH225995   3.463   2.052   5.217
 3247SOL     H125996   3.544   2.001   5.225
 3247SOL     H225997   3.435   2.039   5.126
 3248SOL    OH225998   1.694   1.566   0.708
 3248SOL     H125999   1.615   1.618   0.694
 3248SOL     H226000   1.678   1.520   0.790
 3249SOL    OH226001   3.495   0.253   1.244
 3249SOL     H126002   3.548   0.181   1.278
 3249SOL     H226003   3.546   0.332   1.261
 3250SOL    OH226004   0.366   0.066   6.669
 3250SOL     H126005   0.374   0.088   6.576
 3250SOL     H226006   0.450   0.092   0.026
 3251SOL    OH226007   0.871   1.361   5.236
 3251SOL     H126008   0.871   1.311   5.318
 3251SOL     H226009   0.912   1.301   5.172
 3252SOL    OH226010   2.373   5.204   0.851
 3252SOL     H126011   2.397   5.238   0.937
 3252SOL     H226012   2.412   5.267   0.789
 3253SOL    OH226013   4.043   5.663   0.869
 3253SOL     H126014   3.983   5.588   0.874
 3253SOL     H226015   3.992   5.736   0.904
 3254SOL    OH226016   5.541   0.335   5.176
 3254SOL     H126017   5.479   0.404   5.154
 3254SOL     H226018   5.504   0.293   5.254
 3255SOL    OH226019   1.268   3.075   1.663
 3255SOL     H126020   1.231   3.051   1.578
 3255SOL     H226021   1.310   2.995   1.695
 3256SOL    OH226022   0.222   1.443   6.397
 3256SOL     H126023   0.131   1.433   6.424
 3256SOL     H226024   0.257   1.511   6.455
 3257SOL    OH226025   4.934   4.693   1.408
 3257SOL     H126026   4.969   4.628   1.469
 3257SOL     H226027   4.857   4.651   1.370
 3258SOL    OH226028   2.919   4.962   1.774
 3258SOL     H126029   2.914   5.002   1.687
 3258SOL     H226030   2.883   4.875   1.763
 3259SOL    OH226031   2.311   1.928   6.111
 3259SOL     H126032   2.344   2.004   6.158
 3259SOL     H226033   2.220   1.919   6.140
 3260SOL    OH226034   2.052   3.701   0.269
 3260SOL     H126035   2.118   3.643   0.306
 3260SOL     H226036   2.021   3.753   0.343
 3261SOL    OH226037   5.442   4.872   6.104
 3261SOL     H126038   5.464   4.913   6.020
 3261SOL     H226039   5.526   4.852   6.144
 3262SOL    OH226040   1.854   2.368   1.020
 3262SOL     H126041   1.876   2.411   0.937
 3262SOL     H226042   1.770   2.325   1.004
 3263SOL    OH226043   5.276   3.380   0.842
 3263SOL     H126044   5.247   3.445   0.905
 3263SOL     H226045   5.262   3.296   0.886
 3264SOL    OH226046   1.117   2.518   5.476
 3264SOL     H126047   1.138   2.608   5.451
 3264SOL     H226048   1.029   2.523   5.514
 3265SOL    OH226049   3.589   2.916   6.656
 3265SOL     H126050   3.652   2.894   6.586
 3265SOL     H226051   3.601   2.847   0.040
 3266SOL    OH226052   5.013   3.970   5.374
 3266SOL     H126053   5.049   4.059   5.379
 3266SOL     H226054   5.007   3.952   5.280
 3267SOL    OH226055   1.679   2.131   6.219
 3267SOL     H126056   1.617   2.194   6.181
 3267SOL     H226057   1.624   2.065   6.260
 3268SOL    OH226058   0.622   0.213   6.163
 3268SOL     H126059   0.556   0.214   6.095
 3268SOL     H226060   0.619   0.301   6.201
 3269SOL    OH226061   3.156   3.243   6.179
 3269SOL     H126062   3.218   3.189   6.228
 3269SOL     H226063   3.190   3.246   6.090
 3270SOL    OH226064   1.460   4.739   5.463
 3270SOL     H126065   1.407   4.762   5.540
 3270SOL     H226066   1.537   4.695   5.499
 3271SOL    OH226067   3.633   2.268   5.818
 3271SOL     H126068   3.538   2.279   5.826
 3271SOL     H226069   3.643   2.193   5.759
 3272SOL    OH226070   0.205   2.413   5.499
 3272SOL     H126071   0.152   2.487   5.468
 3272SOL     H226072   0.291   2.450   5.518
 3273SOL    OH226073   1.731   2.959   0.812
 3273SOL     H126074   1.669   3.033   0.808
 3273SOL     H226075   1.725   2.920   0.725
 3274SOL    OH226076   5.031   0.345   6.178
 3274SOL     H126077   5.085   0.375   6.105
 3274SOL     H226078   5.038   0.415   6.243
 3275SOL    OH226079   2.925   5.717   5.715
 3275SOL     H126080   2.975   5.648   5.759
 3275SOL     H226081   2.914   5.686   5.625
 3276SOL    OH226082   2.414   0.497   6.084
 3276SOL     H126083   2.375   0.497   6.171
 3276SOL     H226084   2.360   0.559   6.034
 3277SOL    OH226085   3.389   1.130   6.498
 3277SOL     H126086   3.379   1.144   6.592
 3277SOL     H226087   3.401   1.218   6.462
 3278SOL    OH226088   2.457   5.736   6.564
 3278SOL     H126089   2.401   5.812   6.583
 3278SOL     H226090   2.396   5.667   6.538
 3279SOL    OH226091   5.359   2.262   6.145
 3279SOL     H126092   5.320   2.347   6.164
 3279SOL     H226093   5.418   2.245   6.218
 3280SOL    OH226094   3.559   3.469   6.498
 3280SOL     H126095   3.553   3.385   6.454
 3280SOL     H226096   3.514   3.455   6.581
 3281SOL    OH226097   0.484   2.232   0.730
 3281SOL     H126098   0.542   2.294   0.685
 3281SOL     H226099   0.397   2.272   0.722
 3282SOL    OH226100   2.146   3.559   6.275
 3282SOL     H126101   2.077   3.602   6.325
 3282SOL     H226102   2.137   3.594   6.187
 3283SOL    OH226103   3.867   5.460   0.891
 3283SOL     H126104   3.792   5.483   0.837
 3283SOL     H226105   3.882   5.367   0.874
 3284SOL    OH226106   0.827   4.735   6.299
 3284SOL     H126107   0.754   4.682   6.269
 3284SOL     H226108   0.819   4.735   6.395
 3285SOL    OH226109   4.915   1.920   6.525
 3285SOL     H126110   4.864   1.860   6.469
 3285SOL     H226111   4.996   1.935   6.476
 3286SOL    OH226112   0.466   3.570   5.294
 3286SOL     H126113   0.533   3.596   5.358
 3286SOL     H226114   0.510   3.505   5.238
 3287SOL    OH226115   1.273   1.801   5.711
 3287SOL     H126116   1.220   1.762   5.781
 3287SOL     H226117   1.327   1.728   5.679
 3288SOL    OH226118   5.236   3.135   0.968
 3288SOL     H126119   5.320   3.107   0.930
 3288SOL     H226120   5.205   3.057   1.016
 3289SOL    OH226121   5.782   5.926   0.357
 3289SOL     H126122   5.763   6.019   0.360
 3289SOL     H226123   5.719   5.891   0.294
 3290SOL    OH226124   4.243   0.840   5.580
 3290SOL     H126125   4.237   0.917   5.524
 3290SOL     H226126   4.319   0.792   5.547
 3291SOL    OH226127   2.362   5.246   5.893
 3291SOL     H126128   2.352   5.154   5.869
 3291SOL     H226129   2.347   5.294   5.811
 3292SOL    OH226130   4.071   4.611   0.045
 3292SOL     H126131   4.118   4.635   0.125
 3292SOL     H226132   4.129   4.639   6.654
 3293SOL    OH226133   2.814   5.705   6.154
 3293SOL     H126134   2.821   5.753   6.071
 3293SOL     H226135   2.722   5.714   6.180
 3294SOL    OH226136   3.125   2.034   0.788
 3294SOL     H126137   3.146   1.945   0.816
 3294SOL     H226138   3.156   2.039   0.697
 3295SOL    OH226139   2.246   1.517   5.415
 3295SOL     H126140   2.318   1.531   5.353
 3295SOL     H226141   2.215   1.429   5.396
 3296SOL    OH226142   2.113   5.609   4.974
 3296SOL     H126143   2.157   5.553   5.037
 3296SOL     H226144   2.177   5.620   4.903
 3297SOL    OH226145   0.752   4.100   1.681
 3297SOL     H126146   0.810   4.174   1.670
 3297SOL     H226147   0.687   4.129   1.745
 3298SOL    OH226148   4.754   2.726   0.787
 3298SOL     H126149   4.658   2.719   0.788
 3298SOL     H226150   4.771   2.807   0.738
 3299SOL    OH226151   4.353   4.696   5.990
 3299SOL     H126152   4.418   4.670   5.924
 3299SOL     H226153   4.272   4.655   5.960
 3300SOL    OH226154   0.082   0.275   1.437
 3300SOL     H126155   0.034   0.201   1.474
 3300SOL     H226156   0.036   0.353   1.468
 3301SOL    OH226157   0.063   1.941   6.306
 3301SOL     H126158   0.012   1.954   6.226
 3301SOL     H226159   0.135   1.883   6.280
 3302SOL    OH226160   1.536   0.317   1.184
 3302SOL     H126161   1.468   0.354   1.240
 3302SOL     H226162   1.605   0.291   1.245
 3303SOL    OH226163   2.868   5.038   1.515
 3303SOL     H126164   2.860   5.133   1.505
 3303SOL     H226165   2.936   5.012   1.453
 3304SOL    OH226166   4.579   2.480   6.450
 3304SOL     H126167   4.491   2.460   6.420
 3304SOL     H226168   4.603   2.406   6.506
 3305SOL    OH226169   1.888   0.895   5.124
 3305SOL     H126170   1.878   0.928   5.035
 3305SOL     H226171   1.799   0.893   5.159
 3306SOL    OH226172   1.879   3.106   1.001
 3306SOL     H126173   1.825   3.067   0.932
 3306SOL     H226174   1.884   3.039   1.068
 3307SOL    OH226175   1.450   3.816   0.007
 3307SOL     H126176   1.427   3.787   0.095
 3307SOL     H226177   1.497   3.742   6.649
 3308SOL    OH226178   5.868   2.395   0.623
 3308SOL     H126179   5.793   2.446   0.654
 3308SOL     H226180   5.870   2.318   0.679
 3309SOL    OH226181   2.646   0.726   6.642
 3309SOL     H126182   2.738   0.707   6.624
 3309SOL     H226183   2.648   0.782   0.039
 3310SOL    OH226184   3.574   3.402   0.917
 3310SOL     H126185   3.636   3.425   0.848
 3310SOL     H226186   3.621   3.341   0.973
 3311SOL    OH226187   5.316   4.307   0.631
 3311SOL     H126188   5.265   4.384   0.604
 3311SOL     H226189   5.349   4.270   0.549
 3312SOL    OH226190   3.670   2.627   6.331
 3312SOL     H126191   3.659   2.646   6.238
 3312SOL     H226192   3.582   2.607   6.362
 3313SOL    OH226193   0.987   0.914   5.447
 3313SOL     H126194   1.081   0.908   5.432
 3313SOL     H226195   0.949   0.910   5.359
 3314SOL    OH226196   1.526   1.333   5.547
 3314SOL     H126197   1.469   1.256   5.539
 3314SOL     H226198   1.555   1.350   5.457
 3315SOL    OH226199   3.982   1.782   0.006
 3315SOL     H126200   3.953   1.721   6.619
 3315SOL     H226201   4.027   1.851   6.638
 3316SOL    OH226202   4.985   5.288   6.354
 3316SOL     H126203   4.937   5.260   6.276
 3316SOL     H226204   4.918   5.315   6.416
 3317SOL    OH226205   0.675   0.471   5.601
 3317SOL     H126206   0.745   0.523   5.561
 3317SOL     H226207   0.597   0.525   5.592
 3318SOL    OH226208   3.476   4.898   6.567
 3318SOL     H126209   3.426   4.839   6.511
 3318SOL     H226210   3.564   4.861   6.569
 3319SOL    OH226211   0.863   5.663   5.173
 3319SOL     H126212   0.909   5.624   5.099
 3319SOL     H226213   0.779   5.693   5.136
 3320SOL    OH226214   2.264   2.830   5.699
 3320SOL     H126215   2.354   2.841   5.667
 3320SOL     H226216   2.255   2.735   5.712
 3321SOL    OH226217   3.245   4.718   0.776
 3321SOL     H126218   3.165   4.768   0.793
 3321SOL     H226219   3.216   4.639   0.732
 3322SOL    OH226220   0.859   4.895   5.328
 3322SOL     H126221   0.790   4.960   5.317
 3322SOL     H226222   0.938   4.945   5.346
 3323SOL    OH226223   5.988   2.249   0.420
 3323SOL     H126224   6.054   2.303   0.377
 3323SOL     H226225   5.946   2.308   0.482
 3324SOL    OH226226   5.406   6.404   0.290
 3324SOL     H126227   5.415   6.314   0.321
 3324SOL     H226228   5.352   6.397   0.211
 3325SOL    OH226229   1.888   5.710   5.712
 3325SOL     H126230   1.950   5.772   5.674
 3325SOL     H226231   1.936   5.628   5.716
 3326SOL    OH226232   2.900   2.744   6.059
 3326SOL     H126233   2.951   2.741   5.978
 3326SOL     H226234   2.809   2.731   6.031
 3327SOL    OH226235   4.589   1.570   5.986
 3327SOL     H126236   4.506   1.533   6.015
 3327SOL     H226237   4.643   1.494   5.964
 3328SOL    OH226238   3.809   4.585   0.134
 3328SOL     H126239   3.895   4.592   0.092
 3328SOL     H226240   3.792   4.673   0.168
 3329SOL    OH226241   6.090   2.724   0.116
 3329SOL     H126242   6.027   2.710   0.045
 3329SOL     H226243   6.055   2.800   0.163
 3330SOL    OH226244   4.914   4.164   6.487
 3330SOL     H126245   4.918   4.227   6.560
 3330SOL     H226246   4.849   4.099   6.515
 3331SOL    OH226247   2.282   5.656   4.757
 3331SOL     H126248   2.242   5.724   4.704
 3331SOL     H226249   2.323   5.597   4.694
 3332SOL    OH226250   1.440   2.572   1.256
 3332SOL     H126251   1.348   2.568   1.280
 3332SOL     H226252   1.487   2.545   1.335
 3333SOL    OH226253   5.006   4.792   6.438
 3333SOL     H126254   5.088   4.789   6.389
 3333SOL     H226255   4.940   4.819   6.374
 3334SOL    OH226256   1.074   5.063   5.368
 3334SOL     H126257   1.094   5.110   5.448
 3334SOL     H226258   1.153   5.014   5.349
 3335SOL    OH226259   0.263   0.977   4.989
 3335SOL     H126260   0.193   0.948   5.048
 3335SOL     H226261   0.281   0.901   4.934
 3336SOL    OH226262   1.155   1.502   0.163
 3336SOL     H126263   1.155   1.593   0.135
 3336SOL     H226264   1.228   1.496   0.225
 3337SOL    OH226265   5.156   4.120   6.387
 3337SOL     H126266   5.201   4.138   6.469
 3337SOL     H226267   5.063   4.125   6.409
 3338SOL    OH226268   2.626   5.024   0.653
 3338SOL     H126269   2.575   5.080   0.594
 3338SOL     H226270   2.560   4.981   0.708
 3339SOL    OH226271   0.554   2.382   1.478
 3339SOL     H126272   0.534   2.340   1.562
 3339SOL     H226273   0.644   2.412   1.487
 3340SOL    OH226274   1.766   6.042   5.901
 3340SOL     H126275   1.787   6.085   5.818
 3340SOL     H226276   1.837   6.068   5.960
 3341SOL    OH226277   5.607   5.689   0.681
 3341SOL     H126278   5.627   5.629   0.753
 3341SOL     H226279   5.682   5.748   0.677
 3342SOL    OH226280   0.543   1.398   5.830
 3342SOL     H126281   0.492   1.321   5.806
 3342SOL     H226282   0.616   1.364   5.882
 3343SOL    OH226283   2.202   3.574   0.464
 3343SOL     H126284   2.172   3.483   0.468
 3343SOL     H226285   2.210   3.600   0.556
 3344SOL    OH226286   4.461   0.539   4.932
 3344SOL     H126287   4.471   0.446   4.954
 3344SOL     H226288   4.371   0.559   4.956
 3345SOL    OH226289   3.277   3.718   6.208
 3345SOL     H126290   3.356   3.706   6.260
 3345SOL     H226291   3.205   3.694   6.267
 3346SOL    OH226292   1.918   2.328   0.374
 3346SOL     H126293   1.950   2.403   0.424
 3346SOL     H226294   1.990   2.306   0.315
 3347SOL    OH226295   2.159   1.444   5.862
 3347SOL     H126296   2.214   1.371   5.835
 3347SOL     H226297   2.111   1.468   5.782
 3348SOL    OH226298   5.346   6.085   6.641
 3348SOL     H126299   5.284   6.035   0.014
 3348SOL     H226300   5.302   6.092   6.556
 3349SOL    OH226301   4.966   4.316   0.035
 3349SOL     H126302   4.945   4.409   0.044
 3349SOL     H226303   4.915   4.273   0.104
 3350SOL    OH226304   0.982   5.458   0.476
 3350SOL     H126305   0.931   5.378   0.463
 3350SOL     H226306   0.983   5.500   0.390
 3351SOL    OH226307   5.820   1.911   5.768
 3351SOL     H126308   5.732   1.933   5.798
 3351SOL     H226309   5.817   1.817   5.752
 3352SOL    OH226310   1.423   3.047   0.062
 3352SOL     H126311   1.353   3.043   6.677
 3352SOL     H226312   1.381   3.084   0.140
 3353SOL    OH226313   5.155   5.158   1.933
 3353SOL     H126314   5.210   5.223   1.890
 3353SOL     H226315   5.093   5.130   1.866
 3354SOL    OH226316   5.560   0.080   5.059
 3354SOL     H126317   5.565   0.019   5.133
 3354SOL     H226318   5.559   0.167   5.099
 3355SOL    OH226319   3.003   4.844   0.820
 3355SOL     H126320   2.978   4.788   0.746
 3355SOL     H226321   2.954   4.925   0.806
 3356SOL    OH226322   3.410   3.486   5.541
 3356SOL     H126323   3.396   3.557   5.479
 3356SOL     H226324   3.322   3.455   5.562
 3357SOL    OH226325   5.134   0.830   5.997
 3357SOL     H126326   5.188   0.903   6.028
 3357SOL     H226327   5.179   0.798   5.919
 3358SOL    OH226328   0.531   2.610   6.579
 3358SOL     H126329   0.585   2.531   6.584
 3358SOL     H226330   0.578   2.675   6.632
 3359SOL    OH226331   0.546   0.146   0.872
 3359SOL     H126332   0.490   0.219   0.843
 3359SOL     H226333   0.485   0.081   0.907
 3360SOL    OH226334   1.276   4.975   1.281
 3360SOL     H126335   1.290   5.050   1.339
 3360SOL     H226336   1.185   4.949   1.298
 3361SOL    OH226337   3.590   6.407   5.622
 3361SOL     H126338   3.622   6.317   5.622
 3361SOL     H226339   3.641   0.032   5.691
 3362SOL    OH226340   4.924   2.879   4.991
 3362SOL     H126341   5.017   2.901   4.985
 3362SOL     H226342   4.878   2.963   4.984
 3363SOL    OH226343   0.353   0.289   1.510
 3363SOL     H126344   0.265   0.258   1.488
 3363SOL     H226345   0.377   0.238   1.588
 3364SOL    OH226346   0.836   3.776   5.432
 3364SOL     H126347   0.758   3.729   5.461
 3364SOL     H226348   0.839   3.854   5.488
 3365SOL    OH226349   1.234   2.816   5.163
 3365SOL     H126350   1.237   2.737   5.109
 3365SOL     H226351   1.314   2.864   5.139
 3366SOL    OH226352   4.974   2.720   5.733
 3366SOL     H126353   4.933   2.669   5.663
 3366SOL     H226354   5.027   2.785   5.687
 3367SOL    OH226355   2.126   3.873   0.790
 3367SOL     H126356   2.172   3.923   0.723
 3367SOL     H226357   2.134   3.925   0.870
 3368SOL    OH226358   2.830   3.089   5.631
 3368SOL     H126359   2.785   3.021   5.682
 3368SOL     H226360   2.879   3.040   5.565
 3369SOL    OH226361   6.029   4.658   0.790
 3369SOL     H126362   5.946   4.681   0.830
 3369SOL     H226363   6.056   4.578   0.835
 3370SOL    OH226364   5.208   4.188   6.653
 3370SOL     H126365   5.127   4.237   6.670
 3370SOL     H226366   5.254   4.188   0.056
 3371SOL    OH226367   6.005   4.392   1.994
 3371SOL     H126368   6.029   4.479   1.961
 3371SOL     H226369   5.914   4.402   2.024
 3372SOL    OH226370   1.295   0.651   1.216
 3372SOL     H126371   1.332   0.711   1.281
 3372SOL     H226372   1.224   0.700   1.175
 3373SOL    OH226373   5.435   1.200   0.770
 3373SOL     H126374   5.472   1.136   0.709
 3373SOL     H226375   5.510   1.245   0.807
 3374SOL    OH226376   5.501   0.144   5.382
 3374SOL     H126377   5.428   0.132   5.443
 3374SOL     H226378   5.515   0.058   5.343
 3375SOL    OH226379   0.091   2.947   0.132
 3375SOL     H126380   0.052   2.913   0.212
 3375SOL     H226381   0.017   2.983   0.082
 3376SOL    OH226382   0.252   5.392   0.456
 3376SOL     H126383   0.185   5.448   0.494
 3376SOL     H226384   0.243   5.405   0.361
 3377SOL    OH226385   2.084   5.994   5.839
 3377SOL     H126386   2.177   6.007   5.819
 3377SOL     H226387   2.043   5.982   5.753
 3378SOL    OH226388   0.471   2.242   1.701
 3378SOL     H126389   0.498   2.242   1.793
 3378SOL     H226390   0.378   2.220   1.704
 3379SOL    OH226391   4.056   5.068   6.363
 3379SOL     H126392   4.048   5.100   6.453
 3379SOL     H226393   4.048   4.973   6.371
 3380SOL    OH226394   1.581   3.484   1.331
 3380SOL     H126395   1.503   3.536   1.348
 3380SOL     H226396   1.610   3.455   1.417
 3381SOL    OH226397   3.993   0.671   6.051
 3381SOL     H126398   4.068   0.703   6.001
 3381SOL     H226399   3.925   0.737   6.038
 3382SOL    OH226400   2.479   4.542   0.003
 3382SOL     H126401   2.512   4.581   6.603
 3382SOL     H226402   2.401   4.592   0.025
 3383SOL    OH226403   1.037   3.700   1.671
 3383SOL     H126404   1.059   3.766   1.737
 3383SOL     H226405   0.947   3.721   1.645
 3384SOL    OH226406   3.475   3.672   0.678
 3384SOL     H126407   3.381   3.682   0.688
 3384SOL     H226408   3.488   3.581   0.654
 3385SOL    OH226409   4.274   3.682   6.153
 3385SOL     H126410   4.335   3.682   6.078
 3385SOL     H226411   4.323   3.639   6.223
 3386SOL    OH226412   0.647   1.371   6.541
 3386SOL     H126413   0.583   1.343   6.476
 3386SOL     H226414   0.603   1.357   6.625
 3387SOL    OH226415   0.031   3.942   0.045
 3387SOL     H126416   0.126   3.955   0.051
 3387SOL     H226417   0.019   3.848   0.041
 3388SOL    OH226418   4.135   4.589   0.334
 3388SOL     H126419   4.168   4.532   0.403
 3388SOL     H226420   4.045   4.609   0.360
 3389SOL    OH226421   5.449   0.967   1.632
 3389SOL     H126422   5.440   0.875   1.657
 3389SOL     H226423   5.388   1.013   1.690
 3390SOL    OH226424   0.561   1.246   0.981
 3390SOL     H126425   0.472   1.239   0.946
 3390SOL     H226426   0.608   1.300   0.917
 3391SOL    OH226427   3.285   1.116   6.027
 3391SOL     H126428   3.357   1.122   5.964
 3391SOL     H226429   3.302   1.035   6.075
 3392SOL    OH226430   4.259   1.611   5.792
 3392SOL     H126431   4.335   1.667   5.777
 3392SOL     H226432   4.275   1.571   5.878
 3393SOL    OH226433   0.448   2.448   1.240
 3393SOL     H126434   0.494   2.425   1.321
 3393SOL     H226435   0.357   2.461   1.267
 3394SOL    OH226436   0.980   5.638   5.901
 3394SOL     H126437   0.963   5.617   5.993
 3394SOL     H226438   1.072   5.615   5.888
 3395SOL    OH226439   4.677   5.785   1.067
 3395SOL     H126440   4.715   5.829   0.991
 3395SOL     H226441   4.749   5.733   1.103
 3396SOL    OH226442   2.652   4.305   6.489
 3396SOL     H126443   2.560   4.309   6.516
 3396SOL     H226444   2.699   4.280   6.568
 3397SOL    OH226445   2.105   2.872   0.784
 3397SOL     H126446   2.177   2.829   0.829
 3397SOL     H226447   2.026   2.828   0.818
 3398SOL    OH226448   4.145   3.265   0.444
 3398SOL     H126449   4.198   3.206   0.497
 3398SOL     H226450   4.055   3.240   0.463
 3399SOL    OH226451   4.224   5.588   6.023
 3399SOL     H126452   4.235   5.525   5.951
 3399SOL     H226453   4.213   5.673   5.979
 3400SOL    OH226454   4.658   2.207   6.276
 3400SOL     H126455   4.704   2.126   6.257
 3400SOL     H226456   4.726   2.265   6.312
 3401SOL    OH226457   6.056   3.490   4.862
 3401SOL     H126458   6.041   3.562   4.801
 3401SOL     H226459   6.148   3.465   4.849
 3402SOL    OH226460   3.209   2.443   5.150
 3402SOL     H126461   3.193   2.396   5.068
 3402SOL     H226462   3.180   2.532   5.133
 3403SOL    OH226463   0.559   0.731   0.065
 3403SOL     H126464   0.652   0.752   0.069
 3403SOL     H226465   0.519   0.782   0.136
 3404SOL    OH226466   4.696   0.416   5.680
 3404SOL     H126467   4.652   0.345   5.728
 3404SOL     H226468   4.776   0.433   5.731
 3405SOL    OH226469   1.304   4.926   5.316
 3405SOL     H126470   1.364   4.988   5.275
 3405SOL     H226471   1.361   4.868   5.367
 3406SOL    OH226472   5.641   2.745   5.671
 3406SOL     H126473   5.676   2.656   5.673
 3406SOL     H226474   5.705   2.795   5.621
 3407SOL    OH226475   2.076   2.898   5.885
 3407SOL     H126476   2.021   2.964   5.842
 3407SOL     H226477   2.143   2.877   5.819
 3408SOL    OH226478   4.667   2.770   5.051
 3408SOL     H126479   4.649   2.683   5.015
 3408SOL     H226480   4.756   2.790   5.022
 3409SOL    OH226481   4.334   0.571   5.796
 3409SOL     H126482   4.417   0.611   5.773
 3409SOL     H226483   4.293   0.632   5.856
 3410SOL    OH226484   1.245   5.369   0.413
 3410SOL     H126485   1.268   5.419   0.334
 3410SOL     H226486   1.173   5.418   0.452
 3411SOL    OH226487   3.062   4.829   1.353
 3411SOL     H126488   3.149   4.853   1.383
 3411SOL     H226489   3.068   4.828   1.257
 3412SOL    OH226490   1.927   2.079   6.105
 3412SOL     H126491   1.981   2.045   6.177
 3412SOL     H226492   1.841   2.092   6.144
 3413SOL    OH226493   4.275   0.303   0.490
 3413SOL     H126494   4.206   0.369   0.491
 3413SOL     H226495   4.231   0.223   0.461
 3414SOL    OH226496   5.689   0.274   0.116
 3414SOL     H126497   5.688   0.369   0.130
 3414SOL     H226498   5.600   0.252   0.089
 3415SOL    OH226499   4.136   1.329   6.115
 3415SOL     H126500   4.065   1.308   6.177
 3415SOL     H226501   4.091   1.343   6.032
 3416SOL    OH226502   3.255   3.018   0.620
 3416SOL     H126503   3.331   3.060   0.660
 3416SOL     H226504   3.185   3.082   0.627
 3417SOL    OH226505   2.491   5.414   0.704
 3417SOL     H126506   2.425   5.479   0.679
 3417SOL     H226507   2.574   5.461   0.695
 3418SOL    OH226508   6.287   5.703   6.488
 3418SOL     H126509   0.071   5.745   6.487
 3418SOL     H226510   6.261   5.704   6.579
 3419SOL    OH226511   1.533   0.642   0.505
 3419SOL     H126512   1.442   0.615   0.519
 3419SOL     H226513   1.578   0.564   0.474
 3420SOL    OH226514   1.424   2.194   0.757
 3420SOL     H126515   1.344   2.247   0.745
 3420SOL     H226516   1.453   2.175   0.668
 3421SOL    OH226517   3.758   0.498   0.955
 3421SOL     H126518   3.792   0.422   1.001
 3421SOL     H226519   3.805   0.572   0.992
 3422SOL    OH226520   5.645   4.676   0.428
 3422SOL     H126521   5.559   4.718   0.416
 3422SOL     H226522   5.657   4.673   0.522
 3423SOL    OH226523   1.791   2.567   6.309
 3423SOL     H126524   1.742   2.640   6.271
 3423SOL     H226525   1.828   2.603   6.390
 3424SOL    OH226526   0.734   5.219   5.547
 3424SOL     H126527   0.804   5.282   5.534
 3424SOL     H226528   0.654   5.272   5.548
 3425SOL    OH226529   1.618   3.338   6.457
 3425SOL     H126530   1.678   3.290   6.514
 3425SOL     H226531   1.531   3.308   6.483
 3426SOL    OH226532   5.488   0.453   6.527
 3426SOL     H126533   5.435   0.474   6.604
 3426SOL     H226534   5.578   0.456   6.559
 3427SOL    OH226535   2.334   1.247   5.792
 3427SOL     H126536   2.409   1.292   5.831
 3427SOL     H226537   2.369   1.204   5.715
 3428SOL    OH226538   2.685   5.845   0.336
 3428SOL     H126539   2.693   5.935   0.367
 3428SOL     H226540   2.672   5.853   0.242
 3429SOL    OH226541   1.607   4.510   5.105
 3429SOL     H126542   1.555   4.500   5.025
 3429SOL     H226543   1.698   4.499   5.076
 3430SOL    OH226544   0.571   4.852   4.828
 3430SOL     H126545   0.657   4.894   4.830
 3430SOL     H226546   0.510   4.925   4.817
 3431SOL    OH226547   0.231   4.259   4.822
 3431SOL     H126548   0.215   4.187   4.882
 3431SOL     H226549   0.313   4.298   4.852
 3432SOL    OH226550   2.475   0.227   6.058
 3432SOL     H126551   2.448   0.318   6.072
 3432SOL     H226552   2.418   0.196   5.988
 3433SOL    OH226553   1.024   5.769   0.074
 3433SOL     H126554   0.936   5.806   0.067
 3433SOL     H226555   1.057   5.766   6.665
 3434SOL    OH226556   0.868   3.725   0.590
 3434SOL     H126557   0.844   3.680   0.509
 3434SOL     H226558   0.959   3.750   0.576
 3435SOL    OH226559   6.066   2.786   5.515
 3435SOL     H126560   5.995   2.731   5.481
 3435SOL     H226561   6.043   2.800   5.607
 3436SOL    OH226562   6.192   6.023   0.383
 3436SOL     H126563   6.274   6.051   0.424
 3436SOL     H226564   6.184   6.079   0.306
 3437SOL    OH226565   6.060   6.358   5.480
 3437SOL     H126566   5.971   6.338   5.510
 3437SOL     H226567   6.085   0.017   5.530
 3438SOL    OH226568   4.044   3.790   0.491
 3438SOL     H126569   4.011   3.813   0.404
 3438SOL     H226570   4.094   3.710   0.477
 3439SOL    OH226571   3.621   5.667   5.986
 3439SOL     H126572   3.651   5.642   6.073
 3439SOL     H226573   3.587   5.756   5.996
 3440SOL    OH226574   1.298   6.260   0.325
 3440SOL     H126575   1.364   6.324   0.302
 3440SOL     H226576   1.338   6.206   0.393
 3441SOL    OH226577   4.307   3.084   0.584
 3441SOL     H126578   4.382   3.131   0.548
 3441SOL     H226579   4.327   2.992   0.572
 3442SOL    OH226580   2.496   4.977   1.081
 3442SOL     H126581   2.521   4.895   1.124
 3442SOL     H226582   2.574   5.032   1.086
 3443SOL    OH226583   2.527   2.631   1.056
 3443SOL     H126584   2.543   2.681   1.136
 3443SOL     H226585   2.613   2.616   1.018
 3444SOL    OH226586   1.117   0.866   0.081
 3444SOL     H126587   1.180   0.818   0.134
 3444SOL     H226588   1.143   0.958   0.088
 3445SOL    OH226589   0.065   1.215   6.661
 3445SOL     H126590   0.148   1.190   6.621
 3445SOL     H226591   0.026   1.132   0.007
 3446SOL    OH226592   3.202   2.791   0.486
 3446SOL     H126593   3.217   2.873   0.534
 3446SOL     H226594   3.119   2.806   0.440
 3447SOL    OH226595   5.490   4.523   0.882
 3447SOL     H126596   5.554   4.452   0.876
 3447SOL     H226597   5.405   4.479   0.886
 3448SOL    OH226598   5.168   5.288   0.839
 3448SOL     H126599   5.087   5.248   0.871
 3448SOL     H226600   5.164   5.378   0.870
 3449SOL    OH226601   1.506   2.391   5.654
 3449SOL     H126602   1.422   2.352   5.629
 3449SOL     H226603   1.559   2.386   5.575
 3450SOL    OH226604   0.718   4.107   6.323
 3450SOL     H126605   0.733   4.041   6.255
 3450SOL     H226606   0.623   4.124   6.319
 3451SOL    OH226607   3.150   3.609   0.907
 3451SOL     H126608   3.077   3.663   0.939
 3451SOL     H226609   3.159   3.632   0.815
 3452SOL    OH226610   0.992   5.529   4.966
 3452SOL     H126611   0.938   5.517   4.888
 3452SOL     H226612   1.056   5.458   4.963
 3453SOL    OH226613   0.447   2.132   1.007
 3453SOL     H126614   0.443   2.046   0.966
 3453SOL     H226615   0.459   2.193   0.935
 3454SOL    OH226616   0.621   2.016   0.045
 3454SOL     H126617   0.645   1.946   6.665
 3454SOL     H226618   0.582   2.083   6.670
 3455SOL    OH226619   5.619   3.544   0.132
 3455SOL     H126620   5.538   3.507   0.098
 3455SOL     H226621   5.602   3.638   0.139
 3456SOL    OH226622   6.009   5.494   6.342
 3456SOL     H126623   5.964   5.567   6.299
 3456SOL     H226624   6.009   5.517   6.435
 3457SOL    OH226625   2.257   3.494   5.852
 3457SOL     H126626   2.195   3.421   5.860
 3457SOL     H226627   2.341   3.452   5.834
 3458SOL    OH226628   3.854   6.343   0.559
 3458SOL     H126629   3.813   6.393   0.488
 3458SOL     H226630   3.782   6.293   0.597
 3459SOL    OH226631   6.179   5.151   0.775
 3459SOL     H126632   6.187   5.203   0.696
 3459SOL     H226633   6.163   5.215   0.845
 3460SOL    OH226634   3.575   4.985   0.717
 3460SOL     H126635   3.519   4.923   0.669
 3460SOL     H226636   3.549   4.973   0.808
 3461SOL    OH226637   5.038   1.875   0.912
 3461SOL     H126638   5.009   1.784   0.909
 3461SOL     H226639   5.050   1.900   0.820
 3462SOL    OH226640   0.675   3.540   0.095
 3462SOL     H126641   0.681   3.444   0.103
 3462SOL     H226642   0.611   3.554   0.025
 3463SOL    OH226643   3.857   3.672   0.648
 3463SOL     H126644   3.928   3.718   0.602
 3463SOL     H226645   3.870   3.695   0.740
 3464SOL    OH226646   3.652   3.254   1.469
 3464SOL     H126647   3.598   3.251   1.548
 3464SOL     H226648   3.720   3.188   1.485
 3465SOL    OH226649   1.197   1.078   1.539
 3465SOL     H126650   1.222   1.055   1.629
 3465SOL     H226651   1.168   0.995   1.501
 3466SOL    OH226652   0.178   5.690   0.159
 3466SOL     H126653   0.094   5.722   0.125
 3466SOL     H226654   0.196   5.746   0.234
 3467SOL    OH226655   5.073   0.365   4.588
 3467SOL     H126656   5.152   0.312   4.597
 3467SOL     H226657   5.007   0.304   4.553
 3468SOL    OH226658   0.438   1.272   6.393
 3468SOL     H126659   0.368   1.338   6.388
 3468SOL     H226660   0.399   1.201   6.445
 3469SOL    OH226661   2.498   3.359   5.811
 3469SOL     H126662   2.567   3.363   5.744
 3469SOL     H226663   2.474   3.266   5.815
 3470SOL    OH226664   2.325   0.475   0.832
 3470SOL     H126665   2.387   0.466   0.904
 3470SOL     H226666   2.278   0.557   0.851
 3471SOL    OH226667   0.238   5.637   0.825
 3471SOL     H126668   0.293   5.586   0.884
 3471SOL     H226669   0.274   5.726   0.829
 3472SOL    OH226670   5.542   4.988   5.860
 3472SOL     H126671   5.621   4.953   5.821
 3472SOL     H226672   5.559   5.082   5.868
 3473SOL    OH226673   2.121   4.273   0.875
 3473SOL     H126674   2.100   4.248   0.785
 3473SOL     H226675   2.169   4.197   0.910
 3474SOL    OH226676   1.018   0.562   1.062
 3474SOL     H126677   0.932   0.532   1.033
 3474SOL     H226678   1.037   0.637   1.006
 3475SOL    OH226679   5.103   1.671   0.578
 3475SOL     H126680   5.078   1.758   0.608
 3475SOL     H226681   5.033   1.646   0.517
 3476SOL    OH226682   2.584   3.317   5.356
 3476SOL     H126683   2.506   3.369   5.337
 3476SOL     H226684   2.651   3.351   5.298
 3477SOL    OH226685   4.361   4.861   0.565
 3477SOL     H126686   4.425   4.894   0.502
 3477SOL     H226687   4.281   4.910   0.546
 3478SOL    OH226688   6.249   5.739   5.170
 3478SOL     H126689   0.029   5.727   5.217
 3478SOL     H226690   6.206   5.654   5.175
 3479SOL    OH226691   1.695   5.278   6.648
 3479SOL     H126692   1.776   5.243   0.005
 3479SOL     H226693   1.647   5.314   0.042
 3480SOL    OH226694   1.259   0.875   5.417
 3480SOL     H126695   1.350   0.853   5.436
 3480SOL     H226696   1.242   0.838   5.330
 3481SOL    OH226697   0.788   6.035   0.974
 3481SOL     H126698   0.765   6.008   1.063
 3481SOL     H226699   0.819   6.125   0.983
 3482SOL    OH226700   4.981   1.517   5.797
 3482SOL     H126701   5.045   1.501   5.866
 3482SOL     H226702   5.010   1.462   5.724
 3483SOL    OH226703   0.516   3.307   6.416
 3483SOL     H126704   0.542   3.245   6.484
 3483SOL     H226705   0.434   3.272   6.382
 3484SOL    OH226706   6.248   1.700   0.233
 3484SOL     H126707   0.028   1.742   0.256
 3484SOL     H226708   6.219   1.747   0.155
 3485SOL    OH226709   1.848   1.788   0.643
 3485SOL     H126710   1.778   1.830   0.593
 3485SOL     H226711   1.811   1.704   0.671
 3486SOL    OH226712   1.673   3.699   5.304
 3486SOL     H126713   1.658   3.619   5.253
 3486SOL     H226714   1.614   3.764   5.265
 3487SOL    OH226715   2.671   0.329   0.695
 3487SOL     H126716   2.674   0.320   0.790
 3487SOL     H226717   2.602   0.393   0.679
 3488SOL    OH226718   1.425   6.097   0.497
 3488SOL     H126719   1.495   6.032   0.497
 3488SOL     H226720   1.375   6.080   0.577
 3489SOL    OH226721   4.864   3.126   6.110
 3489SOL     H126722   4.900   3.132   6.199
 3489SOL     H226723   4.829   3.037   6.104
 3490SOL    OH226724   5.430   5.757   1.239
 3490SOL     H126725   5.351   5.738   1.290
 3490SOL     H226726   5.475   5.825   1.289
 3491SOL    OH226727   4.530   3.763   1.028
 3491SOL     H126728   4.570   3.777   0.942
 3491SOL     H226729   4.454   3.709   1.011
 3492SOL    OH226730   2.024   2.709   1.313
 3492SOL     H126731   1.940   2.687   1.354
 3492SOL     H226732   2.046   2.631   1.262
 3493SOL    OH226733   2.185   6.285   6.481
 3493SOL     H126734   2.229   6.362   6.447
 3493SOL     H226735   2.166   6.231   6.404
 3494SOL    OH226736   4.174   3.318   1.184
 3494SOL     H126737   4.120   3.320   1.263
 3494SOL     H226738   4.123   3.367   1.119
 3495SOL    OH226739   2.399   3.850   0.996
 3495SOL     H126740   2.428   3.771   1.041
 3495SOL     H226741   2.444   3.847   0.911
 3496SOL    OH226742   0.128   0.110   0.115
 3496SOL     H126743   0.068   0.121   0.041
 3496SOL     H226744   0.215   0.107   0.074
 3497SOL    OH226745   0.678   4.738   5.187
 3497SOL     H126746   0.720   4.654   5.168
 3497SOL     H226747   0.743   4.787   5.236
 3498SOL    OH226748   0.178   4.599   0.781
 3498SOL     H126749   0.103   4.647   0.816
 3498SOL     H226750   0.221   4.662   0.722
 3499SOL    OH226751   2.979   5.509   5.112
 3499SOL     H126752   2.895   5.541   5.145
 3499SOL     H226753   3.028   5.486   5.191
 3500SOL    OH226754   6.197   0.890   0.513
 3500SOL     H126755   6.119   0.911   0.564
 3500SOL     H226756   6.252   0.968   0.520
 3501SOL    OH226757   2.858   5.650   1.367
 3501SOL     H126758   2.800   5.596   1.420
 3501SOL     H226759   2.945   5.635   1.404
 3502SOL    OH226760   3.842   0.741   0.614
 3502SOL     H126761   3.859   0.653   0.646
 3502SOL     H226762   3.747   0.751   0.620
 3503SOL    OH226763   1.736   2.318   6.414
 3503SOL     H126764   1.760   2.397   6.366
 3503SOL     H226765   1.725   2.251   6.347
 3504SOL    OH226766   0.019   0.085   0.849
 3504SOL     H126767   0.088   0.146   0.876
 3504SOL     H226768   0.041   0.003   0.895
 3505SOL    OH226769   3.919   1.944   0.386
 3505SOL     H126770   3.904   2.011   0.452
 3505SOL     H226771   3.942   1.866   0.436
 3506SOL    OH226772   3.476   4.613   0.193
 3506SOL     H126773   3.483   4.606   0.098
 3506SOL     H226774   3.534   4.545   0.227
 3507SOL    OH226775   1.428   4.903   6.146
 3507SOL     H126776   1.436   4.910   6.051
 3507SOL     H226777   1.462   4.816   6.167
 3508SOL    OH226778   0.387   0.362   0.787
 3508SOL     H126779   0.326   0.347   0.715
 3508SOL     H226780   0.409   0.455   0.781
 3509SOL    OH226781   1.987   6.219   0.688
 3509SOL     H126782   1.928   6.167   0.742
 3509SOL     H226783   1.939   6.235   0.607
 3510SOL    OH226784   6.154   4.024   0.807
 3510SOL     H126785   6.094   4.081   0.759
 3510SOL     H226786   6.219   4.084   0.844
 3511SOL    OH226787   5.704   3.332   0.294
 3511SOL     H126788   5.677   3.408   0.242
 3511SOL     H226789   5.627   3.312   0.348
 3512SOL    OH226790   4.977   1.092   1.802
 3512SOL     H126791   4.933   1.018   1.759
 3512SOL     H226792   4.915   1.164   1.794
 3513SOL    OH226793   1.751   5.787   0.297
 3513SOL     H126794   1.718   5.721   0.236
 3513SOL     H226795   1.782   5.859   0.241
 3514SOL    OH226796   4.853   1.717   4.771
 3514SOL     H126797   4.945   1.731   4.749
 3514SOL     H226798   4.806   1.786   4.723
 3515SOL    OH226799   5.547   4.649   1.639
 3515SOL     H126800   5.558   4.739   1.672
 3515SOL     H226801   5.452   4.638   1.633
 3516SOL    OH226802   5.950   6.056   5.371
 3516SOL     H126803   5.864   6.098   5.368
 3516SOL     H226804   5.977   6.064   5.463
 3517SOL    OH226805   5.400   5.034   1.021
 3517SOL     H126806   5.344   4.959   1.044
 3517SOL     H226807   5.360   5.108   1.067
 3518SOL    OH226808   1.818   2.215   6.654
 3518SOL     H126809   1.741   2.231   0.028
 3518SOL     H226810   1.789   2.238   6.566
 3519SOL    OH226811   2.445   5.888   6.115
 3519SOL     H126812   2.493   5.848   6.188
 3519SOL     H226813   2.474   5.979   6.114
 3520SOL    OH226814   0.155   4.739   1.525
 3520SOL     H126815   0.185   4.656   1.490
 3520SOL     H226816   0.224   4.765   1.587
 3521SOL    OH226817   5.102   4.208   1.044
 3521SOL     H126818   5.080   4.184   1.134
 3521SOL     H226819   5.107   4.124   0.998
 3522SOL    OH226820   0.687   2.395   6.624
 3522SOL     H126821   0.774   2.426   6.601
 3522SOL     H226822   0.695   2.363   0.033
 3523SOL    OH226823   2.606   3.394   6.280
 3523SOL     H126824   2.677   3.452   6.307
 3523SOL     H226825   2.579   3.429   6.195
 3524SOL    OH226826   2.346   5.158   6.177
 3524SOL     H126827   2.363   5.202   6.093
 3524SOL     H226828   2.251   5.158   6.185
 3525SOL    OH226829   6.157   1.174   5.587
 3525SOL     H126830   6.112   1.134   5.512
 3525SOL     H226831   6.131   1.266   5.584
 3526SOL    OH226832   6.265   5.316   5.499
 3526SOL     H126833   0.028   5.356   5.557
 3526SOL     H226834   6.253   5.228   5.535
 3527SOL    OH226835   1.223   4.861   0.625
 3527SOL     H126836   1.269   4.890   0.546
 3527SOL     H226837   1.140   4.909   0.624
 3528SOL    OH226838   5.761   4.914   5.695
 3528SOL     H126839   5.710   4.967   5.635
 3528SOL     H226840   5.850   4.916   5.660
 3529SOL    OH226841   2.963   2.754   0.861
 3529SOL     H126842   2.956   2.847   0.883
 3529SOL     H226843   3.036   2.722   0.913
 3530SOL    OH226844   5.113   3.770   5.529
 3530SOL     H126845   5.201   3.758   5.491
 3530SOL     H226846   5.074   3.840   5.477
 3531SOL    OH226847   5.599   1.313   5.881
 3531SOL     H126848   5.553   1.329   5.799
 3531SOL     H226849   5.590   1.219   5.896
 3532SOL    OH226850   2.816   1.192   6.006
 3532SOL     H126851   2.825   1.287   5.996
 3532SOL     H226852   2.872   1.156   5.937
 3533SOL    OH226853   2.609   1.319   6.409
 3533SOL     H126854   2.661   1.384   6.361
 3533SOL     H226855   2.551   1.282   6.343
 3534SOL    OH226856   5.247   4.690   1.878
 3534SOL     H126857   5.183   4.697   1.948
 3534SOL     H226858   5.292   4.774   1.878
 3535SOL    OH226859   6.265   0.676   5.354
 3535SOL     H126860   0.015   0.605   5.390
 3535SOL     H226861   6.279   0.671   5.260
 3536SOL    OH226862   2.427   0.197   5.109
 3536SOL     H126863   2.372   0.242   5.045
 3536SOL     H226864   2.374   0.124   5.140
 3537SOL    OH226865   1.187   2.024   5.569
 3537SOL     H126866   1.219   1.955   5.628
 3537SOL     H226867   1.173   1.979   5.486
 3538SOL    OH226868   5.468   4.396   0.171
 3538SOL     H126869   5.412   4.320   0.188
 3538SOL     H226870   5.446   4.422   0.081
 3539SOL    OH226871   1.505   0.682   6.125
 3539SOL     H126872   1.599   0.690   6.112
 3539SOL     H226873   1.486   0.741   6.198
 3540SOL    OH226874   4.277   1.066   5.429
 3540SOL     H126875   4.203   1.080   5.369
 3540SOL     H226876   4.353   1.096   5.381
 3541SOL    OH226877   4.828   1.078   5.559
 3541SOL     H126878   4.753   1.024   5.534
 3541SOL     H226879   4.900   1.046   5.505
 3542SOL    OH226880   3.574   6.107   0.200
 3542SOL     H126881   3.541   6.141   0.283
 3542SOL     H226882   3.590   6.184   0.147
 3543SOL    OH226883   2.101   2.975   6.251
 3543SOL     H126884   2.090   2.959   6.345
 3543SOL     H226885   2.025   3.029   6.227
 3544SOL    OH226886   3.916   1.739   6.398
 3544SOL     H126887   3.857   1.675   6.359
 3544SOL     H226888   3.885   1.823   6.364
 3545SOL    OH226889   3.198   3.666   0.648
 3545SOL     H126890   3.130   3.725   0.616
 3545SOL     H226891   3.227   3.618   0.571
 3546SOL    OH226892   0.763   4.746   6.570
 3546SOL     H126893   0.696   4.808   6.541
 3546SOL     H226894   0.713   4.675   6.612
 3547SOL    OH226895   3.218   3.222   5.911
 3547SOL     H126896   3.296   3.239   5.858
 3547SOL     H226897   3.146   3.257   5.859
 3548SOL    OH226898   2.554   1.597   1.517
 3548SOL     H126899   2.536   1.680   1.563
 3548SOL     H226900   2.558   1.532   1.586
 3549SOL    OH226901   3.880   2.093   0.626
 3549SOL     H126902   3.824   2.033   0.676
 3549SOL     H226903   3.820   2.162   0.596
 3550SOL    OH226904   0.443   1.306   5.297
 3550SOL     H126905   0.406   1.313   5.385
 3550SOL     H226906   0.368   1.290   5.241
 3551SOL    OH226907   0.211   5.311   5.147
 3551SOL     H126908   0.119   5.314   5.175
 3551SOL     H226909   0.219   5.227   5.102
 3552SOL    OH226910   2.447   3.114   5.500
 3552SOL     H126911   2.500   3.180   5.456
 3552SOL     H226912   2.359   3.126   5.464
 3553SOL    OH226913   1.828   2.688   6.566
 3553SOL     H126914   1.735   2.692   6.542
 3553SOL     H226915   1.841   2.762   6.626
 3554SOL    OH226916   3.071   1.527   0.004
 3554SOL     H126917   3.010   1.511   6.612
 3554SOL     H226918   3.061   1.621   0.023
 3555SOL    OH226919   0.241   4.054   5.993
 3555SOL     H126920   0.146   4.062   5.982
 3555SOL     H226921   0.271   4.144   6.007
 3556SOL    OH226922   1.144   0.389   5.565
 3556SOL     H126923   1.153   0.426   5.478
 3556SOL     H226924   1.235   0.372   5.593
 3557SOL    OH226925   2.754   4.639   0.425
 3557SOL     H126926   2.733   4.590   0.346
 3557SOL     H226927   2.676   4.692   0.442
 3558SOL    OH226928   4.049   5.437   6.503
 3558SOL     H126929   4.125   5.476   6.546
 3558SOL     H226930   4.065   5.454   6.410
 3559SOL    OH226931   5.057   3.621   0.169
 3559SOL     H126932   5.151   3.635   0.182
 3559SOL     H226933   5.019   3.631   0.256
 3560SOL    OH226934   0.604   3.356   5.527
 3560SOL     H126935   0.512   3.336   5.510
 3560SOL     H226936   0.652   3.314   5.455
 3561SOL    OH226937   3.447   5.667   6.427
 3561SOL     H126938   3.484   5.661   6.515
 3561SOL     H226939   3.366   5.616   6.431
 3562SOL    OH226940   0.360   5.029   6.587
 3562SOL     H126941   0.281   4.989   6.622
 3562SOL     H226942   0.328   5.097   6.528
 3563SOL    OH226943   6.029   5.651   4.861
 3563SOL     H126944   5.963   5.684   4.922
 3563SOL     H226945   6.037   5.558   4.882
 3564SOL    OH226946   4.862   3.705   0.695
 3564SOL     H126947   4.782   3.754   0.715
 3564SOL     H226948   4.874   3.647   0.770
 3565SOL    OH226949   2.868   0.496   5.681
 3565SOL     H126950   2.864   0.577   5.630
 3565SOL     H226951   2.894   0.525   5.768
 3566SOL    OH226952   1.794   6.332   6.661
 3566SOL     H126953   1.716   6.285   0.009
 3566SOL     H226954   1.780   6.349   6.568
 3567SOL    OH226955   0.044   3.655   0.928
 3567SOL     H126956   0.100   3.698   0.993
 3567SOL     H226957   6.265   3.704   0.931
 3568SOL    OH226958   1.199   6.093   6.362
 3568SOL     H126959   1.267   6.105   6.296
 3568SOL     H226960   1.240   6.038   6.429
 3569SOL    OH226961   5.059   3.504   5.466
 3569SOL     H126962   5.059   3.596   5.492
 3569SOL     H226963   5.146   3.488   5.429
 3570SOL    OH226964   1.266   5.730   1.306
 3570SOL     H126965   1.237   5.820   1.292
 3570SOL     H226966   1.351   5.725   1.263
 3571SOL    OH226967   4.956   6.300   0.853
 3571SOL     H126968   5.016   6.271   0.922
 3571SOL     H226969   4.938   6.220   0.802
 3572SOL    OH226970   1.658   4.012   6.648
 3572SOL     H126971   1.619   4.040   6.565
 3572SOL     H226972   1.589   3.962   0.011
 3573SOL    OH226973   2.743   1.886   1.497
 3573SOL     H126974   2.661   1.877   1.546
 3573SOL     H226975   2.804   1.827   1.541
 3574SOL    OH226976   4.202   5.851   5.922
 3574SOL     H126977   4.128   5.871   5.979
 3574SOL     H226978   4.216   5.932   5.872
 3575SOL    OH226979   4.791   1.867   4.992
 3575SOL     H126980   4.801   1.805   4.919
 3575SOL     H226981   4.718   1.923   4.965
 3576SOL    OH226982   2.301   4.526   6.353
 3576SOL     H126983   2.332   4.475   6.278
 3576SOL     H226984   2.232   4.472   6.392
 3577SOL    OH226985   1.156   3.174   0.946
 3577SOL     H126986   1.190   3.242   1.005
 3577SOL     H226987   1.178   3.206   0.859
 3578SOL    OH226988   4.619   0.329   0.054
 3578SOL     H126989   4.548   0.367   0.105
 3578SOL     H226990   4.602   0.359   6.645
 3579SOL    OH226991   6.232   6.216   0.183
 3579SOL     H126992   0.009   6.224   0.131
 3579SOL     H226993   6.164   6.255   0.127
 3580SOL    OH226994   0.006   0.974   6.095
 3580SOL     H126995   6.241   1.040   6.108
 3580SOL     H226996   6.262   0.896   6.067
 3581SOL    OH226997   5.289   0.984   5.281
 3581SOL     H126998   5.305   1.062   5.229
 3581SOL     H226999   5.306   0.911   5.221
 3582SOL    OH227000   5.557   1.404   1.071
 3582SOL     H127001   5.495   1.377   1.139
 3582SOL     H227002   5.513   1.475   1.025
 3583SOL    OH227003   1.076   0.872   6.491
 3583SOL     H127004   1.092   0.857   6.584
 3583SOL     H227005   0.985   0.902   6.486
 3584SOL    OH227006   4.968   4.319   5.795
 3584SOL     H127007   4.888   4.311   5.846
 3584SOL     H227008   4.939   4.317   5.704
 3585SOL    OH227009   0.608   2.972   6.010
 3585SOL     H127010   0.572   2.885   6.029
 3585SOL     H227011   0.546   3.033   6.048
 3586SOL    OH227012   0.594   1.616   6.195
 3586SOL     H127013   0.637   1.667   6.127
 3586SOL     H227014   0.528   1.565   6.148
 3587SOL    OH227015   2.928   4.125   5.926
 3587SOL     H127016   2.862   4.056   5.918
 3587SOL     H227017   2.888   4.202   5.884
 3588SOL    OH227018   5.013   4.558   2.274
 3588SOL     H127019   4.945   4.612   2.313
 3588SOL     H227020   4.980   4.468   2.279
 3589SOL    OH227021   1.418   1.936   0.849
 3589SOL     H127022   1.327   1.913   0.830
 3589SOL     H227023   1.426   2.028   0.823
 3590SOL    OH227024   4.393   4.918   0.140
 3590SOL     H127025   4.444   4.942   0.218
 3590SOL     H227026   4.374   4.825   0.153
 3591SOL    OH227027   3.190   4.497   0.620
 3591SOL     H127028   3.169   4.411   0.658
 3591SOL     H227029   3.277   4.486   0.582
 3592SOL    OH227030   6.156   5.480   0.732
 3592SOL     H127031   6.070   5.499   0.694
 3592SOL     H227032   6.137   5.445   0.819
 3593SOL    OH227033   1.777   6.399   1.387
 3593SOL     H127034   1.845   6.350   1.341
 3593SOL     H227035   1.750   6.342   1.459
 3594SOL    OH227036   1.295   5.400   5.692
 3594SOL     H127037   1.301   5.474   5.632
 3594SOL     H227038   1.280   5.440   5.778
 3595SOL    OH227039   0.059   4.319   1.144
 3595SOL     H127040   0.041   4.413   1.154
 3595SOL     H227041   0.115   4.299   1.220
 3596SOL    OH227042   6.209   4.684   1.405
 3596SOL     H127043   6.137   4.712   1.462
 3596SOL     H227044   6.288   4.711   1.451
 3597SOL    OH227045   1.902   4.096   0.311
 3597SOL     H127046   1.897   4.138   0.225
 3597SOL     H227047   1.990   4.059   0.315
 3598SOL    OH227048   4.636   5.516   0.329
 3598SOL     H127049   4.551   5.548   0.297
 3598SOL     H227050   4.618   5.425   0.354
 3599SOL    OH227051   3.960   4.304   6.014
 3599SOL     H127052   3.955   4.270   6.103
 3599SOL     H227053   4.032   4.256   5.974
 3600SOL    OH227054   6.059   5.390   4.940
 3600SOL     H127055   6.076   5.424   5.027
 3600SOL     H227056   6.003   5.314   4.954
 3601SOL    OH227057   3.795   3.073   5.798
 3601SOL     H127058   3.879   3.030   5.784
 3601SOL     H227059   3.786   3.132   5.722
 3602SOL    OH227060   5.623   1.822   5.133
 3602SOL     H127061   5.698   1.771   5.104
 3602SOL     H227062   5.651   1.913   5.123
 3603SOL    OH227063   0.382   4.532   0.956
 3603SOL     H127064   0.356   4.564   1.042
 3603SOL     H227065   0.306   4.551   0.900
 3604SOL    OH227066   5.608   0.830   0.917
 3604SOL     H127067   5.655   0.785   0.987
 3604SOL     H227068   5.655   0.913   0.906
 3605SOL    OH227069   3.017   4.611   1.521
 3605SOL     H127070   3.033   4.687   1.465
 3605SOL     H227071   2.922   4.600   1.521
 3606SOL    OH227072   1.397   0.428   6.135
 3606SOL     H127073   1.441   0.376   6.202
 3606SOL     H227074   1.433   0.516   6.146
 3607SOL    OH227075   3.043   2.296   0.550
 3607SOL     H127076   3.010   2.325   0.464
 3607SOL     H227077   3.074   2.207   0.535
 3608SOL    OH227078   0.762   3.602   0.823
 3608SOL     H127079   0.803   3.649   0.751
 3608SOL     H227080   0.822   3.612   0.896
 3609SOL    OH227081   2.169   2.923   1.383
 3609SOL     H127082   2.120   2.844   1.365
 3609SOL     H227083   2.233   2.897   1.450
 3610SOL    OH227084   4.421   4.233   1.818
 3610SOL     H127085   4.360   4.299   1.785
 3610SOL     H227086   4.365   4.161   1.847
 3611SOL    OH227087   2.928   0.053   6.092
 3611SOL     H127088   2.862   0.112   6.055
 3611SOL     H227089   2.986   0.111   6.141
 3612SOL    OH227090   4.751   5.896   0.353
 3612SOL     H127091   4.721   5.918   0.265
 3612SOL     H227092   4.773   5.981   0.392
 3613SOL    OH227093   1.486   1.693   1.516
 3613SOL     H127094   1.518   1.604   1.504
 3613SOL     H227095   1.535   1.745   1.453
 3614SOL    OH227096   3.183   3.999   0.904
 3614SOL     H127097   3.252   3.937   0.928
 3614SOL     H227098   3.187   4.067   0.972
 3615SOL    OH227099   5.165   1.173   5.885
 3615SOL     H127100   5.071   1.162   5.869
 3615SOL     H227101   5.204   1.182   5.798
 3616SOL    OH227102   5.078   5.552   0.251
 3616SOL     H127103   5.007   5.588   0.304
 3616SOL     H227104   5.154   5.607   0.272
 3617SOL    OH227105   4.804   5.023   1.109
 3617SOL     H127106   4.819   5.000   1.201
 3617SOL     H227107   4.715   4.994   1.091
 3618SOL    OH227108   2.258   3.330   1.158
 3618SOL     H127109   2.168   3.306   1.179
 3618SOL     H227110   2.309   3.305   1.235
 3619SOL    OH227111   0.302   3.876   0.092
 3619SOL     H127112   0.393   3.892   0.117
 3619SOL     H227113   0.258   3.857   0.175
 3620SOL    OH227114   2.791   0.769   0.700
 3620SOL     H127115   2.808   0.754   0.608
 3620SOL     H227116   2.878   0.771   0.740
 3621SOL    OH227117   3.052   4.726   6.118
 3621SOL     H127118   3.019   4.677   6.043
 3621SOL     H227119   2.999   4.695   6.192
 3622SOL    OH227120   0.507   5.320   0.540
 3622SOL     H127121   0.555   5.352   0.464
 3622SOL     H227122   0.415   5.343   0.523
 3623SOL    OH227123   6.128   3.985   1.297
 3623SOL     H127124   6.112   3.917   1.362
 3623SOL     H227125   6.222   4.001   1.301
 3624SOL    OH227126   1.105   0.239   5.162
 3624SOL     H127127   1.038   0.289   5.208
 3624SOL     H227128   1.087   0.253   5.069
 3625SOL    OH227129   4.645   5.261   4.803
 3625SOL     H127130   4.665   5.167   4.803
 3625SOL     H227131   4.706   5.298   4.867
 3626SOL    OH227132   2.015   0.485   5.714
 3626SOL     H127133   2.027   0.453   5.625
 3626SOL     H227134   1.978   0.573   5.703
 3627SOL    OH227135   5.542   2.409   1.355
 3627SOL     H127136   5.532   2.416   1.450
 3627SOL     H227137   5.499   2.488   1.321
 3628SOL    OH227138   4.572   6.183   1.153
 3628SOL     H127139   4.571   6.096   1.192
 3628SOL     H227140   4.613   6.239   1.218
 3629SOL    OH227141   4.395   4.500   6.642
 3629SOL     H127142   4.384   4.411   6.608
 3629SOL     H227143   4.346   4.555   6.582
 3630SOL    OH227144   3.580   1.540   1.231
 3630SOL     H127145   3.645   1.483   1.272
 3630SOL     H227146   3.496   1.498   1.250
 3631SOL    OH227147   0.897   3.199   0.565
 3631SOL     H127148   0.832   3.259   0.603
 3631SOL     H227149   0.884   3.117   0.612
 3632SOL    OH227150   1.268   3.364   1.115
 3632SOL     H127151   1.226   3.345   1.199
 3632SOL     H227152   1.275   3.459   1.113
 3633SOL    OH227153   4.372   6.141   0.961
 3633SOL     H127154   4.343   6.229   0.935
 3633SOL     H227155   4.448   6.157   1.016
 3634SOL    OH227156   3.302   1.425   0.383
 3634SOL     H127157   3.257   1.392   0.305
 3634SOL     H227158   3.234   1.427   0.451
 3635SOL    OH227159   1.211   2.113   5.211
 3635SOL     H127160   1.189   2.034   5.260
 3635SOL     H227161   1.238   2.082   5.125
 3636SOL    OH227162   5.761   0.704   1.108
 3636SOL     H127163   5.763   0.610   1.089
 3636SOL     H227164   5.854   0.729   1.111
 3637SOL    OH227165   3.643   0.373   6.625
 3637SOL     H127166   3.683   0.454   6.658
 3637SOL     H227167   3.621   0.393   6.534
 3638SOL    OH227168   5.834   1.066   6.066
 3638SOL     H127169   5.846   0.975   6.090
 3638SOL     H227170   5.749   1.069   6.022
 3639SOL    OH227171   1.335   4.975   4.823
 3639SOL     H127172   1.418   4.928   4.815
 3639SOL     H227173   1.359   5.067   4.824
 3640SOL    OH227174   2.932   5.596   5.466
 3640SOL     H127175   2.998   5.543   5.423
 3640SOL     H227176   2.910   5.664   5.402
 3641SOL    OH227177   1.071   5.915   0.302
 3641SOL     H127178   1.131   5.981   0.264
 3641SOL     H227179   1.061   5.850   0.233
 3642SOL    OH227180   2.554   2.055   5.422
 3642SOL     H127181   2.594   2.094   5.345
 3642SOL     H227182   2.622   2.061   5.490
 3643SOL    OH227183   2.586   1.488   5.715
 3643SOL     H127184   2.521   1.558   5.725
 3643SOL     H227185   2.582   1.440   5.798
 3644SOL    OH227186   2.548   4.639   0.935
 3644SOL     H127187   2.555   4.543   0.938
 3644SOL     H227188   2.537   4.659   0.842
 3645SOL    OH227189   3.925   4.312   1.083
 3645SOL     H127190   3.830   4.326   1.080
 3645SOL     H227191   3.961   4.390   1.041
 3646SOL    OH227192   3.386   3.540   1.670
 3646SOL     H127193   3.475   3.575   1.675
 3646SOL     H227194   3.347   3.561   1.755
 3647SOL    OH227195   5.747   2.349   0.154
 3647SOL     H127196   5.700   2.314   0.230
 3647SOL     H227197   5.683   2.404   0.109
 3648SOL    OH227198   3.597   1.861   0.501
 3648SOL     H127199   3.581   1.937   0.446
 3648SOL     H227200   3.528   1.799   0.476
 3649SOL    OH227201   5.169   0.385   5.944
 3649SOL     H127202   5.238   0.451   5.956
 3649SOL     H227203   5.214   0.310   5.906
 3650SOL    OH227204   4.685   1.477   1.219
 3650SOL     H127205   4.739   1.403   1.246
 3650SOL     H227206   4.680   1.469   1.123
 3651SOL    OH227207   3.486   0.742   0.381
 3651SOL     H127208   3.535   0.661   0.370
 3651SOL     H227209   3.519   0.780   0.462
 3652SOL    OH227210   2.739   4.228   0.063
 3652SOL     H127211   2.716   4.186   0.146
 3652SOL     H227212   2.804   4.295   0.088
 3653SOL    OH227213   1.490   0.699   5.691
 3653SOL     H127214   1.494   0.761   5.618
 3653SOL     H227215   1.576   0.705   5.732
 3654SOL    OH227216   5.041   4.154   1.302
 3654SOL     H127217   5.001   4.201   1.375
 3654SOL     H227218   5.025   4.062   1.321
 3655SOL    OH227219   5.981   0.946   0.668
 3655SOL     H127220   6.009   0.899   0.747
 3655SOL     H227221   5.981   1.038   0.695
 3656SOL    OH227222   0.095   4.030   1.333
 3656SOL     H127223   0.137   4.115   1.346
 3656SOL     H227224   0.135   3.973   1.399
 3657SOL    OH227225   4.846   2.280   1.634
 3657SOL     H127226   4.774   2.307   1.577
 3657SOL     H227227   4.841   2.185   1.634
 3658SOL    OH227228   6.076   0.678   0.384
 3658SOL     H127229   6.124   0.757   0.410
 3658SOL     H227230   5.994   0.682   0.435
 3659SOL    OH227231   1.878   0.348   0.249
 3659SOL     H127232   1.842   0.279   0.194
 3659SOL     H227233   1.943   0.304   0.304
 3660SOL    OH227234   2.758   3.846   6.198
 3660SOL     H127235   2.683   3.869   6.252
 3660SOL     H227236   2.783   3.758   6.228
 3661SOL    OH227237   4.978   4.954   0.569
 3661SOL     H127238   4.922   4.888   0.528
 3661SOL     H227239   4.958   5.035   0.522
 3662SOL    OH227240   0.279   5.169   0.776
 3662SOL     H127241   0.239   5.256   0.780
 3662SOL     H227242   0.211   5.110   0.809
 3663SOL    OH227243   4.372   6.237   6.555
 3663SOL     H127244   4.454   6.251   6.508
 3663SOL     H227245   4.311   6.204   6.489
 3664SOL    OH227246   3.113   0.734   5.556
 3664SOL     H127247   3.018   0.723   5.547
 3664SOL     H227248   3.147   0.716   5.468
 3665SOL    OH227249   0.894   1.193   5.449
 3665SOL     H127250   0.920   1.102   5.462
 3665SOL     H227251   0.953   1.243   5.505
 3666SOL    OH227252   5.119   2.878   6.380
 3666SOL     H127253   5.152   2.844   6.297
 3666SOL     H227254   5.191   2.868   6.442
 3667SOL    OH227255   2.440   1.890   4.972
 3667SOL     H127256   2.470   1.980   4.986
 3667SOL     H227257   2.520   1.838   4.971
 3668SOL    OH227258   0.056   2.621   5.758
 3668SOL     H127259   0.085   2.670   5.681
 3668SOL     H227260   6.266   2.603   5.741
 3669SOL    OH227261   5.244   4.786   6.280
 3669SOL     H127262   5.306   4.815   6.214
 3669SOL     H227263   5.296   4.780   6.360
 3670SOL    OH227264   1.705   0.759   6.466
 3670SOL     H127265   1.741   0.813   6.536
 3670SOL     H227266   1.781   0.721   6.423
 3671SOL    OH227267   3.731   6.029   5.934
 3671SOL     H127268   3.647   5.988   5.957
 3671SOL     H227269   3.745   6.094   6.003
 3672SOL    OH227270   6.282   0.977   0.078
 3672SOL     H127271   0.053   0.926   0.047
 3672SOL     H227272   6.205   0.923   0.057
 3673SOL    OH227273   2.644   2.509   6.205
 3673SOL     H127274   2.710   2.450   6.168
 3673SOL     H227275   2.684   2.540   6.287
 3674SOL    OH227276   3.899   5.580   5.210
 3674SOL     H127277   3.893   5.673   5.189
 3674SOL     H227278   3.952   5.542   5.140
 3675SOL    OH227279   0.685   1.846   6.522
 3675SOL     H127280   0.609   1.823   6.469
 3675SOL     H227281   0.715   1.762   6.557
 3676SOL    OH227282   2.563   4.952   5.074
 3676SOL     H127283   2.570   4.877   5.133
 3676SOL     H227284   2.469   4.966   5.063
 3677SOL    OH227285   1.598   2.279   0.119
 3677SOL     H127286   1.614   2.297   0.211
 3677SOL     H227287   1.504   2.264   0.113
 3678SOL    OH227288   6.005   4.471   0.151
 3678SOL     H127289   5.934   4.524   0.189
 3678SOL     H227290   6.059   4.534   0.103
 3679SOL    OH227291   1.804   0.217   6.351
 3679SOL     H127292   1.854   0.211   6.270
 3679SOL     H227293   1.785   0.127   6.375
 3680SOL    OH227294   4.766   1.729   6.356
 3680SOL     H127295   4.793   1.670   6.426
 3680SOL     H227296   4.739   1.672   6.285
 3681SOL    OH227297   2.283   3.341   0.162
 3681SOL     H127298   2.211   3.367   0.104
 3681SOL     H227299   2.249   3.265   0.209
 3682SOL    OH227300   4.316   5.401   1.685
 3682SOL     H127301   4.330   5.389   1.591
 3682SOL     H227302   4.293   5.493   1.694
 3683SOL    OH227303   2.645   0.863   0.205
 3683SOL     H127304   2.692   0.820   0.277
 3683SOL     H227305   2.679   0.952   0.205
 3684SOL    OH227306   5.366   5.651   1.614
 3684SOL     H127307   5.421   5.585   1.656
 3684SOL     H227308   5.312   5.686   1.684
 3685SOL    OH227309   1.781   3.265   6.036
 3685SOL     H127310   1.825   3.214   6.103
 3685SOL     H227311   1.749   3.201   5.973
 3686SOL    OH227312   5.532   1.671   5.635
 3686SOL     H127313   5.530   1.724   5.556
 3686SOL     H227314   5.624   1.672   5.662
 3687SOL    OH227315   0.819   5.735   4.619
 3687SOL     H127316   0.781   5.802   4.561
 3687SOL     H227317   0.798   5.766   4.707
 3688SOL    OH227318   2.554   4.081   5.762
 3688SOL     H127319   2.619   4.040   5.820
 3688SOL     H227320   2.586   4.064   5.674
 3689SOL    OH227321   0.794   5.123   0.030
 3689SOL     H127322   0.710   5.099   0.068
 3689SOL     H227323   0.852   5.050   0.051
 3690SOL    OH227324   2.278   2.495   6.442
 3690SOL     H127325   2.325   2.483   6.524
 3690SOL     H227326   2.221   2.571   6.457
 3691SOL    OH227327   0.202   1.376   6.125
 3691SOL     H127328   0.127   1.435   6.115
 3691SOL     H227329   0.223   1.378   6.218
 3692SOL    OH227330   4.169   3.433   6.645
 3692SOL     H127331   4.106   3.414   0.033
 3692SOL     H227332   4.117   3.433   6.564
 3693SOL    OH227333   0.283   0.094   5.031
 3693SOL     H127334   0.349   0.133   5.089
 3693SOL     H227335   0.264   0.163   4.968
 3694SOL    OH227336   0.090   6.112   6.508
 3694SOL     H127337   0.137   6.155   6.579
 3694SOL     H227338   0.133   6.145   6.428
 3695SOL    OH227339   2.245   4.690   0.340
 3695SOL     H127340   2.204   4.762   0.387
 3695SOL     H227341   2.187   4.616   0.354
 3696SOL    OH227342   2.435   2.432   5.541
 3696SOL     H127343   2.456   2.377   5.617
 3696SOL     H227344   2.494   2.402   5.472
 3697SOL    OH227345   1.317   3.838   4.886
 3697SOL     H127346   1.368   3.768   4.927
 3697SOL     H227347   1.356   3.919   4.918
 3698SOL    OH227348   3.525   4.589   6.607
 3698SOL     H127349   3.468   4.616   6.535
 3698SOL     H227350   3.599   4.650   6.603
 3699SOL    OH227351   0.704   0.216   5.516
 3699SOL     H127352   0.704   0.225   5.420
 3699SOL     H227353   0.679   0.303   5.547
 3700SOL    OH227354   5.672   2.102   5.122
 3700SOL     H127355   5.750   2.135   5.077
 3700SOL     H227356   5.614   2.177   5.127
 3701SOL    OH227357   0.325   3.445   6.166
 3701SOL     H127358   0.407   3.445   6.217
 3701SOL     H227359   0.353   3.429   6.076
 3702SOL    OH227360   4.849   5.847   0.864
 3702SOL     H127361   4.835   5.763   0.819
 3702SOL     H227362   4.887   5.903   0.797
 3703SOL    OH227363   1.244   5.205   6.053
 3703SOL     H127364   1.337   5.209   6.033
 3703SOL     H227365   1.239   5.162   6.138
 3704SOL    OH227366   5.239   0.992   4.959
 3704SOL     H127367   5.264   1.068   5.011
 3704SOL     H227368   5.276   0.917   5.006
 3705SOL    OH227369   4.252   0.757   5.982
 3705SOL     H127370   4.257   0.841   5.937
 3705SOL     H227371   4.309   0.767   6.058
 3706SOL    OH227372   2.022   4.964   5.971
 3706SOL     H127373   2.099   4.908   5.983
 3706SOL     H227374   1.962   4.911   5.918
 3707SOL    OH227375   1.969   4.607   5.975
 3707SOL     H127376   1.935   4.575   6.059
 3707SOL     H227377   1.909   4.678   5.951
 3708SOL    OH227378   1.819   4.022   0.579
 3708SOL     H127379   1.827   4.050   0.488
 3708SOL     H227380   1.773   4.094   0.623
 3709SOL    OH227381   2.216   2.432   0.058
 3709SOL     H127382   2.200   2.361   0.121
 3709SOL     H227383   2.130   2.451   0.021
 3710SOL    OH227384   6.169   2.762   0.633
 3710SOL     H127385   6.104   2.709   0.586
 3710SOL     H227386   6.116   2.822   0.685
 3711SOL    OH227387   6.153   2.333   6.169
 3711SOL     H127388   6.234   2.339   6.119
 3711SOL     H227389   6.178   2.287   6.249
 3712SOL    OH227390   1.725   0.244   1.361
 3712SOL     H127391   1.743   0.150   1.370
 3712SOL     H227392   1.808   0.286   1.382
 3713SOL    OH227393   5.863   3.308   0.518
 3713SOL     H127394   5.808   3.317   0.441
 3713SOL     H227395   5.854   3.391   0.564
 3714SOL    OH227396   0.122   0.687   0.225
 3714SOL     H127397   0.089   0.644   0.147
 3714SOL     H227398   0.096   0.630   0.298
 3715SOL    OH227399   5.231   2.101   5.957
 3715SOL     H127400   5.269   2.162   6.020
 3715SOL     H227401   5.138   2.098   5.978
 3716SOL    OH227402   1.434   2.539   5.168
 3716SOL     H127403   1.359   2.552   5.110
 3716SOL     H227404   1.417   2.455   5.211
 3717SOL    OH227405   1.062   2.931   1.023
 3717SOL     H127406   1.087   3.019   0.995
 3717SOL     H227407   1.125   2.908   1.091
 3718SOL    OH227408   3.162   2.705   5.126
 3718SOL     H127409   3.145   2.774   5.191
 3718SOL     H227410   3.253   2.718   5.101
 3719SOL    OH227411   5.835   1.852   1.394
 3719SOL     H127412   5.795   1.933   1.426
 3719SOL     H227413   5.850   1.800   1.473
 3720SOL    OH227414   1.901   5.673   6.621
 3720SOL     H127415   1.815   5.648   6.655
 3720SOL     H227416   1.959   5.668   0.016
 3721SOL    OH227417   1.295   3.628   1.085
 3721SOL     H127418   1.345   3.709   1.080
 3721SOL     H227419   1.242   3.627   1.005
 3722SOL    OH227420   5.364   5.352   0.055
 3722SOL     H127421   5.337   5.330   0.145
 3722SOL     H227422   5.295   5.315   0.000
 3723SOL    OH227423   4.949   3.934   0.258
 3723SOL     H127424   4.954   3.900   0.168
 3723SOL     H227425   4.935   3.856   0.312
 3724SOL    OH227426   5.740   6.202   0.369
 3724SOL     H127427   5.762   6.290   0.400
 3724SOL     H227428   5.773   6.200   0.279
 3725SOL    OH227429   6.039   3.697   0.087
 3725SOL     H127430   5.951   3.679   0.054
 3725SOL     H227431   6.025   3.749   0.166
 3726SOL    OH227432   4.175   0.345   4.968
 3726SOL     H127433   4.092   0.381   5.002
 3726SOL     H227434   4.151   0.259   4.934
 3727SOL    OH227435   0.661   2.779   0.056
 3727SOL     H127436   0.669   2.791   0.150
 3727SOL     H227437   0.742   2.814   0.019
 3728SOL    OH227438   5.347   0.778   0.981
 3728SOL     H127439   5.438   0.794   0.953
 3728SOL     H227440   5.299   0.766   0.899
 3729SOL    OH227441   2.114   2.699   6.529
 3729SOL     H127442   2.025   2.664   6.540
 3729SOL     H227443   2.101   2.794   6.523
 3730SOL    OH227444   4.275   5.368   5.860
 3730SOL     H127445   4.242   5.291   5.906
 3730SOL     H227446   4.227   5.368   5.777
 3731SOL    OH227447   3.564   2.974   0.377
 3731SOL     H127448   3.620   2.964   0.453
 3731SOL     H227449   3.611   3.033   0.319
 3732SOL    OH227450   4.829   0.772   5.706
 3732SOL     H127451   4.736   0.752   5.699
 3732SOL     H227452   4.836   0.827   5.784
 3733SOL    OH227453   3.385   4.692   6.392
 3733SOL     H127454   3.346   4.764   6.343
 3733SOL     H227455   3.356   4.613   6.348
 3734SOL    OH227456   0.162   5.488   5.623
 3734SOL     H127457   0.204   5.493   5.537
 3734SOL     H227458   0.163   5.578   5.656
 3735SOL    OH227459   1.197   6.297   5.771
 3735SOL     H127460   1.283   6.258   5.789
 3735SOL     H227461   1.212   6.392   5.777
 3736SOL    OH227462   4.125   6.207   6.086
 3736SOL     H127463   4.082   6.126   6.061
 3736SOL     H227464   4.123   6.262   6.007
 3737SOL    OH227465   1.858   4.676   0.611
 3737SOL     H127466   1.869   4.759   0.565
 3737SOL     H227467   1.772   4.682   0.652
 3738SOL    OH227468   3.033   0.526   5.193
 3738SOL     H127469   2.955   0.568   5.226
 3738SOL     H227470   3.106   0.572   5.235
 3739SOL    OH227471   2.509   3.843   0.728
 3739SOL     H127472   2.436   3.886   0.684
 3739SOL     H227473   2.511   3.755   0.690
 3740SOL    OH227474   0.440   3.891   6.093
 3740SOL     H127475   0.359   3.938   6.074
 3740SOL     H227476   0.509   3.945   6.055
 3741SOL    OH227477   2.555   4.954   5.656
 3741SOL     H127478   2.484   4.971   5.718
 3741SOL     H227479   2.511   4.927   5.576
 3742SOL    OH227480   5.242   0.003   0.072
 3742SOL     H127481   5.167   6.367   0.097
 3742SOL     H227482   5.239   0.007   6.657
 3743SOL    OH227483   2.058   2.477   1.169
 3743SOL     H127484   1.978   2.435   1.138
 3743SOL     H227485   2.114   2.481   1.091
 3744SOL    OH227486   0.264   2.210   6.423
 3744SOL     H127487   0.200   2.271   6.459
 3744SOL     H227488   0.243   2.126   6.465
 3745SOL    OH227489   6.275   1.062   1.123
 3745SOL     H127490   0.058   1.038   1.156
 3745SOL     H227491   6.286   1.072   1.029
 3746SOL    OH227492   1.835   1.576   0.266
 3746SOL     H127493   1.911   1.635   0.260
 3746SOL     H227494   1.847   1.531   0.350
 3747SOL    OH227495   1.660   3.736   6.353
 3747SOL     H127496   1.587   3.773   6.304
 3747SOL     H227497   1.620   3.689   6.426
 3748SOL    OH227498   1.508   3.380   5.615
 3748SOL     H127499   1.422   3.340   5.630
 3748SOL     H227500   1.524   3.368   5.521
 3749SOL    OH227501   3.425   2.510   6.462
 3749SOL     H127502   3.430   2.430   6.409
 3749SOL     H227503   3.395   2.577   6.401
 3750SOL    OH227504   4.741   3.544   0.339
 3750SOL     H127505   4.820   3.596   0.352
 3750SOL     H227506   4.762   3.485   0.266
 3751SOL    OH227507   5.078   5.850   6.508
 3751SOL     H127508   5.059   5.940   6.536
 3751SOL     H227509   5.036   5.795   6.574
 3752SOL    OH227510   2.237   6.269   0.590
 3752SOL     H127511   2.145   6.265   0.614
 3752SOL     H227512   2.281   6.212   0.653
 3753SOL    OH227513   1.677   4.097   4.875
 3753SOL     H127514   1.729   4.018   4.890
 3753SOL     H227515   1.742   4.167   4.862
 3754SOL    OH227516   6.175   1.922   5.633
 3754SOL     H127517   6.113   1.995   5.634
 3754SOL     H227518   6.251   1.955   5.682
 3755SOL    OH227519   0.320   6.179   1.500
 3755SOL     H127520   0.240   6.132   1.519
 3755SOL     H227521   0.381   6.154   1.570
 3756SOL    OH227522   6.230   5.253   0.504
 3756SOL     H127523   0.009   5.206   0.513
 3756SOL     H227524   6.255   5.346   0.509
 3757SOL    OH227525   5.459   5.321   5.464
 3757SOL     H127526   5.391   5.260   5.493
 3757SOL     H227527   5.493   5.283   5.383
 3758SOL    OH227528   0.949   0.190   5.634
 3758SOL     H127529   0.865   0.201   5.591
 3758SOL     H227530   1.004   0.260   5.599
 3759SOL    OH227531   5.674   3.346   1.624
 3759SOL     H127532   5.701   3.305   1.542
 3759SOL     H227533   5.593   3.301   1.648
 3760SOL    OH227534   3.062   5.370   0.568
 3760SOL     H127535   2.981   5.350   0.520
 3760SOL     H227536   3.127   5.387   0.500
 3761SOL    OH227537   2.594   5.797   6.329
 3761SOL     H127538   2.544   5.771   6.407
 3761SOL     H227539   2.681   5.815   6.362
 3762SOL    OH227540   3.601   1.797   1.154
 3762SOL     H127541   3.596   1.710   1.192
 3762SOL     H227542   3.615   1.856   1.229
 3763SOL    OH227543   6.144   1.820   6.429
 3763SOL     H127544   6.227   1.860   6.405
 3763SOL     H227545   6.103   1.797   6.346
 3764SOL    OH227546   2.387   2.540   1.547
 3764SOL     H127547   2.353   2.629   1.543
 3764SOL     H227548   2.335   2.491   1.484
 3765SOL    OH227549   5.444   3.639   0.452
 3765SOL     H127550   5.432   3.565   0.511
 3765SOL     H227551   5.536   3.664   0.462
 3766SOL    OH227552   4.791   4.384   0.789
 3766SOL     H127553   4.820   4.406   0.878
 3766SOL     H227554   4.842   4.306   0.766
 3767SOL    OH227555   2.771   3.189   0.069
 3767SOL     H127556   2.688   3.236   0.061
 3767SOL     H227557   2.769   3.125   6.678
 3768SOL    OH227558   3.818   5.324   0.575
 3768SOL     H127559   3.835   5.360   0.487
 3768SOL     H227560   3.846   5.233   0.568
 3769SOL    OH227561   1.671   1.310   6.570
 3769SOL     H127562   1.739   1.334   6.633
 3769SOL     H227563   1.588   1.332   6.614
 3770SOL    OH227564   3.189   2.503   6.616
 3770SOL     H127565   3.276   2.513   6.577
 3770SOL     H227566   3.194   2.551   0.018
 3771SOL    OH227567   0.821   4.979   4.836
 3771SOL     H127568   0.888   4.943   4.778
 3771SOL     H227569   0.867   5.046   4.887
 3772SOL    OH227570   0.834   3.565   1.291
 3772SOL     H127571   0.862   3.482   1.331
 3772SOL     H227572   0.879   3.567   1.207
 3773SOL    OH227573   1.635   2.344   0.383
 3773SOL     H127574   1.613   2.434   0.407
 3773SOL     H227575   1.731   2.342   0.385
 3774SOL    OH227576   3.438   4.239   0.954
 3774SOL     H127577   3.358   4.236   1.007
 3774SOL     H227578   3.473   4.150   0.958
 3775SOL    OH227579   4.092   4.254   0.335
 3775SOL     H127580   4.143   4.309   0.395
 3775SOL     H227581   4.105   4.294   0.249
 3776SOL    OH227582   4.472   6.282   1.469
 3776SOL     H127583   4.434   6.367   1.489
 3776SOL     H227584   4.555   6.302   1.427
 3777SOL    OH227585   5.932   0.154   0.740
 3777SOL     H127586   6.012   0.120   0.701
 3777SOL     H227587   5.913   0.233   0.689
 3778SOL    OH227588   5.445   5.729   6.263
 3778SOL     H127589   5.496   5.801   6.227
 3778SOL     H227590   5.510   5.661   6.283
 3779SOL    OH227591   2.419   6.120   0.148
 3779SOL     H127592   2.481   6.186   0.179
 3779SOL     H227593   2.346   6.126   0.209
 3780SOL    OH227594   4.606   3.054   0.855
 3780SOL     H127595   4.568   3.141   0.845
 3780SOL     H227596   4.579   3.025   0.943
 3781SOL    OH227597   5.108   3.445   5.740
 3781SOL     H127598   5.196   3.408   5.749
 3781SOL     H227599   5.098   3.460   5.646
 3782SOL    OH227600   4.184   1.116   0.840
 3782SOL     H127601   4.174   1.082   0.929
 3782SOL     H227602   4.148   1.048   0.784
 3783SOL    OH227603   1.445   3.861   6.244
 3783SOL     H127604   1.367   3.806   6.233
 3783SOL     H227605   1.435   3.930   6.179
 3784SOL    OH227606   5.904   6.248   0.661
 3784SOL     H127607   5.922   6.308   0.589
 3784SOL     H227608   5.908   6.161   0.622
 3785SOL    OH227609   4.703   1.481   0.482
 3785SOL     H127610   4.670   1.535   0.409
 3785SOL     H227611   4.798   1.486   0.474
 3786SOL    OH227612   4.565   4.746   6.173
 3786SOL     H127613   4.521   4.828   6.196
 3786SOL     H227614   4.503   4.702   6.115
 3787SOL    OH227615   6.248   5.531   5.950
 3787SOL     H127616   6.222   5.464   6.013
 3787SOL     H227617   6.181   5.599   5.959
 3788SOL    OH227618   1.952   0.180   6.109
 3788SOL     H127619   1.912   0.094   6.097
 3788SOL     H227620   1.986   0.203   6.022
 3789SOL    OH227621   2.900   1.455   5.989
 3789SOL     H127622   2.904   1.514   5.914
 3789SOL     H227623   2.990   1.424   6.000
 3790SOL    OH227624   4.626   6.024   5.734
 3790SOL     H127625   4.632   6.010   5.639
 3790SOL     H227626   4.555   5.967   5.762
 3791SOL    OH227627   5.741   0.428   1.064
 3791SOL     H127628   5.722   0.415   1.157
 3791SOL     H227629   5.737   0.340   1.026
 3792SOL    OH227630   0.294   2.201   6.144
 3792SOL     H127631   0.284   2.206   6.239
 3792SOL     H227632   0.388   2.195   6.129
 3793SOL    OH227633   6.020   2.447   6.503
 3793SOL     H127634   5.992   2.534   6.532
 3793SOL     H227635   6.029   2.397   6.584
 3794SOL    OH227636   3.584   5.178   1.597
 3794SOL     H127637   3.675   5.156   1.575
 3794SOL     H227638   3.541   5.093   1.607
 3795SOL    OH227639   2.183   4.238   1.341
 3795SOL     H127640   2.140   4.239   1.427
 3795SOL     H227641   2.139   4.167   1.294
 3796SOL    OH227642   1.371   2.255   6.440
 3796SOL     H127643   1.413   2.330   6.482
 3796SOL     H227644   1.392   2.181   6.497
 3797SOL    OH227645   2.987   2.677   5.510
 3797SOL     H127646   2.978   2.772   5.503
 3797SOL     H227647   3.072   2.663   5.553
 3798SOL    OH227648   6.170   0.516   6.441
 3798SOL     H127649   6.239   0.547   6.500
 3798SOL     H227650   6.206   0.528   6.353
 3799SOL    OH227651   5.758   0.765   0.282
 3799SOL     H127652   5.796   0.843   0.243
 3799SOL     H227653   5.803   0.756   0.366
 3800SOL    OH227654   6.201   4.450   5.353
 3800SOL     H127655   6.130   4.398   5.316
 3800SOL     H227656   6.156   4.523   5.396
 3801SOL    OH227657   5.515   2.288   5.704
 3801SOL     H127658   5.455   2.217   5.680
 3801SOL     H227659   5.536   2.272   5.796
 3802SOL    OH227660   4.373   1.395   1.506
 3802SOL     H127661   4.293   1.415   1.556
 3802SOL     H227662   4.358   1.306   1.472
 3803SOL    OH227663   1.630   2.377   5.412
 3803SOL     H127664   1.556   2.353   5.356
 3803SOL     H227665   1.705   2.333   5.372
 3804SOL    OH227666   3.061   0.873   6.585
 3804SOL     H127667   3.127   0.890   6.518
 3804SOL     H227668   2.987   0.929   6.561
 3805SOL    OH227669   3.389   1.911   1.026
 3805SOL     H127670   3.458   1.863   1.070
 3805SOL     H227671   3.435   1.980   0.977
 3806SOL    OH227672   0.070   2.622   6.041
 3806SOL     H127673   0.052   2.643   5.949
 3806SOL     H227674   0.064   2.526   6.044
 3807SOL    OH227675   5.479   1.428   6.544
 3807SOL     H127676   5.481   1.521   6.520
 3807SOL     H227677   5.533   1.424   6.623
 3808SOL    OH227678   1.915   3.637   6.417
 3808SOL     H127679   1.832   3.668   6.381
 3808SOL     H227680   1.923   3.680   6.502
 3809SOL    OH227681   2.408   0.070   0.580
 3809SOL     H127682   2.353   0.146   0.597
 3809SOL     H227683   2.346   6.416   0.570
 3810SOL    OH227684   0.035   0.716   0.885
 3810SOL     H127685   6.249   0.746   0.868
 3810SOL     H227686   0.069   0.695   0.798
 3811SOL    OH227687   3.204   2.181   6.365
 3811SOL     H127688   3.288   2.226   6.354
 3811SOL     H227689   3.186   2.185   6.459
 3812SOL    OH227690   4.371   1.967   0.725
 3812SOL     H127691   4.452   2.017   0.714
 3812SOL     H227692   4.301   2.030   0.708
 3813SOL    OH227693   5.771   2.739   0.368
 3813SOL     H127694   5.719   2.659   0.377
 3813SOL     H227695   5.708   2.806   0.341
 3814SOL    OH227696   5.337   4.944   1.878
 3814SOL     H127697   5.380   4.999   1.813
 3814SOL     H227698   5.269   4.999   1.916
 3815SOL    OH227699   4.183   5.852   1.297
 3815SOL     H127700   4.167   5.916   1.366
 3815SOL     H227701   4.266   5.810   1.322
 3816SOL    OH227702   1.164   2.992   1.424
 3816SOL     H127703   1.194   2.944   1.347
 3816SOL     H227704   1.079   3.028   1.397
 3817SOL    OH227705   5.097   0.604   1.274
 3817SOL     H127706   5.192   0.599   1.276
 3817SOL     H227707   5.078   0.698   1.280
 3818SOL    OH227708   2.531   2.775   1.297
 3818SOL     H127709   2.493   2.774   1.385
 3818SOL     H227710   2.471   2.828   1.245
 3819SOL    OH227711   2.978   4.384   5.239
 3819SOL     H127712   2.884   4.372   5.256
 3819SOL     H227713   3.004   4.455   5.297
 3820SOL    OH227714   4.271   3.648   0.989
 3820SOL     H127715   4.275   3.695   0.906
 3820SOL     H227716   4.216   3.702   1.045
 3821SOL    OH227717   4.254   0.044   6.340
 3821SOL     H127718   4.239   6.368   6.345
 3821SOL     H227719   4.204   0.072   6.264
 3822SOL    OH227720   3.474   5.467   0.911
 3822SOL     H127721   3.442   5.377   0.917
 3822SOL     H227722   3.533   5.467   0.836
 3823SOL    OH227723   0.209   4.392   5.970
 3823SOL     H127724   0.204   4.475   6.017
 3823SOL     H227725   0.296   4.358   5.991
 3824SOL    OH227726   1.841   1.552   6.281
 3824SOL     H127727   1.911   1.528   6.220
 3824SOL     H227728   1.780   1.603   6.228
 3825SOL    OH227729   1.045   5.753   4.458
 3825SOL     H127730   1.061   5.844   4.484
 3825SOL     H227731   0.966   5.728   4.507
 3826SOL    OH227732   1.871   5.455   0.315
 3826SOL     H127733   1.794   5.504   0.345
 3826SOL     H227734   1.918   5.517   0.260
 3827SOL    OH227735   5.602   0.679   6.092
 3827SOL     H127736   5.593   0.603   6.149
 3827SOL     H227737   5.551   0.748   6.135
 3828SOL    OH227738   5.428   5.289   6.284
 3828SOL     H127739   5.404   5.204   6.320
 3828SOL     H227740   5.490   5.325   6.348
 3829SOL    OH227741   4.191   1.949   6.281
 3829SOL     H127742   4.189   1.876   6.219
 3829SOL     H227743   4.191   2.028   6.226
 3830SOL    OH227744   0.554   1.376   1.234
 3830SOL     H127745   0.534   1.335   1.150
 3830SOL     H227746   0.648   1.396   1.229
 3831SOL    OH227747   1.683   0.007   5.384
 3831SOL     H127748   1.755   0.071   5.384
 3831SOL     H227749   1.623   0.039   5.317
 3832SOL    OH227750   5.229   1.277   0.405
 3832SOL     H127751   5.230   1.318   0.491
 3832SOL     H227752   5.206   1.186   0.421
 3833SOL    OH227753   1.225   1.703   6.188
 3833SOL     H127754   1.258   1.715   6.277
 3833SOL     H227755   1.160   1.633   6.195
 3834SOL    OH227756   3.697   4.122   6.633
 3834SOL     H127757   3.650   4.067   0.016
 3834SOL     H227758   3.786   4.129   6.669
 3835SOL    OH227759   2.057   1.886   0.494
 3835SOL     H127760   1.991   1.847   0.552
 3835SOL     H227761   2.140   1.856   0.529
 3836SOL    OH227762   4.807   1.243   1.304
 3836SOL     H127763   4.787   1.188   1.379
 3836SOL     H227764   4.787   1.188   1.228
 3837SOL    OH227765   5.947   0.770   5.857
 3837SOL     H127766   5.857   0.752   5.830
 3837SOL     H227767   5.961   0.862   5.834
 3838SOL    OH227768   0.121   5.399   0.759
 3838SOL     H127769   0.029   5.424   0.751
 3838SOL     H227770   0.168   5.481   0.771
 3839SOL    OH227771   0.911   6.176   1.752
 3839SOL     H127772   0.981   6.152   1.691
 3839SOL     H227773   0.909   6.272   1.748
 3840SOL    OH227774   0.378   0.348   0.183
 3840SOL     H127775   0.291   0.336   0.221
 3840SOL     H227776   0.438   0.322   0.253
 3841SOL    OH227777   5.978   0.329   6.487
 3841SOL     H127778   6.054   0.385   6.471
 3841SOL     H227779   5.909   0.389   6.514
 3842SOL    OH227780   3.049   4.108   1.322
 3842SOL     H127781   3.082   4.148   1.402
 3842SOL     H227782   2.964   4.151   1.307
 3843SOL    OH227783   1.614   4.702   0.722
 3843SOL     H127784   1.547   4.663   0.778
 3843SOL     H227785   1.582   4.791   0.705
 3844SOL    OH227786   5.334   0.484   0.068
 3844SOL     H127787   5.249   0.464   0.109
 3844SOL     H227788   5.354   0.573   0.096
 3845SOL    OH227789   2.615   2.010   6.246
 3845SOL     H127790   2.533   2.058   6.256
 3845SOL     H227791   2.651   2.042   6.163
 3846SOL    OH227792   3.988   2.681   5.840
 3846SOL     H127793   3.932   2.606   5.858
 3846SOL     H227794   4.060   2.673   5.903
 3847SOL    OH227795   5.344   2.066   5.709
 3847SOL     H127796   5.277   2.032   5.650
 3847SOL     H227797   5.297   2.082   5.791
 3848SOL    OH227798   0.580   0.456   0.035
 3848SOL     H127799   0.568   0.551   0.038
 3848SOL     H227800   0.507   0.421   0.086
 3849SOL    OH227801   4.528   2.214   6.030
 3849SOL     H127802   4.605   2.239   5.978
 3849SOL     H227803   4.555   2.228   6.121
 3850SOL    OH227804   4.362   3.673   0.314
 3850SOL     H127805   4.376   3.624   0.233
 3850SOL     H227806   4.410   3.754   0.303
 3851SOL    OH227807   2.899   0.650   6.589
 3851SOL     H127808   2.955   0.576   6.612
 3851SOL     H227809   2.959   0.725   6.586
 3852SOL    OH227810   4.032   5.635   0.590
 3852SOL     H127811   3.985   5.712   0.560
 3852SOL     H227812   4.046   5.650   0.683
 3853SOL    OH227813   5.084   0.165   1.122
 3853SOL     H127814   5.010   0.111   1.150
 3853SOL     H227815   5.158   0.104   1.117
 3854SOL    OH227816   6.186   0.119   0.623
 3854SOL     H127817   6.234   0.092   0.701
 3854SOL     H227818   6.209   0.054   0.557
 3855SOL    OH227819   3.016   4.863   5.376
 3855SOL     H127820   3.010   4.874   5.281
 3855SOL     H227821   3.084   4.926   5.402
 3856SOL    OH227822   0.516   0.308   0.416
 3856SOL     H127823   0.477   0.233   0.461
 3856SOL     H227824   0.606   0.311   0.446
 3857SOL    OH227825   3.627   5.345   6.583
 3857SOL     H127826   3.578   5.293   6.519
 3857SOL     H227827   3.641   5.285   6.656
 3858SOL    OH227828   2.239   4.274   0.268
 3858SOL     H127829   2.333   4.285   0.283
 3858SOL     H227830   2.222   4.183   0.290
 3859SOL    OH227831   1.586   5.992   6.579
 3859SOL     H127832   1.496   5.961   6.573
 3859SOL     H227833   1.619   5.989   6.489
 3860SOL    OH227834   4.229   4.650   6.483
 3860SOL     H127835   4.169   4.712   6.440
 3860SOL     H227836   4.259   4.592   6.413
 3861SOL    OH227837   2.655   4.636   2.056
 3861SOL     H127838   2.669   4.730   2.040
 3861SOL     H227839   2.742   4.597   2.052
 3862SOL    OH227840   3.596   2.885   5.863
 3862SOL     H127841   3.667   2.948   5.853
 3862SOL     H227842   3.532   2.910   5.796
 3863SOL    OH227843   4.807   5.364   5.001
 3863SOL     H127844   4.833   5.451   4.972
 3863SOL     H227845   4.831   5.360   5.093
 3864SOL    OH227846   2.151   5.851   4.622
 3864SOL     H127847   2.083   5.902   4.665
 3864SOL     H227848   2.107   5.808   4.549
 3865SOL    OH227849   5.895   1.715   1.627
 3865SOL     H127850   5.982   1.679   1.609
 3865SOL     H227851   5.846   1.642   1.665
 3866SOL    OH227852   3.370   0.741   6.592
 3866SOL     H127853   3.347   0.653   6.622
 3866SOL     H227854   3.374   0.794   6.672
 3867SOL    OH227855   2.180   2.746   5.261
 3867SOL     H127856   2.260   2.712   5.300
 3867SOL     H227857   2.130   2.781   5.335
 3868SOL    OH227858   4.826   0.546   0.975
 3868SOL     H127859   4.898   0.549   0.913
 3868SOL     H227860   4.862   0.500   1.051
 3869SOL    OH227861   4.734   3.175   5.200
 3869SOL     H127862   4.772   3.179   5.112
 3869SOL     H227863   4.758   3.258   5.240
 3870SOL    OH227864   0.767   3.776   6.655
 3870SOL     H127865   0.755   3.693   0.021
 3870SOL     H227866   0.850   3.811   0.007
 3871SOL    OH227867   1.421   5.774   6.314
 3871SOL     H127868   1.483   5.704   6.335
 3871SOL     H227869   1.466   5.827   6.249
 3872SOL    OH227870   5.178   4.873   1.138
 3872SOL     H127871   5.201   4.820   1.214
 3872SOL     H227872   5.142   4.954   1.174
 3873SOL    OH227873   1.906   0.172   5.377
 3873SOL     H127874   1.889   0.216   5.294
 3873SOL     H227875   1.999   0.149   5.374
 3874SOL    OH227876   1.671   4.422   5.782
 3874SOL     H127877   1.743   4.362   5.799
 3874SOL     H227878   1.637   4.445   5.869
 3875SOL    OH227879   2.687   2.117   6.004
 3875SOL     H127880   2.618   2.141   5.942
 3875SOL     H227881   2.734   2.198   6.021
 3876SOL    OH227882   0.535   4.896   5.682
 3876SOL     H127883   0.475   4.947   5.736
 3876SOL     H227884   0.507   4.911   5.592
 3877SOL    OH227885   5.082   6.406   5.662
 3877SOL     H127886   5.028   0.050   5.614
 3877SOL     H227887   5.026   6.378   5.735
 3878SOL    OH227888   2.041   1.076   0.363
 3878SOL     H127889   2.043   1.130   0.443
 3878SOL     H227890   2.010   0.991   0.393
 3879SOL    OH227891   1.971   2.796   0.415
 3879SOL     H127892   2.035   2.856   0.454
 3879SOL     H227893   2.000   2.785   0.325
 3880SOL    OH227894   0.004   4.344   5.801
 3880SOL     H127895   0.030   4.376   5.715
 3880SOL     H227896   0.078   4.366   5.858
 3881SOL    OH227897   1.135   3.904   5.494
 3881SOL     H127898   1.230   3.912   5.501
 3881SOL     H227899   1.115   3.816   5.526
 3882SOL    OH227900   1.605   5.882   0.514
 3882SOL     H127901   1.672   5.865   0.581
 3882SOL     H227902   1.648   5.859   0.431
 3883SOL    OH227903   6.182   5.746   0.357
 3883SOL     H127904   6.185   5.840   0.372
 3883SOL     H227905   6.089   5.723   0.364
 3884SOL    OH227906   0.400   6.363   5.948
 3884SOL     H127907   0.474   6.311   5.981
 3884SOL     H227908   0.370   6.316   5.871
 3885SOL    OH227909   2.799   6.133   0.987
 3885SOL     H127910   2.839   6.208   1.032
 3885SOL     H227911   2.722   6.112   1.040
 3886SOL    OH227912   4.987   3.273   0.958
 3886SOL     H127913   5.069   3.223   0.968
 3886SOL     H227914   4.951   3.244   0.875
 3887SOL    OH227915   5.937   5.180   5.353
 3887SOL     H127916   5.874   5.141   5.292
 3887SOL     H227917   5.926   5.274   5.342
 3888SOL    OH227918   5.273   5.228   1.169
 3888SOL     H127919   5.215   5.172   1.221
 3888SOL     H227920   5.233   5.315   1.174
 3889SOL    OH227921   0.535   5.837   5.434
 3889SOL     H127922   0.527   5.758   5.487
 3889SOL     H227923   0.491   5.816   5.352
 3890SOL    OH227924   0.523   1.669   1.036
 3890SOL     H127925   0.587   1.665   1.107
 3890SOL     H227926   0.454   1.608   1.061
 3891SOL    OH227927   2.068   2.237   5.435
 3891SOL     H127928   2.049   2.248   5.528
 3891SOL     H227929   2.147   2.183   5.433
 3892SOL    OH227930   5.756   1.056   0.889
 3892SOL     H127931   5.829   1.056   0.951
 3892SOL     H227932   5.736   1.149   0.875
 3893SOL    OH227933   0.474   3.813   1.276
 3893SOL     H127934   0.568   3.824   1.290
 3893SOL     H227935   0.444   3.760   1.350
 3894SOL    OH227936   3.590   3.106   4.964
 3894SOL     H127937   3.674   3.140   4.995
 3894SOL     H227938   3.602   3.011   4.961
 3895SOL    OH227939   4.025   3.090   1.140
 3895SOL     H127940   3.953   3.142   1.176
 3895SOL     H227941   4.101   3.149   1.142
 3896SOL    OH227942   5.051   1.105   1.469
 3896SOL     H127943   4.957   1.109   1.490
 3896SOL     H227944   5.061   1.023   1.421
 3897SOL    OH227945   3.355   3.764   0.999
 3897SOL     H127946   3.284   3.710   0.964
 3897SOL     H227947   3.411   3.702   1.045
 3898SOL    OH227948   0.395   1.542   6.013
 3898SOL     H127949   0.433   1.498   5.938
 3898SOL     H227950   0.328   1.482   6.045
 3899SOL    OH227951   2.401   2.054   5.868
 3899SOL     H127952   2.379   2.008   5.949
 3899SOL     H227953   2.337   2.023   5.804
 3900SOL    OH227954   3.397   4.818   0.576
 3900SOL     H127955   3.340   4.890   0.548
 3900SOL     H227956   3.351   4.777   0.649
 3901SOL    OH227957   2.187   2.233   6.436
 3901SOL     H127958   2.209   2.325   6.424
 3901SOL     H227959   2.154   2.227   6.526
 3902SOL    OH227960   1.810   5.967   0.096
 3902SOL     H127961   1.899   5.962   0.060
 3902SOL     H227962   1.753   5.962   0.019
 3903SOL    OH227963   0.320   1.637   6.565
 3903SOL     H127964   0.314   1.688   6.645
 3903SOL     H227965   0.375   1.689   6.507
 3904SOL    OH227966   5.492   0.895   5.737
 3904SOL     H127967   5.472   0.947   5.660
 3904SOL     H227968   5.415   0.839   5.749
 3905SOL    OH227969   6.287   1.608   0.493
 3905SOL     H127970   6.242   1.667   0.553
 3905SOL     H227971   6.261   1.638   0.406
 3906SOL    OH227972   2.507   4.414   0.672
 3906SOL     H127973   2.593   4.401   0.631
 3906SOL     H227974   2.491   4.508   0.663
 3907SOL    OH227975   0.674   3.927   0.590
 3907SOL     H127976   0.745   3.863   0.589
 3907SOL     H227977   0.612   3.895   0.525
 3908SOL    OH227978   4.962   4.841   0.033
 3908SOL     H127979   5.010   4.922   0.051
 3908SOL     H227980   4.976   4.826   6.620
 3909SOL    OH227981   0.215   0.817   1.694
 3909SOL     H127982   0.275   0.802   1.621
 3909SOL     H227983   0.130   0.786   1.662
 3910SOL    OH227984   4.549   2.982   6.192
 3910SOL     H127985   4.510   3.007   6.108
 3910SOL     H227986   4.529   3.055   6.251
 3911SOL    OH227987   1.475   1.180   0.179
 3911SOL     H127988   1.386   1.146   0.173
 3911SOL     H227989   1.475   1.256   0.121
 3912SOL    OH227990   0.968   6.266   5.914
 3912SOL     H127991   1.056   6.264   5.875
 3912SOL     H227992   0.910   6.289   5.841
 3913SOL    OH227993   2.384   3.252   0.543
 3913SOL     H127994   2.405   3.160   0.523
 3913SOL     H227995   2.404   3.260   0.637
 3914SOL    OH227996   5.997   1.029   5.793
 3914SOL     H127997   5.964   1.096   5.852
 3914SOL     H227998   6.048   1.077   5.728
 3915SOL    OH227999   5.915   5.550   0.608
 3915SOL     H128000   5.886   5.624   0.661
 3915SOL     H228001   5.919   5.584   0.519
 3916SOL    OH228002   1.441   5.536   6.107
 3916SOL     H128003   1.356   5.518   6.148
 3916SOL     H228004   1.499   5.556   6.181
 3917SOL    OH228005   3.251   0.607   5.976
 3917SOL     H128006   3.208   0.549   6.040
 3917SOL     H228007   3.186   0.676   5.959
 3918SOL    OH228008   3.708   2.952   0.988
 3918SOL     H128009   3.654   2.914   1.058
 3918SOL     H228010   3.795   2.914   1.001
 3919SOL    OH228011   1.041   3.413   5.729
 3919SOL     H128012   0.945   3.413   5.727
 3919SOL     H228013   1.063   3.389   5.818
 3920SOL    OH228014   0.128   4.471   5.199
 3920SOL     H128015   0.180   4.391   5.200
 3920SOL     H228016   0.057   4.454   5.261
 3921SOL    OH228017   5.916   5.680   0.363
 3921SOL     H128018   5.864   5.760   0.363
 3921SOL     H228019   5.883   5.629   0.290
 3922SOL    OH228020   2.277   1.769   0.598
 3922SOL     H128021   2.244   1.681   0.615
 3922SOL     H228022   2.318   1.796   0.681
 3923SOL    OH228023   5.945   4.206   0.067
 3923SOL     H128024   6.022   4.179   0.017
 3923SOL     H228025   5.958   4.299   0.082
 3924SOL    OH228026   2.590   2.762   6.637
 3924SOL     H128027   2.527   2.705   0.001
 3924SOL     H228028   2.537   2.836   6.606
 3925SOL    OH228029   0.605   4.500   0.801
 3925SOL     H128030   0.566   4.489   0.714
 3925SOL     H228031   0.532   4.518   0.859
 3926SOL    OH228032   1.611   2.123   1.825
 3926SOL     H128033   1.524   2.122   1.866
 3926SOL     H228034   1.610   2.201   1.769
 3927SOL    OH228035   4.318   6.102   0.687
 3927SOL     H128036   4.344   6.097   0.779
 3927SOL     H228037   4.226   6.076   0.687
 3928SOL    OH228038   0.406   4.108   0.472
 3928SOL     H128039   0.493   4.141   0.494
 3928SOL     H228040   0.422   4.020   0.436
 3929SOL    OH228041   5.085   2.461   5.812
 3929SOL     H128042   5.075   2.429   5.902
 3929SOL     H228043   5.054   2.551   5.816
 3930SOL    OH228044   0.004   2.406   0.587
 3930SOL     H128045   6.284   2.497   0.572
 3930SOL     H228046   6.303   2.364   0.501
 3931SOL    OH228047   1.526   4.962   0.687
 3931SOL     H128048   1.596   4.985   0.747
 3931SOL     H228049   1.449   5.007   0.722
 3932SOL    OH228050   3.930   5.004   5.998
 3932SOL     H128051   3.892   4.973   5.916
 3932SOL     H228052   3.904   4.939   6.063
 3933SOL    OH228053   3.461   0.706   0.880
 3933SOL     H128054   3.463   0.661   0.964
 3933SOL     H228055   3.371   0.695   0.849
 3934SOL    OH228056   2.574   5.523   1.262
 3934SOL     H128057   2.610   5.515   1.350
 3934SOL     H228058   2.583   5.616   1.241
 3935SOL    OH228059   2.811   4.333   1.014
 3935SOL     H128060   2.719   4.354   1.004
 3935SOL     H228061   2.835   4.287   0.933
 3936SOL    OH228062   0.344   2.586   5.886
 3936SOL     H128063   0.353   2.643   5.809
 3936SOL     H228064   0.249   2.571   5.892
 3937SOL    OH228065   4.665   3.693   5.672
 3937SOL     H128066   4.571   3.705   5.681
 3937SOL     H228067   4.703   3.772   5.710
 3938SOL    OH228068   5.333   0.049   1.692
 3938SOL     H128069   5.303   0.113   1.757
 3938SOL     H228070   5.414   0.014   1.728
 3939SOL    OH228071   6.108   3.786   1.490
 3939SOL     H128072   6.158   3.704   1.486
 3939SOL     H228073   6.130   3.823   1.575
 3940SOL    OH228074   1.779   3.499   0.027
 3940SOL     H128075   1.691   3.460   0.031
 3940SOL     H228076   1.765   3.587   6.673
 3941SOL    OH228077   4.471   1.931   0.002
 3941SOL     H128078   4.396   1.992   0.004
 3941SOL     H228079   4.449   1.865   0.068
 3942SOL    OH228080   0.286   1.092   6.544
 3942SOL     H128081   0.237   1.063   6.467
 3942SOL     H228082   0.292   1.014   6.599
 3943SOL    OH228083   0.084   4.426   5.553
 3943SOL     H128084   0.128   4.511   5.552
 3943SOL     H228085   0.016   4.433   5.486
 3944SOL    OH228086   1.228   4.059   1.048
 3944SOL     H128087   1.285   4.127   1.011
 3944SOL     H228088   1.158   4.107   1.092
 3945SOL    OH228089   6.048   1.702   4.888
 3945SOL     H128090   6.022   1.792   4.908
 3945SOL     H228091   6.136   1.712   4.849
 3946SOL    OH228092   1.489   4.821   1.346
 3946SOL     H128093   1.458   4.731   1.351
 3946SOL     H228094   1.412   4.872   1.322
 3947SOL    OH228095   2.328   4.984   5.808
 3947SOL     H128096   2.308   4.937   5.889
 3947SOL     H228097   2.288   4.931   5.740
 3948SOL    OH228098   3.073   2.034   5.911
 3948SOL     H128099   3.140   2.048   5.845
 3948SOL     H228100   2.995   2.077   5.876
 3949SOL    OH228101   3.232   5.609   1.243
 3949SOL     H128102   3.197   5.533   1.196
 3949SOL     H228103   3.177   5.617   1.320
 3950SOL    OH228104   0.131   6.036   5.724
 3950SOL     H128105   0.065   6.098   5.755
 3950SOL     H228106   0.214   6.081   5.736
 3951SOL    OH228107   5.858   0.384   0.610
 3951SOL     H128108   5.778   0.346   0.572
 3951SOL     H228109   5.923   0.375   0.541
 3952SOL    OH228110   5.722   2.458   5.155
 3952SOL     H128111   5.644   2.403   5.151
 3952SOL     H228112   5.760   2.453   5.068
 3953SOL    OH228113   3.648   4.405   0.255
 3953SOL     H128114   3.706   4.367   0.321
 3953SOL     H228115   3.705   4.459   0.200
 3954SOL    OH228116   0.131   5.282   6.172
 3954SOL     H128117   0.178   5.344   6.117
 3954SOL     H228118   0.042   5.317   6.177
 3955SOL    OH228119   2.521   1.291   5.385
 3955SOL     H128120   2.497   1.371   5.433
 3955SOL     H228121   2.569   1.323   5.308
 3956SOL    OH228122   5.874   4.879   1.762
 3956SOL     H128123   5.905   4.969   1.769
 3956SOL     H228124   5.780   4.887   1.746
 3957SOL    OH228125   1.987   0.807   0.416
 3957SOL     H128126   2.004   0.771   0.502
 3957SOL     H228127   1.892   0.800   0.406
 3958SOL    OH228128   3.256   0.587   1.314
 3958SOL     H128129   3.221   0.674   1.334
 3958SOL     H228130   3.199   0.527   1.363
 3959SOL    OH228131   3.487   1.256   0.516
 3959SOL     H128132   3.430   1.316   0.467
 3959SOL     H228133   3.573   1.296   0.510
 3960SOL    OH228134   1.744   1.183   1.041
 3960SOL     H128135   1.808   1.161   1.109
 3960SOL     H228136   1.675   1.118   1.051
 3961SOL    OH228137   1.149   0.332   0.685
 3961SOL     H128138   1.234   0.315   0.724
 3961SOL     H228139   1.096   0.255   0.709
 3962SOL    OH228140   4.510   1.740   5.792
 3962SOL     H128141   4.547   1.675   5.852
 3962SOL     H228142   4.516   1.823   5.840
 3963SOL    OH228143   3.854   1.981   5.859
 3963SOL     H128144   3.786   1.984   5.792
 3963SOL     H228145   3.936   1.992   5.810
 3964SOL    OH228146   2.422   1.045   0.097
 3964SOL     H128147   2.505   0.998   0.104
 3964SOL     H228148   2.375   1.021   0.177
 3965SOL    OH228149   3.067   3.213   0.646
 3965SOL     H128150   3.094   3.263   0.722
 3965SOL     H228151   2.973   3.198   0.658
 3966SOL    OH228152   5.005   6.377   6.319
 3966SOL     H128153   4.987   6.291   6.280
 3966SOL     H228154   5.059   0.003   6.253
 3967SOL    OH228155   3.351   1.897   6.233
 3967SOL     H128156   3.371   1.978   6.186
 3967SOL     H228157   3.362   1.828   6.168
 3968SOL    OH228158   4.010   1.441   5.233
 3968SOL     H128159   3.993   1.531   5.203
 3968SOL     H228160   3.945   1.388   5.187
   6.30317   6.41851   6.68079
