;----------------------------TITLE -----------------------------------------------------------------------------------------
;   Chloroform
[ moleculetype ]
; Name   nrexcl
SJ2H     3
[ atoms ]
;  nr  type  resnr  resid  atom  cgnr  charge    mass
    1 CLOpt    1    SJ2H    Cl2    1    0.002  35.4530
    2  COpt    1    SJ2H     C1    2   -0.361  12.0110
    3  HOpt    1    SJ2H     H1    3    0.355   1.0080
    4 CLOpt    1    SJ2H     Cl    4    0.002  35.4530
    5 CLOpt    1    SJ2H    Cl1    5    0.002  35.4530
; total charge of the molecule:  -0.000
[ bonds ]
;  ai   aj  funct   c0         c1
    1    2    2   0.1760   1.4366e+06
    2    3    2   0.1090   1.2300e+07
    2    4    2   0.1760   1.4366e+06
    2    5    2   0.1760   1.4366e+06
[ pairs ]
;  ai   aj  funct  ;  all 1-4 pairs but the ones excluded in GROMOS itp
[ angles ]
;  ai   aj   ak  funct   angle     fc
    1    2    3    2    108.00   465.00
    1    2    4    2    111.00   530.00
    1    2    5    2    111.00   530.00
    3    2    4    2    108.00   465.00
    3    2    5    2    108.00   465.00
    4    2    5    2    111.00   530.00
[ dihedrals ]
; GROMOS improper dihedrals
;  ai   aj   ak   al  funct   angle     fc
[ dihedrals ]
;  ai   aj   ak   al  funct    ph0      cp     mult
[ exclusions ]
;  ai   aj  funct  ;  GROMOS 1-4 exclusions
