dye in water
12150
    1APIC   R1A    1   2.887   3.098   3.189
    1APIC   R1B    2   2.810   3.129   3.078
    1APIC   R1C    3   2.785   3.261   3.045
    1APIC   R1D    4   2.842   3.363   3.120
    1APIC   R1E    5   2.923   3.332   3.228
    1APIC   R1F    6   2.943   3.200   3.266
    1APIC   N2A    7   3.036   3.168   3.365
    1APIC   R2D    8   3.000   3.431   3.287
    1APIC   R2E    9   3.099   3.398   3.378
    1APIC   R2F   10   3.125   3.265   3.412
    1APIC   L1A   11   3.254   3.213   3.423
    1APIC   N3A   12   3.452   3.182   3.299
    1APIC   R3B   13   3.374   3.269   3.377
    1APIC   R3C   14   3.405   3.404   3.377
    1APIC   R3D   15   3.514   3.452   3.305
    1APIC   R3E   16   3.595   3.365   3.234
    1APIC   R3F   17   3.564   3.230   3.230
    1APIC   R4A   18   3.647   3.143   3.160
    1APIC   R4D   19   3.706   3.413   3.167
    1APIC   R4E   20   3.786   3.327   3.093
    1APIC   R4F   21   3.757   3.191   3.091
    1APIC   H1A   22   2.913   2.994   3.208
    1APIC   H1B   23   2.773   3.049   3.014
    1APIC   H1C   24   2.718   3.284   2.962
    1APIC   H1D   25   2.820   3.467   3.095
    1APIC   H2D   26   2.982   3.536   3.263
    1APIC   H2E   27   3.141   3.478   3.438
    1APIC   L1H   28   3.267   3.138   3.501
    1APIC   H3C   29   3.356   3.473   3.446
    1APIC   H3D   30   3.538   3.558   3.309
    1APIC   H4A   31   3.641   3.035   3.176
    1APIC   H4D   32   3.737   3.518   3.179
    1APIC   H4E   33   3.866   3.367   3.031
    1APIC   H4F   34   3.827   3.122   3.045
    1APIC   T2A   35   3.006   3.049   3.456
    1APIC   T3A   36   2.903   3.085   3.563
    1APIC   T2B   37   3.384   3.055   3.246
    1APIC   T3B   38   3.306   3.080   3.117
    2SOL     OW   39   0.228   0.637   0.129
    2SOL    HW1   40   0.151   0.636   0.192
    2SOL    HW2   41   0.198   0.602   0.040
    3SOL     OW   42   0.203   0.246   0.994
    3SOL    HW1   43   0.256   0.228   1.076
    3SOL    HW2   44   0.136   0.173   0.980
    4SOL     OW   45   0.003   0.458   0.603
    4SOL    HW1   46   4.907   0.472   0.626
    4SOL    HW2   47   0.010   0.408   0.517
    5SOL     OW   48   0.584   1.316   1.224
    5SOL    HW1   49   0.493   1.311   1.182
    5SOL    HW2   50   0.610   1.411   1.238
    6SOL     OW   51   1.610   1.513   0.722
    6SOL    HW1   52   1.556   1.479   0.800
    6SOL    HW2   53   1.549   1.535   0.646
    7SOL     OW   54   1.117   0.719   0.696
    7SOL    HW1   55   1.171   0.800   0.674
    7SOL    HW2   56   1.074   0.729   0.785
    8SOL     OW   57   1.852   0.608   0.203
    8SOL    HW1   58   1.815   0.701   0.201
    8SOL    HW2   59   1.803   0.555   0.272
    9SOL     OW   60   0.723   1.125   1.069
    9SOL    HW1   61   0.666   1.161   1.143
    9SOL    HW2   62   0.761   1.202   1.016
   10SOL     OW   63   0.904   0.724   1.799
   10SOL    HW1   64   0.930   0.787   1.872
   10SOL    HW2   65   0.910   0.771   1.711
   11SOL     OW   66   0.674   0.978   0.681
   11SOL    HW1   67   0.750   0.978   0.747
   11SOL    HW2   68   0.600   1.035   0.716
   12SOL     OW   69   0.718   1.160   1.850
   12SOL    HW1   70   0.777   1.230   1.890
   12SOL    HW2   71   0.639   1.203   1.806
   13SOL     OW   72   0.342   1.384   1.094
   13SOL    HW1   73   0.257   1.340   1.067
   13SOL    HW2   74   0.378   1.437   1.018
   14SOL     OW   75   1.435   1.512   1.388
   14SOL    HW1   76   1.496   1.591   1.395
   14SOL    HW2   77   1.355   1.527   1.445
   15SOL     OW   78   0.501   0.407   1.441
   15SOL    HW1   79   0.569   0.335   1.444
   15SOL    HW2   80   0.410   0.368   1.456
   16SOL     OW   81   1.592   0.458   0.769
   16SOL    HW1   82   1.573   0.494   0.678
   16SOL    HW2   83   1.547   0.514   0.838
   17SOL     OW   84   0.282   1.688   0.491
   17SOL    HW1   85   0.288   1.770   0.548
   17SOL    HW2   86   0.366   1.678   0.437
   18SOL     OW   87   1.124   1.340   1.700
   18SOL    HW1   88   1.192   1.324   1.771
   18SOL    HW2   89   1.066   1.259   1.691
   19SOL     OW   90   0.239   1.419   0.509
   19SOL    HW1   91   0.255   1.518   0.515
   19SOL    HW2   92   0.209   1.385   0.598
   20SOL     OW   93   0.230   1.091   0.898
   20SOL    HW1   94   0.249   0.997   0.924
   20SOL    HW2   95   0.183   1.138   0.973
   21SOL     OW   96   0.591   1.843   1.382
   21SOL    HW1   97   0.511   1.818   1.437
   21SOL    HW2   98   0.640   1.917   1.427
   22SOL     OW   99   0.558   0.973   0.202
   22SOL    HW1  100   0.625   0.975   0.127
   22SOL    HW2  101   0.598   1.014   0.284
   23SOL     OW  102   1.620   0.157   1.489
   23SOL    HW1  103   1.647   0.242   1.444
   23SOL    HW2  104   1.563   0.178   1.568
   24SOL     OW  105   0.144   0.696   0.539
   24SOL    HW1  106   0.094   0.613   0.562
   24SOL    HW2  107   0.128   0.765   0.610
   25SOL     OW  108   1.863   1.742   0.318
   25SOL    HW1  109   1.934   1.724   0.386
   25SOL    HW2  110   1.874   1.835   0.283
   26SOL     OW  111   4.951   1.618   0.117
   26SOL    HW1  112   4.937   1.519   0.120
   26SOL    HW2  113   4.980   1.649   0.208
   27SOL     OW  114   1.675   0.952   0.667
   27SOL    HW1  115   1.715   0.883   0.607
   27SOL    HW2  116   1.644   1.030   0.613
   28SOL     OW  117   1.605   1.142   0.484
   28SOL    HW1  118   1.596   1.126   0.386
   28SOL    HW2  119   1.672   1.215   0.500
   29SOL     OW  120   0.204   0.733   1.608
   29SOL    HW1  121   0.303   0.727   1.613
   29SOL    HW2  122   0.175   0.827   1.628
   30SOL     OW  123   0.619   1.374   0.735
   30SOL    HW1  124   0.571   1.289   0.753
   30SOL    HW2  125   0.612   1.398   0.638
   31SOL     OW  126   1.255   1.217   1.426
   31SOL    HW1  127   1.274   1.144   1.360
   31SOL    HW2  128   1.325   1.217   1.498
   32SOL     OW  129   0.812   0.062   0.545
   32SOL    HW1  130   0.851   0.148   0.514
   32SOL    HW2  131   0.713   0.062   0.529
   33SOL     OW  132   0.217   0.994   1.266
   33SOL    HW1  133   0.300   0.938   1.257
   33SOL    HW2  134   0.149   0.966   1.198
   34SOL     OW  135   1.529   1.034   0.235
   34SOL    HW1  136   1.454   0.983   0.277
   34SOL    HW2  137   1.604   0.971   0.214
   35SOL     OW  138   1.249   1.847   1.641
   35SOL    HW1  139   1.225   1.909   1.567
   35SOL    HW2  140   1.248   1.753   1.608
   36SOL     OW  141   0.337   0.354   1.726
   36SOL    HW1  142   0.431   0.379   1.706
   36SOL    HW2  143   0.333   0.304   1.813
   37SOL     OW  144   1.450   1.420   0.925
   37SOL    HW1  145   1.397   1.447   1.005
   37SOL    HW2  146   1.436   1.323   0.906
   38SOL     OW  147   1.639   1.852   0.552
   38SOL    HW1  148   1.629   1.786   0.478
   38SOL    HW2  149   1.656   1.803   0.638
   39SOL     OW  150   0.591   0.714   0.293
   39SOL    HW1  151   0.590   0.808   0.259
   39SOL    HW2  152   0.526   0.705   0.369
   40SOL     OW  153   1.277   0.390   0.942
   40SOL    HW1  154   1.182   0.359   0.941
   40SOL    HW2  155   1.332   0.326   0.995
   41SOL     OW  156   1.599   1.673   0.349
   41SOL    HW1  157   1.698   1.684   0.335
   41SOL    HW2  158   1.554   1.662   0.261
   42SOL     OW  159   0.787   0.590   1.448
   42SOL    HW1  160   0.745   0.566   1.535
   42SOL    HW2  161   0.757   0.525   1.378
   43SOL     OW  162   1.394   0.437   1.670
   43SOL    HW1  163   1.390   0.494   1.752
   43SOL    HW2  164   1.443   0.352   1.690
   44SOL     OW  165   0.945   0.883   1.573
   44SOL    HW1  166   1.000   0.816   1.524
   44SOL    HW2  167   0.894   0.939   1.507
   45SOL     OW  168   1.000   0.407   1.195
   45SOL    HW1  169   0.904   0.421   1.221
   45SOL    HW2  170   1.004   0.365   1.104
   46SOL     OW  171   1.044   0.714   0.431
   46SOL    HW1  172   1.058   0.710   0.530
   46SOL    HW2  173   0.960   0.665   0.407
   47SOL     OW  174   0.109   0.870   0.747
   47SOL    HW1  175   0.180   0.830   0.806
   47SOL    HW2  176   0.108   0.969   0.760
   48SOL     OW  177   0.120   1.878   1.575
   48SOL    HW1  178   0.132   1.844   1.668
   48SOL    HW2  179   0.043   1.830   1.532
   49SOL     OW  180   0.871   0.349   0.202
   49SOL    HW1  181   0.934   0.408   0.152
   49SOL    HW2  182   0.863   0.261   0.154
   50SOL     OW  183   1.662   0.579   1.846
   50SOL    HW1  184   1.649   0.662   1.792
   50SOL    HW2  185   1.691   0.504   1.787
   51SOL     OW  186   1.371   1.184   0.607
   51SOL    HW1  187   1.458   1.171   0.560
   51SOL    HW2  188   1.315   1.249   0.555
   52SOL     OW  189   0.553   0.218   0.926
   52SOL    HW1  190   0.561   0.214   1.026
   52SOL    HW2  191   0.551   0.313   0.897
   53SOL     OW  192   0.977   1.467   0.479
   53SOL    HW1  193   0.960   1.542   0.415
   53SOL    HW2  194   0.937   1.489   0.568
   54SOL     OW  195   0.372   1.797   0.880
   54SOL    HW1  196   0.404   1.702   0.893
   54SOL    HW2  197   0.443   1.860   0.912
   55SOL     OW  198   1.797   1.049   0.899
   55SOL    HW1  199   1.753   1.023   0.812
   55SOL    HW2  200   1.727   1.059   0.969
   56SOL     OW  201   1.202   1.566   1.533
   56SOL    HW1  202   1.189   1.480   1.582
   56SOL    HW2  203   1.113   1.600   1.502
   57SOL     OW  204   0.292   0.980   0.312
   57SOL    HW1  205   0.381   0.980   0.268
   57SOL    HW2  206   0.265   0.886   0.334
   58SOL     OW  207   1.466   0.783   0.738
   58SOL    HW1  208   1.470   0.731   0.824
   58SOL    HW2  209   1.547   0.842   0.731
   59SOL     OW  210   0.488   1.289   1.753
   59SOL    HW1  211   0.476   1.285   1.654
   59SOL    HW2  212   0.398   1.293   1.797
   60SOL     OW  213   1.100   1.776   0.153
   60SOL    HW1  214   1.038   1.738   0.221
   60SOL    HW2  215   1.152   1.702   0.110
   61SOL     OW  216   0.238   0.327   1.467
   61SOL    HW1  217   0.176   0.404   1.450
   61SOL    HW2  218   0.252   0.317   1.566
   62SOL     OW  219   1.660   1.375   0.179
   62SOL    HW1  220   1.631   1.470   0.174
   62SOL    HW2  221   1.586   1.315   0.149
   63SOL     OW  222   0.526   1.688   0.367
   63SOL    HW1  223   0.546   1.778   0.406
   63SOL    HW2  224   0.577   1.677   0.282
   64SOL     OW  225   1.468   0.154   0.442
   64SOL    HW1  226   1.462   0.122   0.347
   64SOL    HW2  227   1.564   0.164   0.467
   65SOL     OW  228   0.276   1.793   1.227
   65SOL    HW1  229   0.330   1.716   1.262
   65SOL    HW2  230   0.182   1.763   1.214
   66SOL     OW  231   0.959   1.688   0.896
   66SOL    HW1  232   1.050   1.649   0.913
   66SOL    HW2  233   0.912   1.634   0.826
   67SOL     OW  234   0.406   0.669   0.484
   67SOL    HW1  235   0.420   0.572   0.503
   67SOL    HW2  236   0.310   0.693   0.499
   68SOL     OW  237   1.527   0.199   1.745
   68SOL    HW1  238   1.523   0.232   1.839
   68SOL    HW2  239   1.530   0.099   1.745
   69SOL     OW  240   0.585   0.110   0.113
   69SOL    HW1  241   0.661   0.059   0.155
   69SOL    HW2  242   0.622   0.176   0.047
   70SOL     OW  243   0.729   0.288   1.722
   70SOL    HW1  244   0.817   0.240   1.720
   70SOL    HW2  245   0.677   0.259   1.802
   71SOL     OW  246   0.866   1.506   1.178
   71SOL    HW1  247   0.842   1.458   1.094
   71SOL    HW2  248   0.930   1.451   1.231
   72SOL     OW  249   1.308   0.580   1.446
   72SOL    HW1  250   1.349   0.541   1.528
   72SOL    HW2  251   1.347   0.671   1.430
   73SOL     OW  252   0.806   1.357   0.947
   73SOL    HW1  253   0.900   1.359   0.911
   73SOL    HW2  254   0.742   1.368   0.872
   74SOL     OW  255   0.914   0.515   0.884
   74SOL    HW1  256   0.891   0.512   0.786
   74SOL    HW2  257   0.942   0.424   0.914
   75SOL     OW  258   0.536   0.062   0.492
   75SOL    HW1  259   0.493   0.083   0.580
   75SOL    HW2  260   0.515   0.135   0.427
   76SOL     OW  261   1.429   1.246   0.095
   76SOL    HW1  262   1.462   1.161   0.137
   76SOL    HW2  263   1.342   1.273   0.137
   77SOL     OW  264   0.326   0.017   0.097
   77SOL    HW1  265   0.423   0.040   0.103
   77SOL    HW2  266   0.309   4.931   0.144
   78SOL     OW  267   0.953   0.279   0.455
   78SOL    HW1  268   0.923   0.306   0.363
   78SOL    HW2  269   1.053   0.280   0.459
   79SOL     OW  270   1.051   0.686   1.421
   79SOL    HW1  271   0.974   0.623   1.435
   79SOL    HW2  272   1.137   0.635   1.429
   80SOL     OW  273   1.219   1.570   0.807
   80SOL    HW1  274   1.230   1.646   0.744
   80SOL    HW2  275   1.309   1.538   0.838
   81SOL     OW  276   0.467   1.146   0.758
   81SOL    HW1  277   0.394   1.127   0.823
   81SOL    HW2  278   0.429   1.146   0.665
   82SOL     OW  279   1.241   1.788   0.634
   82SOL    HW1  280   1.292   1.852   0.577
   82SOL    HW2  281   1.160   1.834   0.672
   83SOL     OW  282   1.063   0.491   0.077
   83SOL    HW1  283   1.041   0.566   0.015
   83SOL    HW2  284   1.124   0.525   0.149
   84SOL     OW  285   0.121   0.574   1.395
   84SOL    HW1  286   0.207   0.575   1.345
   84SOL    HW2  287   0.124   0.641   1.469
   85SOL     OW  288   0.557   0.216   1.205
   85SOL    HW1  289   0.608   0.193   1.288
   85SOL    HW2  290   0.461   0.192   1.217
   86SOL     OW  291   0.864   0.483   0.622
   86SOL    HW1  292   0.815   0.541   0.557
   86SOL    HW2  293   0.898   0.401   0.575
   87SOL     OW  294   0.965   0.053   0.771
   87SOL    HW1  295   0.910   0.057   0.688
   87SOL    HW2  296   1.034   4.982   0.763
   88SOL     OW  297   1.407   1.148   0.880
   88SOL    HW1  298   1.343   1.077   0.909
   88SOL    HW2  299   1.399   1.162   0.782
   89SOL     OW  300   1.448   0.616   0.961
   89SOL    HW1  301   1.382   0.541   0.966
   89SOL    HW2  302   1.512   0.609   1.038
   90SOL     OW  303   1.748   0.786   0.456
   90SOL    HW1  304   1.835   0.745   0.485
   90SOL    HW2  305   1.760   0.826   0.365
   91SOL     OW  306   0.511   1.440   0.086
   91SOL    HW1  307   0.441   1.411   0.152
   91SOL    HW2  308   0.473   1.440   4.994
   92SOL     OW  309   1.773   1.329   0.581
   92SOL    HW1  310   1.858   1.305   0.627
   92SOL    HW2  311   1.725   1.399   0.633
   93SOL     OW  312   1.368   0.591   0.084
   93SOL    HW1  313   1.325   0.581   0.173
   93SOL    HW2  314   1.408   0.504   0.055
   94SOL     OW  315   0.478   0.265   0.310
   94SOL    HW1  316   0.513   0.202   0.241
   94SOL    HW2  317   0.469   0.357   0.271
   95SOL     OW  318   1.741   1.235   1.530
   95SOL    HW1  319   1.832   1.197   1.510
   95SOL    HW2  320   1.751   1.326   1.569
   96SOL     OW  321   1.017   1.331   1.335
   96SOL    HW1  322   0.934   1.314   1.388
   96SOL    HW2  323   1.096   1.298   1.385
   97SOL     OW  324   1.621   1.645   1.673
   97SOL    HW1  325   1.599   1.684   1.584
   97SOL    HW2  326   1.698   1.581   1.664
   98SOL     OW  327   1.150   1.253   1.110
   98SOL    HW1  328   1.088   1.278   1.185
   98SOL    HW2  329   1.112   1.284   1.023
   99SOL     OW  330   1.597   1.099   1.084
   99SOL    HW1  331   1.590   1.166   1.158
   99SOL    HW2  332   1.526   1.117   1.016
  100SOL     OW  333   0.911   0.039   1.379
  100SOL    HW1  334   0.934   0.039   1.282
  100SOL    HW2  335   0.987   0.078   1.431
  101SOL     OW  336   0.966   1.112   1.723
  101SOL    HW1  337   0.872   1.128   1.755
  101SOL    HW2  338   0.967   1.031   1.664
  102SOL     OW  339   0.714   1.053   0.415
  102SOL    HW1  340   0.696   1.026   0.510
  102SOL    HW2  341   0.800   1.011   0.385
  103SOL     OW  342   0.440   0.830   1.252
  103SOL    HW1  343   0.510   0.839   1.322
  103SOL    HW2  344   0.400   0.738   1.255
  104SOL     OW  345   1.247   0.364   1.293
  104SOL    HW1  346   1.278   0.442   1.347
  104SOL    HW2  347   1.156   0.384   1.256
  105SOL     OW  348   0.088   1.576   1.321
  105SOL    HW1  349   0.035   1.581   1.406
  105SOL    HW2  350   0.185   1.565   1.342
  106SOL     OW  351   0.348   1.156   0.518
  106SOL    HW1  352   0.314   1.247   0.495
  106SOL    HW2  353   0.324   1.093   0.444
  107SOL     OW  354   0.535   0.496   0.874
  107SOL    HW1  355   0.541   0.544   0.787
  107SOL    HW2  356   0.598   0.538   0.940
  108SOL     OW  357   1.236   1.377   0.461
  108SOL    HW1  358   1.300   1.450   0.487
  108SOL    HW2  359   1.143   1.407   0.480
  109SOL     OW  360   1.310   1.476   1.148
  109SOL    HW1  361   1.353   1.486   1.238
  109SOL    HW2  362   1.253   1.394   1.148
  110SOL     OW  363   1.556   0.610   0.536
  110SOL    HW1  364   1.488   0.661   0.589
  110SOL    HW2  365   1.623   0.674   0.499
  111SOL     OW  366   0.365   1.534   1.318
  111SOL    HW1  367   0.349   1.477   1.237
  111SOL    HW2  368   0.462   1.556   1.324
  112SOL     OW  369   0.481   0.737   1.643
  112SOL    HW1  370   0.525   0.782   1.565
  112SOL    HW2  371   0.542   0.665   1.677
  113SOL     OW  372   1.624   0.802   1.697
  113SOL    HW1  373   1.530   0.837   1.692
  113SOL    HW2  374   1.676   0.837   1.619
  114SOL     OW  375   0.948   0.136   1.747
  114SOL    HW1  376   1.033   0.187   1.733
  114SOL    HW2  377   0.967   0.038   1.743
  115SOL     OW  378   0.495   0.033   1.788
  115SOL    HW1  379   0.452   0.029   1.697
  115SOL    HW2  380   0.428   0.009   1.857
  116SOL     OW  381   0.581   0.881   1.024
  116SOL    HW1  382   0.626   0.970   1.027
  116SOL    HW2  383   0.526   0.868   1.106
  117SOL     OW  384   1.283   0.849   1.007
  117SOL    HW1  385   1.190   0.820   0.984
  117SOL    HW2  386   1.346   0.773   0.993
  118SOL     OW  387   1.213   0.543   0.303
  118SOL    HW1  388   1.236   0.468   0.365
  118SOL    HW2  389   1.159   0.611   0.352
  119SOL     OW  390   0.287   0.166   1.255
  119SOL    HW1  391   0.268   0.227   1.332
  119SOL    HW2  392   0.214   0.098   1.247
  120SOL     OW  393   4.998   1.307   1.340
  120SOL    HW1  394   0.057   1.256   1.402
  120SOL    HW2  395   0.032   1.401   1.332
  121SOL     OW  396   0.709   0.634   1.035
  121SOL    HW1  397   0.782   0.612   0.971
  121SOL    HW2  398   0.672   0.725   1.015
  122SOL     OW  399   1.763   0.975   1.863
  122SOL    HW1  400   1.715   0.906   1.811
  122SOL    HW2  401   1.707   1.005   1.940
  123SOL     OW  402   0.407   0.115   0.719
  123SOL    HW1  403   0.328   0.177   0.715
  123SOL    HW2  404   0.463   0.138   0.799
  124SOL     OW  405   1.705   0.446   0.369
  124SOL    HW1  406   1.714   0.355   0.409
  124SOL    HW2  407   1.638   0.499   0.422
  125SOL     OW  408   1.022   0.752   0.958
  125SOL    HW1  409   0.996   0.773   1.052
  125SOL    HW2  410   0.990   0.660   0.935
  126SOL     OW  411   0.986   1.567   1.759
  126SOL    HW1  412   0.959   1.614   1.674
  126SOL    HW2  413   1.022   1.476   1.736
  127SOL     OW  414   1.838   1.488   1.599
  127SOL    HW1  415   1.859   1.517   1.506
  127SOL    HW2  416   1.919   1.500   1.657
  128SOL     OW  417   0.399   0.927   1.827
  128SOL    HW1  418   0.471   0.953   1.891
  128SOL    HW2  419   0.433   0.858   1.764
  129SOL     OW  420   1.472   0.337   0.051
  129SOL    HW1  421   1.467   0.258   0.112
  129SOL    HW2  422   1.565   0.375   0.052
  130SOL     OW  423   1.268   0.842   0.065
  130SOL    HW1  424   1.310   0.752   0.059
  130SOL    HW2  425   1.306   0.902   4.996
  131SOL     OW  426   1.063   1.354   0.868
  131SOL    HW1  427   1.075   1.274   0.810
  131SOL    HW2  428   1.120   1.429   0.834
  132SOL     OW  429   0.320   0.811   0.918
  132SOL    HW1  430   0.417   0.830   0.926
  132SOL    HW2  431   0.300   0.722   0.962
  133SOL     OW  432   0.297   0.503   1.007
  133SOL    HW1  433   0.251   0.415   0.997
  133SOL    HW2  434   0.379   0.504   0.950
  134SOL     OW  435   1.146   0.321   1.697
  134SOL    HW1  436   1.096   0.379   1.762
  134SOL    HW2  437   1.235   0.361   1.678
  135SOL     OW  438   1.153   0.164   1.461
  135SOL    HW1  439   1.146   0.209   1.550
  135SOL    HW2  440   1.187   0.230   1.394
  136SOL     OW  441   4.934   1.343   0.114
  136SOL    HW1  442   4.836   1.324   0.115
  136SOL    HW2  443   4.982   1.274   0.168
  137SOL     OW  444   0.106   1.833   0.929
  137SOL    HW1  445   0.062   1.827   0.840
  137SOL    HW2  446   0.203   1.813   0.920
  138SOL     OW  447   0.487   1.544   0.912
  138SOL    HW1  448   0.560   1.606   0.940
  138SOL    HW2  449   0.522   1.479   0.845
  139SOL     OW  450   0.923   0.797   1.204
  139SOL    HW1  451   0.980   0.767   1.281
  139SOL    HW2  452   0.835   0.750   1.207
  140SOL     OW  453   0.070   0.634   1.117
  140SOL    HW1  454   0.142   0.582   1.072
  140SOL    HW2  455   0.064   0.607   1.213
  141SOL     OW  456   0.120   0.516   1.749
  141SOL    HW1  457   0.200   0.457   1.742
  141SOL    HW2  458   0.135   0.600   1.697
  142SOL     OW  459   1.385   0.925   1.642
  142SOL    HW1  460   1.406   1.023   1.638
  142SOL    HW2  461   1.375   0.890   1.549
  143SOL     OW  462   0.819   0.580   0.355
  143SOL    HW1  463   0.822   0.496   0.301
  143SOL    HW2  464   0.738   0.632   0.331
  144SOL     OW  465   1.637   0.604   1.163
  144SOL    HW1  466   1.622   0.540   1.238
  144SOL    HW2  467   1.734   0.606   1.138
  145SOL     OW  468   0.316   1.571   1.699
  145SOL    HW1  469   0.259   1.639   1.745
  145SOL    HW2  470   0.302   1.482   1.742
  146SOL     OW  471   0.728   0.440   1.224
  146SOL    HW1  472   0.662   0.366   1.212
  146SOL    HW2  473   0.712   0.511   1.155
  147SOL     OW  474   0.935   1.673   1.503
  147SOL    HW1  475   0.869   1.616   1.454
  147SOL    HW2  476   0.937   1.765   1.462
  148SOL     OW  477   0.466   0.504   0.172
  148SOL    HW1  478   0.524   0.575   0.213
  148SOL    HW2  479   0.374   0.542   0.156
  149SOL     OW  480   0.176   1.151   1.481
  149SOL    HW1  481   0.167   1.094   1.563
  149SOL    HW2  482   0.191   1.092   1.402
  150SOL     OW  483   1.275   1.030   1.211
  150SOL    HW1  484   1.282   0.961   1.140
  150SOL    HW2  485   1.231   1.112   1.174
  151SOL     OW  486   1.318   0.890   0.331
  151SOL    HW1  487   1.249   0.857   0.396
  151SOL    HW2  488   1.290   0.864   0.238
  152SOL     OW  489   1.771   1.718   1.165
  152SOL    HW1  490   1.840   1.740   1.096
  152SOL    HW2  491   1.731   1.629   1.145
  153SOL     OW  492   1.261   1.745   1.101
  153SOL    HW1  493   1.352   1.778   1.074
  153SOL    HW2  494   1.266   1.647   1.120
  154SOL     OW  495   0.095   1.246   1.077
  154SOL    HW1  496   0.092   1.245   1.177
  154SOL    HW2  497   0.002   1.236   1.040
  155SOL     OW  498   0.692   1.731   1.766
  155SOL    HW1  499   0.621   1.800   1.749
  155SOL    HW2  500   0.778   1.762   1.727
  156SOL     OW  501   0.948   0.118   0.062
  156SOL    HW1  502   0.973   0.069   4.979
  156SOL    HW2  503   1.032   0.144   0.111
  157SOL     OW  504   1.769   0.197   0.491
  157SOL    HW1  505   1.832   0.201   0.414
  157SOL    HW2  506   1.794   0.121   0.551
  158SOL     OW  507   1.411   1.583   0.534
  158SOL    HW1  508   1.472   1.614   0.460
  158SOL    HW2  509   1.350   1.658   0.560
  159SOL     OW  510   0.163   1.765   1.819
  159SOL    HW1  511   0.096   1.703   1.860
  159SOL    HW2  512   0.227   1.797   1.889
  160SOL     OW  513   1.265   0.938   0.648
  160SOL    HW1  514   1.341   0.880   0.679
  160SOL    HW2  515   1.301   1.025   0.615
  161SOL     OW  516   0.763   1.295   1.442
  161SOL    HW1  517   0.741   1.354   1.520
  161SOL    HW2  518   0.688   1.298   1.376
  162SOL     OW  519   0.682   1.643   0.148
  162SOL    HW1  520   0.680   1.708   0.072
  162SOL    HW2  521   0.628   1.562   0.125
  163SOL     OW  522   1.604   1.734   1.402
  163SOL    HW1  523   1.660   1.727   1.319
  163SOL    HW2  524   1.586   1.831   1.422
  164SOL     OW  525   1.865   0.127   0.978
  164SOL    HW1  526   1.882   0.029   0.992
  164SOL    HW2  527   1.773   0.140   0.943
  165SOL     OW  528   0.218   0.317   0.719
  165SOL    HW1  529   0.141   0.370   0.685
  165SOL    HW2  530   0.206   0.299   0.817
  166SOL     OW  531   1.246   1.567   0.048
  166SOL    HW1  532   1.225   1.493   0.112
  166SOL    HW2  533   1.271   1.528   4.959
  167SOL     OW  534   0.814   1.030   1.386
  167SOL    HW1  535   0.850   1.025   1.293
  167SOL    HW2  536   0.796   1.126   1.410
  168SOL     OW  537   0.943   0.947   0.321
  168SOL    HW1  538   0.984   0.963   0.231
  168SOL    HW2  539   0.985   0.866   0.362
  169SOL     OW  540   1.524   1.609   0.087
  169SOL    HW1  541   1.425   1.617   0.084
  169SOL    HW2  542   1.557   1.566   0.003
  170SOL     OW  543   0.401   1.310   1.499
  170SOL    HW1  544   0.387   1.394   1.447
  170SOL    HW2  545   0.321   1.251   1.489
  171SOL     OW  546   1.586   1.292   1.295
  171SOL    HW1  547   1.648   1.264   1.369
  171SOL    HW2  548   1.520   1.358   1.331
  172SOL     OW  549   1.071   1.115   0.745
  172SOL    HW1  550   0.993   1.066   0.784
  172SOL    HW2  551   1.134   1.050   0.703
  173SOL     OW  552   1.019   0.257   0.960
  173SOL    HW1  553   1.002   0.211   0.873
  173SOL    HW2  554   1.017   0.190   1.034
  174SOL     OW  555   0.618   1.453   0.478
  174SOL    HW1  556   0.668   1.402   0.408
  174SOL    HW2  557   0.576   1.534   0.437
  175SOL     OW  558   1.758   0.396   1.406
  175SOL    HW1  559   1.834   0.461   1.402
  175SOL    HW2  560   1.770   0.326   1.334
  176SOL     OW  561   0.289   1.372   0.243
  176SOL    HW1  562   0.227   1.296   0.227
  176SOL    HW2  563   0.286   1.398   0.339
  177SOL     OW  564   0.161   0.988   1.709
  177SOL    HW1  565   0.089   0.993   1.778
  177SOL    HW2  566   0.250   0.978   1.754
  178SOL     OW  567   0.685   0.193   1.455
  178SOL    HW1  568   0.762   0.136   1.428
  178SOL    HW2  569   0.696   0.221   1.550
  179SOL     OW  570   4.976   0.336   4.968
  179SOL    HW1  571   4.899   0.391   0.001
  179SOL    HW2  572   0.050   0.396   4.938
  180SOL     OW  573   1.393   0.842   1.382
  180SOL    HW1  574   1.331   0.902   1.330
  180SOL    HW2  575   1.485   0.848   1.343
  181SOL     OW  576   0.041   0.331   0.362
  181SOL    HW1  577   4.987   0.249   0.343
  181SOL    HW2  578   0.136   0.316   0.335
  182SOL     OW  579   1.187   1.341   0.191
  182SOL    HW1  580   1.091   1.326   0.170
  182SOL    HW2  581   1.200   1.343   0.290
  183SOL     OW  582   0.641   0.824   1.434
  183SOL    HW1  583   0.697   0.906   1.423
  183SOL    HW2  584   0.699   0.743   1.439
  184SOL     OW  585   1.517   1.827   1.041
  184SOL    HW1  586   1.542   1.890   0.967
  184SOL    HW2  587   1.599   1.783   1.077
  185SOL     OW  588   0.690   0.561   1.709
  185SOL    HW1  589   0.761   0.614   1.756
  185SOL    HW2  590   0.710   0.463   1.718
  186SOL     OW  591   1.467   1.187   1.623
  186SOL    HW1  592   1.455   1.208   1.720
  186SOL    HW2  593   1.560   1.210   1.595
  187SOL     OW  594   0.383   1.788   1.550
  187SOL    HW1  595   0.291   1.827   1.537
  187SOL    HW2  596   0.375   1.698   1.592
  188SOL     OW  597   1.633   0.875   1.249
  188SOL    HW1  598   1.639   0.787   1.202
  188SOL    HW2  599   1.622   0.948   1.182
  189SOL     OW  600   1.238   0.307   0.455
  189SOL    HW1  601   1.320   0.250   0.456
  189SOL    HW2  602   1.234   0.361   0.539
  190SOL     OW  603   0.582   0.711   0.693
  190SOL    HW1  604   0.621   0.803   0.692
  190SOL    HW2  605   0.517   0.701   0.619
  191SOL     OW  606   1.741   0.369   1.685
  191SOL    HW1  607   1.744   0.383   1.586
  191SOL    HW2  608   1.674   0.299   1.708
  192SOL     OW  609   1.746   0.932   1.491
  192SOL    HW1  610   1.731   1.029   1.511
  192SOL    HW2  611   1.711   0.912   1.400
  193SOL     OW  612   0.919   1.326   0.078
  193SOL    HW1  613   0.875   1.306   0.165
  193SOL    HW2  614   0.864   1.392   0.027
  194SOL     OW  615   0.680   1.733   0.942
  194SOL    HW1  616   0.657   1.830   0.934
  194SOL    HW2  617   0.779   1.722   0.943
  195SOL     OW  618   0.872   0.977   0.877
  195SOL    HW1  619   0.923   0.897   0.907
  195SOL    HW2  620   0.827   1.019   0.956
  196SOL     OW  621   1.035   0.978   0.053
  196SOL    HW1  622   1.052   1.063   0.003
  196SOL    HW2  623   1.121   0.928   0.065
  197SOL     OW  624   1.860   1.527   0.855
  197SOL    HW1  625   1.773   1.524   0.806
  197SOL    HW2  626   1.880   1.437   0.893
  198SOL     OW  627   0.242   1.346   1.856
  198SOL    HW1  628   0.145   1.347   1.831
  198SOL    HW2  629   0.250   1.349   1.955
  199SOL     OW  630   0.122   1.308   0.730
  199SOL    HW1  631   0.160   1.238   0.789
  199SOL    HW2  632   0.052   1.267   0.671
  200SOL     OW  633   0.688   1.464   1.651
  200SOL    HW1  634   0.608   1.416   1.687
  200SOL    HW2  635   0.690   1.558   1.687
  201SOL     OW  636   1.772   0.192   1.229
  201SOL    HW1  637   1.707   0.117   1.241
  201SOL    HW2  638   1.813   0.186   1.138
  202SOL     OW  639   0.420   0.410   0.543
  202SOL    HW1  640   0.442   0.343   0.472
  202SOL    HW2  641   0.356   0.370   0.609
  203SOL     OW  642   1.658   1.483   1.107
  203SOL    HW1  643   1.593   1.466   1.032
  203SOL    HW2  644   1.649   1.411   1.176
  204SOL     OW  645   0.360   0.570   1.268
  204SOL    HW1  646   0.425   0.515   1.321
  204SOL    HW2  647   0.352   0.533   1.176
  205SOL     OW  648   0.823   1.572   0.688
  205SOL    HW1  649   0.786   1.648   0.635
  205SOL    HW2  650   0.752   1.505   0.705
  206SOL     OW  651   1.400   0.217   1.118
  206SOL    HW1  652   1.395   0.122   1.150
  206SOL    HW2  653   1.355   0.276   1.186
  207SOL     OW  654   1.000   0.024   1.119
  207SOL    HW1  655   0.924   4.987   1.065
  207SOL    HW2  656   1.084   4.975   1.095
  208SOL     OW  657   0.806   1.300   0.328
  208SOL    HW1  658   0.773   1.212   0.362
  208SOL    HW2  659   0.873   1.338   0.392
  209SOL     OW  660   0.633   1.588   1.287
  209SOL    HW1  661   0.626   1.684   1.314
  209SOL    HW2  662   0.721   1.571   1.243
  210SOL     OW  663   1.404   0.080   0.176
  210SOL    HW1  664   1.396   4.981   0.181
  210SOL    HW2  665   1.313   0.121   0.169
  211SOL     OW  666   1.230   0.465   0.673
  211SOL    HW1  667   1.186   0.555   0.678
  211SOL    HW2  668   1.260   0.438   0.765
  212SOL     OW  669   1.610   0.211   0.917
  212SOL    HW1  670   1.538   0.211   0.986
  212SOL    HW2  671   1.600   0.292   0.859
  213SOL     OW  672   0.092   1.176   0.269
  213SOL    HW1  673   0.147   1.093   0.277
  213SOL    HW2  674   0.043   1.192   0.355
  214SOL     OW  675   0.900   1.682   0.324
  214SOL    HW1  676   0.822   1.666   0.263
  214SOL    HW2  677   0.876   1.753   0.390
  215SOL     OW  678   0.173   0.651   2.007
  215SOL    HW1  679   0.087   0.639   2.057
  215SOL    HW2  680   0.159   0.627   1.911
  216SOL     OW  681   0.210   0.235   2.849
  216SOL    HW1  682   0.259   0.220   2.935
  216SOL    HW2  683   0.141   0.164   2.837
  217SOL     OW  684   0.012   0.434   2.466
  217SOL    HW1  685   4.929   0.464   2.513
  217SOL    HW2  686   4.988   0.366   2.397
  218SOL     OW  687   0.591   1.322   3.089
  218SOL    HW1  688   0.501   1.315   3.046
  218SOL    HW2  689   0.612   1.419   3.105
  219SOL     OW  690   1.592   1.521   2.563
  219SOL    HW1  691   1.543   1.485   2.642
  219SOL    HW2  692   1.528   1.535   2.487
  220SOL     OW  693   1.139   0.712   2.534
  220SOL    HW1  694   1.188   0.796   2.514
  220SOL    HW2  695   1.089   0.722   2.620
  221SOL     OW  696   1.803   0.575   2.076
  221SOL    HW1  697   1.756   0.584   1.988
  221SOL    HW2  698   1.758   0.506   2.132
  222SOL     OW  699   0.726   1.133   2.924
  222SOL    HW1  700   0.671   1.168   3.000
  222SOL    HW2  701   0.762   1.209   2.871
  223SOL     OW  702   0.904   0.721   3.661
  223SOL    HW1  703   0.931   0.784   3.733
  223SOL    HW2  704   0.910   0.768   3.572
  224SOL     OW  705   0.685   0.975   2.534
  224SOL    HW1  706   0.761   0.982   2.599
  224SOL    HW2  707   0.610   1.032   2.564
  225SOL     OW  708   0.721   1.157   3.710
  225SOL    HW1  709   0.780   1.226   3.750
  225SOL    HW2  710   0.643   1.201   3.664
  226SOL     OW  711   0.348   1.380   2.958
  226SOL    HW1  712   0.265   1.333   2.927
  226SOL    HW2  713   0.385   1.436   2.884
  227SOL     OW  714   1.444   1.512   3.239
  227SOL    HW1  715   1.502   1.592   3.252
  227SOL    HW2  716   1.364   1.517   3.300
  228SOL     OW  717   0.499   0.410   3.304
  228SOL    HW1  718   0.568   0.338   3.308
  228SOL    HW2  719   0.408   0.371   3.319
  229SOL     OW  720   1.587   0.441   2.616
  229SOL    HW1  721   1.515   0.443   2.547
  229SOL    HW2  722   1.569   0.511   2.685
  230SOL     OW  723   0.244   1.697   2.364
  230SOL    HW1  724   0.260   1.777   2.422
  230SOL    HW2  725   0.319   1.688   2.298
  231SOL     OW  726   1.130   1.334   3.563
  231SOL    HW1  727   1.191   1.322   3.642
  231SOL    HW2  728   1.071   1.254   3.554
  232SOL     OW  729   0.155   1.442   2.345
  232SOL    HW1  730   0.180   1.538   2.358
  232SOL    HW2  731   0.161   1.394   2.433
  233SOL     OW  732   0.252   1.076   2.757
  233SOL    HW1  733   0.269   0.981   2.782
  233SOL    HW2  734   0.199   1.120   2.829
  234SOL     OW  735   0.584   1.850   3.239
  234SOL    HW1  736   0.505   1.820   3.292
  234SOL    HW2  737   0.632   1.923   3.289
  235SOL     OW  738   0.582   0.995   2.035
  235SOL    HW1  739   0.634   1.044   1.965
  235SOL    HW2  740   0.619   1.020   2.125
  236SOL     OW  741   1.618   0.154   3.350
  236SOL    HW1  742   1.648   0.240   3.307
  236SOL    HW2  743   1.561   0.175   3.430
  237SOL     OW  744   0.142   0.680   2.392
  237SOL    HW1  745   0.098   0.593   2.415
  237SOL    HW2  746   0.126   0.746   2.465
  238SOL     OW  747   1.858   1.754   2.181
  238SOL    HW1  748   1.935   1.742   2.244
  238SOL    HW2  749   1.859   1.847   2.145
  239SOL     OW  750   5.000   1.589   1.940
  239SOL    HW1  751   4.985   1.492   1.957
  239SOL    HW2  752   4.947   1.643   2.005
  240SOL     OW  753   1.702   0.935   2.533
  240SOL    HW1  754   1.794   0.897   2.539
  240SOL    HW2  755   1.692   0.986   2.447
  241SOL     OW  756   1.676   1.114   2.309
  241SOL    HW1  757   1.759   1.092   2.257
  241SOL    HW2  758   1.697   1.184   2.377
  242SOL     OW  759   0.202   0.735   3.469
  242SOL    HW1  760   0.302   0.729   3.472
  242SOL    HW2  761   0.174   0.829   3.491
  243SOL     OW  762   0.605   1.372   2.612
  243SOL    HW1  763   0.559   1.284   2.607
  243SOL    HW2  764   0.607   1.413   2.521
  244SOL     OW  765   1.257   1.214   3.280
  244SOL    HW1  766   1.276   1.141   3.214
  244SOL    HW2  767   1.326   1.212   3.353
  245SOL     OW  768   0.817   0.077   2.399
  245SOL    HW1  769   0.864   0.154   2.356
  245SOL    HW2  770   0.724   0.071   2.363
  246SOL     OW  771   0.220   0.996   3.121
  246SOL    HW1  772   0.303   0.940   3.112
  246SOL    HW2  773   0.152   0.967   3.054
  247SOL     OW  774   1.555   1.040   2.066
  247SOL    HW1  775   1.480   0.977   2.086
  247SOL    HW2  776   1.597   1.071   2.151
  248SOL     OW  777   1.194   1.819   3.494
  248SOL    HW1  778   1.192   1.888   3.423
  248SOL    HW2  779   1.200   1.728   3.453
  249SOL     OW  780   0.335   0.356   3.585
  249SOL    HW1  781   0.430   0.382   3.566
  249SOL    HW2  782   0.330   0.307   3.672
  250SOL     OW  783   1.473   1.409   2.783
  250SOL    HW1  784   1.407   1.442   2.851
  250SOL    HW2  785   1.450   1.316   2.757
  251SOL     OW  786   1.629   1.837   2.403
  251SOL    HW1  787   1.621   1.776   2.324
  251SOL    HW2  788   1.635   1.782   2.486
  252SOL     OW  789   0.582   0.721   2.128
  252SOL    HW1  790   0.592   0.814   2.091
  252SOL    HW2  791   0.524   0.724   2.209
  253SOL     OW  792   1.281   0.392   2.796
  253SOL    HW1  793   1.186   0.364   2.795
  253SOL    HW2  794   1.335   0.329   2.852
  254SOL     OW  795   1.595   1.673   2.181
  254SOL    HW1  796   1.693   1.690   2.175
  254SOL    HW2  797   1.557   1.660   2.089
  255SOL     OW  798   0.789   0.590   3.306
  255SOL    HW1  799   0.747   0.567   3.393
  255SOL    HW2  800   0.758   0.526   3.236
  256SOL     OW  801   1.392   0.437   3.532
  256SOL    HW1  802   1.389   0.493   3.614
  256SOL    HW2  803   1.441   0.352   3.551
  257SOL     OW  804   0.944   0.880   3.433
  257SOL    HW1  805   0.999   0.813   3.383
  257SOL    HW2  806   0.892   0.936   3.368
  258SOL     OW  807   1.000   0.411   3.052
  258SOL    HW1  808   0.904   0.423   3.078
  258SOL    HW2  809   1.004   0.372   2.960
  259SOL     OW  810   1.051   0.689   2.270
  259SOL    HW1  811   1.074   0.687   2.367
  259SOL    HW2  812   0.962   0.647   2.256
  260SOL     OW  813   0.109   0.852   2.606
  260SOL    HW1  814   0.184   0.816   2.662
  260SOL    HW2  815   0.097   0.949   2.625
  261SOL     OW  816   0.122   1.865   3.459
  261SOL    HW1  817   0.134   1.833   3.553
  261SOL    HW2  818   0.050   1.811   3.414
  262SOL     OW  819   0.855   0.355   2.048
  262SOL    HW1  820   0.918   0.394   1.980
  262SOL    HW2  821   0.792   0.292   2.002
  263SOL     OW  822   1.662   0.577   3.706
  263SOL    HW1  823   1.648   0.659   3.650
  263SOL    HW2  824   1.691   0.502   3.647
  264SOL     OW  825   1.410   1.167   2.417
  264SOL    HW1  826   1.497   1.153   2.370
  264SOL    HW2  827   1.354   1.231   2.364
  265SOL     OW  828   0.587   0.188   2.799
  265SOL    HW1  829   0.576   0.198   2.897
  265SOL    HW2  830   0.572   0.276   2.754
  266SOL     OW  831   1.000   1.469   2.320
  266SOL    HW1  832   0.982   1.542   2.254
  266SOL    HW2  833   0.966   1.497   2.410
  267SOL     OW  834   0.379   1.806   2.752
  267SOL    HW1  835   0.414   1.712   2.760
  267SOL    HW2  836   0.452   1.870   2.774
  268SOL     OW  837   1.791   1.062   2.769
  268SOL    HW1  838   1.746   1.047   2.681
  268SOL    HW2  839   1.722   1.072   2.841
  269SOL     OW  840   1.200   1.533   3.375
  269SOL    HW1  841   1.191   1.463   3.446
  269SOL    HW2  842   1.138   1.512   3.300
  270SOL     OW  843   0.295   0.935   2.130
  270SOL    HW1  844   0.381   0.956   2.084
  270SOL    HW2  845   0.272   0.839   2.116
  271SOL     OW  846   1.485   0.774   2.575
  271SOL    HW1  847   1.480   0.725   2.662
  271SOL    HW2  848   1.566   0.832   2.574
  272SOL     OW  849   0.495   1.290   3.606
  272SOL    HW1  850   0.475   1.291   3.509
  272SOL    HW2  851   0.409   1.288   3.658
  273SOL     OW  852   1.161   1.762   2.091
  273SOL    HW1  853   1.068   1.746   2.124
  273SOL    HW2  854   1.184   1.694   2.022
  274SOL     OW  855   0.235   0.330   3.326
  274SOL    HW1  856   0.174   0.407   3.310
  274SOL    HW2  857   0.250   0.319   3.425
  275SOL     OW  858   1.641   1.388   1.957
  275SOL    HW1  859   1.610   1.482   1.944
  275SOL    HW2  860   1.567   1.325   1.932
  276SOL     OW  861   0.484   1.700   2.217
  276SOL    HW1  862   0.517   1.768   2.282
  276SOL    HW2  863   0.552   1.685   2.146
  277SOL     OW  864   1.447   0.136   2.301
  277SOL    HW1  865   1.438   0.090   2.213
  277SOL    HW2  866   1.544   0.148   2.322
  278SOL     OW  867   0.271   1.804   3.083
  278SOL    HW1  868   0.306   1.717   3.117
  278SOL    HW2  869   0.220   1.788   2.998
  279SOL     OW  870   0.936   1.695   2.730
  279SOL    HW1  871   1.025   1.651   2.740
  279SOL    HW2  872   0.889   1.657   2.651
  280SOL     OW  873   0.410   0.684   2.339
  280SOL    HW1  874   0.431   0.589   2.363
  280SOL    HW2  875   0.312   0.700   2.348
  281SOL     OW  876   1.524   0.197   3.604
  281SOL    HW1  877   1.520   0.231   3.698
  281SOL    HW2  878   1.528   0.097   3.605
  282SOL     OW  879   0.650   0.172   1.965
  282SOL    HW1  880   0.698   0.103   2.019
  282SOL    HW2  881   0.586   0.127   1.903
  283SOL     OW  882   0.729   0.287   3.583
  283SOL    HW1  883   0.817   0.240   3.582
  283SOL    HW2  884   0.677   0.260   3.664
  284SOL     OW  885   0.869   1.516   3.033
  284SOL    HW1  886   0.845   1.466   2.950
  284SOL    HW2  887   0.935   1.463   3.086
  285SOL     OW  888   1.307   0.580   3.306
  285SOL    HW1  889   1.347   0.542   3.389
  285SOL    HW2  890   1.345   0.671   3.289
  286SOL     OW  891   0.811   1.364   2.802
  286SOL    HW1  892   0.903   1.368   2.762
  286SOL    HW2  893   0.743   1.376   2.730
  287SOL     OW  894   0.916   0.519   2.726
  287SOL    HW1  895   0.894   0.512   2.629
  287SOL    HW2  896   0.943   0.429   2.761
  288SOL     OW  897   0.487   0.051   2.276
  288SOL    HW1  898   0.457   0.060   2.371
  288SOL    HW2  899   0.509   0.142   2.240
  289SOL     OW  900   1.428   1.219   1.897
  289SOL    HW1  901   1.471   1.148   1.953
  289SOL    HW2  902   1.341   1.246   1.938
  290SOL     OW  903   0.358   0.016   2.029
  290SOL    HW1  904   0.332   0.112   2.017
  290SOL    HW2  905   0.406   0.004   2.116
  291SOL     OW  906   0.966   0.277   2.288
  291SOL    HW1  907   0.932   0.307   2.199
  291SOL    HW2  908   1.065   0.289   2.292
  292SOL     OW  909   1.050   0.687   3.274
  292SOL    HW1  910   0.973   0.626   3.289
  292SOL    HW2  911   1.135   0.636   3.285
  293SOL     OW  912   1.199   1.609   2.681
  293SOL    HW1  913   1.227   1.660   2.600
  293SOL    HW2  914   1.235   1.653   2.763
  294SOL     OW  915   0.467   1.132   2.587
  294SOL    HW1  916   0.400   1.113   2.659
  294SOL    HW2  917   0.423   1.127   2.498
  295SOL     OW  918   1.248   1.795   2.474
  295SOL    HW1  919   1.297   1.858   2.414
  295SOL    HW2  920   1.171   1.843   2.517
  296SOL     OW  921   1.032   0.489   1.885
  296SOL    HW1  922   0.993   0.576   1.853
  296SOL    HW2  923   1.098   0.507   1.958
  297SOL     OW  924   0.119   0.579   3.254
  297SOL    HW1  925   0.205   0.578   3.204
  297SOL    HW2  926   0.124   0.645   3.329
  298SOL     OW  927   0.553   0.218   3.071
  298SOL    HW1  928   0.603   0.196   3.155
  298SOL    HW2  929   0.456   0.194   3.082
  299SOL     OW  930   0.870   0.475   2.463
  299SOL    HW1  931   0.822   0.530   2.395
  299SOL    HW2  932   0.909   0.393   2.420
  300SOL     OW  933   0.966   0.064   2.626
  300SOL    HW1  934   0.912   0.068   2.542
  300SOL    HW2  935   1.033   4.991   2.619
  301SOL     OW  936   1.419   1.148   2.714
  301SOL    HW1  937   1.343   1.085   2.734
  301SOL    HW2  938   1.430   1.157   2.615
  302SOL     OW  939   1.457   0.620   2.809
  302SOL    HW1  940   1.391   0.545   2.815
  302SOL    HW2  941   1.519   0.616   2.886
  303SOL     OW  942   1.803   0.790   2.245
  303SOL    HW1  943   1.868   0.761   2.315
  303SOL    HW2  944   1.800   0.722   2.172
  304SOL     OW  945   0.515   1.414   2.017
  304SOL    HW1  946   0.435   1.381   2.068
  304SOL    HW2  947   0.515   1.372   1.926
  305SOL     OW  948   1.745   1.288   2.497
  305SOL    HW1  949   1.842   1.285   2.523
  305SOL    HW2  950   1.706   1.376   2.523
  306SOL     OW  951   1.382   0.575   1.904
  306SOL    HW1  952   1.332   0.547   1.986
  306SOL    HW2  953   1.481   0.568   1.922
  307SOL     OW  954   0.541   0.304   2.182
  307SOL    HW1  955   0.588   0.265   2.103
  307SOL    HW2  956   0.494   0.388   2.154
  308SOL     OW  957   1.741   1.235   3.395
  308SOL    HW1  958   1.831   1.196   3.378
  308SOL    HW2  959   1.751   1.326   3.434
  309SOL     OW  960   1.034   1.355   3.199
  309SOL    HW1  961   0.948   1.329   3.243
  309SOL    HW2  962   1.109   1.304   3.241
  310SOL     OW  963   1.620   1.647   3.536
  310SOL    HW1  964   1.599   1.686   3.447
  310SOL    HW2  965   1.697   1.583   3.528
  311SOL     OW  966   1.151   1.259   2.967
  311SOL    HW1  967   1.092   1.289   3.042
  311SOL    HW2  968   1.114   1.289   2.880
  312SOL     OW  969   1.587   1.099   2.947
  312SOL    HW1  970   1.580   1.168   3.019
  312SOL    HW2  971   1.518   1.117   2.877
  313SOL     OW  972   0.909   0.040   3.238
  313SOL    HW1  973   0.928   0.041   3.140
  313SOL    HW2  974   0.986   0.079   3.288
  314SOL     OW  975   0.969   1.108   3.583
  314SOL    HW1  976   0.876   1.125   3.616
  314SOL    HW2  977   0.969   1.027   3.525
  315SOL     OW  978   0.721   1.056   2.269
  315SOL    HW1  979   0.702   1.027   2.363
  315SOL    HW2  980   0.803   1.011   2.236
  316SOL     OW  981   0.440   0.829   3.104
  316SOL    HW1  982   0.510   0.838   3.174
  316SOL    HW2  983   0.400   0.737   3.108
  317SOL     OW  984   1.246   0.365   3.151
  317SOL    HW1  985   1.277   0.442   3.206
  317SOL    HW2  986   1.155   0.385   3.114
  318SOL     OW  987   0.079   1.565   3.196
  318SOL    HW1  988   0.034   1.562   3.285
  318SOL    HW2  989   0.178   1.566   3.208
  319SOL     OW  990   0.322   1.126   2.348
  319SOL    HW1  991   0.335   1.200   2.282
  319SOL    HW2  992   0.313   1.039   2.299
  320SOL     OW  993   0.534   0.485   2.735
  320SOL    HW1  994   0.533   0.533   2.648
  320SOL    HW2  995   0.600   0.529   2.796
  321SOL     OW  996   1.254   1.365   2.273
  321SOL    HW1  997   1.316   1.438   2.301
  321SOL    HW2  998   1.160   1.389   2.298
  322SOL     OW  999   1.317   1.477   3.000
  322SOL    HW1 1000   1.364   1.485   3.088
  322SOL    HW2 1001   1.261   1.394   2.998
  323SOL     OW 1002   1.589   0.634   2.355
  323SOL    HW1 1003   1.535   0.676   2.427
  323SOL    HW2 1004   1.650   0.703   2.315
  324SOL     OW 1005   0.359   1.544   3.173
  324SOL    HW1 1006   0.347   1.482   3.095
  324SOL    HW2 1007   0.456   1.568   3.181
  325SOL     OW 1008   0.482   0.735   3.498
  325SOL    HW1 1009   0.524   0.779   3.419
  325SOL    HW2 1010   0.542   0.663   3.532
  326SOL     OW 1011   1.622   0.799   3.555
  326SOL    HW1 1012   1.528   0.834   3.549
  326SOL    HW2 1013   1.675   0.834   3.478
  327SOL     OW 1014   0.947   0.135   3.611
  327SOL    HW1 1015   1.032   0.186   3.597
  327SOL    HW2 1016   0.966   0.037   3.607
  328SOL     OW 1017   0.494   0.032   3.647
  328SOL    HW1 1018   0.450   0.030   3.557
  328SOL    HW2 1019   0.426   0.010   3.718
  329SOL     OW 1020   0.602   0.879   2.885
  329SOL    HW1 1021   0.639   0.972   2.889
  329SOL    HW2 1022   0.534   0.867   2.958
  330SOL     OW 1023   1.288   0.849   2.857
  330SOL    HW1 1024   1.195   0.820   2.831
  330SOL    HW2 1025   1.352   0.774   2.840
  331SOL     OW 1026   1.199   0.521   2.108
  331SOL    HW1 1027   1.223   0.444   2.168
  331SOL    HW2 1028   1.153   0.592   2.161
  332SOL     OW 1029   0.283   0.167   3.115
  332SOL    HW1 1030   0.265   0.229   3.192
  332SOL    HW2 1031   0.209   0.100   3.109
  333SOL     OW 1032   4.994   1.299   3.196
  333SOL    HW1 1033   0.053   1.246   3.257
  333SOL    HW2 1034   0.030   1.391   3.185
  334SOL     OW 1035   0.713   0.628   2.888
  334SOL    HW1 1036   0.786   0.609   2.821
  334SOL    HW2 1037   0.678   0.720   2.873
  335SOL     OW 1038   1.761   0.969   3.723
  335SOL    HW1 1039   1.713   0.900   3.670
  335SOL    HW2 1040   1.702   1.000   3.798
  336SOL     OW 1041   0.397   0.086   2.524
  336SOL    HW1 1042   0.336   0.163   2.545
  336SOL    HW2 1043   0.435   0.050   2.609
  337SOL     OW 1044   1.643   0.403   2.222
  337SOL    HW1 1045   1.658   0.325   2.283
  337SOL    HW2 1046   1.611   0.481   2.275
  338SOL     OW 1047   1.027   0.755   2.802
  338SOL    HW1 1048   1.001   0.775   2.897
  338SOL    HW2 1049   0.992   0.665   2.777
  339SOL     OW 1050   0.990   1.561   3.632
  339SOL    HW1 1051   0.956   1.618   3.558
  339SOL    HW2 1052   1.026   1.475   3.595
  340SOL     OW 1053   1.837   1.489   3.464
  340SOL    HW1 1054   1.859   1.517   3.371
  340SOL    HW2 1055   1.918   1.501   3.522
  341SOL     OW 1056   0.404   0.927   3.682
  341SOL    HW1 1057   0.474   0.948   3.750
  341SOL    HW2 1058   0.439   0.857   3.620
  342SOL     OW 1059   1.523   0.278   2.001
  342SOL    HW1 1060   1.493   0.188   2.032
  342SOL    HW2 1061   1.564   0.328   2.077
  343SOL     OW 1062   1.272   0.822   1.867
  343SOL    HW1 1063   1.308   0.729   1.875
  343SOL    HW2 1064   1.307   0.865   1.784
  344SOL     OW 1065   1.072   1.364   2.724
  344SOL    HW1 1066   1.092   1.284   2.668
  344SOL    HW2 1067   1.128   1.441   2.693
  345SOL     OW 1068   0.325   0.795   2.769
  345SOL    HW1 1069   0.422   0.798   2.745
  345SOL    HW2 1070   0.306   0.712   2.822
  346SOL     OW 1071   0.297   0.495   2.867
  346SOL    HW1 1072   0.251   0.407   2.858
  346SOL    HW2 1073   0.381   0.495   2.813
  347SOL     OW 1074   1.144   0.320   3.559
  347SOL    HW1 1075   1.095   0.377   3.625
  347SOL    HW2 1076   1.233   0.361   3.540
  348SOL     OW 1077   1.150   0.166   3.320
  348SOL    HW1 1078   1.143   0.210   3.410
  348SOL    HW2 1079   1.185   0.232   3.253
  349SOL     OW 1080   4.967   1.309   1.965
  349SOL    HW1 1081   4.936   1.338   2.056
  349SOL    HW2 1082   0.006   1.218   1.971
  350SOL     OW 1083   0.120   1.820   2.820
  350SOL    HW1 1084   0.063   1.809   2.738
  350SOL    HW2 1085   0.216   1.813   2.795
  351SOL     OW 1086   0.490   1.551   2.787
  351SOL    HW1 1087   0.563   1.610   2.820
  351SOL    HW2 1088   0.527   1.486   2.721
  352SOL     OW 1089   0.928   0.796   3.051
  352SOL    HW1 1090   0.982   0.766   3.130
  352SOL    HW2 1091   0.840   0.748   3.052
  353SOL     OW 1092   0.072   0.637   2.973
  353SOL    HW1 1093   0.144   0.582   2.930
  353SOL    HW2 1094   0.064   0.612   3.070
  354SOL     OW 1095   0.117   0.516   3.607
  354SOL    HW1 1096   0.198   0.458   3.601
  354SOL    HW2 1097   0.133   0.601   3.555
  355SOL     OW 1098   1.384   0.924   3.499
  355SOL    HW1 1099   1.405   1.022   3.496
  355SOL    HW2 1100   1.373   0.890   3.406
  356SOL     OW 1101   0.806   0.578   2.209
  356SOL    HW1 1102   0.814   0.497   2.151
  356SOL    HW2 1103   0.728   0.634   2.178
  357SOL     OW 1104   1.639   0.610   3.014
  357SOL    HW1 1105   1.621   0.545   3.087
  357SOL    HW2 1106   1.737   0.609   2.993
  358SOL     OW 1107   0.312   1.573   3.575
  358SOL    HW1 1108   0.261   1.640   3.629
  358SOL    HW2 1109   0.300   1.482   3.615
  359SOL     OW 1110   0.727   0.440   3.083
  359SOL    HW1 1111   0.660   0.367   3.072
  359SOL    HW2 1112   0.713   0.509   3.012
  360SOL     OW 1113   0.874   1.705   3.402
  360SOL    HW1 1114   0.831   1.639   3.340
  360SOL    HW2 1115   0.901   1.787   3.351
  361SOL     OW 1116   0.407   0.516   2.058
  361SOL    HW1 1117   0.482   0.582   2.070
  361SOL    HW2 1118   0.321   0.566   2.047
  362SOL     OW 1119   0.176   1.149   3.339
  362SOL    HW1 1120   0.168   1.093   3.422
  362SOL    HW2 1121   0.193   1.089   3.260
  363SOL     OW 1122   1.273   1.030   3.063
  363SOL    HW1 1123   1.283   0.962   2.990
  363SOL    HW2 1124   1.229   1.112   3.026
  364SOL     OW 1125   1.340   0.886   2.127
  364SOL    HW1 1126   1.274   0.853   2.195
  364SOL    HW2 1127   1.308   0.862   2.036
  365SOL     OW 1128   1.760   1.705   3.022
  365SOL    HW1 1129   1.830   1.736   2.957
  365SOL    HW2 1130   1.731   1.613   2.998
  366SOL     OW 1131   1.262   1.734   2.923
  366SOL    HW1 1132   1.352   1.779   2.921
  366SOL    HW2 1133   1.272   1.642   2.961
  367SOL     OW 1134   0.105   1.236   2.927
  367SOL    HW1 1135   0.109   1.225   3.026
  367SOL    HW2 1136   0.010   1.232   2.896
  368SOL     OW 1137   0.700   1.714   3.612
  368SOL    HW1 1138   0.629   1.785   3.602
  368SOL    HW2 1139   0.769   1.726   3.540
  369SOL     OW 1140   1.733   0.151   2.326
  369SOL    HW1 1141   1.785   0.165   2.242
  369SOL    HW2 1142   1.794   0.115   2.397
  370SOL     OW 1143   1.406   1.580   2.363
  370SOL    HW1 1144   1.466   1.614   2.290
  370SOL    HW2 1145   1.344   1.654   2.390
  371SOL     OW 1146   0.161   1.762   3.712
  371SOL    HW1 1147   0.102   1.687   3.740
  371SOL    HW2 1148   0.201   1.806   3.792
  372SOL     OW 1149   1.284   0.940   2.499
  372SOL    HW1 1150   1.358   0.878   2.526
  372SOL    HW2 1151   1.323   1.022   2.456
  373SOL     OW 1152   0.781   1.294   3.292
  373SOL    HW1 1153   0.758   1.346   3.374
  373SOL    HW2 1154   0.705   1.300   3.226
  374SOL     OW 1155   0.674   1.636   2.025
  374SOL    HW1 1156   0.683   1.668   1.931
  374SOL    HW2 1157   0.622   1.550   2.026
  375SOL     OW 1158   1.606   1.736   3.262
  375SOL    HW1 1159   1.662   1.729   3.180
  375SOL    HW2 1160   1.591   1.833   3.283
  376SOL     OW 1161   1.869   0.123   2.843
  376SOL    HW1 1162   1.888   0.026   2.854
  376SOL    HW2 1163   1.777   0.135   2.805
  377SOL     OW 1164   0.242   0.307   2.577
  377SOL    HW1 1165   0.163   0.358   2.544
  377SOL    HW2 1166   0.230   0.287   2.675
  378SOL     OW 1167   1.227   1.575   1.903
  378SOL    HW1 1168   1.220   1.483   1.940
  378SOL    HW2 1169   1.150   1.593   1.842
  379SOL     OW 1170   0.817   1.025   3.241
  379SOL    HW1 1171   0.854   1.015   3.149
  379SOL    HW2 1172   0.806   1.122   3.262
  380SOL     OW 1173   0.939   0.928   2.181
  380SOL    HW1 1174   0.972   0.941   2.088
  380SOL    HW2 1175   0.982   0.847   2.221
  381SOL     OW 1176   1.497   1.648   1.919
  381SOL    HW1 1177   1.401   1.622   1.906
  381SOL    HW2 1178   1.542   1.655   1.830
  382SOL     OW 1179   0.393   1.319   3.358
  382SOL    HW1 1180   0.379   1.401   3.303
  382SOL    HW2 1181   0.315   1.257   3.347
  383SOL     OW 1182   1.594   1.292   3.154
  383SOL    HW1 1183   1.653   1.263   3.229
  383SOL    HW2 1184   1.531   1.363   3.186
  384SOL     OW 1185   1.100   1.119   2.612
  384SOL    HW1 1186   1.017   1.074   2.646
  384SOL    HW2 1187   1.157   1.052   2.564
  385SOL     OW 1188   1.019   0.265   2.815
  385SOL    HW1 1189   1.002   0.217   2.729
  385SOL    HW2 1190   1.015   0.199   2.891
  386SOL     OW 1191   0.621   1.490   2.361
  386SOL    HW1 1192   0.667   1.431   2.295
  386SOL    HW2 1193   0.554   1.548   2.314
  387SOL     OW 1194   1.761   0.389   3.270
  387SOL    HW1 1195   1.834   0.457   3.263
  387SOL    HW2 1196   1.772   0.321   3.197
  388SOL     OW 1197   0.261   1.309   2.131
  388SOL    HW1 1198   0.195   1.236   2.114
  388SOL    HW2 1199   0.225   1.371   2.201
  389SOL     OW 1200   0.165   0.992   3.573
  389SOL    HW1 1201   0.097   0.999   3.646
  389SOL    HW2 1202   0.256   0.979   3.613
  390SOL     OW 1203   0.683   0.195   3.318
  390SOL    HW1 1204   0.760   0.138   3.290
  390SOL    HW2 1205   0.694   0.222   3.413
  391SOL     OW 1206   0.034   0.331   1.947
  391SOL    HW1 1207   4.950   0.280   1.929
  391SOL    HW2 1208   0.043   0.406   1.881
  392SOL     OW 1209   1.390   0.842   3.238
  392SOL    HW1 1210   1.328   0.900   3.185
  392SOL    HW2 1211   1.482   0.849   3.200
  393SOL     OW 1212   4.984   0.252   2.250
  393SOL    HW1 1213   4.960   0.174   2.192
  393SOL    HW2 1214   0.083   0.265   2.249
  394SOL     OW 1215   1.186   1.321   2.000
  394SOL    HW1 1216   1.087   1.308   1.989
  394SOL    HW2 1217   1.209   1.324   2.097
  395SOL     OW 1218   0.640   0.823   3.288
  395SOL    HW1 1219   0.697   0.904   3.277
  395SOL    HW2 1220   0.698   0.742   3.293
  396SOL     OW 1221   1.518   1.837   2.914
  396SOL    HW1 1222   1.547   1.894   2.837
  396SOL    HW2 1223   1.598   1.793   2.954
  397SOL     OW 1224   0.691   0.560   3.566
  397SOL    HW1 1225   0.762   0.613   3.614
  397SOL    HW2 1226   0.709   0.462   3.577
  398SOL     OW 1227   1.466   1.186   3.480
  398SOL    HW1 1228   1.452   1.207   3.577
  398SOL    HW2 1229   1.560   1.208   3.454
  399SOL     OW 1230   0.381   1.775   3.407
  399SOL    HW1 1231   0.291   1.817   3.398
  399SOL    HW2 1232   0.372   1.687   3.453
  400SOL     OW 1233   1.633   0.876   3.110
  400SOL    HW1 1234   1.639   0.789   3.061
  400SOL    HW2 1235   1.619   0.950   3.044
  401SOL     OW 1236   1.242   0.327   2.305
  401SOL    HW1 1237   1.311   0.255   2.300
  401SOL    HW2 1238   1.259   0.383   2.386
  402SOL     OW 1239   0.559   0.726   2.571
  402SOL    HW1 1240   0.616   0.807   2.561
  402SOL    HW2 1241   0.504   0.713   2.488
  403SOL     OW 1242   1.742   0.366   3.548
  403SOL    HW1 1243   1.746   0.378   3.449
  403SOL    HW2 1244   1.674   0.295   3.570
  404SOL     OW 1245   1.747   0.931   3.352
  404SOL    HW1 1246   1.732   1.027   3.374
  404SOL    HW2 1247   1.711   0.911   3.261
  405SOL     OW 1248   0.893   1.353   1.957
  405SOL    HW1 1249   0.845   1.359   2.045
  405SOL    HW2 1250   0.892   1.443   1.913
  406SOL     OW 1251   0.682   1.739   2.833
  406SOL    HW1 1252   0.659   1.834   2.814
  406SOL    HW2 1253   0.776   1.721   2.804
  407SOL     OW 1254   0.884   0.988   2.729
  407SOL    HW1 1255   0.931   0.904   2.756
  407SOL    HW2 1256   0.836   1.027   2.808
  408SOL     OW 1257   1.035   0.938   1.928
  408SOL    HW1 1258   1.016   1.013   1.865
  408SOL    HW2 1259   1.124   0.898   1.907
  409SOL     OW 1260   1.815   1.560   2.719
  409SOL    HW1 1261   1.743   1.554   2.650
  409SOL    HW2 1262   1.792   1.502   2.797
  410SOL     OW 1263   0.256   1.337   3.727
  410SOL    HW1 1264   0.161   1.316   3.700
  410SOL    HW2 1265   0.259   1.355   3.825
  411SOL     OW 1266   0.184   1.264   2.553
  411SOL    HW1 1267   0.194   1.214   2.639
  411SOL    HW2 1268   0.224   1.210   2.479
  412SOL     OW 1269   0.702   1.447   3.508
  412SOL    HW1 1270   0.623   1.396   3.543
  412SOL    HW2 1271   0.702   1.539   3.547
  413SOL     OW 1272   1.770   0.188   3.090
  413SOL    HW1 1273   1.703   0.115   3.103
  413SOL    HW2 1274   1.812   0.180   3.000
  414SOL     OW 1275   0.445   0.430   2.420
  414SOL    HW1 1276   0.492   0.366   2.359
  414SOL    HW2 1277   0.383   0.381   2.480
  415SOL     OW 1278   1.688   1.455   2.945
  415SOL    HW1 1279   1.611   1.439   2.883
  415SOL    HW2 1280   1.683   1.390   3.022
  416SOL     OW 1281   0.359   0.569   3.127
  416SOL    HW1 1282   0.423   0.516   3.182
  416SOL    HW2 1283   0.351   0.529   3.036
  417SOL     OW 1284   0.828   1.620   2.494
  417SOL    HW1 1285   0.834   1.711   2.452
  417SOL    HW2 1286   0.748   1.572   2.458
  418SOL     OW 1287   1.399   0.218   2.976
  418SOL    HW1 1288   1.397   0.123   3.006
  418SOL    HW2 1289   1.355   0.276   3.043
  419SOL     OW 1290   0.987   0.030   2.974
  419SOL    HW1 1291   0.907   0.005   2.920
  419SOL    HW2 1292   1.066   4.976   2.943
  420SOL     OW 1293   0.785   1.324   2.213
  420SOL    HW1 1294   0.762   1.228   2.232
  420SOL    HW2 1295   0.869   1.348   2.261
  421SOL     OW 1296   0.634   1.594   3.148
  421SOL    HW1 1297   0.624   1.691   3.171
  421SOL    HW2 1298   0.720   1.580   3.099
  422SOL     OW 1299   1.434   0.016   2.056
  422SOL    HW1 1300   1.502   4.945   2.040
  422SOL    HW2 1301   1.346   4.988   2.018
  423SOL     OW 1302   1.297   0.477   2.530
  423SOL    HW1 1303   1.246   0.563   2.524
  423SOL    HW2 1304   1.293   0.442   2.624
  424SOL     OW 1305   1.614   0.204   2.776
  424SOL    HW1 1306   1.540   0.206   2.843
  424SOL    HW2 1307   1.605   0.282   2.714
  425SOL     OW 1308   0.065   1.073   2.071
  425SOL    HW1 1309   0.147   1.017   2.083
  425SOL    HW2 1310   0.011   1.071   2.155
  426SOL     OW 1311   0.904   1.690   2.176
  426SOL    HW1 1312   0.824   1.668   2.121
  426SOL    HW2 1313   0.880   1.760   2.243
  427SOL     OW 1314   0.174   0.645   3.862
  427SOL    HW1 1315   0.089   0.638   3.913
  427SOL    HW2 1316   0.158   0.620   3.766
  428SOL     OW 1317   0.230   0.234   4.679
  428SOL    HW1 1318   0.261   0.236   4.774
  428SOL    HW2 1319   0.160   0.163   4.668
  429SOL     OW 1320   4.993   0.448   4.316
  429SOL    HW1 1321   4.910   0.476   4.364
  429SOL    HW2 1322   4.970   0.377   4.249
  430SOL     OW 1323   0.513   1.181   4.923
  430SOL    HW1 1324   0.467   1.259   4.880
  430SOL    HW2 1325   0.526   1.200   0.021
  431SOL     OW 1326   1.604   1.498   4.432
  431SOL    HW1 1327   1.549   1.470   4.510
  431SOL    HW2 1328   1.543   1.520   4.355
  432SOL     OW 1329   1.143   0.700   4.399
  432SOL    HW1 1330   1.186   0.788   4.380
  432SOL    HW2 1331   1.087   0.707   4.481
  433SOL     OW 1332   1.804   0.575   3.935
  433SOL    HW1 1333   1.757   0.583   3.847
  433SOL    HW2 1334   1.758   0.506   3.991
  434SOL     OW 1335   0.704   1.083   4.766
  434SOL    HW1 1336   0.627   1.116   4.822
  434SOL    HW2 1337   0.742   1.159   4.714
  435SOL     OW 1338   0.677   0.978   4.389
  435SOL    HW1 1339   0.754   0.978   4.452
  435SOL    HW2 1340   0.610   1.046   4.419
  436SOL     OW 1341   0.399   1.413   4.831
  436SOL    HW1 1342   0.300   1.402   4.818
  436SOL    HW2 1343   0.435   1.473   4.760
  437SOL     OW 1344   1.593   0.437   4.456
  437SOL    HW1 1345   1.510   0.440   4.401
  437SOL    HW2 1346   1.587   0.504   4.530
  438SOL     OW 1347   0.160   1.783   4.211
  438SOL    HW1 1348   0.230   1.833   4.262
  438SOL    HW2 1349   0.176   1.794   4.113
  439SOL     OW 1350   0.159   1.503   4.209
  439SOL    HW1 1351   0.162   1.602   4.219
  439SOL    HW2 1352   0.165   1.460   4.299
  440SOL     OW 1353   0.269   1.066   4.595
  440SOL    HW1 1354   0.279   0.981   4.645
  440SOL    HW2 1355   0.197   1.122   4.638
  441SOL     OW 1356   0.583   0.997   3.896
  441SOL    HW1 1357   0.634   1.043   3.823
  441SOL    HW2 1358   0.622   1.021   3.985
  442SOL     OW 1359   0.134   0.681   4.239
  442SOL    HW1 1360   0.085   0.596   4.261
  442SOL    HW2 1361   0.122   0.746   4.314
  443SOL     OW 1362   1.860   1.754   4.044
  443SOL    HW1 1363   1.938   1.741   4.105
  443SOL    HW2 1364   1.860   1.848   4.009
  444SOL     OW 1365   0.021   1.559   3.813
  444SOL    HW1 1366   0.006   1.462   3.829
  444SOL    HW2 1367   4.946   1.612   3.853
  445SOL     OW 1368   1.699   0.932   4.384
  445SOL    HW1 1369   1.792   0.900   4.404
  445SOL    HW2 1370   1.698   0.977   4.295
  446SOL     OW 1371   1.676   1.112   4.154
  446SOL    HW1 1372   1.761   1.093   4.105
  446SOL    HW2 1373   1.695   1.175   4.229
  447SOL     OW 1374   0.618   1.403   4.437
  447SOL    HW1 1375   0.569   1.316   4.447
  447SOL    HW2 1376   0.603   1.439   4.344
  448SOL     OW 1377   0.859   0.087   4.335
  448SOL    HW1 1378   0.900   0.152   4.272
  448SOL    HW2 1379   0.765   0.068   4.308
  449SOL     OW 1380   0.107   0.934   4.979
  449SOL    HW1 1381   0.205   0.922   4.993
  449SOL    HW2 1382   0.076   0.874   4.904
  450SOL     OW 1383   1.552   1.034   3.918
  450SOL    HW1 1384   1.478   0.972   3.942
  450SOL    HW2 1385   1.598   1.065   4.002
  451SOL     OW 1386   1.442   1.398   4.632
  451SOL    HW1 1387   1.393   1.395   4.720
  451SOL    HW2 1388   1.441   1.308   4.590
  452SOL     OW 1389   1.639   1.846   4.265
  452SOL    HW1 1390   1.628   1.781   4.190
  452SOL    HW2 1391   1.660   1.796   4.349
  453SOL     OW 1392   0.585   0.719   3.989
  453SOL    HW1 1393   0.596   0.812   3.953
  453SOL    HW2 1394   0.525   0.722   4.069
  454SOL     OW 1395   1.308   0.387   4.666
  454SOL    HW1 1396   1.211   0.362   4.675
  454SOL    HW2 1397   1.364   0.317   4.711
  455SOL     OW 1398   1.599   1.671   4.049
  455SOL    HW1 1399   1.697   1.689   4.042
  455SOL    HW2 1400   1.560   1.659   3.958
  456SOL     OW 1401   1.052   0.688   4.135
  456SOL    HW1 1402   1.077   0.681   4.232
  456SOL    HW2 1403   0.963   0.646   4.121
  457SOL     OW 1404   0.120   0.852   4.456
  457SOL    HW1 1405   0.192   0.810   4.512
  457SOL    HW2 1406   0.136   0.950   4.449
  458SOL     OW 1407   0.048   1.720   0.347
  458SOL    HW1 1408   0.131   1.698   0.399
  458SOL    HW2 1409   0.021   1.815   0.365
  459SOL     OW 1410   0.860   0.348   3.918
  459SOL    HW1 1411   0.922   0.389   3.851
  459SOL    HW2 1412   0.796   0.287   3.871
  460SOL     OW 1413   1.409   1.158   4.251
  460SOL    HW1 1414   1.495   1.144   4.203
  460SOL    HW2 1415   1.354   1.226   4.202
  461SOL     OW 1416   0.502   0.211   4.588
  461SOL    HW1 1417   0.417   0.212   4.639
  461SOL    HW2 1418   0.535   0.305   4.576
  462SOL     OW 1419   0.994   1.465   4.203
  462SOL    HW1 1420   0.976   1.540   4.139
  462SOL    HW2 1421   0.964   1.491   4.294
  463SOL     OW 1422   0.383   1.812   4.593
  463SOL    HW1 1423   0.423   1.721   4.607
  463SOL    HW2 1424   0.446   1.882   4.627
  464SOL     OW 1425   1.791   1.082   4.616
  464SOL    HW1 1426   1.746   1.073   4.526
  464SOL    HW2 1427   1.722   1.073   4.688
  465SOL     OW 1428   0.307   0.955   3.995
  465SOL    HW1 1429   0.394   0.976   3.951
  465SOL    HW2 1430   0.295   0.856   3.998
  466SOL     OW 1431   1.482   0.774   4.423
  466SOL    HW1 1432   1.480   0.722   4.509
  466SOL    HW2 1433   1.563   0.832   4.421
  467SOL     OW 1434   1.163   1.759   3.958
  467SOL    HW1 1435   1.073   1.739   3.996
  467SOL    HW2 1436   1.187   1.690   3.890
  468SOL     OW 1437   1.639   1.386   3.822
  468SOL    HW1 1438   1.607   1.480   3.811
  468SOL    HW2 1439   1.566   1.323   3.794
  469SOL     OW 1440   0.497   1.729   4.041
  469SOL    HW1 1441   0.531   1.798   4.105
  469SOL    HW2 1442   0.568   1.706   3.975
  470SOL     OW 1443   1.448   0.138   4.154
  470SOL    HW1 1444   1.438   0.091   4.066
  470SOL    HW2 1445   1.546   0.147   4.176
  471SOL     OW 1446   0.273   1.790   4.917
  471SOL    HW1 1447   0.269   1.707   4.973
  471SOL    HW2 1448   0.217   1.776   4.835
  472SOL     OW 1449   0.984   1.698   4.621
  472SOL    HW1 1450   1.073   1.653   4.616
  472SOL    HW2 1451   0.920   1.653   4.559
  473SOL     OW 1452   0.402   0.684   4.193
  473SOL    HW1 1453   0.424   0.589   4.215
  473SOL    HW2 1454   0.303   0.698   4.200
  474SOL     OW 1455   0.651   0.170   3.826
  474SOL    HW1 1456   0.698   0.101   3.880
  474SOL    HW2 1457   0.586   0.126   3.763
  475SOL     OW 1458   0.797   1.297   4.631
  475SOL    HW1 1459   0.893   1.325   4.622
  475SOL    HW2 1460   0.742   1.342   4.561
  476SOL     OW 1461   0.890   0.510   4.598
  476SOL    HW1 1462   0.871   0.499   4.500
  476SOL    HW2 1463   0.941   0.430   4.631
  477SOL     OW 1464   0.484   0.047   4.132
  477SOL    HW1 1465   0.455   0.056   4.227
  477SOL    HW2 1466   0.515   0.136   4.098
  478SOL     OW 1467   1.427   1.217   3.754
  478SOL    HW1 1468   1.470   1.144   3.807
  478SOL    HW2 1469   1.340   1.243   3.797
  479SOL     OW 1470   0.357   0.017   3.888
  479SOL    HW1 1471   0.332   0.113   3.876
  479SOL    HW2 1472   0.406   0.006   3.975
  480SOL     OW 1473   0.971   0.269   4.162
  480SOL    HW1 1474   0.934   0.296   4.073
  480SOL    HW2 1475   1.070   0.286   4.162
  481SOL     OW 1476   1.224   1.574   4.546
  481SOL    HW1 1477   1.243   1.641   4.474
  481SOL    HW2 1478   1.309   1.531   4.575
  482SOL     OW 1479   0.473   1.164   4.437
  482SOL    HW1 1480   0.409   1.131   4.506
  482SOL    HW2 1481   0.430   1.160   4.347
  483SOL     OW 1482   1.260   1.781   4.344
  483SOL    HW1 1483   1.310   1.845   4.286
  483SOL    HW2 1484   1.179   1.826   4.382
  484SOL     OW 1485   1.031   0.487   3.752
  484SOL    HW1 1486   0.993   0.573   3.718
  484SOL    HW2 1487   1.098   0.506   3.824
  485SOL     OW 1488   0.864   0.470   4.329
  485SOL    HW1 1489   0.819   0.524   4.259
  485SOL    HW2 1490   0.905   0.388   4.288
  486SOL     OW 1491   1.013   0.052   4.560
  486SOL    HW1 1492   0.949   0.069   4.485
  486SOL    HW2 1493   1.070   4.972   4.538
  487SOL     OW 1494   1.425   1.143   4.532
  487SOL    HW1 1495   1.345   1.085   4.549
  487SOL    HW2 1496   1.439   1.152   4.433
  488SOL     OW 1497   1.468   0.622   4.657
  488SOL    HW1 1498   1.412   0.541   4.675
  488SOL    HW2 1499   1.544   0.625   4.722
  489SOL     OW 1500   1.804   0.794   4.099
  489SOL    HW1 1501   1.868   0.765   4.171
  489SOL    HW2 1502   1.801   0.723   4.028
  490SOL     OW 1503   0.526   1.430   3.873
  490SOL    HW1 1504   0.448   1.403   3.929
  490SOL    HW2 1505   0.519   1.387   3.783
  491SOL     OW 1506   1.744   1.265   4.360
  491SOL    HW1 1507   1.842   1.263   4.379
  491SOL    HW2 1508   1.707   1.354   4.387
  492SOL     OW 1509   1.383   0.574   3.767
  492SOL    HW1 1510   1.333   0.546   3.849
  492SOL    HW2 1511   1.481   0.566   3.784
  493SOL     OW 1512   0.543   0.303   4.039
  493SOL    HW1 1513   0.590   0.262   3.961
  493SOL    HW2 1514   0.496   0.386   4.010
  494SOL     OW 1515   1.080   1.218   4.876
  494SOL    HW1 1516   1.021   1.260   4.945
  494SOL    HW2 1517   1.058   1.255   4.786
  495SOL     OW 1518   1.556   1.069   4.766
  495SOL    HW1 1519   1.479   1.065   4.830
  495SOL    HW2 1520   1.522   1.094   4.675
  496SOL     OW 1521   0.723   1.058   4.127
  496SOL    HW1 1522   0.701   1.029   4.219
  496SOL    HW2 1523   0.806   1.012   4.096
  497SOL     OW 1524   0.383   0.845   0.012
  497SOL    HW1 1525   0.441   0.892   0.078
  497SOL    HW2 1526   0.336   0.769   0.058
  498SOL     OW 1527   0.321   1.154   4.205
  498SOL    HW1 1528   0.321   1.232   4.142
  498SOL    HW2 1529   0.315   1.069   4.153
  499SOL     OW 1530   0.547   0.489   4.577
  499SOL    HW1 1531   0.559   0.557   4.506
  499SOL    HW2 1532   0.606   0.511   4.655
  500SOL     OW 1533   1.250   1.367   4.135
  500SOL    HW1 1534   1.314   1.437   4.167
  500SOL    HW2 1535   1.158   1.390   4.165
  501SOL     OW 1536   1.321   1.362   4.870
  501SOL    HW1 1537   1.378   1.322   4.942
  501SOL    HW2 1538   1.233   1.314   4.868
  502SOL     OW 1539   1.584   0.640   4.200
  502SOL    HW1 1540   1.531   0.680   4.276
  502SOL    HW2 1541   1.646   0.709   4.164
  503SOL     OW 1542   0.540   0.836   4.778
  503SOL    HW1 1543   0.590   0.922   4.766
  503SOL    HW2 1544   0.486   0.841   4.862
  504SOL     OW 1545   1.277   0.832   4.685
  504SOL    HW1 1546   1.186   0.794   4.673
  504SOL    HW2 1547   1.345   0.760   4.675
  505SOL     OW 1548   1.201   0.521   3.973
  505SOL    HW1 1549   1.225   0.445   4.033
  505SOL    HW2 1550   1.154   0.592   4.026
  506SOL     OW 1551   0.332   0.240   4.926
  506SOL    HW1 1552   0.420   0.285   4.940
  506SOL    HW2 1553   0.321   0.166   4.993
  507SOL     OW 1554   0.118   1.374   4.905
  507SOL    HW1 1555   0.045   1.341   4.964
  507SOL    HW2 1556   0.166   1.449   4.950
  508SOL     OW 1557   0.697   0.591   4.790
  508SOL    HW1 1558   0.771   0.580   4.724
  508SOL    HW2 1559   0.652   0.679   4.775
  509SOL     OW 1560   0.386   0.084   4.376
  509SOL    HW1 1561   0.311   0.151   4.373
  509SOL    HW2 1562   0.446   0.105   4.453
  510SOL     OW 1563   1.640   0.404   4.079
  510SOL    HW1 1564   1.651   0.328   4.143
  510SOL    HW2 1565   1.607   0.485   4.128
  511SOL     OW 1566   1.016   0.734   4.672
  511SOL    HW1 1567   1.009   0.735   4.771
  511SOL    HW2 1568   0.972   0.651   4.637
  512SOL     OW 1569   1.522   0.277   3.859
  512SOL    HW1 1570   1.493   0.186   3.890
  512SOL    HW2 1571   1.563   0.327   3.934
  513SOL     OW 1572   1.273   0.820   3.727
  513SOL    HW1 1573   1.310   0.727   3.735
  513SOL    HW2 1574   1.308   0.863   3.644
  514SOL     OW 1575   1.069   1.344   4.621
  514SOL    HW1 1576   1.092   1.262   4.568
  514SOL    HW2 1577   1.122   1.422   4.588
  515SOL     OW 1578   0.297   0.771   4.651
  515SOL    HW1 1579   0.389   0.798   4.680
  515SOL    HW2 1580   0.288   0.672   4.654
  516SOL     OW 1581   0.294   0.499   4.670
  516SOL    HW1 1582   0.258   0.405   4.672
  516SOL    HW2 1583   0.387   0.498   4.633
  517SOL     OW 1584   1.173   0.233   0.186
  517SOL    HW1 1585   1.191   0.260   0.281
  517SOL    HW2 1586   1.155   0.315   0.131
  518SOL     OW 1587   4.982   1.280   3.846
  518SOL    HW1 1588   4.952   1.316   3.935
  518SOL    HW2 1589   0.003   1.182   3.855
  519SOL     OW 1590   0.126   1.767   4.677
  519SOL    HW1 1591   0.066   1.763   4.598
  519SOL    HW2 1592   0.219   1.787   4.647
  520SOL     OW 1593   0.516   1.572   4.637
  520SOL    HW1 1594   0.589   1.635   4.663
  520SOL    HW2 1595   0.549   1.511   4.565
  521SOL     OW 1596   0.957   0.723   4.940
  521SOL    HW1 1597   0.978   0.808   4.989
  521SOL    HW2 1598   0.859   0.704   4.948
  522SOL     OW 1599   0.137   0.552   4.889
  522SOL    HW1 1600   0.203   0.527   4.818
  522SOL    HW2 1601   0.081   0.629   4.857
  523SOL     OW 1602   0.808   0.576   4.074
  523SOL    HW1 1603   0.816   0.493   4.018
  523SOL    HW2 1604   0.730   0.630   4.041
  524SOL     OW 1605   1.690   0.628   4.820
  524SOL    HW1 1606   1.684   0.558   4.891
  524SOL    HW2 1607   1.786   0.653   4.806
  525SOL     OW 1608   0.581   0.374   4.959
  525SOL    HW1 1609   0.546   0.424   0.038
  525SOL    HW2 1610   0.630   0.437   4.899
  526SOL     OW 1611   0.411   0.516   3.915
  526SOL    HW1 1612   0.485   0.582   3.929
  526SOL    HW2 1613   0.324   0.564   3.903
  527SOL     OW 1614   1.297   1.032   4.863
  527SOL    HW1 1615   1.287   0.963   4.792
  527SOL    HW2 1616   1.221   1.097   4.857
  528SOL     OW 1617   1.337   0.883   3.988
  528SOL    HW1 1618   1.274   0.846   4.056
  528SOL    HW2 1619   1.306   0.859   3.896
  529SOL     OW 1620   1.720   1.726   4.802
  529SOL    HW1 1621   1.805   1.727   4.750
  529SOL    HW2 1622   1.690   1.631   4.816
  530SOL     OW 1623   0.069   1.236   4.677
  530SOL    HW1 1624   0.092   1.283   4.762
  530SOL    HW2 1625   4.969   1.234   4.666
  531SOL     OW 1626   1.729   0.151   4.180
  531SOL    HW1 1627   1.781   0.167   4.095
  531SOL    HW2 1628   1.791   0.118   4.251
  532SOL     OW 1629   1.417   1.571   4.234
  532SOL    HW1 1630   1.476   1.605   4.161
  532SOL    HW2 1631   1.356   1.644   4.264
  533SOL     OW 1632   1.277   0.938   4.354
  533SOL    HW1 1633   1.351   0.877   4.380
  533SOL    HW2 1634   1.313   1.014   4.300
  534SOL     OW 1635   0.699   1.642   3.874
  534SOL    HW1 1636   0.712   1.667   3.778
  534SOL    HW2 1637   0.644   1.559   3.880
  535SOL     OW 1638   1.702   1.832   0.053
  535SOL    HW1 1639   1.719   1.798   4.960
  535SOL    HW2 1640   1.628   1.779   0.094
  536SOL     OW 1641   1.874   0.130   4.695
  536SOL    HW1 1642   1.893   0.033   4.710
  536SOL    HW2 1643   1.787   0.140   4.646
  537SOL     OW 1644   0.218   0.302   4.402
  537SOL    HW1 1645   0.143   0.364   4.380
  537SOL    HW2 1646   0.219   0.284   4.501
  538SOL     OW 1647   1.233   1.571   3.772
  538SOL    HW1 1648   1.225   1.478   3.809
  538SOL    HW2 1649   1.155   1.590   3.713
  539SOL     OW 1650   0.758   0.972   0.017
  539SOL    HW1 1651   0.746   1.012   4.926
  539SOL    HW2 1652   0.854   0.980   0.044
  540SOL     OW 1653   0.942   0.927   4.044
  540SOL    HW1 1654   0.975   0.939   3.950
  540SOL    HW2 1655   0.985   0.846   4.084
  541SOL     OW 1656   1.500   1.647   3.786
  541SOL    HW1 1657   1.405   1.620   3.774
  541SOL    HW2 1658   1.544   1.655   3.697
  542SOL     OW 1659   1.106   1.102   4.503
  542SOL    HW1 1660   1.019   1.057   4.525
  542SOL    HW2 1661   1.159   1.044   4.440
  543SOL     OW 1662   1.043   0.294   4.690
  543SOL    HW1 1663   1.033   0.213   4.632
  543SOL    HW2 1664   1.024   0.269   4.785
  544SOL     OW 1665   0.595   1.499   4.186
  544SOL    HW1 1666   0.650   1.443   4.124
  544SOL    HW2 1667   0.544   1.567   4.132
  545SOL     OW 1668   1.718   0.447   0.024
  545SOL    HW1 1669   1.770   0.503   0.088
  545SOL    HW2 1670   1.773   0.370   4.994
  546SOL     OW 1671   0.257   1.347   4.005
  546SOL    HW1 1672   0.175   1.292   3.992
  546SOL    HW2 1673   0.238   1.421   4.070
  547SOL     OW 1674   0.033   0.332   3.810
  547SOL    HW1 1675   4.950   0.278   3.793
  547SOL    HW2 1676   0.040   0.405   3.743
  548SOL     OW 1677   4.977   0.242   4.124
  548SOL    HW1 1678   4.959   0.176   4.052
  548SOL    HW2 1679   0.071   0.232   4.157
  549SOL     OW 1680   1.187   1.315   3.863
  549SOL    HW1 1681   1.089   1.302   3.852
  549SOL    HW2 1682   1.209   1.321   3.961
  550SOL     OW 1683   1.493   1.861   4.728
  550SOL    HW1 1684   1.526   1.921   4.655
  550SOL    HW2 1685   1.568   1.805   4.762
  551SOL     OW 1686   1.670   0.878   4.941
  551SOL    HW1 1687   1.667   0.789   4.895
  551SOL    HW2 1688   1.638   0.949   4.878
  552SOL     OW 1689   1.246   0.328   4.169
  552SOL    HW1 1690   1.315   0.256   4.161
  552SOL    HW2 1691   1.264   0.381   4.252
  553SOL     OW 1692   0.569   0.718   4.416
  553SOL    HW1 1693   0.615   0.806   4.410
  553SOL    HW2 1694   0.507   0.707   4.338
  554SOL     OW 1695   1.770   0.880   0.191
  554SOL    HW1 1696   1.843   0.948   0.192
  554SOL    HW2 1697   1.732   0.874   0.099
  555SOL     OW 1698   0.900   1.346   3.818
  555SOL    HW1 1699   0.852   1.355   3.906
  555SOL    HW2 1700   0.905   1.436   3.774
  556SOL     OW 1701   0.696   1.770   4.692
  556SOL    HW1 1702   0.659   1.863   4.693
  556SOL    HW2 1703   0.796   1.774   4.692
  557SOL     OW 1704   0.879   0.962   4.583
  557SOL    HW1 1705   0.925   0.878   4.613
  557SOL    HW2 1706   0.820   0.996   4.656
  558SOL     OW 1707   1.036   0.934   3.790
  558SOL    HW1 1708   1.017   1.010   3.727
  558SOL    HW2 1709   1.125   0.894   3.768
  559SOL     OW 1710   1.859   1.544   4.526
  559SOL    HW1 1711   1.768   1.534   4.488
  559SOL    HW2 1712   1.886   1.458   4.571
  560SOL     OW 1713   0.156   1.335   4.432
  560SOL    HW1 1714   0.136   1.297   4.522
  560SOL    HW2 1715   0.208   1.268   4.379
  561SOL     OW 1716   1.852   0.230   4.948
  561SOL    HW1 1717   1.847   0.150   0.007
  561SOL    HW2 1718   1.861   0.201   4.853
  562SOL     OW 1719   0.437   0.429   4.266
  562SOL    HW1 1720   0.489   0.366   4.209
  562SOL    HW2 1721   0.373   0.378   4.323
  563SOL     OW 1722   1.624   1.479   4.856
  563SOL    HW1 1723   1.575   1.432   4.782
  563SOL    HW2 1724   1.702   1.423   4.884
  564SOL     OW 1725   0.835   1.592   4.412
  564SOL    HW1 1726   0.809   1.667   4.351
  564SOL    HW2 1727   0.759   1.528   4.420
  565SOL     OW 1728   1.472   0.210   4.809
  565SOL    HW1 1729   1.506   0.121   4.839
  565SOL    HW2 1730   1.463   0.271   4.888
  566SOL     OW 1731   1.054   4.998   4.839
  566SOL    HW1 1732   1.039   0.008   4.741
  566SOL    HW2 1733   1.134   4.939   4.855
  567SOL     OW 1734   0.786   1.327   4.070
  567SOL    HW1 1735   0.761   1.233   4.090
  567SOL    HW2 1736   0.864   1.354   4.126
  568SOL     OW 1737   1.432   0.014   3.912
  568SOL    HW1 1738   1.497   4.939   3.899
  568SOL    HW2 1739   1.342   4.986   3.878
  569SOL     OW 1740   1.307   0.469   4.398
  569SOL    HW1 1741   1.254   0.554   4.392
  569SOL    HW2 1742   1.304   0.435   4.492
  570SOL     OW 1743   1.629   0.186   4.582
  570SOL    HW1 1744   1.567   0.193   4.660
  570SOL    HW2 1745   1.622   0.269   4.526
  571SOL     OW 1746   0.048   1.020   3.912
  571SOL    HW1 1747   0.145   0.999   3.925
  571SOL    HW2 1748   4.996   0.992   3.993
  572SOL     OW 1749   0.912   1.682   4.054
  572SOL    HW1 1750   0.837   1.667   3.989
  572SOL    HW2 1751   0.886   1.756   4.116
  573SOL     OW 1752   0.228   2.509   0.128
  573SOL    HW1 1753   0.149   2.508   0.190
  573SOL    HW2 1754   0.199   2.483   0.036
  574SOL     OW 1755   0.200   2.097   0.971
  574SOL    HW1 1756   0.242   2.090   1.062
  574SOL    HW2 1757   0.147   2.014   0.953
  575SOL     OW 1758   0.003   2.266   0.581
  575SOL    HW1 1759   4.909   2.286   0.608
  575SOL    HW2 1760   0.005   2.183   0.527
  576SOL     OW 1761   0.588   3.184   1.226
  576SOL    HW1 1762   0.498   3.179   1.182
  576SOL    HW2 1763   0.611   3.280   1.245
  577SOL     OW 1764   1.610   3.372   0.722
  577SOL    HW1 1765   1.557   3.337   0.800
  577SOL    HW2 1766   1.549   3.393   0.646
  578SOL     OW 1767   1.136   2.563   0.695
  578SOL    HW1 1768   1.186   2.646   0.673
  578SOL    HW2 1769   1.088   2.575   0.782
  579SOL     OW 1770   1.842   2.474   0.202
  579SOL    HW1 1771   1.812   2.569   0.192
  579SOL    HW2 1772   1.808   2.438   0.289
  580SOL     OW 1773   0.718   2.985   1.068
  580SOL    HW1 1774   0.662   3.021   1.143
  580SOL    HW2 1775   0.757   3.061   1.017
  581SOL     OW 1776   0.908   2.593   1.816
  581SOL    HW1 1777   0.934   2.659   1.887
  581SOL    HW2 1778   0.914   2.637   1.726
  582SOL     OW 1779   0.679   2.845   0.680
  582SOL    HW1 1780   0.754   2.844   0.746
  582SOL    HW2 1781   0.605   2.903   0.714
  583SOL     OW 1782   0.723   3.018   1.850
  583SOL    HW1 1783   0.782   3.089   1.889
  583SOL    HW2 1784   0.644   3.061   1.805
  584SOL     OW 1785   0.348   3.246   1.095
  584SOL    HW1 1786   0.264   3.198   1.069
  584SOL    HW2 1787   0.382   3.299   1.017
  585SOL     OW 1788   1.444   3.371   1.384
  585SOL    HW1 1789   1.502   3.452   1.393
  585SOL    HW2 1790   1.365   3.379   1.445
  586SOL     OW 1791   0.472   2.225   1.433
  586SOL    HW1 1792   0.554   2.171   1.454
  586SOL    HW2 1793   0.393   2.180   1.474
  587SOL     OW 1794   1.578   2.300   0.755
  587SOL    HW1 1795   1.511   2.303   0.681
  587SOL    HW2 1796   1.556   2.371   0.822
  588SOL     OW 1797   0.283   3.547   0.494
  588SOL    HW1 1798   0.291   3.628   0.551
  588SOL    HW2 1799   0.366   3.536   0.439
  589SOL     OW 1800   1.129   3.200   1.705
  589SOL    HW1 1801   1.185   3.188   1.787
  589SOL    HW2 1802   1.071   3.120   1.691
  590SOL     OW 1803   0.237   3.278   0.508
  590SOL    HW1 1804   0.253   3.377   0.515
  590SOL    HW2 1805   0.207   3.243   0.597
  591SOL     OW 1806   0.229   2.939   0.883
  591SOL    HW1 1807   0.250   2.845   0.911
  591SOL    HW2 1808   0.185   2.986   0.959
  592SOL     OW 1809   0.588   3.713   1.383
  592SOL    HW1 1810   0.506   3.683   1.431
  592SOL    HW2 1811   0.634   3.784   1.436
  593SOL     OW 1812   0.569   2.831   0.202
  593SOL    HW1 1813   0.636   2.832   0.128
  593SOL    HW2 1814   0.609   2.872   0.284
  594SOL     OW 1815   1.579   1.997   1.465
  594SOL    HW1 1816   1.630   2.077   1.433
  594SOL    HW2 1817   1.531   2.020   1.550
  595SOL     OW 1818   0.140   2.519   0.532
  595SOL    HW1 1819   0.091   2.434   0.551
  595SOL    HW2 1820   0.120   2.586   0.604
  596SOL     OW 1821   1.861   3.595   0.315
  596SOL    HW1 1822   1.931   3.578   0.384
  596SOL    HW2 1823   1.870   3.689   0.281
  597SOL     OW 1824   4.955   3.480   0.122
  597SOL    HW1 1825   4.940   3.381   0.125
  597SOL    HW2 1826   4.982   3.512   0.213
  598SOL     OW 1827   1.678   2.810   0.664
  598SOL    HW1 1828   1.720   2.744   0.601
  598SOL    HW2 1829   1.644   2.888   0.612
  599SOL     OW 1830   1.605   2.999   0.480
  599SOL    HW1 1831   1.598   2.985   0.381
  599SOL    HW2 1832   1.672   3.071   0.499
  600SOL     OW 1833   0.210   2.565   1.628
  600SOL    HW1 1834   0.310   2.562   1.632
  600SOL    HW2 1835   0.180   2.659   1.644
  601SOL     OW 1836   0.620   3.236   0.736
  601SOL    HW1 1837   0.571   3.151   0.754
  601SOL    HW2 1838   0.612   3.259   0.639
  602SOL     OW 1839   1.256   3.077   1.423
  602SOL    HW1 1840   1.276   3.004   1.357
  602SOL    HW2 1841   1.325   3.075   1.496
  603SOL     OW 1842   0.835   1.878   0.516
  603SOL    HW1 1843   0.886   1.960   0.490
  603SOL    HW2 1844   0.737   1.898   0.512
  604SOL     OW 1845   0.226   2.854   1.250
  604SOL    HW1 1846   0.302   2.790   1.250
  604SOL    HW2 1847   0.154   2.820   1.190
  605SOL     OW 1848   1.534   2.898   0.226
  605SOL    HW1 1849   1.459   2.848   0.268
  605SOL    HW2 1850   1.608   2.834   0.204
  606SOL     OW 1851   1.201   3.683   1.633
  606SOL    HW1 1852   1.196   3.752   1.560
  606SOL    HW2 1853   1.205   3.592   1.592
  607SOL     OW 1854   0.378   2.179   1.837
  607SOL    HW1 1855   0.420   2.267   1.859
  607SOL    HW2 1856   0.346   2.135   1.921
  608SOL     OW 1857   1.450   3.276   0.924
  608SOL    HW1 1858   1.397   3.304   1.004
  608SOL    HW2 1859   1.435   3.179   0.906
  609SOL     OW 1860   1.637   3.699   0.557
  609SOL    HW1 1861   1.626   3.635   0.481
  609SOL    HW2 1862   1.655   3.648   0.641
  610SOL     OW 1863   0.599   2.569   0.299
  610SOL    HW1 1864   0.600   2.663   0.263
  610SOL    HW2 1865   0.533   2.562   0.373
  611SOL     OW 1866   1.282   2.249   0.943
  611SOL    HW1 1867   1.190   2.210   0.943
  611SOL    HW2 1868   1.341   2.194   1.003
  612SOL     OW 1869   1.598   3.529   0.348
  612SOL    HW1 1870   1.696   3.540   0.334
  612SOL    HW2 1871   1.552   3.519   0.259
  613SOL     OW 1872   0.803   2.441   1.445
  613SOL    HW1 1873   0.769   2.419   1.536
  613SOL    HW2 1874   0.775   2.369   1.381
  614SOL     OW 1875   1.393   2.328   1.665
  614SOL    HW1 1876   1.397   2.377   1.752
  614SOL    HW2 1877   1.431   2.237   1.676
  615SOL     OW 1878   0.945   2.740   1.581
  615SOL    HW1 1879   1.001   2.675   1.530
  615SOL    HW2 1880   0.886   2.789   1.518
  616SOL     OW 1881   1.013   2.247   1.187
  616SOL    HW1 1882   0.918   2.258   1.217
  616SOL    HW2 1883   1.015   2.195   1.102
  617SOL     OW 1884   1.057   2.561   0.432
  617SOL    HW1 1885   1.075   2.556   0.530
  617SOL    HW2 1886   0.971   2.513   0.411
  618SOL     OW 1887   0.109   2.707   0.735
  618SOL    HW1 1888   0.178   2.671   0.798
  618SOL    HW2 1889   0.114   2.807   0.733
  619SOL     OW 1890   0.118   3.742   1.575
  619SOL    HW1 1891   0.123   3.701   1.666
  619SOL    HW2 1892   0.040   3.704   1.525
  620SOL     OW 1893   0.889   2.205   0.212
  620SOL    HW1 1894   0.945   2.271   0.162
  620SOL    HW2 1895   0.884   2.120   0.160
  621SOL     OW 1896   1.669   2.421   1.836
  621SOL    HW1 1897   1.656   2.502   1.778
  621SOL    HW2 1898   1.690   2.342   1.778
  622SOL     OW 1899   1.373   3.038   0.607
  622SOL    HW1 1900   1.459   3.025   0.558
  622SOL    HW2 1901   1.315   3.102   0.557
  623SOL     OW 1902   0.575   1.989   0.927
  623SOL    HW1 1903   0.579   2.016   1.023
  623SOL    HW2 1904   0.570   2.072   0.870
  624SOL     OW 1905   0.978   3.329   0.480
  624SOL    HW1 1906   0.960   3.403   0.415
  624SOL    HW2 1907   0.938   3.352   0.569
  625SOL     OW 1908   0.381   3.661   0.884
  625SOL    HW1 1909   0.415   3.568   0.896
  625SOL    HW2 1910   0.450   3.726   0.917
  626SOL     OW 1911   1.799   2.903   0.898
  626SOL    HW1 1912   1.754   2.878   0.811
  626SOL    HW2 1913   1.729   2.915   0.969
  627SOL     OW 1914   1.200   3.399   1.518
  627SOL    HW1 1915   1.191   3.329   1.589
  627SOL    HW2 1916   1.138   3.378   1.443
  628SOL     OW 1917   0.299   2.841   0.309
  628SOL    HW1 1918   0.390   2.843   0.266
  628SOL    HW2 1919   0.273   2.746   0.327
  629SOL     OW 1920   1.479   2.622   0.713
  629SOL    HW1 1921   1.474   2.578   0.803
  629SOL    HW2 1922   1.556   2.686   0.712
  630SOL     OW 1923   0.497   3.151   1.748
  630SOL    HW1 1924   0.479   3.149   1.649
  630SOL    HW2 1925   0.410   3.151   1.797
  631SOL     OW 1926   1.099   3.636   0.158
  631SOL    HW1 1927   1.035   3.597   0.224
  631SOL    HW2 1928   1.148   3.562   0.112
  632SOL     OW 1929   0.208   2.121   1.476
  632SOL    HW1 1930   0.135   2.189   1.478
  632SOL    HW2 1931   0.175   2.036   1.516
  633SOL     OW 1932   1.665   3.234   0.179
  633SOL    HW1 1933   1.637   3.330   0.180
  633SOL    HW2 1934   1.589   3.178   0.148
  634SOL     OW 1935   0.524   3.547   0.367
  634SOL    HW1 1936   0.545   3.638   0.406
  634SOL    HW2 1937   0.575   3.536   0.281
  635SOL     OW 1938   1.392   1.946   0.471
  635SOL    HW1 1939   1.385   1.912   0.377
  635SOL    HW2 1940   1.485   1.931   0.506
  636SOL     OW 1941   0.279   3.659   1.211
  636SOL    HW1 1942   0.311   3.576   1.257
  636SOL    HW2 1943   0.217   3.634   1.137
  637SOL     OW 1944   0.960   3.548   0.897
  637SOL    HW1 1945   1.050   3.510   0.916
  637SOL    HW2 1946   0.915   3.493   0.826
  638SOL     OW 1947   0.408   2.526   0.485
  638SOL    HW1 1948   0.431   2.430   0.501
  638SOL    HW2 1949   0.309   2.538   0.496
  639SOL     OW 1950   1.470   2.062   1.718
  639SOL    HW1 1951   1.485   2.084   1.814
  639SOL    HW2 1952   1.401   1.990   1.711
  640SOL     OW 1953   0.642   2.015   0.080
  640SOL    HW1 1954   0.737   1.986   0.074
  640SOL    HW2 1955   0.628   2.095   0.021
  641SOL     OW 1956   0.785   2.142   1.740
  641SOL    HW1 1957   0.871   2.091   1.739
  641SOL    HW2 1958   0.726   2.105   1.812
  642SOL     OW 1959   0.865   3.377   1.177
  642SOL    HW1 1960   0.842   3.324   1.095
  642SOL    HW2 1961   0.932   3.327   1.231
  643SOL     OW 1962   1.313   2.453   1.433
  643SOL    HW1 1963   1.350   2.418   1.519
  643SOL    HW2 1964   1.349   2.544   1.416
  644SOL     OW 1965   0.808   3.218   0.949
  644SOL    HW1 1966   0.901   3.216   0.912
  644SOL    HW2 1967   0.743   3.228   0.874
  645SOL     OW 1968   0.921   2.372   0.883
  645SOL    HW1 1969   0.900   2.362   0.786
  645SOL    HW2 1970   0.952   2.285   0.920
  646SOL     OW 1971   0.568   1.934   0.480
  646SOL    HW1 1972   0.490   1.929   0.543
  646SOL    HW2 1973   0.553   2.008   0.415
  647SOL     OW 1974   1.431   3.112   0.094
  647SOL    HW1 1975   1.464   3.026   0.133
  647SOL    HW2 1976   1.344   3.137   0.137
  648SOL     OW 1977   0.274   1.962   0.300
  648SOL    HW1 1978   0.351   2.025   0.293
  648SOL    HW2 1979   0.281   1.892   0.229
  649SOL     OW 1980   0.971   2.107   0.455
  649SOL    HW1 1981   0.937   2.142   0.368
  649SOL    HW2 1982   1.069   2.124   0.462
  650SOL     OW 1983   1.054   2.554   1.415
  650SOL    HW1 1984   0.978   2.491   1.430
  650SOL    HW2 1985   1.141   2.504   1.422
  651SOL     OW 1986   1.219   3.426   0.807
  651SOL    HW1 1987   1.229   3.503   0.745
  651SOL    HW2 1988   1.309   3.395   0.837
  652SOL     OW 1989   0.468   3.008   0.756
  652SOL    HW1 1990   0.395   2.984   0.820
  652SOL    HW2 1991   0.432   3.010   0.663
  653SOL     OW 1992   1.239   3.647   0.636
  653SOL    HW1 1993   1.293   3.711   0.582
  653SOL    HW2 1994   1.159   3.693   0.675
  654SOL     OW 1995   1.064   2.373   0.089
  654SOL    HW1 1996   1.039   2.444   0.023
  654SOL    HW2 1997   1.137   2.407   0.148
  655SOL     OW 1998   0.098   2.451   1.402
  655SOL    HW1 1999   0.182   2.427   1.354
  655SOL    HW2 2000   0.122   2.499   1.487
  656SOL     OW 2001   0.574   2.052   1.190
  656SOL    HW1 2002   0.598   1.973   1.247
  656SOL    HW2 2003   0.478   2.075   1.204
  657SOL     OW 2004   0.879   2.313   0.622
  657SOL    HW1 2005   0.839   2.372   0.551
  657SOL    HW2 2006   0.910   2.228   0.581
  658SOL     OW 2007   1.009   1.908   0.740
  658SOL    HW1 2008   0.945   1.902   0.663
  658SOL    HW2 2009   0.990   1.834   0.805
  659SOL     OW 2010   1.408   3.002   0.882
  659SOL    HW1 2011   1.347   2.928   0.911
  659SOL    HW2 2012   1.399   3.017   0.783
  660SOL     OW 2013   1.448   2.482   0.950
  660SOL    HW1 2014   1.382   2.408   0.958
  660SOL    HW2 2015   1.513   2.478   1.027
  661SOL     OW 2016   1.759   2.654   0.446
  661SOL    HW1 2017   1.846   2.617   0.479
  661SOL    HW2 2018   1.774   2.699   0.358
  662SOL     OW 2019   0.512   3.299   0.087
  662SOL    HW1 2020   0.441   3.272   0.152
  662SOL    HW2 2021   0.474   3.300   4.994
  663SOL     OW 2022   1.771   3.182   0.586
  663SOL    HW1 2023   1.858   3.160   0.631
  663SOL    HW2 2024   1.724   3.253   0.638
  664SOL     OW 2025   1.430   2.451   0.083
  664SOL    HW1 2026   1.383   2.426   0.167
  664SOL    HW2 2027   1.508   2.390   0.069
  665SOL     OW 2028   0.499   2.123   0.284
  665SOL    HW1 2029   0.556   2.075   0.218
  665SOL    HW2 2030   0.482   2.216   0.252
  666SOL     OW 2031   1.744   3.100   1.530
  666SOL    HW1 2032   1.834   3.061   1.509
  666SOL    HW2 2033   1.755   3.190   1.572
  667SOL     OW 2034   1.030   3.217   1.345
  667SOL    HW1 2035   0.944   3.186   1.386
  667SOL    HW2 2036   1.106   3.167   1.386
  668SOL     OW 2037   1.621   3.509   1.673
  668SOL    HW1 2038   1.601   3.548   1.583
  668SOL    HW2 2039   1.698   3.446   1.666
  669SOL     OW 2040   1.146   3.116   1.115
  669SOL    HW1 2041   1.085   3.148   1.187
  669SOL    HW2 2042   1.110   3.144   1.026
  670SOL     OW 2043   1.602   2.957   1.085
  670SOL    HW1 2044   1.596   3.025   1.159
  670SOL    HW2 2045   1.529   2.974   1.018
  671SOL     OW 2046   0.948   1.926   1.380
  671SOL    HW1 2047   0.963   1.911   1.283
  671SOL    HW2 2048   1.027   1.974   1.419
  672SOL     OW 2049   0.970   2.974   1.719
  672SOL    HW1 2050   0.877   2.990   1.753
  672SOL    HW2 2051   0.971   2.891   1.664
  673SOL     OW 2052   0.726   2.913   0.414
  673SOL    HW1 2053   0.706   2.889   0.509
  673SOL    HW2 2054   0.810   2.868   0.385
  674SOL     OW 2055   0.430   2.662   1.255
  674SOL    HW1 2056   0.501   2.670   1.325
  674SOL    HW2 2057   0.387   2.572   1.261
  675SOL     OW 2058   1.264   2.231   1.284
  675SOL    HW1 2059   1.288   2.314   1.335
  675SOL    HW2 2060   1.171   2.242   1.247
  676SOL     OW 2061   0.077   3.428   1.322
  676SOL    HW1 2062   0.025   3.426   1.408
  676SOL    HW2 2063   0.175   3.425   1.343
  677SOL     OW 2064   0.351   3.018   0.515
  677SOL    HW1 2065   0.315   3.109   0.494
  677SOL    HW2 2066   0.329   2.955   0.441
  678SOL     OW 2067   0.516   2.387   0.885
  678SOL    HW1 2068   0.530   2.448   0.807
  678SOL    HW2 2069   0.589   2.403   0.952
  679SOL     OW 2070   1.236   3.233   0.464
  679SOL    HW1 2071   1.301   3.305   0.491
  679SOL    HW2 2072   1.143   3.264   0.483
  680SOL     OW 2073   1.311   3.335   1.148
  680SOL    HW1 2074   1.360   3.345   1.235
  680SOL    HW2 2075   1.255   3.252   1.149
  681SOL     OW 2076   1.559   2.471   0.485
  681SOL    HW1 2077   1.503   2.508   0.559
  681SOL    HW2 2078   1.630   2.537   0.460
  682SOL     OW 2079   0.358   3.402   1.315
  682SOL    HW1 2080   0.347   3.342   1.236
  682SOL    HW2 2081   0.455   3.426   1.325
  683SOL     OW 2082   0.485   2.580   1.652
  683SOL    HW1 2083   0.532   2.617   1.572
  683SOL    HW2 2084   0.541   2.507   1.693
  684SOL     OW 2085   1.630   2.646   1.688
  684SOL    HW1 2086   1.538   2.685   1.681
  684SOL    HW2 2087   1.687   2.682   1.614
  685SOL     OW 2088   1.013   1.991   1.744
  685SOL    HW1 2089   1.064   2.076   1.732
  685SOL    HW2 2090   1.075   1.913   1.736
  686SOL     OW 2091   0.505   1.947   1.741
  686SOL    HW1 2092   0.456   1.893   1.672
  686SOL    HW2 2093   0.454   2.031   1.761
  687SOL     OW 2094   0.593   2.724   1.038
  687SOL    HW1 2095   0.628   2.817   1.041
  687SOL    HW2 2096   0.528   2.709   1.113
  688SOL     OW 2097   1.286   2.721   0.990
  688SOL    HW1 2098   1.193   2.690   0.973
  688SOL    HW2 2099   1.350   2.645   0.977
  689SOL     OW 2100   1.247   2.415   0.297
  689SOL    HW1 2101   1.269   2.335   0.353
  689SOL    HW2 2102   1.186   2.476   0.347
  690SOL     OW 2103   0.301   2.060   1.222
  690SOL    HW1 2104   0.268   2.094   1.311
  690SOL    HW2 2105   0.296   1.960   1.221
  691SOL     OW 2106   4.990   3.153   1.351
  691SOL    HW1 2107   0.055   3.099   1.404
  691SOL    HW2 2108   0.033   3.240   1.324
  692SOL     OW 2109   0.719   2.477   1.050
  692SOL    HW1 2110   0.789   2.457   0.981
  692SOL    HW2 2111   0.681   2.568   1.032
  693SOL     OW 2112   1.753   2.828   1.860
  693SOL    HW1 2113   1.709   2.753   1.810
  693SOL    HW2 2114   1.694   2.855   1.937
  694SOL     OW 2115   0.343   1.914   0.638
  694SOL    HW1 2116   0.300   2.004   0.652
  694SOL    HW2 2117   0.353   1.868   0.726
  695SOL     OW 2118   1.581   2.243   0.331
  695SOL    HW1 2119   1.647   2.184   0.378
  695SOL    HW2 2120   1.565   2.325   0.385
  696SOL     OW 2121   1.026   2.613   0.955
  696SOL    HW1 2122   0.998   2.636   1.048
  696SOL    HW2 2123   0.993   2.521   0.932
  697SOL     OW 2124   0.987   3.426   1.772
  697SOL    HW1 2125   0.952   3.484   1.698
  697SOL    HW2 2126   1.023   3.341   1.734
  698SOL     OW 2127   1.840   3.352   1.606
  698SOL    HW1 2128   1.864   3.378   1.512
  698SOL    HW2 2129   1.920   3.365   1.665
  699SOL     OW 2130   0.404   2.785   1.822
  699SOL    HW1 2131   0.471   2.808   1.892
  699SOL    HW2 2132   0.437   2.709   1.767
  700SOL     OW 2133   1.460   2.111   0.118
  700SOL    HW1 2134   1.363   2.128   0.132
  700SOL    HW2 2135   1.513   2.158   0.188
  701SOL     OW 2136   1.284   2.682   0.061
  701SOL    HW1 2137   1.338   2.598   0.059
  701SOL    HW2 2138   1.321   2.747   4.995
  702SOL     OW 2139   1.064   3.209   0.868
  702SOL    HW1 2140   1.082   3.127   0.813
  702SOL    HW2 2141   1.121   3.284   0.833
  703SOL     OW 2142   0.317   2.663   0.915
  703SOL    HW1 2143   0.416   2.673   0.908
  703SOL    HW2 2144   0.295   2.579   0.964
  704SOL     OW 2145   0.277   2.361   1.005
  704SOL    HW1 2146   0.237   2.271   0.987
  704SOL    HW2 2147   0.364   2.369   0.955
  705SOL     OW 2148   1.139   2.226   1.689
  705SOL    HW1 2149   1.091   2.274   1.762
  705SOL    HW2 2150   1.228   2.269   1.674
  706SOL     OW 2151   1.171   2.055   1.474
  706SOL    HW1 2152   1.151   2.117   1.550
  706SOL    HW2 2153   1.214   2.107   1.399
  707SOL     OW 2154   4.936   3.205   0.117
  707SOL    HW1 2155   4.838   3.185   0.117
  707SOL    HW2 2156   4.985   3.135   0.169
  708SOL     OW 2157   0.117   3.683   0.940
  708SOL    HW1 2158   0.065   3.680   0.855
  708SOL    HW2 2159   0.215   3.671   0.920
  709SOL     OW 2160   0.493   3.408   0.915
  709SOL    HW1 2161   0.567   3.469   0.944
  709SOL    HW2 2162   0.528   3.343   0.847
  710SOL     OW 2163   0.920   2.660   1.200
  710SOL    HW1 2164   0.978   2.633   1.277
  710SOL    HW2 2165   0.838   2.604   1.199
  711SOL     OW 2166   0.057   2.494   1.118
  711SOL    HW1 2167   0.130   2.442   1.074
  711SOL    HW2 2168   0.056   2.475   1.216
  712SOL     OW 2169   0.150   2.333   1.765
  712SOL    HW1 2170   0.232   2.275   1.769
  712SOL    HW2 2171   0.171   2.415   1.711
  713SOL     OW 2172   1.397   2.782   1.638
  713SOL    HW1 2173   1.416   2.880   1.637
  713SOL    HW2 2174   1.384   2.750   1.544
  714SOL     OW 2175   0.824   2.429   0.372
  714SOL    HW1 2176   0.830   2.348   0.314
  714SOL    HW2 2177   0.744   2.483   0.346
  715SOL     OW 2178   1.634   2.470   1.152
  715SOL    HW1 2179   1.612   2.403   1.224
  715SOL    HW2 2180   1.732   2.465   1.132
  716SOL     OW 2181   0.305   3.428   1.693
  716SOL    HW1 2182   0.245   3.493   1.741
  716SOL    HW2 2183   0.298   3.339   1.738
  717SOL     OW 2184   0.743   2.273   1.235
  717SOL    HW1 2185   0.680   2.197   1.226
  717SOL    HW2 2186   0.719   2.344   1.168
  718SOL     OW 2187   0.871   3.571   1.547
  718SOL    HW1 2188   0.831   3.506   1.483
  718SOL    HW2 2189   0.898   3.653   1.497
  719SOL     OW 2190   0.465   2.371   0.167
  719SOL    HW1 2191   0.525   2.437   0.211
  719SOL    HW2 2192   0.374   2.411   0.154
  720SOL     OW 2193   0.183   2.999   1.475
  720SOL    HW1 2194   0.173   2.941   1.556
  720SOL    HW2 2195   0.201   2.942   1.395
  721SOL     OW 2196   1.276   2.892   1.205
  721SOL    HW1 2197   1.284   2.826   1.130
  721SOL    HW2 2198   1.229   2.974   1.171
  722SOL     OW 2199   1.327   2.756   0.326
  722SOL    HW1 2200   1.269   2.722   0.401
  722SOL    HW2 2201   1.301   2.711   0.241
  723SOL     OW 2202   1.774   3.572   1.171
  723SOL    HW1 2203   1.841   3.597   1.101
  723SOL    HW2 2204   1.733   3.484   1.148
  724SOL     OW 2205   1.250   3.602   1.101
  724SOL    HW1 2206   1.339   3.639   1.073
  724SOL    HW2 2207   1.259   3.504   1.119
  725SOL     OW 2208   0.114   3.092   1.076
  725SOL    HW1 2209   0.128   3.044   1.162
  725SOL    HW2 2210   0.017   3.107   1.061
  726SOL     OW 2211   0.690   3.582   1.754
  726SOL    HW1 2212   0.620   3.651   1.739
  726SOL    HW2 2213   0.762   3.592   1.685
  727SOL     OW 2214   0.912   1.964   0.061
  727SOL    HW1 2215   0.934   1.962   4.963
  727SOL    HW2 2216   0.979   1.909   0.111
  728SOL     OW 2217   1.771   2.079   0.456
  728SOL    HW1 2218   1.837   2.051   0.386
  728SOL    HW2 2219   1.728   1.997   0.494
  729SOL     OW 2220   1.410   3.441   0.534
  729SOL    HW1 2221   1.469   3.471   0.460
  729SOL    HW2 2222   1.348   3.515   0.560
  730SOL     OW 2223   0.146   3.617   1.817
  730SOL    HW1 2224   0.088   3.550   1.864
  730SOL    HW2 2225   0.210   3.657   1.882
  731SOL     OW 2226   1.276   2.786   0.638
  731SOL    HW1 2227   1.354   2.727   0.660
  731SOL    HW2 2228   1.310   2.876   0.612
  732SOL     OW 2229   0.775   3.148   1.431
  732SOL    HW1 2230   0.754   3.203   1.512
  732SOL    HW2 2231   0.701   3.155   1.365
  733SOL     OW 2232   0.680   3.505   0.147
  733SOL    HW1 2233   0.677   3.570   0.070
  733SOL    HW2 2234   0.627   3.423   0.124
  734SOL     OW 2235   1.606   3.599   1.402
  734SOL    HW1 2236   1.664   3.590   1.321
  734SOL    HW2 2237   1.588   3.695   1.419
  735SOL     OW 2238   1.845   2.006   0.962
  735SOL    HW1 2239   1.875   1.913   0.940
  735SOL    HW2 2240   1.753   2.022   0.924
  736SOL     OW 2241   0.238   2.160   0.700
  736SOL    HW1 2242   0.159   2.210   0.666
  736SOL    HW2 2243   0.230   2.147   0.798
  737SOL     OW 2244   1.245   3.430   0.049
  737SOL    HW1 2245   1.224   3.355   0.113
  737SOL    HW2 2246   1.268   3.392   4.960
  738SOL     OW 2247   0.805   2.874   1.391
  738SOL    HW1 2248   0.843   2.860   1.300
  738SOL    HW2 2249   0.795   2.972   1.409
  739SOL     OW 2250   0.953   2.797   0.324
  739SOL    HW1 2251   0.997   2.815   0.236
  739SOL    HW2 2252   0.995   2.716   0.366
  740SOL     OW 2253   1.522   3.470   0.087
  740SOL    HW1 2254   1.422   3.474   0.084
  740SOL    HW2 2255   1.556   3.425   0.004
  741SOL     OW 2256   0.398   3.173   1.498
  741SOL    HW1 2257   0.380   3.258   1.447
  741SOL    HW2 2258   0.321   3.110   1.486
  742SOL     OW 2259   1.591   3.150   1.295
  742SOL    HW1 2260   1.653   3.122   1.368
  742SOL    HW2 2261   1.527   3.218   1.329
  743SOL     OW 2262   1.087   2.965   0.753
  743SOL    HW1 2263   1.006   2.920   0.790
  743SOL    HW2 2264   1.145   2.898   0.707
  744SOL     OW 2265   1.038   2.100   0.951
  744SOL    HW1 2266   1.030   2.061   0.860
  744SOL    HW2 2267   1.035   2.026   1.019
  745SOL     OW 2268   0.618   3.313   0.479
  745SOL    HW1 2269   0.668   3.262   0.409
  745SOL    HW2 2270   0.575   3.393   0.437
  746SOL     OW 2271   1.770   2.209   1.413
  746SOL    HW1 2272   1.834   2.285   1.403
  746SOL    HW2 2273   1.790   2.139   1.344
  747SOL     OW 2274   0.290   3.234   0.242
  747SOL    HW1 2275   0.228   3.157   0.225
  747SOL    HW2 2276   0.285   3.260   0.339
  748SOL     OW 2277   0.165   2.833   1.703
  748SOL    HW1 2278   0.094   2.833   1.773
  748SOL    HW2 2279   0.255   2.827   1.746
  749SOL     OW 2280   0.719   2.058   1.485
  749SOL    HW1 2281   0.804   2.026   1.444
  749SOL    HW2 2282   0.737   2.095   1.576
  750SOL     OW 2283   4.986   2.237   4.984
  750SOL    HW1 2284   4.898   2.284   4.986
  750SOL    HW2 2285   0.055   2.298   4.946
  751SOL     OW 2286   1.399   2.710   1.375
  751SOL    HW1 2287   1.339   2.770   1.322
  751SOL    HW2 2288   1.492   2.715   1.338
  752SOL     OW 2289   0.032   2.000   0.423
  752SOL    HW1 2290   4.988   2.058   0.355
  752SOL    HW2 2291   0.128   1.986   0.397
  753SOL     OW 2292   1.188   3.203   0.193
  753SOL    HW1 2293   1.092   3.186   0.171
  753SOL    HW2 2294   1.201   3.203   0.292
  754SOL     OW 2295   0.636   2.662   1.435
  754SOL    HW1 2296   0.689   2.746   1.425
  754SOL    HW2 2297   0.699   2.584   1.437
  755SOL     OW 2298   1.505   3.684   1.039
  755SOL    HW1 2299   1.531   3.752   0.969
  755SOL    HW2 2300   1.586   3.636   1.071
  756SOL     OW 2301   0.721   2.411   1.705
  756SOL    HW1 2302   0.779   2.470   1.761
  756SOL    HW2 2303   0.742   2.315   1.725
  757SOL     OW 2304   1.469   3.047   1.621
  757SOL    HW1 2305   1.457   3.069   1.718
  757SOL    HW2 2306   1.563   3.070   1.593
  758SOL     OW 2307   0.376   3.641   1.540
  758SOL    HW1 2308   0.285   3.683   1.530
  758SOL    HW2 2309   0.366   3.551   1.582
  759SOL     OW 2310   1.644   2.735   1.250
  759SOL    HW1 2311   1.646   2.648   1.202
  759SOL    HW2 2312   1.633   2.810   1.184
  760SOL     OW 2313   1.241   2.175   0.454
  760SOL    HW1 2314   1.300   2.094   0.458
  760SOL    HW2 2315   1.255   2.230   0.536
  761SOL     OW 2316   0.565   2.590   0.704
  761SOL    HW1 2317   0.612   2.677   0.694
  761SOL    HW2 2318   0.507   2.574   0.624
  762SOL     OW 2319   1.723   2.193   1.686
  762SOL    HW1 2320   1.740   2.200   1.587
  762SOL    HW2 2321   1.643   2.134   1.702
  763SOL     OW 2322   1.767   2.778   1.493
  763SOL    HW1 2323   1.753   2.874   1.518
  763SOL    HW2 2324   1.729   2.762   1.401
  764SOL     OW 2325   0.920   3.182   0.077
  764SOL    HW1 2326   0.876   3.165   0.166
  764SOL    HW2 2327   0.862   3.244   0.023
  765SOL     OW 2328   0.685   3.599   0.946
  765SOL    HW1 2329   0.664   3.697   0.941
  765SOL    HW2 2330   0.784   3.586   0.942
  766SOL     OW 2331   0.874   2.840   0.877
  766SOL    HW1 2332   0.923   2.757   0.905
  766SOL    HW2 2333   0.826   2.879   0.955
  767SOL     OW 2334   1.055   2.832   0.062
  767SOL    HW1 2335   1.075   2.919   0.016
  767SOL    HW2 2336   1.140   2.779   0.071
  768SOL     OW 2337   1.862   3.386   0.852
  768SOL    HW1 2338   1.774   3.384   0.805
  768SOL    HW2 2339   1.882   3.295   0.890
  769SOL     OW 2340   0.251   3.200   1.856
  769SOL    HW1 2341   0.158   3.176   1.829
  769SOL    HW2 2342   0.256   3.211   1.955
  770SOL     OW 2343   0.121   3.165   0.728
  770SOL    HW1 2344   0.160   3.093   0.785
  770SOL    HW2 2345   0.048   3.127   0.671
  771SOL     OW 2346   0.702   3.310   1.646
  771SOL    HW1 2347   0.624   3.258   1.683
  771SOL    HW2 2348   0.700   3.403   1.684
  772SOL     OW 2349   1.816   2.011   1.235
  772SOL    HW1 2350   1.812   1.913   1.252
  772SOL    HW2 2351   1.829   2.028   1.137
  773SOL     OW 2352   0.439   2.263   0.529
  773SOL    HW1 2353   0.456   2.198   0.455
  773SOL    HW2 2354   0.375   2.223   0.595
  774SOL     OW 2355   1.658   3.340   1.104
  774SOL    HW1 2356   1.593   3.322   1.030
  774SOL    HW2 2357   1.652   3.268   1.173
  775SOL     OW 2358   0.335   2.403   1.276
  775SOL    HW1 2359   0.393   2.341   1.328
  775SOL    HW2 2360   0.328   2.370   1.181
  776SOL     OW 2361   0.824   3.433   0.689
  776SOL    HW1 2362   0.787   3.511   0.638
  776SOL    HW2 2363   0.752   3.366   0.704
  777SOL     OW 2364   1.429   2.097   1.117
  777SOL    HW1 2365   1.440   2.000   1.139
  777SOL    HW2 2366   1.377   2.142   1.189
  778SOL     OW 2367   1.023   1.874   1.114
  778SOL    HW1 2368   0.965   1.809   1.065
  778SOL    HW2 2369   1.116   1.837   1.120
  779SOL     OW 2370   0.809   3.163   0.328
  779SOL    HW1 2371   0.778   3.074   0.362
  779SOL    HW2 2372   0.874   3.202   0.392
  780SOL     OW 2373   0.632   3.456   1.291
  780SOL    HW1 2374   0.624   3.553   1.314
  780SOL    HW2 2375   0.719   3.440   1.244
  781SOL     OW 2376   1.365   1.864   0.215
  781SOL    HW1 2377   1.405   1.940   0.164
  781SOL    HW2 2378   1.270   1.851   0.188
  782SOL     OW 2379   1.283   2.326   0.677
  782SOL    HW1 2380   1.232   2.412   0.676
  782SOL    HW2 2381   1.287   2.292   0.771
  783SOL     OW 2382   1.587   2.059   0.895
  783SOL    HW1 2383   1.532   2.083   0.975
  783SOL    HW2 2384   1.587   2.136   0.830
  784SOL     OW 2385   0.095   3.036   0.268
  784SOL    HW1 2386   0.151   2.953   0.276
  784SOL    HW2 2387   0.045   3.050   0.353
  785SOL     OW 2388   0.897   3.543   0.323
  785SOL    HW1 2389   0.819   3.526   0.263
  785SOL    HW2 2390   0.872   3.611   0.392
  786SOL     OW 2391   0.177   2.493   2.000
  786SOL    HW1 2392   0.098   2.490   2.062
  786SOL    HW2 2393   0.153   2.450   1.913
  787SOL     OW 2394   0.199   2.100   2.846
  787SOL    HW1 2395   0.232   2.094   2.940
  787SOL    HW2 2396   0.147   2.018   2.823
  788SOL     OW 2397   0.000   2.347   2.401
  788SOL    HW1 2398   4.911   2.344   2.447
  788SOL    HW2 2399   0.062   2.281   2.443
  789SOL     OW 2400   0.590   3.182   3.088
  789SOL    HW1 2401   0.499   3.176   3.047
  789SOL    HW2 2402   0.612   3.278   3.106
  790SOL     OW 2403   1.593   3.379   2.563
  790SOL    HW1 2404   1.543   3.343   2.642
  790SOL    HW2 2405   1.530   3.391   2.486
  791SOL     OW 2406   1.137   2.573   2.533
  791SOL    HW1 2407   1.188   2.657   2.513
  791SOL    HW2 2408   1.087   2.584   2.619
  792SOL     OW 2409   1.801   2.428   2.070
  792SOL    HW1 2410   1.760   2.433   1.979
  792SOL    HW2 2411   1.752   2.360   2.124
  793SOL     OW 2412   0.726   2.995   2.926
  793SOL    HW1 2413   0.670   3.033   2.999
  793SOL    HW2 2414   0.764   3.069   2.870
  794SOL     OW 2415   0.894   2.585   3.666
  794SOL    HW1 2416   0.925   2.650   3.736
  794SOL    HW2 2417   0.901   2.628   3.576
  795SOL     OW 2418   0.680   2.836   2.531
  795SOL    HW1 2419   0.758   2.838   2.594
  795SOL    HW2 2420   0.610   2.900   2.562
  796SOL     OW 2421   0.723   3.018   3.709
  796SOL    HW1 2422   0.782   3.088   3.749
  796SOL    HW2 2423   0.645   3.062   3.663
  797SOL     OW 2424   0.346   3.245   2.959
  797SOL    HW1 2425   0.264   3.197   2.928
  797SOL    HW2 2426   0.385   3.297   2.883
  798SOL     OW 2427   1.444   3.372   3.242
  798SOL    HW1 2428   1.502   3.453   3.254
  798SOL    HW2 2429   1.365   3.378   3.302
  799SOL     OW 2430   0.471   2.215   3.321
  799SOL    HW1 2431   0.559   2.167   3.319
  799SOL    HW2 2432   0.423   2.193   3.406
  800SOL     OW 2433   1.578   2.305   2.612
  800SOL    HW1 2434   1.508   2.308   2.540
  800SOL    HW2 2435   1.558   2.375   2.681
  801SOL     OW 2436   0.244   3.582   2.362
  801SOL    HW1 2437   0.276   3.656   2.421
  801SOL    HW2 2438   0.310   3.569   2.288
  802SOL     OW 2439   1.126   3.196   3.563
  802SOL    HW1 2440   1.184   3.185   3.643
  802SOL    HW2 2441   1.069   3.115   3.552
  803SOL     OW 2442   0.161   3.321   2.348
  803SOL    HW1 2443   0.186   3.416   2.363
  803SOL    HW2 2444   0.168   3.270   2.434
  804SOL     OW 2445   0.264   2.949   2.758
  804SOL    HW1 2446   0.281   2.851   2.770
  804SOL    HW2 2447   0.209   2.983   2.834
  805SOL     OW 2448   0.587   3.709   3.245
  805SOL    HW1 2449   0.506   3.680   3.295
  805SOL    HW2 2450   0.633   3.781   3.296
  806SOL     OW 2451   0.586   2.854   2.035
  806SOL    HW1 2452   0.637   2.900   1.962
  806SOL    HW2 2453   0.624   2.880   2.124
  807SOL     OW 2454   1.583   1.999   3.329
  807SOL    HW1 2455   1.633   2.078   3.294
  807SOL    HW2 2456   1.537   2.024   3.414
  808SOL     OW 2457   0.140   2.598   2.369
  808SOL    HW1 2458   0.094   2.510   2.375
  808SOL    HW2 2459   0.121   2.651   2.452
  809SOL     OW 2460   1.861   3.606   2.175
  809SOL    HW1 2461   1.936   3.595   2.240
  809SOL    HW2 2462   1.861   3.700   2.140
  810SOL     OW 2463   0.013   3.434   1.963
  810SOL    HW1 2464   0.005   3.335   1.966
  810SOL    HW2 2465   4.974   3.473   2.046
  811SOL     OW 2466   1.701   2.794   2.528
  811SOL    HW1 2467   1.793   2.754   2.533
  811SOL    HW2 2468   1.692   2.845   2.443
  812SOL     OW 2469   1.677   2.970   2.304
  812SOL    HW1 2470   1.760   2.949   2.253
  812SOL    HW2 2471   1.697   3.041   2.372
  813SOL     OW 2472   0.210   2.586   3.475
  813SOL    HW1 2473   0.310   2.577   3.479
  813SOL    HW2 2474   0.184   2.680   3.495
  814SOL     OW 2475   0.620   3.250   2.582
  814SOL    HW1 2476   0.577   3.160   2.595
  814SOL    HW2 2477   0.601   3.284   2.490
  815SOL     OW 2478   1.257   3.076   3.280
  815SOL    HW1 2479   1.276   3.004   3.213
  815SOL    HW2 2480   1.325   3.073   3.352
  816SOL     OW 2481   0.836   1.875   2.378
  816SOL    HW1 2482   0.876   1.959   2.343
  816SOL    HW2 2483   0.738   1.887   2.391
  817SOL     OW 2484   0.229   2.839   3.125
  817SOL    HW1 2485   0.303   2.773   3.115
  817SOL    HW2 2486   0.161   2.825   3.053
  818SOL     OW 2487   1.552   2.895   2.064
  818SOL    HW1 2488   1.476   2.834   2.087
  818SOL    HW2 2489   1.597   2.925   2.149
  819SOL     OW 2490   1.194   3.683   3.493
  819SOL    HW1 2491   1.191   3.752   3.421
  819SOL    HW2 2492   1.199   3.592   3.452
  820SOL     OW 2493   0.421   2.173   3.618
  820SOL    HW1 2494   0.469   2.259   3.633
  820SOL    HW2 2495   0.369   2.149   3.700
  821SOL     OW 2496   1.462   3.275   2.782
  821SOL    HW1 2497   1.405   3.300   2.860
  821SOL    HW2 2498   1.443   3.180   2.757
  822SOL     OW 2499   1.630   3.689   2.404
  822SOL    HW1 2500   1.620   3.630   2.324
  822SOL    HW2 2501   1.637   3.634   2.486
  823SOL     OW 2502   0.600   2.577   2.120
  823SOL    HW1 2503   0.607   2.671   2.086
  823SOL    HW2 2504   0.531   2.573   2.193
  824SOL     OW 2505   1.279   2.260   2.801
  824SOL    HW1 2506   1.187   2.221   2.800
  824SOL    HW2 2507   1.338   2.205   2.859
  825SOL     OW 2508   1.597   3.530   2.181
  825SOL    HW1 2509   1.695   3.544   2.174
  825SOL    HW2 2510   1.558   3.519   2.089
  826SOL     OW 2511   0.792   2.429   3.319
  826SOL    HW1 2512   0.752   2.402   3.407
  826SOL    HW2 2513   0.766   2.363   3.249
  827SOL     OW 2514   1.390   2.331   3.524
  827SOL    HW1 2515   1.395   2.380   3.611
  827SOL    HW2 2516   1.432   2.240   3.535
  828SOL     OW 2517   0.937   2.737   3.434
  828SOL    HW1 2518   0.992   2.670   3.384
  828SOL    HW2 2519   0.883   2.790   3.369
  829SOL     OW 2520   1.005   2.243   3.053
  829SOL    HW1 2521   0.910   2.255   3.082
  829SOL    HW2 2522   1.007   2.199   2.963
  830SOL     OW 2523   1.053   2.554   2.269
  830SOL    HW1 2524   1.076   2.552   2.366
  830SOL    HW2 2525   0.965   2.507   2.255
  831SOL     OW 2526   0.095   2.732   2.606
  831SOL    HW1 2527   0.171   2.693   2.658
  831SOL    HW2 2528   0.079   2.826   2.636
  832SOL     OW 2529   0.120   3.732   3.454
  832SOL    HW1 2530   0.132   3.700   3.548
  832SOL    HW2 2531   0.043   3.683   3.413
  833SOL     OW 2532   0.865   2.201   2.062
  833SOL    HW1 2533   0.922   2.246   1.993
  833SOL    HW2 2534   0.802   2.138   2.016
  834SOL     OW 2535   1.667   2.422   3.696
  834SOL    HW1 2536   1.655   2.503   3.639
  834SOL    HW2 2537   1.691   2.344   3.639
  835SOL     OW 2538   1.412   3.025   2.416
  835SOL    HW1 2539   1.498   3.010   2.368
  835SOL    HW2 2540   1.355   3.088   2.362
  836SOL     OW 2541   0.581   1.994   2.791
  836SOL    HW1 2542   0.576   2.026   2.885
  836SOL    HW2 2543   0.579   2.073   2.729
  837SOL     OW 2544   0.999   3.322   2.328
  837SOL    HW1 2545   0.980   3.398   2.267
  837SOL    HW2 2546   0.966   3.344   2.420
  838SOL     OW 2547   0.378   3.658   2.749
  838SOL    HW1 2548   0.409   3.563   2.760
  838SOL    HW2 2549   0.448   3.720   2.784
  839SOL     OW 2550   1.789   2.916   2.767
  839SOL    HW1 2551   1.743   2.901   2.680
  839SOL    HW2 2552   1.720   2.927   2.839
  840SOL     OW 2553   1.200   3.394   3.375
  840SOL    HW1 2554   1.189   3.325   3.446
  840SOL    HW2 2555   1.137   3.375   3.300
  841SOL     OW 2556   0.322   2.813   2.153
  841SOL    HW1 2557   0.406   2.825   2.101
  841SOL    HW2 2558   0.312   2.717   2.178
  842SOL     OW 2559   1.486   2.631   2.569
  842SOL    HW1 2560   1.480   2.585   2.657
  842SOL    HW2 2561   1.567   2.689   2.567
  843SOL     OW 2562   0.498   3.150   3.605
  843SOL    HW1 2563   0.478   3.149   3.507
  843SOL    HW2 2564   0.413   3.150   3.656
  844SOL     OW 2565   1.160   3.622   2.097
  844SOL    HW1 2566   1.069   3.602   2.133
  844SOL    HW2 2567   1.184   3.553   2.028
  845SOL     OW 2568   0.149   2.125   3.367
  845SOL    HW1 2569   0.060   2.141   3.326
  845SOL    HW2 2570   0.152   2.032   3.405
  846SOL     OW 2571   1.642   3.251   1.957
  846SOL    HW1 2572   1.607   3.344   1.945
  846SOL    HW2 2573   1.571   3.185   1.931
  847SOL     OW 2574   0.479   3.582   2.197
  847SOL    HW1 2575   0.519   3.652   2.256
  847SOL    HW2 2576   0.544   3.558   2.125
  848SOL     OW 2577   1.398   1.962   2.313
  848SOL    HW1 2578   1.399   1.938   2.216
  848SOL    HW2 2579   1.486   1.936   2.354
  849SOL     OW 2580   0.266   3.659   3.100
  849SOL    HW1 2581   0.315   3.577   3.129
  849SOL    HW2 2582   0.170   3.637   3.084
  850SOL     OW 2583   0.954   3.552   2.748
  850SOL    HW1 2584   1.046   3.515   2.762
  850SOL    HW2 2585   0.910   3.502   2.673
  851SOL     OW 2586   0.400   2.553   2.310
  851SOL    HW1 2587   0.411   2.454   2.313
  851SOL    HW2 2588   0.306   2.577   2.331
  852SOL     OW 2589   1.475   2.069   3.580
  852SOL    HW1 2590   1.492   2.090   3.676
  852SOL    HW2 2591   1.403   1.999   3.574
  853SOL     OW 2592   0.672   2.005   1.952
  853SOL    HW1 2593   0.712   1.921   1.990
  853SOL    HW2 2594   0.598   1.981   1.888
  854SOL     OW 2595   0.767   2.131   3.625
  854SOL    HW1 2596   0.856   2.085   3.618
  854SOL    HW2 2597   0.709   2.081   3.689
  855SOL     OW 2598   0.865   3.374   3.032
  855SOL    HW1 2599   0.843   3.324   2.948
  855SOL    HW2 2600   0.931   3.322   3.086
  856SOL     OW 2601   1.306   2.452   3.292
  856SOL    HW1 2602   1.345   2.418   3.378
  856SOL    HW2 2603   1.341   2.543   3.274
  857SOL     OW 2604   0.810   3.224   2.797
  857SOL    HW1 2605   0.904   3.226   2.762
  857SOL    HW2 2606   0.746   3.239   2.722
  858SOL     OW 2607   0.929   2.369   2.729
  858SOL    HW1 2608   0.906   2.360   2.632
  858SOL    HW2 2609   0.957   2.280   2.765
  859SOL     OW 2610   0.558   1.890   2.396
  859SOL    HW1 2611   0.473   1.906   2.446
  859SOL    HW2 2612   0.577   1.968   2.336
  860SOL     OW 2613   1.432   3.077   1.896
  860SOL    HW1 2614   1.474   3.005   1.951
  860SOL    HW2 2615   1.344   3.103   1.935
  861SOL     OW 2616   0.331   1.837   2.018
  861SOL    HW1 2617   0.316   1.931   2.047
  861SOL    HW2 2618   0.376   1.786   2.092
  862SOL     OW 2619   0.968   2.103   2.301
  862SOL    HW1 2620   0.926   2.136   2.217
  862SOL    HW2 2621   1.065   2.127   2.302
  863SOL     OW 2622   1.043   2.545   3.275
  863SOL    HW1 2623   0.969   2.480   3.294
  863SOL    HW2 2624   1.131   2.497   3.281
  864SOL     OW 2625   1.214   3.449   2.667
  864SOL    HW1 2626   1.227   3.514   2.592
  864SOL    HW2 2627   1.300   3.440   2.718
  865SOL     OW 2628   0.479   3.012   2.592
  865SOL    HW1 2629   0.413   2.991   2.664
  865SOL    HW2 2630   0.433   3.007   2.503
  866SOL     OW 2631   1.246   3.649   2.474
  866SOL    HW1 2632   1.296   3.713   2.415
  866SOL    HW2 2633   1.169   3.697   2.516
  867SOL     OW 2634   1.028   2.356   1.900
  867SOL    HW1 2635   0.988   2.444   1.873
  867SOL    HW2 2636   1.096   2.371   1.972
  868SOL     OW 2637   0.085   2.469   3.254
  868SOL    HW1 2638   0.167   2.425   3.216
  868SOL    HW2 2639   0.111   2.527   3.331
  869SOL     OW 2640   0.557   2.061   3.054
  869SOL    HW1 2641   0.581   1.978   3.105
  869SOL    HW2 2642   0.462   2.085   3.072
  870SOL     OW 2643   0.879   2.315   2.467
  870SOL    HW1 2644   0.834   2.370   2.398
  870SOL    HW2 2645   0.910   2.229   2.427
  871SOL     OW 2646   1.024   1.919   2.595
  871SOL    HW1 2647   0.964   1.926   2.515
  871SOL    HW2 2648   0.992   1.846   2.655
  872SOL     OW 2649   1.419   3.009   2.718
  872SOL    HW1 2650   1.346   2.943   2.738
  872SOL    HW2 2651   1.431   3.016   2.619
  873SOL     OW 2652   1.452   2.487   2.805
  873SOL    HW1 2653   1.384   2.414   2.813
  873SOL    HW2 2654   1.514   2.483   2.883
  874SOL     OW 2655   1.808   2.642   2.239
  874SOL    HW1 2656   1.871   2.610   2.310
  874SOL    HW2 2657   1.803   2.574   2.166
  875SOL     OW 2658   0.517   3.292   2.015
  875SOL    HW1 2659   0.437   3.258   2.066
  875SOL    HW2 2660   0.519   3.249   1.925
  876SOL     OW 2661   1.743   3.146   2.493
  876SOL    HW1 2662   1.840   3.140   2.519
  876SOL    HW2 2663   1.706   3.234   2.521
  877SOL     OW 2664   1.390   2.441   1.913
  877SOL    HW1 2665   1.337   2.411   1.993
  877SOL    HW2 2666   1.487   2.425   1.930
  878SOL     OW 2667   0.625   2.076   2.220
  878SOL    HW1 2668   0.625   2.078   2.120
  878SOL    HW2 2669   0.561   2.145   2.255
  879SOL     OW 2670   1.744   3.097   3.393
  879SOL    HW1 2671   1.834   3.059   3.372
  879SOL    HW2 2672   1.754   3.187   3.435
  880SOL     OW 2673   1.030   3.214   3.201
  880SOL    HW1 2674   0.945   3.184   3.244
  880SOL    HW2 2675   1.107   3.165   3.242
  881SOL     OW 2676   1.621   3.510   3.536
  881SOL    HW1 2677   1.601   3.547   3.446
  881SOL    HW2 2678   1.697   3.445   3.529
  882SOL     OW 2679   1.149   3.121   2.969
  882SOL    HW1 2680   1.088   3.150   3.042
  882SOL    HW2 2681   1.112   3.150   2.881
  883SOL     OW 2682   1.590   2.957   2.951
  883SOL    HW1 2683   1.584   3.026   3.023
  883SOL    HW2 2684   1.519   2.975   2.882
  884SOL     OW 2685   0.939   1.932   3.246
  884SOL    HW1 2686   0.954   1.914   3.149
  884SOL    HW2 2687   1.019   1.977   3.285
  885SOL     OW 2688   0.968   2.966   3.582
  885SOL    HW1 2689   0.876   2.984   3.616
  885SOL    HW2 2690   0.967   2.885   3.523
  886SOL     OW 2691   0.722   2.921   2.267
  886SOL    HW1 2692   0.701   2.890   2.360
  886SOL    HW2 2693   0.804   2.875   2.234
  887SOL     OW 2694   0.433   2.648   3.106
  887SOL    HW1 2695   0.504   2.659   3.175
  887SOL    HW2 2696   0.387   2.559   3.120
  888SOL     OW 2697   1.257   2.227   3.148
  888SOL    HW1 2698   1.281   2.311   3.197
  888SOL    HW2 2699   1.164   2.236   3.111
  889SOL     OW 2700   0.077   3.438   3.197
  889SOL    HW1 2701   0.023   3.443   3.282
  889SOL    HW2 2702   0.174   3.431   3.220
  890SOL     OW 2703   0.336   3.009   2.355
  890SOL    HW1 2704   0.358   3.084   2.292
  890SOL    HW2 2705   0.327   2.925   2.303
  891SOL     OW 2706   0.506   2.401   2.752
  891SOL    HW1 2707   0.514   2.455   2.669
  891SOL    HW2 2708   0.588   2.414   2.808
  892SOL     OW 2709   1.254   3.220   2.272
  892SOL    HW1 2710   1.315   3.293   2.301
  892SOL    HW2 2711   1.160   3.242   2.299
  893SOL     OW 2712   1.318   3.337   3.002
  893SOL    HW1 2713   1.363   3.345   3.091
  893SOL    HW2 2714   1.259   3.256   3.003
  894SOL     OW 2715   1.584   2.493   2.343
  894SOL    HW1 2716   1.533   2.536   2.417
  894SOL    HW2 2717   1.649   2.559   2.305
  895SOL     OW 2718   0.361   3.400   3.180
  895SOL    HW1 2719   0.346   3.343   3.099
  895SOL    HW2 2720   0.458   3.423   3.188
  896SOL     OW 2721   0.490   2.579   3.509
  896SOL    HW1 2722   0.530   2.619   3.427
  896SOL    HW2 2723   0.551   2.508   3.544
  897SOL     OW 2724   1.629   2.648   3.551
  897SOL    HW1 2725   1.537   2.686   3.543
  897SOL    HW2 2726   1.686   2.684   3.477
  898SOL     OW 2727   1.000   1.995   3.613
  898SOL    HW1 2728   1.059   2.076   3.600
  898SOL    HW2 2729   1.053   1.913   3.592
  899SOL     OW 2730   0.509   1.915   3.603
  899SOL    HW1 2731   0.460   1.861   3.535
  899SOL    HW2 2732   0.477   2.010   3.600
  900SOL     OW 2733   0.647   2.721   2.934
  900SOL    HW1 2734   0.663   2.819   2.925
  900SOL    HW2 2735   0.559   2.705   2.979
  901SOL     OW 2736   1.285   2.719   2.849
  901SOL    HW1 2737   1.193   2.688   2.825
  901SOL    HW2 2738   1.350   2.644   2.833
  902SOL     OW 2739   1.204   2.383   2.113
  902SOL    HW1 2740   1.222   2.304   2.172
  902SOL    HW2 2741   1.157   2.453   2.167
  903SOL     OW 2742   0.285   2.072   3.107
  903SOL    HW1 2743   0.256   2.106   3.196
  903SOL    HW2 2744   0.280   1.972   3.106
  904SOL     OW 2745   0.009   3.168   3.184
  904SOL    HW1 2746   0.064   3.114   3.247
  904SOL    HW2 2747   0.037   3.264   3.189
  905SOL     OW 2748   0.727   2.462   2.901
  905SOL    HW1 2749   0.801   2.445   2.835
  905SOL    HW2 2750   0.704   2.560   2.900
  906SOL     OW 2751   1.753   2.831   3.721
  906SOL    HW1 2752   1.711   2.756   3.670
  906SOL    HW2 2753   1.693   2.859   3.795
  907SOL     OW 2754   0.302   1.914   2.514
  907SOL    HW1 2755   0.259   2.003   2.519
  907SOL    HW2 2756   0.325   1.882   2.606
  908SOL     OW 2757   1.620   2.262   2.200
  908SOL    HW1 2758   1.664   2.194   2.259
  908SOL    HW2 2759   1.593   2.341   2.255
  909SOL     OW 2760   1.026   2.615   2.799
  909SOL    HW1 2761   1.002   2.635   2.894
  909SOL    HW2 2762   0.997   2.522   2.776
  910SOL     OW 2763   0.988   3.425   3.631
  910SOL    HW1 2764   0.954   3.483   3.557
  910SOL    HW2 2765   1.022   3.339   3.593
  911SOL     OW 2766   1.838   3.350   3.468
  911SOL    HW1 2767   1.860   3.379   3.374
  911SOL    HW2 2768   1.919   3.363   3.526
  912SOL     OW 2769   0.406   2.780   3.684
  912SOL    HW1 2770   0.474   2.804   3.753
  912SOL    HW2 2771   0.442   2.707   3.626
  913SOL     OW 2772   1.515   2.127   1.977
  913SOL    HW1 2773   1.469   2.046   2.014
  913SOL    HW2 2774   1.552   2.181   2.052
  914SOL     OW 2775   1.279   2.685   1.867
  914SOL    HW1 2776   1.316   2.593   1.879
  914SOL    HW2 2777   1.317   2.725   1.783
  915SOL     OW 2778   1.070   3.221   2.723
  915SOL    HW1 2779   1.090   3.138   2.670
  915SOL    HW2 2780   1.125   3.297   2.689
  916SOL     OW 2781   0.322   2.671   2.749
  916SOL    HW1 2782   0.396   2.648   2.686
  916SOL    HW2 2783   0.319   2.602   2.822
  917SOL     OW 2784   0.277   2.359   2.885
  917SOL    HW1 2785   0.239   2.269   2.863
  917SOL    HW2 2786   0.361   2.373   2.832
  918SOL     OW 2787   1.140   2.224   3.556
  918SOL    HW1 2788   1.093   2.273   3.630
  918SOL    HW2 2789   1.228   2.268   3.538
  919SOL     OW 2790   1.166   2.053   3.341
  919SOL    HW1 2791   1.149   2.114   3.418
  919SOL    HW2 2792   1.208   2.104   3.266
  920SOL     OW 2793   4.982   3.149   1.973
  920SOL    HW1 2794   4.949   3.189   2.058
  920SOL    HW2 2795   0.019   3.058   1.992
  921SOL     OW 2796   0.110   3.687   2.799
  921SOL    HW1 2797   0.065   3.668   2.712
  921SOL    HW2 2798   0.209   3.671   2.790
  922SOL     OW 2799   0.490   3.402   2.777
  922SOL    HW1 2800   0.563   3.462   2.809
  922SOL    HW2 2801   0.524   3.344   2.703
  923SOL     OW 2802   0.935   2.660   3.049
  923SOL    HW1 2803   0.982   2.625   3.130
  923SOL    HW2 2804   0.839   2.631   3.052
  924SOL     OW 2805   0.065   2.519   2.973
  924SOL    HW1 2806   0.135   2.459   2.934
  924SOL    HW2 2807   0.057   2.501   3.071
  925SOL     OW 2808   0.133   2.341   3.571
  925SOL    HW1 2809   0.168   2.267   3.513
  925SOL    HW2 2810   0.157   2.429   3.531
  926SOL     OW 2811   1.394   2.781   3.498
  926SOL    HW1 2812   1.414   2.879   3.497
  926SOL    HW2 2813   1.380   2.749   3.404
  927SOL     OW 2814   0.814   2.428   2.217
  927SOL    HW1 2815   0.821   2.344   2.165
  927SOL    HW2 2816   0.737   2.482   2.183
  928SOL     OW 2817   1.631   2.472   3.013
  928SOL    HW1 2818   1.608   2.406   3.085
  928SOL    HW2 2819   1.729   2.466   2.993
  929SOL     OW 2820   0.311   3.434   3.570
  929SOL    HW1 2821   0.260   3.500   3.624
  929SOL    HW2 2822   0.302   3.343   3.611
  930SOL     OW 2823   0.734   2.274   3.100
  930SOL    HW1 2824   0.670   2.198   3.088
  930SOL    HW2 2825   0.719   2.342   3.028
  931SOL     OW 2826   0.872   3.570   3.403
  931SOL    HW1 2827   0.832   3.504   3.340
  931SOL    HW2 2828   0.900   3.652   3.353
  932SOL     OW 2829   0.442   2.424   1.942
  932SOL    HW1 2830   0.513   2.466   1.998
  932SOL    HW2 2831   0.352   2.455   1.972
  933SOL     OW 2832   0.177   3.005   3.332
  933SOL    HW1 2833   0.170   2.952   3.416
  933SOL    HW2 2834   0.196   2.944   3.255
  934SOL     OW 2835   1.275   2.894   3.060
  934SOL    HW1 2836   1.283   2.827   2.986
  934SOL    HW2 2837   1.229   2.976   3.025
  935SOL     OW 2838   1.334   2.746   2.131
  935SOL    HW1 2839   1.268   2.707   2.196
  935SOL    HW2 2840   1.306   2.723   2.038
  936SOL     OW 2841   1.758   3.564   3.021
  936SOL    HW1 2842   1.828   3.595   2.957
  936SOL    HW2 2843   1.729   3.472   2.997
  937SOL     OW 2844   1.256   3.606   2.964
  937SOL    HW1 2845   1.346   3.643   2.939
  937SOL    HW2 2846   1.264   3.508   2.981
  938SOL     OW 2847   0.102   3.107   2.925
  938SOL    HW1 2848   0.091   3.119   3.024
  938SOL    HW2 2849   0.015   3.082   2.884
  939SOL     OW 2850   0.692   3.581   3.608
  939SOL    HW1 2851   0.621   3.651   3.596
  939SOL    HW2 2852   0.763   3.592   3.538
  940SOL     OW 2853   1.769   2.071   2.335
  940SOL    HW1 2854   1.822   2.052   2.253
  940SOL    HW2 2855   1.725   1.987   2.367
  941SOL     OW 2856   1.407   3.435   2.362
  941SOL    HW1 2857   1.467   3.468   2.289
  941SOL    HW2 2858   1.344   3.508   2.388
  942SOL     OW 2859   0.162   3.624   3.706
  942SOL    HW1 2860   0.102   3.549   3.733
  942SOL    HW2 2861   0.201   3.666   3.788
  943SOL     OW 2862   1.285   2.799   2.500
  943SOL    HW1 2863   1.359   2.736   2.523
  943SOL    HW2 2864   1.324   2.881   2.456
  944SOL     OW 2865   0.777   3.145   3.292
  944SOL    HW1 2866   0.757   3.201   3.372
  944SOL    HW2 2867   0.703   3.153   3.226
  945SOL     OW 2868   0.680   3.510   2.017
  945SOL    HW1 2869   0.695   3.534   1.922
  945SOL    HW2 2870   0.629   3.424   2.022
  946SOL     OW 2871   1.607   3.597   3.262
  946SOL    HW1 2872   1.660   3.588   3.178
  946SOL    HW2 2873   1.594   3.694   3.283
  947SOL     OW 2874   1.841   2.009   2.835
  947SOL    HW1 2875   1.874   1.918   2.809
  947SOL    HW2 2876   1.752   2.026   2.793
  948SOL     OW 2877   0.172   2.163   2.548
  948SOL    HW1 2878   0.246   2.199   2.490
  948SOL    HW2 2879   0.195   2.178   2.644
  949SOL     OW 2880   1.231   3.435   1.910
  949SOL    HW1 2881   1.223   3.342   1.945
  949SOL    HW2 2882   1.152   3.454   1.850
  950SOL     OW 2883   0.804   2.874   3.241
  950SOL    HW1 2884   0.843   2.865   3.149
  950SOL    HW2 2885   0.794   2.971   3.264
  951SOL     OW 2886   0.940   2.792   2.178
  951SOL    HW1 2887   0.979   2.810   2.088
  951SOL    HW2 2888   0.981   2.710   2.217
  952SOL     OW 2889   1.499   3.508   1.920
  952SOL    HW1 2890   1.403   3.482   1.908
  952SOL    HW2 2891   1.542   3.517   1.830
  953SOL     OW 2892   0.394   3.175   3.357
  953SOL    HW1 2893   0.380   3.258   3.304
  953SOL    HW2 2894   0.317   3.112   3.343
  954SOL     OW 2895   1.595   3.153   3.155
  954SOL    HW1 2896   1.655   3.124   3.229
  954SOL    HW2 2897   1.531   3.223   3.188
  955SOL     OW 2898   1.100   2.975   2.614
  955SOL    HW1 2899   1.017   2.930   2.645
  955SOL    HW2 2900   1.158   2.909   2.566
  956SOL     OW 2901   1.036   2.103   2.812
  956SOL    HW1 2902   1.036   2.063   2.720
  956SOL    HW2 2903   1.031   2.030   2.880
  957SOL     OW 2904   0.590   3.346   2.332
  957SOL    HW1 2905   0.648   3.294   2.270
  957SOL    HW2 2906   0.537   3.413   2.280
  958SOL     OW 2907   1.767   2.217   3.275
  958SOL    HW1 2908   1.831   2.294   3.266
  958SOL    HW2 2909   1.792   2.146   3.209
  959SOL     OW 2910   0.271   3.188   2.133
  959SOL    HW1 2911   0.215   3.105   2.127
  959SOL    HW2 2912   0.233   3.249   2.202
  960SOL     OW 2913   0.170   2.848   3.567
  960SOL    HW1 2914   0.101   2.853   3.639
  960SOL    HW2 2915   0.261   2.835   3.609
  961SOL     OW 2916   0.711   2.061   3.359
  961SOL    HW1 2917   0.796   2.029   3.316
  961SOL    HW2 2918   0.730   2.089   3.453
  962SOL     OW 2919   0.028   2.162   1.969
  962SOL    HW1 2920   4.948   2.130   1.917
  962SOL    HW2 2921   0.076   2.232   1.917
  963SOL     OW 2922   1.392   2.709   3.233
  963SOL    HW1 2923   1.333   2.769   3.179
  963SOL    HW2 2924   1.486   2.714   3.199
  964SOL     OW 2925   4.953   2.003   2.187
  964SOL    HW1 2926   4.976   2.063   2.110
  964SOL    HW2 2927   0.036   1.984   2.240
  965SOL     OW 2928   1.188   3.177   1.998
  965SOL    HW1 2929   1.089   3.164   1.988
  965SOL    HW2 2930   1.212   3.179   2.095
  966SOL     OW 2931   0.638   2.659   3.289
  966SOL    HW1 2932   0.691   2.742   3.276
  966SOL    HW2 2933   0.700   2.581   3.296
  967SOL     OW 2934   1.511   3.690   2.905
  967SOL    HW1 2935   1.537   3.755   2.833
  967SOL    HW2 2936   1.593   3.648   2.943
  968SOL     OW 2937   0.697   2.397   3.585
  968SOL    HW1 2938   0.762   2.461   3.627
  968SOL    HW2 2939   0.724   2.303   3.604
  969SOL     OW 2940   1.469   3.045   3.479
  969SOL    HW1 2941   1.455   3.069   3.575
  969SOL    HW2 2942   1.563   3.067   3.453
  970SOL     OW 2943   0.378   3.639   3.407
  970SOL    HW1 2944   0.288   3.680   3.397
  970SOL    HW2 2945   0.370   3.550   3.452
  971SOL     OW 2946   1.640   2.736   3.114
  971SOL    HW1 2947   1.643   2.649   3.065
  971SOL    HW2 2948   1.626   2.810   3.049
  972SOL     OW 2949   1.234   2.185   2.309
  972SOL    HW1 2950   1.295   2.105   2.308
  972SOL    HW2 2951   1.255   2.241   2.389
  973SOL     OW 2952   0.517   2.607   2.560
  973SOL    HW1 2953   0.584   2.680   2.548
  973SOL    HW2 2954   0.480   2.581   2.471
  974SOL     OW 2955   1.726   2.196   3.547
  974SOL    HW1 2956   1.741   2.205   3.448
  974SOL    HW2 2957   1.646   2.138   3.563
  975SOL     OW 2958   1.763   2.782   3.356
  975SOL    HW1 2959   1.749   2.878   3.380
  975SOL    HW2 2960   1.726   2.765   3.265
  976SOL     OW 2961   0.899   3.211   1.954
  976SOL    HW1 2962   0.851   3.220   2.041
  976SOL    HW2 2963   0.905   3.300   1.910
  977SOL     OW 2964   0.684   3.588   2.819
  977SOL    HW1 2965   0.661   3.685   2.811
  977SOL    HW2 2966   0.782   3.576   2.807
  978SOL     OW 2967   0.880   2.846   2.725
  978SOL    HW1 2968   0.926   2.762   2.752
  978SOL    HW2 2969   0.832   2.885   2.805
  979SOL     OW 2970   1.047   2.813   1.931
  979SOL    HW1 2971   1.027   2.883   1.863
  979SOL    HW2 2972   1.134   2.768   1.907
  980SOL     OW 2973   1.818   3.416   2.718
  980SOL    HW1 2974   1.745   3.411   2.650
  980SOL    HW2 2975   1.795   3.357   2.796
  981SOL     OW 2976   0.259   3.199   3.723
  981SOL    HW1 2977   0.166   3.177   3.696
  981SOL    HW2 2978   0.261   3.218   3.821
  982SOL     OW 2979   0.190   3.142   2.557
  982SOL    HW1 2980   0.201   3.092   2.643
  982SOL    HW2 2981   0.230   3.089   2.483
  983SOL     OW 2982   0.703   3.310   3.505
  983SOL    HW1 2983   0.625   3.258   3.541
  983SOL    HW2 2984   0.701   3.403   3.542
  984SOL     OW 2985   1.833   2.016   3.109
  984SOL    HW1 2986   1.874   1.928   3.133
  984SOL    HW2 2987   1.831   2.026   3.009
  985SOL     OW 2988   1.684   3.314   2.943
  985SOL    HW1 2989   1.606   3.300   2.882
  985SOL    HW2 2990   1.678   3.250   3.020
  986SOL     OW 2991   0.331   2.392   3.156
  986SOL    HW1 2992   0.385   2.327   3.208
  986SOL    HW2 2993   0.321   2.361   3.062
  987SOL     OW 2994   0.834   3.440   2.530
  987SOL    HW1 2995   0.805   3.514   2.469
  987SOL    HW2 2996   0.757   3.377   2.544
  988SOL     OW 2997   1.424   2.103   2.973
  988SOL    HW1 2998   1.442   2.007   2.994
  988SOL    HW2 2999   1.369   2.144   3.046
  989SOL     OW 3000   1.022   1.871   2.973
  989SOL    HW1 3001   0.952   1.807   2.939
  989SOL    HW2 3002   1.112   1.829   2.965
  990SOL     OW 3003   0.784   3.189   2.206
  990SOL    HW1 3004   0.760   3.093   2.226
  990SOL    HW2 3005   0.865   3.215   2.258
  991SOL     OW 3006   0.634   3.453   3.152
  991SOL    HW1 3007   0.625   3.550   3.176
  991SOL    HW2 3008   0.720   3.439   3.102
  992SOL     OW 3009   1.396   1.889   2.047
  992SOL    HW1 3010   1.446   1.819   1.996
  992SOL    HW2 3011   1.302   1.858   2.063
  993SOL     OW 3012   1.290   2.337   2.532
  993SOL    HW1 3013   1.239   2.422   2.524
  993SOL    HW2 3014   1.286   2.305   2.627
  994SOL     OW 3015   1.587   2.063   2.754
  994SOL    HW1 3016   1.530   2.090   2.832
  994SOL    HW2 3017   1.588   2.137   2.687
  995SOL     OW 3018   0.074   2.909   2.073
  995SOL    HW1 3019   0.164   2.868   2.083
  995SOL    HW2 3020   0.016   2.883   2.150
  996SOL     OW 3021   0.906   3.543   2.188
  996SOL    HW1 3022   0.828   3.529   2.126
  996SOL    HW2 3023   0.885   3.616   2.252
  997SOL     OW 3024   0.190   2.429   3.832
  997SOL    HW1 3025   0.108   2.467   3.875
  997SOL    HW2 3026   0.173   2.415   3.735
  998SOL     OW 3027   0.174   2.128   4.675
  998SOL    HW1 3028   0.240   2.091   4.741
  998SOL    HW2 3029   0.081   2.109   4.707
  999SOL     OW 3030   4.997   2.301   4.286
  999SOL    HW1 3031   4.910   2.319   4.331
  999SOL    HW2 3032   4.985   2.228   4.218
 1000SOL     OW 3033   0.521   3.043   4.930
 1000SOL    HW1 3034   0.471   3.116   4.883
 1000SOL    HW2 3035   0.534   3.068   0.026
 1001SOL     OW 3036   1.604   3.365   4.432
 1001SOL    HW1 3037   1.550   3.336   4.511
 1001SOL    HW2 3038   1.544   3.382   4.354
 1002SOL     OW 3039   1.129   2.574   4.404
 1002SOL    HW1 3040   1.178   2.659   4.384
 1002SOL    HW2 3041   1.078   2.583   4.489
 1003SOL     OW 3042   1.798   2.425   3.930
 1003SOL    HW1 3043   1.757   2.432   3.839
 1003SOL    HW2 3044   1.748   2.357   3.984
 1004SOL     OW 3045   0.709   2.943   4.771
 1004SOL    HW1 3046   0.634   2.976   4.829
 1004SOL    HW2 3047   0.745   3.020   4.717
 1005SOL     OW 3048   0.672   2.838   4.387
 1005SOL    HW1 3049   0.749   2.835   4.449
 1005SOL    HW2 3050   0.607   2.908   4.417
 1006SOL     OW 3051   0.400   3.270   4.832
 1006SOL    HW1 3052   0.301   3.259   4.818
 1006SOL    HW2 3053   0.437   3.330   4.761
 1007SOL     OW 3054   1.598   2.323   4.463
 1007SOL    HW1 3055   1.551   2.334   4.376
 1007SOL    HW2 3056   1.559   2.385   4.531
 1008SOL     OW 3057   0.162   3.639   4.211
 1008SOL    HW1 3058   0.233   3.688   4.262
 1008SOL    HW2 3059   0.176   3.652   4.113
 1009SOL     OW 3060   0.159   3.361   4.210
 1009SOL    HW1 3061   0.162   3.460   4.219
 1009SOL    HW2 3062   0.163   3.319   4.300
 1010SOL     OW 3063   0.275   2.930   4.597
 1010SOL    HW1 3064   0.288   2.841   4.641
 1010SOL    HW2 3065   0.202   2.980   4.644
 1011SOL     OW 3066   0.589   2.853   3.894
 1011SOL    HW1 3067   0.637   2.901   3.820
 1011SOL    HW2 3068   0.628   2.879   3.982
 1012SOL     OW 3069   0.129   2.545   4.250
 1012SOL    HW1 3070   0.084   2.457   4.265
 1012SOL    HW2 3071   0.117   2.603   4.330
 1013SOL     OW 3072   1.859   3.609   4.039
 1013SOL    HW1 3073   1.937   3.598   4.101
 1013SOL    HW2 3074   1.858   3.703   4.003
 1014SOL     OW 3075   0.022   3.419   3.806
 1014SOL    HW1 3076   0.008   3.322   3.825
 1014SOL    HW2 3077   4.948   3.471   3.848
 1015SOL     OW 3078   1.702   2.797   4.381
 1015SOL    HW1 3079   1.793   2.758   4.392
 1015SOL    HW2 3080   1.695   2.845   4.294
 1016SOL     OW 3081   1.677   2.973   4.154
 1016SOL    HW1 3082   1.761   2.950   4.104
 1016SOL    HW2 3083   1.697   3.040   4.225
 1017SOL     OW 3084   0.620   3.267   4.435
 1017SOL    HW1 3085   0.571   3.181   4.447
 1017SOL    HW2 3086   0.605   3.302   4.343
 1018SOL     OW 3087   0.845   1.883   4.236
 1018SOL    HW1 3088   0.893   1.966   4.206
 1018SOL    HW2 3089   0.746   1.900   4.235
 1019SOL     OW 3090   0.111   2.794   4.964
 1019SOL    HW1 3091   0.210   2.782   4.976
 1019SOL    HW2 3092   0.080   2.742   4.885
 1020SOL     OW 3093   1.551   2.897   3.918
 1020SOL    HW1 3094   1.476   2.836   3.942
 1020SOL    HW2 3095   1.597   2.927   4.002
 1021SOL     OW 3096   1.441   3.263   4.632
 1021SOL    HW1 3097   1.393   3.260   4.719
 1021SOL    HW2 3098   1.438   3.173   4.588
 1022SOL     OW 3099   1.635   3.696   4.266
 1022SOL    HW1 3100   1.624   3.632   4.189
 1022SOL    HW2 3101   1.656   3.644   4.349
 1023SOL     OW 3102   0.595   2.574   3.984
 1023SOL    HW1 3103   0.608   2.665   3.944
 1023SOL    HW2 3104   0.526   2.580   4.057
 1024SOL     OW 3105   1.295   2.265   4.674
 1024SOL    HW1 3106   1.205   2.223   4.664
 1024SOL    HW2 3107   1.349   2.212   4.740
 1025SOL     OW 3108   1.597   3.528   4.047
 1025SOL    HW1 3109   1.695   3.545   4.040
 1025SOL    HW2 3110   1.558   3.517   3.956
 1026SOL     OW 3111   1.054   2.553   4.138
 1026SOL    HW1 3112   1.077   2.552   4.236
 1026SOL    HW2 3113   0.966   2.508   4.124
 1027SOL     OW 3114   0.116   2.710   4.475
 1027SOL    HW1 3115   0.197   2.675   4.522
 1027SOL    HW2 3116   0.127   2.809   4.460
 1028SOL     OW 3117   0.049   3.583   0.352
 1028SOL    HW1 3118   0.131   3.560   0.404
 1028SOL    HW2 3119   0.024   3.678   0.370
 1029SOL     OW 3120   0.867   2.206   3.924
 1029SOL    HW1 3121   0.928   2.254   3.861
 1029SOL    HW2 3122   0.814   2.139   3.873
 1030SOL     OW 3123   1.409   3.020   4.249
 1030SOL    HW1 3124   1.496   3.006   4.202
 1030SOL    HW2 3125   1.354   3.087   4.199
 1031SOL     OW 3126   0.556   2.015   4.678
 1031SOL    HW1 3127   0.493   2.033   4.753
 1031SOL    HW2 3128   0.579   2.101   4.632
 1032SOL     OW 3129   0.995   3.325   4.202
 1032SOL    HW1 3130   0.976   3.400   4.139
 1032SOL    HW2 3131   0.966   3.351   4.294
 1033SOL     OW 3132   0.388   3.671   4.598
 1033SOL    HW1 3133   0.428   3.580   4.612
 1033SOL    HW2 3134   0.451   3.740   4.634
 1034SOL     OW 3135   1.789   2.933   4.615
 1034SOL    HW1 3136   1.748   2.915   4.526
 1034SOL    HW2 3137   1.718   2.930   4.686
 1035SOL     OW 3138   0.331   2.815   4.025
 1035SOL    HW1 3139   0.411   2.834   3.968
 1035SOL    HW2 3140   0.339   2.725   4.066
 1036SOL     OW 3141   1.482   2.639   4.418
 1036SOL    HW1 3142   1.478   2.590   4.505
 1036SOL    HW2 3143   1.563   2.697   4.417
 1037SOL     OW 3144   1.161   3.621   3.958
 1037SOL    HW1 3145   1.071   3.600   3.996
 1037SOL    HW2 3146   1.185   3.552   3.889
 1038SOL     OW 3147   1.641   3.248   3.823
 1038SOL    HW1 3148   1.608   3.342   3.812
 1038SOL    HW2 3149   1.569   3.185   3.793
 1039SOL     OW 3150   0.495   3.587   4.040
 1039SOL    HW1 3151   0.531   3.654   4.105
 1039SOL    HW2 3152   0.566   3.566   3.972
 1040SOL     OW 3153   1.400   1.958   4.182
 1040SOL    HW1 3154   1.400   1.935   4.085
 1040SOL    HW2 3155   1.490   1.937   4.221
 1041SOL     OW 3156   0.276   3.651   4.918
 1041SOL    HW1 3157   0.271   3.568   4.974
 1041SOL    HW2 3158   0.222   3.638   4.835
 1042SOL     OW 3159   0.985   3.559   4.624
 1042SOL    HW1 3160   1.073   3.513   4.619
 1042SOL    HW2 3161   0.921   3.516   4.560
 1043SOL     OW 3162   0.386   2.555   4.167
 1043SOL    HW1 3163   0.414   2.460   4.181
 1043SOL    HW2 3164   0.289   2.565   4.191
 1044SOL     OW 3165   0.658   1.970   3.828
 1044SOL    HW1 3166   0.716   1.892   3.851
 1044SOL    HW2 3167   0.590   1.942   3.760
 1045SOL     OW 3168   0.796   3.157   4.631
 1045SOL    HW1 3169   0.892   3.184   4.623
 1045SOL    HW2 3170   0.742   3.203   4.560
 1046SOL     OW 3171   0.901   2.355   4.597
 1046SOL    HW1 3172   0.877   2.347   4.501
 1046SOL    HW2 3173   0.952   2.274   4.626
 1047SOL     OW 3174   0.576   1.932   4.206
 1047SOL    HW1 3175   0.496   1.930   4.266
 1047SOL    HW2 3176   0.573   2.014   4.149
 1048SOL     OW 3177   1.429   3.080   3.753
 1048SOL    HW1 3178   1.471   3.007   3.806
 1048SOL    HW2 3179   1.342   3.105   3.793
 1049SOL     OW 3180   0.265   1.853   3.956
 1049SOL    HW1 3181   0.289   1.946   3.927
 1049SOL    HW2 3182   0.348   1.803   3.980
 1050SOL     OW 3183   0.974   2.112   4.160
 1050SOL    HW1 3184   0.938   2.145   4.073
 1050SOL    HW2 3185   1.072   2.132   4.166
 1051SOL     OW 3186   1.222   3.432   4.545
 1051SOL    HW1 3187   1.241   3.498   4.472
 1051SOL    HW2 3188   1.308   3.389   4.574
 1052SOL     OW 3189   0.475   3.030   4.438
 1052SOL    HW1 3190   0.412   2.997   4.508
 1052SOL    HW2 3191   0.429   3.030   4.349
 1053SOL     OW 3192   1.258   3.638   4.344
 1053SOL    HW1 3193   1.308   3.701   4.285
 1053SOL    HW2 3194   1.179   3.685   4.383
 1054SOL     OW 3195   1.031   2.360   3.766
 1054SOL    HW1 3196   0.990   2.446   3.735
 1054SOL    HW2 3197   1.099   2.380   3.836
 1055SOL     OW 3198   0.865   2.309   4.331
 1055SOL    HW1 3199   0.826   2.368   4.260
 1055SOL    HW2 3200   0.907   2.229   4.289
 1056SOL     OW 3201   1.032   1.906   4.446
 1056SOL    HW1 3202   0.965   1.903   4.372
 1056SOL    HW2 3203   1.009   1.837   4.515
 1057SOL     OW 3204   1.417   3.010   4.530
 1057SOL    HW1 3205   1.334   2.957   4.547
 1057SOL    HW2 3206   1.432   3.017   4.431
 1058SOL     OW 3207   1.462   2.488   4.652
 1058SOL    HW1 3208   1.401   2.411   4.673
 1058SOL    HW2 3209   1.537   2.491   4.718
 1059SOL     OW 3210   1.806   2.641   4.095
 1059SOL    HW1 3211   1.870   2.613   4.166
 1059SOL    HW2 3212   1.802   2.572   4.023
 1060SOL     OW 3213   0.527   3.293   3.872
 1060SOL    HW1 3214   0.447   3.268   3.927
 1060SOL    HW2 3215   0.522   3.248   3.783
 1061SOL     OW 3216   1.748   3.135   4.351
 1061SOL    HW1 3217   1.845   3.131   4.374
 1061SOL    HW2 3218   1.710   3.222   4.382
 1062SOL     OW 3219   1.391   2.441   3.774
 1062SOL    HW1 3220   1.342   2.412   3.856
 1062SOL    HW2 3221   1.489   2.426   3.787
 1063SOL     OW 3222   0.560   2.139   4.028
 1063SOL    HW1 3223   0.596   2.079   3.957
 1063SOL    HW2 3224   0.526   2.223   3.987
 1064SOL     OW 3225   1.085   3.080   4.875
 1064SOL    HW1 3226   1.023   3.117   4.944
 1064SOL    HW2 3227   1.061   3.116   4.785
 1065SOL     OW 3228   1.551   2.934   4.762
 1065SOL    HW1 3229   1.475   2.928   4.826
 1065SOL    HW2 3230   1.517   2.959   4.672
 1066SOL     OW 3231   0.722   2.919   4.125
 1066SOL    HW1 3232   0.700   2.890   4.218
 1066SOL    HW2 3233   0.807   2.874   4.096
 1067SOL     OW 3234   0.392   2.708   0.008
 1067SOL    HW1 3235   0.449   2.758   0.074
 1067SOL    HW2 3236   0.342   2.636   0.056
 1068SOL     OW 3237   0.318   3.029   4.211
 1068SOL    HW1 3238   0.321   3.107   4.148
 1068SOL    HW2 3239   0.320   2.944   4.159
 1069SOL     OW 3240   0.542   2.347   4.561
 1069SOL    HW1 3241   0.554   2.416   4.490
 1069SOL    HW2 3242   0.599   2.370   4.640
 1070SOL     OW 3243   1.249   3.226   4.130
 1070SOL    HW1 3244   1.313   3.295   4.163
 1070SOL    HW2 3245   1.157   3.249   4.162
 1071SOL     OW 3246   1.321   3.227   4.870
 1071SOL    HW1 3247   1.379   3.188   4.941
 1071SOL    HW2 3248   1.234   3.178   4.867
 1072SOL     OW 3249   1.581   2.491   4.202
 1072SOL    HW1 3250   1.527   2.540   4.271
 1072SOL    HW2 3251   1.649   2.554   4.163
 1073SOL     OW 3252   0.560   2.697   4.781
 1073SOL    HW1 3253   0.608   2.784   4.770
 1073SOL    HW2 3254   0.502   2.701   4.862
 1074SOL     OW 3255   1.270   2.694   4.688
 1074SOL    HW1 3256   1.179   2.653   4.676
 1074SOL    HW2 3257   1.340   2.624   4.675
 1075SOL     OW 3258   1.209   2.387   3.981
 1075SOL    HW1 3259   1.230   2.308   4.038
 1075SOL    HW2 3260   1.161   2.456   4.035
 1076SOL     OW 3261   0.356   2.041   4.864
 1076SOL    HW1 3262   0.398   2.090   4.941
 1076SOL    HW2 3263   0.330   1.949   4.893
 1077SOL     OW 3264   0.118   3.237   4.904
 1077SOL    HW1 3265   0.045   3.205   4.965
 1077SOL    HW2 3266   0.167   3.312   4.948
 1078SOL     OW 3267   0.691   2.442   4.774
 1078SOL    HW1 3268   0.772   2.430   4.717
 1078SOL    HW2 3269   0.657   2.536   4.766
 1079SOL     OW 3270   0.343   1.930   4.351
 1079SOL    HW1 3271   0.302   2.020   4.367
 1079SOL    HW2 3272   0.356   1.884   4.439
 1080SOL     OW 3273   1.618   2.260   4.060
 1080SOL    HW1 3274   1.666   2.195   4.120
 1080SOL    HW2 3275   1.590   2.339   4.114
 1081SOL     OW 3276   1.010   2.590   4.669
 1081SOL    HW1 3277   1.001   2.594   4.768
 1081SOL    HW2 3278   0.973   2.503   4.636
 1082SOL     OW 3279   1.516   2.124   3.840
 1082SOL    HW1 3280   1.470   2.043   3.877
 1082SOL    HW2 3281   1.553   2.178   3.915
 1083SOL     OW 3282   1.276   2.682   3.726
 1083SOL    HW1 3283   1.315   2.591   3.738
 1083SOL    HW2 3284   1.313   2.723   3.643
 1084SOL     OW 3285   1.068   3.203   4.621
 1084SOL    HW1 3286   1.090   3.121   4.567
 1084SOL    HW2 3287   1.120   3.281   4.586
 1085SOL     OW 3288   0.320   2.646   4.645
 1085SOL    HW1 3289   0.412   2.666   4.677
 1085SOL    HW2 3290   0.304   2.547   4.651
 1086SOL     OW 3291   0.294   2.373   4.664
 1086SOL    HW1 3292   0.245   2.286   4.663
 1086SOL    HW2 3293   0.384   2.361   4.623
 1087SOL     OW 3294   1.198   2.137   0.170
 1087SOL    HW1 3295   1.196   2.149   0.269
 1087SOL    HW2 3296   1.146   2.211   0.126
 1088SOL     OW 3297   4.988   3.140   3.844
 1088SOL    HW1 3298   4.955   3.176   3.931
 1088SOL    HW2 3299   0.018   3.046   3.856
 1089SOL     OW 3300   0.130   3.632   4.678
 1089SOL    HW1 3301   0.069   3.628   4.599
 1089SOL    HW2 3302   0.224   3.650   4.648
 1090SOL     OW 3303   0.518   3.430   4.640
 1090SOL    HW1 3304   0.592   3.492   4.669
 1090SOL    HW2 3305   0.552   3.372   4.566
 1091SOL     OW 3306   0.961   2.596   4.939
 1091SOL    HW1 3307   0.999   2.676   4.984
 1091SOL    HW2 3308   0.863   2.590   4.959
 1092SOL     OW 3309   0.142   2.443   4.879
 1092SOL    HW1 3310   0.208   2.414   4.810
 1092SOL    HW2 3311   0.086   2.517   4.843
 1093SOL     OW 3312   0.814   2.431   4.082
 1093SOL    HW1 3313   0.823   2.348   4.027
 1093SOL    HW2 3314   0.738   2.486   4.047
 1094SOL     OW 3315   1.682   2.494   4.815
 1094SOL    HW1 3316   1.674   2.424   4.887
 1094SOL    HW2 3317   1.778   2.518   4.802
 1095SOL     OW 3318   0.586   2.249   4.949
 1095SOL    HW1 3319   0.543   2.299   0.024
 1095SOL    HW2 3320   0.628   2.313   4.885
 1096SOL     OW 3321   0.444   2.354   3.898
 1096SOL    HW1 3322   0.508   2.429   3.917
 1096SOL    HW2 3323   0.354   2.392   3.878
 1097SOL     OW 3324   1.297   2.892   4.868
 1097SOL    HW1 3325   1.284   2.822   4.797
 1097SOL    HW2 3326   1.224   2.959   4.861
 1098SOL     OW 3327   1.335   2.747   3.988
 1098SOL    HW1 3328   1.273   2.707   4.055
 1098SOL    HW2 3329   1.305   2.723   3.896
 1099SOL     OW 3330   1.720   3.585   4.800
 1099SOL    HW1 3331   1.807   3.585   4.751
 1099SOL    HW2 3332   1.689   3.491   4.815
 1100SOL     OW 3333   0.067   3.093   4.680
 1100SOL    HW1 3334   0.091   3.142   4.763
 1100SOL    HW2 3335   4.968   3.092   4.669
 1101SOL     OW 3336   1.776   2.080   4.197
 1101SOL    HW1 3337   1.829   2.058   4.115
 1101SOL    HW2 3338   1.731   1.997   4.231
 1102SOL     OW 3339   1.416   3.428   4.233
 1102SOL    HW1 3340   1.475   3.462   4.159
 1102SOL    HW2 3341   1.355   3.501   4.263
 1103SOL     OW 3342   1.276   2.801   4.351
 1103SOL    HW1 3343   1.350   2.739   4.375
 1103SOL    HW2 3344   1.312   2.877   4.297
 1104SOL     OW 3345   0.697   3.507   3.870
 1104SOL    HW1 3346   0.709   3.531   3.774
 1104SOL    HW2 3347   0.644   3.422   3.877
 1105SOL     OW 3348   1.692   3.695   0.047
 1105SOL    HW1 3349   1.712   3.661   4.955
 1105SOL    HW2 3350   1.624   3.637   0.091
 1106SOL     OW 3351   1.852   2.014   4.729
 1106SOL    HW1 3352   1.878   1.921   4.701
 1106SOL    HW2 3353   1.766   2.039   4.684
 1107SOL     OW 3354   0.227   2.172   4.404
 1107SOL    HW1 3355   0.152   2.225   4.364
 1107SOL    HW2 3356   0.209   2.157   4.501
 1108SOL     OW 3357   1.231   3.433   3.771
 1108SOL    HW1 3358   1.223   3.340   3.806
 1108SOL    HW2 3359   1.153   3.453   3.712
 1109SOL     OW 3360   0.773   2.830   0.020
 1109SOL    HW1 3361   0.760   2.872   4.930
 1109SOL    HW2 3362   0.868   2.840   0.049
 1110SOL     OW 3363   0.943   2.790   4.043
 1110SOL    HW1 3364   0.976   2.801   3.949
 1110SOL    HW2 3365   0.986   2.710   4.085
 1111SOL     OW 3366   1.499   3.506   3.785
 1111SOL    HW1 3367   1.404   3.480   3.772
 1111SOL    HW2 3368   1.543   3.516   3.695
 1112SOL     OW 3369   1.105   2.960   4.503
 1112SOL    HW1 3370   1.018   2.916   4.524
 1112SOL    HW2 3371   1.157   2.903   4.439
 1113SOL     OW 3372   1.055   2.122   4.638
 1113SOL    HW1 3373   1.056   2.072   4.552
 1113SOL    HW2 3374   1.041   2.058   4.714
 1114SOL     OW 3375   0.594   3.358   4.184
 1114SOL    HW1 3376   0.650   3.303   4.122
 1114SOL    HW2 3377   0.543   3.426   4.130
 1115SOL     OW 3378   1.694   2.319   0.024
 1115SOL    HW1 3379   1.746   2.368   0.094
 1115SOL    HW2 3380   1.726   2.224   0.019
 1116SOL     OW 3381   0.261   3.215   4.001
 1116SOL    HW1 3382   0.181   3.155   3.990
 1116SOL    HW2 3383   0.240   3.287   4.066
 1117SOL     OW 3384   0.025   2.161   3.826
 1117SOL    HW1 3385   4.963   2.102   3.774
 1117SOL    HW2 3386   0.044   2.244   3.774
 1118SOL     OW 3387   4.965   2.107   4.091
 1118SOL    HW1 3388   4.985   2.133   3.997
 1118SOL    HW2 3389   0.006   2.018   4.111
 1119SOL     OW 3390   1.186   3.176   3.859
 1119SOL    HW1 3391   1.087   3.164   3.848
 1119SOL    HW2 3392   1.209   3.181   3.956
 1120SOL     OW 3393   1.491   3.716   4.724
 1120SOL    HW1 3394   1.522   3.772   4.648
 1120SOL    HW2 3395   1.567   3.661   4.759
 1121SOL     OW 3396   1.668   2.744   4.935
 1121SOL    HW1 3397   1.661   2.655   4.891
 1121SOL    HW2 3398   1.634   2.815   4.873
 1122SOL     OW 3399   1.241   2.186   4.174
 1122SOL    HW1 3400   1.300   2.106   4.177
 1122SOL    HW2 3401   1.257   2.242   4.256
 1123SOL     OW 3402   0.562   2.577   4.397
 1123SOL    HW1 3403   0.607   2.666   4.396
 1123SOL    HW2 3404   0.498   2.571   4.321
 1124SOL     OW 3405   1.778   2.746   0.180
 1124SOL    HW1 3406   1.851   2.814   0.182
 1124SOL    HW2 3407   1.738   2.743   0.089
 1125SOL     OW 3408   0.900   3.209   3.816
 1125SOL    HW1 3409   0.853   3.217   3.904
 1125SOL    HW2 3410   0.905   3.299   3.773
 1126SOL     OW 3411   0.699   3.624   4.702
 1126SOL    HW1 3412   0.662   3.717   4.705
 1126SOL    HW2 3413   0.799   3.628   4.696
 1127SOL     OW 3414   0.876   2.820   4.581
 1127SOL    HW1 3415   0.919   2.735   4.610
 1127SOL    HW2 3416   0.820   2.857   4.655
 1128SOL     OW 3417   1.037   2.794   3.788
 1128SOL    HW1 3418   1.018   2.869   3.725
 1128SOL    HW2 3419   1.126   2.754   3.767
 1129SOL     OW 3420   1.858   3.403   4.534
 1129SOL    HW1 3421   1.767   3.396   4.493
 1129SOL    HW2 3422   1.884   3.315   4.575
 1130SOL     OW 3423   0.153   3.195   4.434
 1130SOL    HW1 3424   0.134   3.155   4.524
 1130SOL    HW2 3425   0.205   3.130   4.379
 1131SOL     OW 3426   1.821   2.069   0.005
 1131SOL    HW1 3427   1.768   1.989   0.033
 1131SOL    HW2 3428   1.846   2.061   4.908
 1132SOL     OW 3429   0.429   2.297   4.231
 1132SOL    HW1 3430   0.486   2.229   4.184
 1132SOL    HW2 3431   0.376   2.252   4.303
 1133SOL     OW 3432   1.622   3.340   4.857
 1133SOL    HW1 3433   1.573   3.294   4.783
 1133SOL    HW2 3434   1.701   3.285   4.884
 1134SOL     OW 3435   0.838   3.459   4.412
 1134SOL    HW1 3436   0.815   3.534   4.350
 1134SOL    HW2 3437   0.761   3.395   4.417
 1135SOL     OW 3438   1.446   2.107   4.841
 1135SOL    HW1 3439   1.448   2.009   4.818
 1135SOL    HW2 3440   1.460   2.118   4.940
 1136SOL     OW 3441   1.032   1.901   4.812
 1136SOL    HW1 3442   1.015   1.825   4.750
 1136SOL    HW2 3443   1.116   1.884   4.864
 1137SOL     OW 3444   0.786   3.188   4.068
 1137SOL    HW1 3445   0.762   3.094   4.088
 1137SOL    HW2 3446   0.864   3.216   4.125
 1138SOL     OW 3447   1.397   1.887   3.915
 1138SOL    HW1 3448   1.448   1.817   3.866
 1138SOL    HW2 3449   1.304   1.856   3.930
 1139SOL     OW 3450   1.279   2.336   4.400
 1139SOL    HW1 3451   1.227   2.422   4.397
 1139SOL    HW2 3452   1.290   2.307   4.495
 1140SOL     OW 3453   1.615   2.093   4.619
 1140SOL    HW1 3454   1.559   2.118   4.699
 1140SOL    HW2 3455   1.613   2.167   4.552
 1141SOL     OW 3456   0.075   2.889   3.921
 1141SOL    HW1 3457   0.170   2.863   3.936
 1141SOL    HW2 3458   0.019   2.858   3.998
 1142SOL     OW 3459   0.911   3.542   4.053
 1142SOL    HW1 3460   0.836   3.528   3.987
 1142SOL    HW2 3461   0.886   3.615   4.116
 1143SOL     OW 3462   0.237   4.386   0.134
 1143SOL    HW1 3463   0.162   4.379   0.200
 1143SOL    HW2 3464   0.206   4.352   0.045
 1144SOL     OW 3465   0.203   3.954   0.978
 1144SOL    HW1 3466   0.242   3.949   1.069
 1144SOL    HW2 3467   0.149   3.871   0.960
 1145SOL     OW 3468   0.010   4.116   0.586
 1145SOL    HW1 3469   4.917   4.140   0.614
 1145SOL    HW2 3470   0.008   4.032   0.532
 1146SOL     OW 3471   1.147   4.441   0.697
 1146SOL    HW1 3472   1.202   4.522   0.678
 1146SOL    HW2 3473   1.097   4.454   0.783
 1147SOL     OW 3474   1.830   4.355   0.234
 1147SOL    HW1 3475   1.799   4.295   0.160
 1147SOL    HW2 3476   1.767   4.347   0.311
 1148SOL     OW 3477   0.797   4.937   0.956
 1148SOL    HW1 3478   0.702   4.967   0.958
 1148SOL    HW2 3479   0.845   4.985   0.882
 1149SOL     OW 3480   0.886   4.460   1.837
 1149SOL    HW1 3481   0.875   4.513   1.921
 1149SOL    HW2 3482   0.905   4.521   1.761
 1150SOL     OW 3483   0.675   4.667   0.667
 1150SOL    HW1 3484   0.758   4.678   0.721
 1150SOL    HW2 3485   0.598   4.712   0.713
 1151SOL     OW 3486   0.703   4.863   1.858
 1151SOL    HW1 3487   0.735   4.907   1.942
 1151SOL    HW2 3488   0.633   4.921   1.815
 1152SOL     OW 3489   0.470   4.100   1.463
 1152SOL    HW1 3490   0.551   4.041   1.474
 1152SOL    HW2 3491   0.389   4.051   1.496
 1153SOL     OW 3492   1.572   4.150   0.747
 1153SOL    HW1 3493   1.494   4.152   0.684
 1153SOL    HW2 3494   1.562   4.222   0.815
 1154SOL     OW 3495   0.206   4.812   0.925
 1154SOL    HW1 3496   0.163   4.732   0.967
 1154SOL    HW2 3497   0.167   4.895   0.966
 1155SOL     OW 3498   0.558   4.726   0.153
 1155SOL    HW1 3499   0.629   4.759   0.089
 1155SOL    HW2 3500   0.599   4.713   0.243
 1156SOL     OW 3501   1.579   3.864   1.459
 1156SOL    HW1 3502   1.633   3.941   1.427
 1156SOL    HW2 3503   1.534   3.888   1.545
 1157SOL     OW 3504   0.135   4.361   0.514
 1157SOL    HW1 3505   0.089   4.276   0.541
 1157SOL    HW2 3506   0.113   4.432   0.581
 1158SOL     OW 3507   1.700   4.646   0.619
 1158SOL    HW1 3508   1.770   4.601   0.563
 1158SOL    HW2 3509   1.666   4.727   0.571
 1159SOL     OW 3510   1.669   4.861   0.453
 1159SOL    HW1 3511   1.677   4.820   0.363
 1159SOL    HW2 3512   1.757   4.901   0.480
 1160SOL     OW 3513   0.184   4.449   1.625
 1160SOL    HW1 3514   0.283   4.445   1.611
 1160SOL    HW2 3515   0.157   4.542   1.649
 1161SOL     OW 3516   1.333   4.981   1.280
 1161SOL    HW1 3517   1.296   4.890   1.262
 1161SOL    HW2 3518   1.278   0.027   1.350
 1162SOL     OW 3519   0.832   3.734   0.519
 1162SOL    HW1 3520   0.885   3.815   0.494
 1162SOL    HW2 3521   0.735   3.755   0.514
 1163SOL     OW 3522   0.208   4.688   1.256
 1163SOL    HW1 3523   0.292   4.634   1.246
 1163SOL    HW2 3524   0.145   4.665   1.182
 1164SOL     OW 3525   1.422   4.807   0.165
 1164SOL    HW1 3526   1.373   4.736   0.217
 1164SOL    HW2 3527   1.520   4.790   0.170
 1165SOL     OW 3528   0.385   4.042   1.781
 1165SOL    HW1 3529   0.454   4.112   1.797
 1165SOL    HW2 3530   0.348   4.011   1.869
 1166SOL     OW 3531   0.612   4.435   0.324
 1166SOL    HW1 3532   0.644   4.529   0.338
 1166SOL    HW2 3533   0.533   4.417   0.383
 1167SOL     OW 3534   1.277   4.109   0.947
 1167SOL    HW1 3535   1.186   4.068   0.949
 1167SOL    HW2 3536   1.337   4.059   1.010
 1168SOL     OW 3537   0.800   4.316   1.455
 1168SOL    HW1 3538   0.770   4.286   1.545
 1168SOL    HW2 3539   0.777   4.246   1.387
 1169SOL     OW 3540   1.385   4.191   1.665
 1169SOL    HW1 3541   1.391   4.242   1.751
 1169SOL    HW2 3542   1.428   4.101   1.677
 1170SOL     OW 3543   0.945   4.623   1.603
 1170SOL    HW1 3544   1.000   4.555   1.555
 1170SOL    HW2 3545   0.893   4.677   1.537
 1171SOL     OW 3546   1.017   4.110   1.195
 1171SOL    HW1 3547   0.923   4.123   1.226
 1171SOL    HW2 3548   1.018   4.054   1.112
 1172SOL     OW 3549   1.066   4.432   0.434
 1172SOL    HW1 3550   1.086   4.433   0.532
 1172SOL    HW2 3551   0.982   4.381   0.417
 1173SOL     OW 3552   0.095   4.558   0.703
 1173SOL    HW1 3553   0.164   4.529   0.769
 1173SOL    HW2 3554   0.106   4.656   0.685
 1174SOL     OW 3555   0.893   4.061   0.216
 1174SOL    HW1 3556   0.943   4.128   0.161
 1174SOL    HW2 3557   0.878   3.978   0.162
 1175SOL     OW 3558   1.660   4.291   1.831
 1175SOL    HW1 3559   1.659   4.373   1.773
 1175SOL    HW2 3560   1.685   4.211   1.776
 1176SOL     OW 3561   1.435   4.899   0.590
 1176SOL    HW1 3562   1.519   4.881   0.539
 1176SOL    HW2 3563   1.401   4.990   0.568
 1177SOL     OW 3564   0.579   3.858   0.937
 1177SOL    HW1 3565   0.582   3.885   1.033
 1177SOL    HW2 3566   0.572   3.940   0.879
 1178SOL     OW 3567   1.793   4.733   0.862
 1178SOL    HW1 3568   1.754   4.704   0.774
 1178SOL    HW2 3569   1.719   4.743   0.929
 1179SOL     OW 3570   0.303   4.752   0.254
 1179SOL    HW1 3571   0.395   4.751   0.216
 1179SOL    HW2 3572   0.262   4.662   0.245
 1180SOL     OW 3573   1.502   4.464   0.675
 1180SOL    HW1 3574   1.493   4.430   0.768
 1180SOL    HW2 3575   1.580   4.525   0.669
 1181SOL     OW 3576   0.200   3.989   1.480
 1181SOL    HW1 3577   0.121   4.048   1.467
 1181SOL    HW2 3578   0.172   3.902   1.520
 1182SOL     OW 3579   1.394   3.808   0.478
 1182SOL    HW1 3580   1.385   3.776   0.384
 1182SOL    HW2 3581   1.486   3.787   0.512
 1183SOL     OW 3582   0.403   4.372   0.479
 1183SOL    HW1 3583   0.426   4.276   0.498
 1183SOL    HW2 3584   0.303   4.383   0.482
 1184SOL     OW 3585   1.474   3.928   1.716
 1184SOL    HW1 3586   1.490   3.949   1.812
 1184SOL    HW2 3587   1.405   3.855   1.709
 1185SOL     OW 3588   0.641   3.878   0.081
 1185SOL    HW1 3589   0.734   3.843   0.074
 1185SOL    HW2 3590   0.632   3.959   0.024
 1186SOL     OW 3591   0.769   3.985   1.776
 1186SOL    HW1 3592   0.857   3.939   1.766
 1186SOL    HW2 3593   0.709   3.930   1.834
 1187SOL     OW 3594   1.306   4.337   1.449
 1187SOL    HW1 3595   1.342   4.290   1.529
 1187SOL    HW2 3596   1.347   4.428   1.442
 1188SOL     OW 3597   0.922   4.227   0.890
 1188SOL    HW1 3598   0.904   4.218   0.792
 1188SOL    HW2 3599   0.949   4.138   0.927
 1189SOL     OW 3600   0.568   3.794   0.477
 1189SOL    HW1 3601   0.491   3.790   0.541
 1189SOL    HW2 3602   0.554   3.869   0.413
 1190SOL     OW 3603   0.279   3.821   0.305
 1190SOL    HW1 3604   0.353   3.887   0.294
 1190SOL    HW2 3605   0.289   3.747   0.238
 1191SOL     OW 3606   0.970   3.961   0.458
 1191SOL    HW1 3607   0.936   4.000   0.373
 1191SOL    HW2 3608   1.067   3.982   0.469
 1192SOL     OW 3609   1.047   4.437   1.427
 1192SOL    HW1 3610   0.972   4.373   1.444
 1192SOL    HW2 3611   1.135   4.389   1.436
 1193SOL     OW 3612   0.446   4.762   0.785
 1193SOL    HW1 3613   0.371   4.779   0.850
 1193SOL    HW2 3614   0.419   4.793   0.694
 1194SOL     OW 3615   1.058   4.230   0.084
 1194SOL    HW1 3616   1.031   4.301   0.019
 1194SOL    HW2 3617   1.127   4.266   0.147
 1195SOL     OW 3618   0.089   4.309   1.403
 1195SOL    HW1 3619   0.179   4.289   1.364
 1195SOL    HW2 3620   0.100   4.370   1.481
 1196SOL     OW 3621   0.574   3.928   1.200
 1196SOL    HW1 3622   0.598   3.847   1.254
 1196SOL    HW2 3623   0.476   3.947   1.210
 1197SOL     OW 3624   0.887   4.174   0.626
 1197SOL    HW1 3625   0.854   4.232   0.552
 1197SOL    HW2 3626   0.913   4.084   0.590
 1198SOL     OW 3627   1.007   3.769   0.744
 1198SOL    HW1 3628   0.943   3.763   0.668
 1198SOL    HW2 3629   0.990   3.695   0.809
 1199SOL     OW 3630   1.419   4.831   0.867
 1199SOL    HW1 3631   1.327   4.795   0.875
 1199SOL    HW2 3632   1.433   4.869   0.775
 1200SOL     OW 3633   1.456   4.338   0.934
 1200SOL    HW1 3634   1.385   4.268   0.944
 1200SOL    HW2 3635   1.520   4.333   1.010
 1201SOL     OW 3636   1.875   4.552   0.430
 1201SOL    HW1 3637   1.916   4.480   0.485
 1201SOL    HW2 3638   1.860   4.518   0.337
 1202SOL     OW 3639   1.415   4.280   0.109
 1202SOL    HW1 3640   1.358   4.263   0.190
 1202SOL    HW2 3641   1.461   4.196   0.083
 1203SOL     OW 3642   0.499   3.989   0.283
 1203SOL    HW1 3643   0.554   3.940   0.215
 1203SOL    HW2 3644   0.487   4.084   0.254
 1204SOL     OW 3645   1.743   4.917   1.499
 1204SOL    HW1 3646   1.843   4.920   1.502
 1204SOL    HW2 3647   1.707   0.011   1.498
 1205SOL     OW 3648   1.604   4.769   1.054
 1205SOL    HW1 3649   1.612   4.842   1.121
 1205SOL    HW2 3650   1.531   4.791   0.988
 1206SOL     OW 3651   0.937   3.799   1.393
 1206SOL    HW1 3652   0.952   3.777   1.297
 1206SOL    HW2 3653   1.018   3.845   1.430
 1207SOL     OW 3654   0.953   4.858   1.746
 1207SOL    HW1 3655   0.859   4.860   1.780
 1207SOL    HW2 3656   0.966   4.777   1.689
 1208SOL     OW 3657   0.690   4.696   0.391
 1208SOL    HW1 3658   0.681   4.692   0.490
 1208SOL    HW2 3659   0.786   4.683   0.365
 1209SOL     OW 3660   0.438   4.527   1.243
 1209SOL    HW1 3661   0.511   4.543   1.311
 1209SOL    HW2 3662   0.396   4.438   1.260
 1210SOL     OW 3663   1.266   4.107   1.300
 1210SOL    HW1 3664   1.287   4.192   1.349
 1210SOL    HW2 3665   1.175   4.114   1.260
 1211SOL     OW 3666   0.363   4.842   0.519
 1211SOL    HW1 3667   0.428   4.918   0.511
 1211SOL    HW2 3668   0.347   4.802   0.429
 1212SOL     OW 3669   0.531   4.224   0.898
 1212SOL    HW1 3670   0.531   4.284   0.818
 1212SOL    HW2 3671   0.601   4.254   0.963
 1213SOL     OW 3672   1.566   4.342   0.420
 1213SOL    HW1 3673   1.545   4.374   0.512
 1213SOL    HW2 3674   1.517   4.399   0.353
 1214SOL     OW 3675   0.467   4.427   1.611
 1214SOL    HW1 3676   0.518   4.481   1.544
 1214SOL    HW2 3677   0.512   4.339   1.624
 1215SOL     OW 3678   1.650   4.521   1.685
 1215SOL    HW1 3679   1.560   4.565   1.687
 1215SOL    HW2 3680   1.700   4.551   1.604
 1216SOL     OW 3681   1.004   3.854   1.754
 1216SOL    HW1 3682   1.059   3.937   1.741
 1216SOL    HW2 3683   1.059   3.774   1.732
 1217SOL     OW 3684   0.499   3.790   1.733
 1217SOL    HW1 3685   0.452   3.734   1.665
 1217SOL    HW2 3686   0.455   3.880   1.737
 1218SOL     OW 3687   0.583   4.574   1.008
 1218SOL    HW1 3688   0.538   4.630   0.939
 1218SOL    HW2 3689   0.524   4.565   1.088
 1219SOL     OW 3690   1.284   4.564   1.009
 1219SOL    HW1 3691   1.195   4.528   0.982
 1219SOL    HW2 3692   1.356   4.500   0.980
 1220SOL     OW 3693   1.232   4.255   0.308
 1220SOL    HW1 3694   1.239   4.172   0.363
 1220SOL    HW2 3695   1.178   4.323   0.358
 1221SOL     OW 3696   0.301   3.926   1.231
 1221SOL    HW1 3697   0.266   3.958   1.319
 1221SOL    HW2 3698   0.296   3.826   1.228
 1222SOL     OW 3699   0.017   0.038   1.293
 1222SOL    HW1 3700   0.059   4.972   1.355
 1222SOL    HW2 3701   4.960   0.101   1.344
 1223SOL     OW 3702   0.728   4.345   1.055
 1223SOL    HW1 3703   0.795   4.319   0.985
 1223SOL    HW2 3704   0.683   4.430   1.028
 1224SOL     OW 3705   1.756   4.688   1.879
 1224SOL    HW1 3706   1.719   4.619   1.817
 1224SOL    HW2 3707   1.688   4.710   1.949
 1225SOL     OW 3708   0.346   3.772   0.640
 1225SOL    HW1 3709   0.304   3.861   0.655
 1225SOL    HW2 3710   0.361   3.727   0.728
 1226SOL     OW 3711   1.600   4.090   0.312
 1226SOL    HW1 3712   1.657   4.031   0.369
 1226SOL    HW2 3713   1.584   4.177   0.359
 1227SOL     OW 3714   1.027   4.470   0.958
 1227SOL    HW1 3715   1.000   4.495   1.051
 1227SOL    HW2 3716   0.995   4.378   0.938
 1228SOL     OW 3717   0.395   4.609   1.808
 1228SOL    HW1 3718   0.462   4.625   1.879
 1228SOL    HW2 3719   0.430   4.541   1.743
 1229SOL     OW 3720   1.453   3.981   0.106
 1229SOL    HW1 3721   1.355   3.989   0.123
 1229SOL    HW2 3722   1.503   4.008   0.188
 1230SOL     OW 3723   1.256   4.486   0.038
 1230SOL    HW1 3724   1.320   4.412   0.058
 1230SOL    HW2 3725   1.267   4.514   4.942
 1231SOL     OW 3726   0.293   4.468   0.864
 1231SOL    HW1 3727   0.382   4.463   0.819
 1231SOL    HW2 3728   0.285   4.393   0.930
 1232SOL     OW 3729   0.290   4.213   1.021
 1232SOL    HW1 3730   0.244   4.127   1.001
 1232SOL    HW2 3731   0.380   4.214   0.976
 1233SOL     OW 3732   1.134   4.089   1.698
 1233SOL    HW1 3733   1.087   4.139   1.770
 1233SOL    HW2 3734   1.223   4.131   1.680
 1234SOL     OW 3735   1.168   3.920   1.481
 1234SOL    HW1 3736   1.148   3.979   1.559
 1234SOL    HW2 3737   1.213   3.974   1.409
 1235SOL     OW 3738   4.899   0.097   0.317
 1235SOL    HW1 3739   4.824   0.101   0.252
 1235SOL    HW2 3740   4.947   0.010   0.308
 1236SOL     OW 3741   0.930   4.544   1.206
 1236SOL    HW1 3742   0.977   4.507   1.286
 1236SOL    HW2 3743   0.843   4.498   1.194
 1237SOL     OW 3744   0.078   4.366   1.125
 1237SOL    HW1 3745   0.149   4.306   1.088
 1237SOL    HW2 3746   0.063   4.344   1.221
 1238SOL     OW 3747   0.141   4.206   1.750
 1238SOL    HW1 3748   0.217   4.145   1.731
 1238SOL    HW2 3749   0.152   4.291   1.698
 1239SOL     OW 3750   1.424   4.680   1.677
 1239SOL    HW1 3751   1.460   4.772   1.691
 1239SOL    HW2 3752   1.409   4.665   1.579
 1240SOL     OW 3753   0.839   4.289   0.377
 1240SOL    HW1 3754   0.843   4.208   0.318
 1240SOL    HW2 3755   0.756   4.341   0.355
 1241SOL     OW 3756   1.631   4.305   1.141
 1241SOL    HW1 3757   1.607   4.234   1.208
 1241SOL    HW2 3758   1.730   4.304   1.126
 1242SOL     OW 3759   0.748   4.146   1.245
 1242SOL    HW1 3760   0.684   4.069   1.235
 1242SOL    HW2 3761   0.727   4.216   1.177
 1243SOL     OW 3762   0.477   4.246   0.172
 1243SOL    HW1 3763   0.537   4.311   0.218
 1243SOL    HW2 3764   0.386   4.286   0.161
 1244SOL     OW 3765   0.158   4.861   1.459
 1244SOL    HW1 3766   0.152   4.811   1.545
 1244SOL    HW2 3767   0.177   4.797   1.385
 1245SOL     OW 3768   1.228   4.722   1.227
 1245SOL    HW1 3769   1.262   4.675   1.145
 1245SOL    HW2 3770   1.135   4.691   1.246
 1246SOL     OW 3771   1.298   4.595   0.289
 1246SOL    HW1 3772   1.237   4.556   0.359
 1246SOL    HW2 3773   1.282   4.548   0.202
 1247SOL     OW 3774   0.044   0.022   1.013
 1247SOL    HW1 3775   0.019   0.024   1.109
 1247SOL    HW2 3776   4.966   4.993   0.958
 1248SOL     OW 3777   0.910   3.820   0.063
 1248SOL    HW1 3778   0.932   3.821   4.965
 1248SOL    HW2 3779   0.975   3.761   0.111
 1249SOL     OW 3780   1.767   3.924   0.457
 1249SOL    HW1 3781   1.833   3.898   0.386
 1249SOL    HW2 3782   1.726   3.841   0.496
 1250SOL     OW 3783   1.306   4.655   0.634
 1250SOL    HW1 3784   1.378   4.586   0.641
 1250SOL    HW2 3785   1.346   4.742   0.604
 1251SOL     OW 3786   1.836   3.862   0.968
 1251SOL    HW1 3787   1.867   3.770   0.944
 1251SOL    HW2 3788   1.745   3.877   0.930
 1252SOL     OW 3789   0.243   4.016   0.705
 1252SOL    HW1 3790   0.163   4.064   0.670
 1252SOL    HW2 3791   0.235   4.005   0.804
 1253SOL     OW 3792   0.829   4.762   1.396
 1253SOL    HW1 3793   0.854   4.728   1.305
 1253SOL    HW2 3794   0.845   4.860   1.400
 1254SOL     OW 3795   0.940   4.646   0.307
 1254SOL    HW1 3796   0.985   4.669   0.221
 1254SOL    HW2 3797   0.993   4.576   0.356
 1255SOL     OW 3798   0.372   0.021   1.542
 1255SOL    HW1 3799   0.411   0.057   1.457
 1255SOL    HW2 3800   0.291   4.965   1.521
 1256SOL     OW 3801   1.609   4.956   1.253
 1256SOL    HW1 3802   1.653   4.933   1.340
 1256SOL    HW2 3803   1.511   4.972   1.269
 1257SOL     OW 3804   1.119   4.820   0.766
 1257SOL    HW1 3805   1.034   4.771   0.784
 1257SOL    HW2 3806   1.178   4.764   0.708
 1258SOL     OW 3807   1.033   3.955   0.962
 1258SOL    HW1 3808   1.028   3.916   0.870
 1258SOL    HW2 3809   1.028   3.882   1.030
 1259SOL     OW 3810   1.772   4.079   1.413
 1259SOL    HW1 3811   1.834   4.157   1.404
 1259SOL    HW2 3812   1.796   4.010   1.345
 1260SOL     OW 3813   0.173   4.731   1.709
 1260SOL    HW1 3814   0.143   4.806   1.769
 1260SOL    HW2 3815   0.257   4.691   1.745
 1261SOL     OW 3816   0.708   3.925   1.506
 1261SOL    HW1 3817   0.794   3.896   1.463
 1261SOL    HW2 3818   0.726   3.951   1.601
 1262SOL     OW 3819   4.992   4.091   4.988
 1262SOL    HW1 3820   4.900   4.124   4.963
 1262SOL    HW2 3821   0.060   4.158   4.958
 1263SOL     OW 3822   1.402   4.602   1.409
 1263SOL    HW1 3823   1.334   4.649   1.353
 1263SOL    HW2 3824   1.485   4.586   1.355
 1264SOL     OW 3825   0.037   3.863   0.426
 1264SOL    HW1 3826   4.993   3.921   0.357
 1264SOL    HW2 3827   0.132   3.847   0.400
 1265SOL     OW 3828   0.644   4.545   1.428
 1265SOL    HW1 3829   0.697   4.630   1.428
 1265SOL    HW2 3830   0.707   4.467   1.437
 1266SOL     OW 3831   0.722   4.254   1.711
 1266SOL    HW1 3832   0.773   4.319   1.766
 1266SOL    HW2 3833   0.743   4.161   1.740
 1267SOL     OW 3834   1.579   4.921   1.736
 1267SOL    HW1 3835   1.632   4.927   1.820
 1267SOL    HW2 3836   1.641   4.906   1.659
 1268SOL     OW 3837   1.615   4.566   1.239
 1268SOL    HW1 3838   1.623   4.474   1.200
 1268SOL    HW2 3839   1.613   4.634   1.165
 1269SOL     OW 3840   1.235   4.031   0.472
 1269SOL    HW1 3841   1.296   3.952   0.472
 1269SOL    HW2 3842   1.253   4.088   0.552
 1270SOL     OW 3843   0.527   4.433   0.715
 1270SOL    HW1 3844   0.589   4.511   0.702
 1270SOL    HW2 3845   0.480   4.413   0.628
 1271SOL     OW 3846   1.721   4.062   1.684
 1271SOL    HW1 3847   1.739   4.070   1.586
 1271SOL    HW2 3848   1.642   4.003   1.698
 1272SOL     OW 3849   1.758   4.639   1.460
 1272SOL    HW1 3850   1.751   4.737   1.474
 1272SOL    HW2 3851   1.708   4.613   1.378
 1273SOL     OW 3852   0.887   4.694   0.843
 1273SOL    HW1 3853   0.921   4.617   0.897
 1273SOL    HW2 3854   0.847   4.763   0.904
 1274SOL     OW 3855   1.051   4.675   0.050
 1274SOL    HW1 3856   1.101   4.750   0.007
 1274SOL    HW2 3857   1.111   4.594   0.056
 1275SOL     OW 3858   0.126   4.832   0.666
 1275SOL    HW1 3859   0.156   4.836   0.762
 1275SOL    HW2 3860   0.204   4.850   0.606
 1276SOL     OW 3861   1.825   3.878   1.242
 1276SOL    HW1 3862   1.834   3.781   1.265
 1276SOL    HW2 3863   1.828   3.889   1.142
 1277SOL     OW 3864   0.445   4.115   0.535
 1277SOL    HW1 3865   0.457   4.052   0.457
 1277SOL    HW2 3866   0.380   4.075   0.600
 1278SOL     OW 3867   0.340   4.272   1.293
 1278SOL    HW1 3868   0.395   4.212   1.350
 1278SOL    HW2 3869   0.334   4.235   1.200
 1279SOL     OW 3870   1.426   3.966   1.128
 1279SOL    HW1 3871   1.437   3.870   1.154
 1279SOL    HW2 3872   1.377   4.015   1.200
 1280SOL     OW 3873   1.013   3.732   1.129
 1280SOL    HW1 3874   0.950   3.665   1.088
 1280SOL    HW2 3875   1.106   3.694   1.129
 1281SOL     OW 3876   0.760   4.954   0.266
 1281SOL    HW1 3877   0.716   4.884   0.323
 1281SOL    HW2 3878   0.828   0.003   0.320
 1282SOL     OW 3879   1.356   3.730   0.223
 1282SOL    HW1 3880   1.395   3.795   0.158
 1282SOL    HW2 3881   1.263   3.706   0.195
 1283SOL     OW 3882   1.283   4.192   0.685
 1283SOL    HW1 3883   1.239   4.281   0.681
 1283SOL    HW2 3884   1.280   4.157   0.779
 1284SOL     OW 3885   1.578   3.916   0.901
 1284SOL    HW1 3886   1.526   3.946   0.981
 1284SOL    HW2 3887   1.578   3.989   0.832
 1285SOL     OW 3888   0.033   4.841   0.305
 1285SOL    HW1 3889   0.130   4.828   0.287
 1285SOL    HW2 3890   0.013   4.815   0.400
 1286SOL     OW 3891   0.194   4.348   1.999
 1286SOL    HW1 3892   0.106   4.355   2.046
 1286SOL    HW2 3893   0.179   4.326   1.902
 1287SOL     OW 3894   0.199   3.954   2.837
 1287SOL    HW1 3895   0.238   3.949   2.929
 1287SOL    HW2 3896   0.147   3.870   2.818
 1288SOL     OW 3897   4.998   4.123   2.448
 1288SOL    HW1 3898   4.910   4.151   2.486
 1288SOL    HW2 3899   4.982   4.062   2.370
 1289SOL     OW 3900   1.136   4.441   2.539
 1289SOL    HW1 3901   1.190   4.524   2.519
 1289SOL    HW2 3902   1.084   4.455   2.623
 1290SOL     OW 3903   1.786   4.294   2.069
 1290SOL    HW1 3904   1.745   4.301   1.978
 1290SOL    HW2 3905   1.739   4.222   2.120
 1291SOL     OW 3906   0.779   4.975   2.806
 1291SOL    HW1 3907   0.697   0.032   2.809
 1291SOL    HW2 3908   0.838   0.007   2.732
 1292SOL     OW 3909   0.880   4.456   3.706
 1292SOL    HW1 3910   0.873   4.506   3.792
 1292SOL    HW2 3911   0.901   4.520   3.632
 1293SOL     OW 3912   0.674   4.691   2.514
 1293SOL    HW1 3913   0.754   4.705   2.573
 1293SOL    HW2 3914   0.595   4.737   2.555
 1294SOL     OW 3915   0.700   4.863   3.718
 1294SOL    HW1 3916   0.733   4.907   3.802
 1294SOL    HW2 3917   0.630   4.920   3.676
 1295SOL     OW 3918   0.466   4.089   3.316
 1295SOL    HW1 3919   0.548   4.034   3.331
 1295SOL    HW2 3920   0.388   4.044   3.359
 1296SOL     OW 3921   1.579   4.158   2.611
 1296SOL    HW1 3922   1.514   4.167   2.535
 1296SOL    HW2 3923   1.558   4.228   2.680
 1297SOL     OW 3924   0.210   4.813   2.776
 1297SOL    HW1 3925   0.176   4.730   2.819
 1297SOL    HW2 3926   0.169   4.893   2.820
 1298SOL     OW 3927   0.566   4.681   2.016
 1298SOL    HW1 3928   0.613   4.733   1.944
 1298SOL    HW2 3929   0.605   4.705   2.105
 1299SOL     OW 3930   1.591   3.861   3.328
 1299SOL    HW1 3931   1.636   3.942   3.291
 1299SOL    HW2 3932   1.543   3.885   3.412
 1300SOL     OW 3933   0.122   4.356   2.360
 1300SOL    HW1 3934   0.088   4.270   2.398
 1300SOL    HW2 3935   0.111   4.428   2.429
 1301SOL     OW 3936   1.703   4.658   2.480
 1301SOL    HW1 3937   1.756   4.592   2.427
 1301SOL    HW2 3938   1.686   4.740   2.425
 1302SOL     OW 3939   1.677   4.873   2.305
 1302SOL    HW1 3940   1.757   4.834   2.260
 1302SOL    HW2 3941   1.691   4.972   2.319
 1303SOL     OW 3942   0.191   4.452   3.482
 1303SOL    HW1 3943   0.291   4.447   3.473
 1303SOL    HW2 3944   0.165   4.545   3.506
 1304SOL     OW 3945   1.329   4.981   3.143
 1304SOL    HW1 3946   1.290   4.890   3.125
 1304SOL    HW2 3947   1.273   0.028   3.211
 1305SOL     OW 3948   0.848   3.742   2.372
 1305SOL    HW1 3949   0.896   3.824   2.342
 1305SOL    HW2 3950   0.749   3.759   2.373
 1306SOL     OW 3951   0.212   4.690   3.117
 1306SOL    HW1 3952   0.294   4.634   3.110
 1306SOL    HW2 3953   0.149   4.667   3.042
 1307SOL     OW 3954   1.562   4.757   2.073
 1307SOL    HW1 3955   1.483   4.700   2.096
 1307SOL    HW2 3956   1.602   4.793   2.157
 1308SOL     OW 3957   0.388   4.041   3.638
 1308SOL    HW1 3958   0.453   4.116   3.653
 1308SOL    HW2 3959   0.352   4.010   3.726
 1309SOL     OW 3960   0.591   4.421   2.141
 1309SOL    HW1 3961   0.592   4.508   2.091
 1309SOL    HW2 3962   0.525   4.426   2.216
 1310SOL     OW 3963   1.279   4.115   2.799
 1310SOL    HW1 3964   1.188   4.075   2.797
 1310SOL    HW2 3965   1.337   4.062   2.861
 1311SOL     OW 3966   0.798   4.312   3.316
 1311SOL    HW1 3967   0.765   4.284   3.406
 1311SOL    HW2 3968   0.776   4.242   3.249
 1312SOL     OW 3969   1.385   4.192   3.530
 1312SOL    HW1 3970   1.391   4.243   3.616
 1312SOL    HW2 3971   1.429   4.103   3.541
 1313SOL     OW 3972   0.943   4.620   3.470
 1313SOL    HW1 3973   0.998   4.552   3.421
 1313SOL    HW2 3974   0.892   4.675   3.404
 1314SOL     OW 3975   1.017   4.107   3.052
 1314SOL    HW1 3976   0.923   4.118   3.084
 1314SOL    HW2 3977   1.017   4.056   2.966
 1315SOL     OW 3978   1.052   4.413   2.274
 1315SOL    HW1 3979   1.078   4.418   2.370
 1315SOL    HW2 3980   0.967   4.362   2.265
 1316SOL     OW 3981   0.096   4.547   2.555
 1316SOL    HW1 3982   0.166   4.523   2.623
 1316SOL    HW2 3983   0.096   4.646   2.540
 1317SOL     OW 3984   0.871   4.067   2.062
 1317SOL    HW1 3985   0.931   4.121   2.002
 1317SOL    HW2 3986   0.818   4.002   2.008
 1318SOL     OW 3987   1.658   4.292   3.691
 1318SOL    HW1 3988   1.656   4.373   3.633
 1318SOL    HW2 3989   1.684   4.212   3.636
 1319SOL     OW 3990   1.434   4.894   2.447
 1319SOL    HW1 3991   1.517   4.869   2.398
 1319SOL    HW2 3992   1.403   4.984   2.418
 1320SOL     OW 3993   0.581   3.847   2.803
 1320SOL    HW1 3994   0.582   3.877   2.898
 1320SOL    HW2 3995   0.578   3.926   2.742
 1321SOL     OW 3996   1.794   4.744   2.726
 1321SOL    HW1 3997   1.757   4.720   2.636
 1321SOL    HW2 3998   1.719   4.752   2.792
 1322SOL     OW 3999   0.296   4.659   2.120
 1322SOL    HW1 4000   0.380   4.683   2.072
 1322SOL    HW2 4001   0.263   4.570   2.087
 1323SOL     OW 4002   1.492   4.493   2.569
 1323SOL    HW1 4003   1.490   4.449   2.658
 1323SOL    HW2 4004   1.573   4.551   2.562
 1324SOL     OW 4005   0.192   3.979   3.345
 1324SOL    HW1 4006   0.109   4.031   3.326
 1324SOL    HW2 4007   0.169   3.892   3.389
 1325SOL     OW 4008   1.400   3.818   2.317
 1325SOL    HW1 4009   1.400   3.796   2.219
 1325SOL    HW2 4010   1.487   3.791   2.357
 1326SOL     OW 4011   0.398   4.385   2.334
 1326SOL    HW1 4012   0.421   4.291   2.356
 1326SOL    HW2 4013   0.299   4.396   2.330
 1327SOL     OW 4014   1.477   3.929   3.578
 1327SOL    HW1 4015   1.495   3.948   3.674
 1327SOL    HW2 4016   1.405   3.860   3.570
 1328SOL     OW 4017   0.639   3.825   1.968
 1328SOL    HW1 4018   0.688   3.741   1.994
 1328SOL    HW2 4019   0.572   3.803   1.896
 1329SOL     OW 4020   0.768   3.992   3.630
 1329SOL    HW1 4021   0.857   3.947   3.621
 1329SOL    HW2 4022   0.710   3.941   3.694
 1330SOL     OW 4023   1.303   4.335   3.311
 1330SOL    HW1 4024   1.340   4.289   3.392
 1330SOL    HW2 4025   1.344   4.426   3.303
 1331SOL     OW 4026   0.928   4.227   2.738
 1331SOL    HW1 4027   0.908   4.218   2.640
 1331SOL    HW2 4028   0.958   4.139   2.774
 1332SOL     OW 4029   0.578   3.786   2.350
 1332SOL    HW1 4030   0.503   3.788   2.416
 1332SOL    HW2 4031   0.572   3.867   2.291
 1333SOL     OW 4032   0.314   3.710   2.006
 1333SOL    HW1 4033   0.308   3.809   2.024
 1333SOL    HW2 4034   0.366   3.666   2.078
 1334SOL     OW 4035   0.979   3.969   2.298
 1334SOL    HW1 4036   0.941   4.002   2.212
 1334SOL    HW2 4037   1.076   3.990   2.302
 1335SOL     OW 4038   1.044   4.436   3.288
 1335SOL    HW1 4039   0.969   4.372   3.304
 1335SOL    HW2 4040   1.132   4.388   3.297
 1336SOL     OW 4041   0.439   4.785   2.617
 1336SOL    HW1 4042   0.367   4.791   2.686
 1336SOL    HW2 4043   0.399   4.793   2.526
 1337SOL     OW 4044   1.029   4.231   1.907
 1337SOL    HW1 4045   0.987   4.319   1.884
 1337SOL    HW2 4046   1.101   4.245   1.975
 1338SOL     OW 4047   0.085   4.316   3.262
 1338SOL    HW1 4048   0.173   4.289   3.223
 1338SOL    HW2 4049   0.099   4.377   3.339
 1339SOL     OW 4050   0.571   3.923   3.063
 1339SOL    HW1 4051   0.592   3.842   3.117
 1339SOL    HW2 4052   0.474   3.945   3.073
 1340SOL     OW 4053   0.885   4.169   2.475
 1340SOL    HW1 4054   0.841   4.225   2.405
 1340SOL    HW2 4055   0.923   4.087   2.434
 1341SOL     OW 4056   1.020   3.770   2.595
 1341SOL    HW1 4057   0.958   3.767   2.516
 1341SOL    HW2 4058   0.996   3.698   2.660
 1342SOL     OW 4059   1.404   4.847   2.729
 1342SOL    HW1 4060   1.306   4.830   2.734
 1342SOL    HW2 4061   1.428   4.875   2.636
 1343SOL     OW 4062   1.457   4.338   2.804
 1343SOL    HW1 4063   1.387   4.267   2.808
 1343SOL    HW2 4064   1.519   4.328   2.882
 1344SOL     OW 4065   1.809   4.493   2.256
 1344SOL    HW1 4066   1.876   4.450   2.317
 1344SOL    HW2 4067   1.797   4.436   2.175
 1345SOL     OW 4068   1.387   4.313   1.909
 1345SOL    HW1 4069   1.341   4.281   1.992
 1345SOL    HW2 4070   1.486   4.300   1.919
 1346SOL     OW 4071   0.553   3.991   2.174
 1346SOL    HW1 4072   0.586   3.934   2.098
 1346SOL    HW2 4073   0.518   4.078   2.137
 1347SOL     OW 4074   1.741   4.916   3.360
 1347SOL    HW1 4075   1.841   4.920   3.363
 1347SOL    HW2 4076   1.704   0.009   3.359
 1348SOL     OW 4077   1.594   4.771   2.909
 1348SOL    HW1 4078   1.602   4.842   2.979
 1348SOL    HW2 4079   1.519   4.795   2.847
 1349SOL     OW 4080   0.938   3.799   3.249
 1349SOL    HW1 4081   0.952   3.779   3.152
 1349SOL    HW2 4082   1.018   3.845   3.286
 1350SOL     OW 4083   0.952   4.856   3.610
 1350SOL    HW1 4084   0.857   4.859   3.643
 1350SOL    HW2 4085   0.965   4.774   3.554
 1351SOL     OW 4086   0.705   4.740   2.241
 1351SOL    HW1 4087   0.692   4.725   2.339
 1351SOL    HW2 4088   0.781   4.685   2.208
 1352SOL     OW 4089   0.439   4.523   3.109
 1352SOL    HW1 4090   0.510   4.539   3.177
 1352SOL    HW2 4091   0.396   4.434   3.126
 1353SOL     OW 4092   1.265   4.105   3.159
 1353SOL    HW1 4093   1.285   4.190   3.208
 1353SOL    HW2 4094   1.174   4.112   3.118
 1354SOL     OW 4095   0.334   4.811   2.357
 1354SOL    HW1 4096   0.389   4.889   2.327
 1354SOL    HW2 4097   0.323   4.747   2.281
 1355SOL     OW 4098   0.520   4.244   2.749
 1355SOL    HW1 4099   0.526   4.305   2.670
 1355SOL    HW2 4100   0.596   4.261   2.811
 1356SOL     OW 4101   1.575   4.342   2.346
 1356SOL    HW1 4102   1.526   4.389   2.420
 1356SOL    HW2 4103   1.644   4.404   2.308
 1357SOL     OW 4104   0.481   4.429   3.485
 1357SOL    HW1 4105   0.525   4.480   3.411
 1357SOL    HW2 4106   0.540   4.354   3.514
 1358SOL     OW 4107   1.647   4.518   3.540
 1358SOL    HW1 4108   1.559   4.564   3.543
 1358SOL    HW2 4109   1.698   4.549   3.460
 1359SOL     OW 4110   1.002   3.857   3.617
 1359SOL    HW1 4111   1.059   3.938   3.606
 1359SOL    HW2 4112   1.055   3.776   3.595
 1360SOL     OW 4113   0.496   3.788   3.602
 1360SOL    HW1 4114   0.450   3.732   3.534
 1360SOL    HW2 4115   0.456   3.880   3.603
 1361SOL     OW 4116   0.605   4.566   2.889
 1361SOL    HW1 4117   0.564   4.621   2.816
 1361SOL    HW2 4118   0.540   4.557   2.965
 1362SOL     OW 4119   1.280   4.556   2.877
 1362SOL    HW1 4120   1.192   4.529   2.837
 1362SOL    HW2 4121   1.350   4.491   2.849
 1363SOL     OW 4122   1.211   4.248   2.117
 1363SOL    HW1 4123   1.232   4.168   2.174
 1363SOL    HW2 4124   1.163   4.316   2.172
 1364SOL     OW 4125   0.297   3.926   3.092
 1364SOL    HW1 4126   0.264   3.960   3.180
 1364SOL    HW2 4127   0.291   3.826   3.092
 1365SOL     OW 4128   0.018   0.038   3.150
 1365SOL    HW1 4129   0.058   4.972   3.213
 1365SOL    HW2 4130   4.959   0.101   3.201
 1366SOL     OW 4131   0.731   4.325   2.909
 1366SOL    HW1 4132   0.800   4.304   2.840
 1366SOL    HW2 4133   0.693   4.416   2.892
 1367SOL     OW 4134   1.758   4.684   3.733
 1367SOL    HW1 4135   1.718   4.615   3.672
 1367SOL    HW2 4136   1.691   4.708   3.803
 1368SOL     OW 4137   0.356   3.784   2.510
 1368SOL    HW1 4138   0.308   3.871   2.525
 1368SOL    HW2 4139   0.364   3.736   2.597
 1369SOL     OW 4140   1.618   4.115   2.199
 1369SOL    HW1 4141   1.664   4.046   2.256
 1369SOL    HW2 4142   1.589   4.191   2.256
 1370SOL     OW 4143   1.018   4.478   2.807
 1370SOL    HW1 4144   0.998   4.500   2.902
 1370SOL    HW2 4145   0.991   4.384   2.787
 1371SOL     OW 4146   0.396   4.613   3.671
 1371SOL    HW1 4147   0.462   4.630   3.744
 1371SOL    HW2 4148   0.433   4.545   3.608
 1372SOL     OW 4149   1.513   3.984   1.976
 1372SOL    HW1 4150   1.468   3.902   2.013
 1372SOL    HW2 4151   1.551   4.037   2.051
 1373SOL     OW 4152   1.277   4.561   1.875
 1373SOL    HW1 4153   1.310   4.467   1.882
 1373SOL    HW2 4154   1.326   4.608   1.802
 1374SOL     OW 4155   0.299   4.485   2.724
 1374SOL    HW1 4156   0.385   4.480   2.674
 1374SOL    HW2 4157   0.297   4.413   2.794
 1375SOL     OW 4158   0.289   4.212   2.883
 1375SOL    HW1 4159   0.245   4.125   2.862
 1375SOL    HW2 4160   0.374   4.220   2.832
 1376SOL     OW 4161   1.134   4.090   3.563
 1376SOL    HW1 4162   1.088   4.139   3.637
 1376SOL    HW2 4163   1.223   4.132   3.545
 1377SOL     OW 4164   1.166   3.921   3.343
 1377SOL    HW1 4165   1.146   3.980   3.422
 1377SOL    HW2 4166   1.211   3.975   3.272
 1378SOL     OW 4167   4.934   0.030   2.092
 1378SOL    HW1 4168   4.843   4.996   2.065
 1378SOL    HW2 4169   4.986   4.955   2.131
 1379SOL     OW 4170   0.937   4.553   3.066
 1379SOL    HW1 4171   0.982   4.510   3.145
 1379SOL    HW2 4172   0.845   4.514   3.056
 1380SOL     OW 4173   0.077   4.366   2.981
 1380SOL    HW1 4174   0.148   4.305   2.944
 1380SOL    HW2 4175   0.062   4.346   3.077
 1381SOL     OW 4176   0.143   4.209   3.604
 1381SOL    HW1 4177   0.218   4.146   3.584
 1381SOL    HW2 4178   0.155   4.293   3.553
 1382SOL     OW 4179   1.423   4.679   3.538
 1382SOL    HW1 4180   1.459   4.770   3.554
 1382SOL    HW2 4181   1.407   4.666   3.440
 1383SOL     OW 4182   0.815   4.283   2.230
 1383SOL    HW1 4183   0.825   4.203   2.171
 1383SOL    HW2 4184   0.737   4.338   2.199
 1384SOL     OW 4185   1.632   4.302   3.012
 1384SOL    HW1 4186   1.613   4.234   3.082
 1384SOL    HW2 4187   1.730   4.302   2.990
 1385SOL     OW 4188   0.748   4.139   3.108
 1385SOL    HW1 4189   0.683   4.063   3.099
 1385SOL    HW2 4190   0.730   4.206   3.036
 1386SOL     OW 4191   0.429   4.217   2.056
 1386SOL    HW1 4192   0.501   4.282   2.080
 1386SOL    HW2 4193   0.343   4.266   2.039
 1387SOL     OW 4194   0.156   4.862   3.319
 1387SOL    HW1 4195   0.151   4.813   3.406
 1387SOL    HW2 4196   0.177   4.798   3.245
 1388SOL     OW 4197   1.222   4.720   3.089
 1388SOL    HW1 4198   1.258   4.672   3.009
 1388SOL    HW2 4199   1.128   4.691   3.106
 1389SOL     OW 4200   1.342   4.614   2.140
 1389SOL    HW1 4201   1.277   4.578   2.207
 1389SOL    HW2 4202   1.310   4.594   2.048
 1390SOL     OW 4203   0.045   0.016   2.870
 1390SOL    HW1 4204   0.020   0.019   2.967
 1390SOL    HW2 4205   4.968   4.981   2.817
 1391SOL     OW 4206   1.766   3.922   2.331
 1391SOL    HW1 4207   1.820   3.904   2.249
 1391SOL    HW2 4208   1.723   3.837   2.362
 1392SOL     OW 4209   1.291   4.662   2.496
 1392SOL    HW1 4210   1.363   4.598   2.522
 1392SOL    HW2 4211   1.333   4.747   2.463
 1393SOL     OW 4212   1.838   3.867   2.836
 1393SOL    HW1 4213   1.870   3.776   2.808
 1393SOL    HW2 4214   1.748   3.884   2.795
 1394SOL     OW 4215   0.232   4.019   2.565
 1394SOL    HW1 4216   0.149   4.061   2.527
 1394SOL    HW2 4217   0.222   4.009   2.664
 1395SOL     OW 4218   0.831   4.761   3.261
 1395SOL    HW1 4219   0.861   4.728   3.171
 1395SOL    HW2 4220   0.845   4.860   3.266
 1396SOL     OW 4221   0.908   4.599   2.122
 1396SOL    HW1 4222   0.970   4.655   2.066
 1396SOL    HW2 4223   0.962   4.536   2.178
 1397SOL     OW 4224   0.369   0.023   3.403
 1397SOL    HW1 4225   0.410   0.056   3.318
 1397SOL    HW2 4226   0.288   4.968   3.381
 1398SOL     OW 4227   1.603   4.953   3.114
 1398SOL    HW1 4228   1.649   4.931   3.200
 1398SOL    HW2 4229   1.506   4.970   3.132
 1399SOL     OW 4230   1.117   4.828   2.639
 1399SOL    HW1 4231   1.029   4.785   2.656
 1399SOL    HW2 4232   1.172   4.768   2.580
 1400SOL     OW 4233   1.035   3.960   2.812
 1400SOL    HW1 4234   1.034   3.920   2.720
 1400SOL    HW2 4235   1.030   3.887   2.880
 1401SOL     OW 4236   1.766   4.093   3.272
 1401SOL    HW1 4237   1.827   4.172   3.265
 1401SOL    HW2 4238   1.793   4.023   3.206
 1402SOL     OW 4239   0.175   4.734   3.569
 1402SOL    HW1 4240   0.145   4.809   3.628
 1402SOL    HW2 4241   0.259   4.694   3.606
 1403SOL     OW 4242   0.707   3.921   3.365
 1403SOL    HW1 4243   0.793   3.894   3.321
 1403SOL    HW2 4244   0.726   3.951   3.459
 1404SOL     OW 4245   0.022   4.042   1.965
 1404SOL    HW1 4246   4.947   3.992   1.921
 1404SOL    HW2 4247   0.055   4.114   1.904
 1405SOL     OW 4248   1.399   4.601   3.270
 1405SOL    HW1 4249   1.330   4.647   3.215
 1405SOL    HW2 4250   1.481   4.586   3.215
 1406SOL     OW 4251   4.956   3.955   2.226
 1406SOL    HW1 4252   4.979   4.004   2.142
 1406SOL    HW2 4253   4.978   3.858   2.215
 1407SOL     OW 4254   0.647   4.544   3.290
 1407SOL    HW1 4255   0.699   4.629   3.291
 1407SOL    HW2 4256   0.709   4.466   3.298
 1408SOL     OW 4257   0.709   4.262   3.575
 1408SOL    HW1 4258   0.764   4.326   3.630
 1408SOL    HW2 4259   0.733   4.168   3.599
 1409SOL     OW 4260   1.580   4.920   3.600
 1409SOL    HW1 4261   1.633   4.927   3.684
 1409SOL    HW2 4262   1.642   4.903   3.523
 1410SOL     OW 4263   1.612   4.568   3.098
 1410SOL    HW1 4264   1.620   4.475   3.062
 1410SOL    HW2 4265   1.607   4.633   3.023
 1411SOL     OW 4266   1.244   4.047   2.310
 1411SOL    HW1 4267   1.303   3.967   2.312
 1411SOL    HW2 4268   1.263   4.104   2.391
 1412SOL     OW 4269   0.527   4.457   2.565
 1412SOL    HW1 4270   0.589   4.534   2.548
 1412SOL    HW2 4271   0.480   4.433   2.480
 1413SOL     OW 4272   1.723   4.065   3.544
 1413SOL    HW1 4273   1.737   4.078   3.446
 1413SOL    HW2 4274   1.644   4.006   3.559
 1414SOL     OW 4275   1.760   4.638   3.318
 1414SOL    HW1 4276   1.750   4.737   3.334
 1414SOL    HW2 4277   1.708   4.613   3.236
 1415SOL     OW 4278   0.874   4.719   2.707
 1415SOL    HW1 4279   0.901   4.637   2.758
 1415SOL    HW2 4280   0.828   4.783   2.768
 1416SOL     OW 4281   1.075   4.728   1.955
 1416SOL    HW1 4282   1.042   4.786   1.881
 1416SOL    HW2 4283   1.148   4.669   1.921
 1417SOL     OW 4284   0.109   4.820   2.524
 1417SOL    HW1 4285   0.148   4.828   2.616
 1417SOL    HW2 4286   0.180   4.835   2.456
 1418SOL     OW 4287   1.831   3.891   3.108
 1418SOL    HW1 4288   1.857   3.799   3.136
 1418SOL    HW2 4289   1.829   3.896   3.008
 1419SOL     OW 4290   0.435   4.129   2.400
 1419SOL    HW1 4291   0.477   4.061   2.340
 1419SOL    HW2 4292   0.371   4.085   2.462
 1420SOL     OW 4293   0.336   4.269   3.155
 1420SOL    HW1 4294   0.391   4.206   3.210
 1420SOL    HW2 4295   0.330   4.234   3.061
 1421SOL     OW 4296   1.421   3.967   2.981
 1421SOL    HW1 4297   1.430   3.870   3.005
 1421SOL    HW2 4298   1.372   4.014   3.054
 1422SOL     OW 4299   1.016   3.735   2.980
 1422SOL    HW1 4300   0.955   3.670   2.936
 1422SOL    HW2 4301   1.108   3.697   2.984
 1423SOL     OW 4302   0.776   4.971   2.102
 1423SOL    HW1 4303   0.738   4.899   2.160
 1423SOL    HW2 4304   0.867   4.996   2.134
 1424SOL     OW 4305   1.396   3.747   2.050
 1424SOL    HW1 4306   1.445   3.676   1.999
 1424SOL    HW2 4307   1.302   3.716   2.066
 1425SOL     OW 4308   1.288   4.200   2.533
 1425SOL    HW1 4309   1.237   4.286   2.529
 1425SOL    HW2 4310   1.286   4.166   2.627
 1426SOL     OW 4311   1.582   3.921   2.760
 1426SOL    HW1 4312   1.527   3.950   2.839
 1426SOL    HW2 4313   1.583   3.994   2.692
 1427SOL     OW 4314   0.061   4.804   2.177
 1427SOL    HW1 4315   0.145   4.760   2.146
 1427SOL    HW2 4316   0.034   4.767   2.266
 1428SOL     OW 4317   0.197   4.344   3.854
 1428SOL    HW1 4318   0.109   4.355   3.902
 1428SOL    HW2 4319   0.180   4.324   3.758
 1429SOL     OW 4320   0.183   3.976   4.681
 1429SOL    HW1 4321   0.248   3.945   4.750
 1429SOL    HW2 4322   0.091   3.946   4.706
 1430SOL     OW 4323   4.997   4.139   4.306
 1430SOL    HW1 4324   4.910   4.171   4.344
 1430SOL    HW2 4325   4.979   4.079   4.228
 1431SOL     OW 4326   1.144   4.432   4.399
 1431SOL    HW1 4327   1.194   4.516   4.375
 1431SOL    HW2 4328   1.100   4.444   4.488
 1432SOL     OW 4329   1.788   4.287   3.926
 1432SOL    HW1 4330   1.745   4.296   3.836
 1432SOL    HW2 4331   1.738   4.219   3.980
 1433SOL     OW 4332   0.724   4.793   4.765
 1433SOL    HW1 4333   0.754   4.804   4.860
 1433SOL    HW2 4334   0.692   4.881   4.729
 1434SOL     OW 4335   0.692   4.689   4.375
 1434SOL    HW1 4336   0.768   4.698   4.439
 1434SOL    HW2 4337   0.608   4.725   4.418
 1435SOL     OW 4338   1.590   4.178   4.470
 1435SOL    HW1 4339   1.513   4.178   4.406
 1435SOL    HW2 4340   1.577   4.248   4.540
 1436SOL     OW 4341   0.233   4.834   4.652
 1436SOL    HW1 4342   0.226   4.780   4.736
 1436SOL    HW2 4343   0.179   4.917   4.660
 1437SOL     OW 4344   0.565   4.684   3.881
 1437SOL    HW1 4345   0.612   4.736   3.809
 1437SOL    HW2 4346   0.607   4.706   3.969
 1438SOL     OW 4347   0.128   4.367   4.218
 1438SOL    HW1 4348   0.093   4.279   4.251
 1438SOL    HW2 4349   0.120   4.435   4.290
 1439SOL     OW 4350   1.696   4.662   4.356
 1439SOL    HW1 4351   1.786   4.619   4.352
 1439SOL    HW2 4352   1.689   4.730   4.284
 1440SOL     OW 4353   1.681   4.867   4.164
 1440SOL    HW1 4354   1.760   4.832   4.115
 1440SOL    HW2 4355   1.693   4.965   4.181
 1441SOL     OW 4356   0.848   3.739   4.240
 1441SOL    HW1 4357   0.897   3.820   4.210
 1441SOL    HW2 4358   0.750   3.756   4.238
 1442SOL     OW 4359   0.150   4.693   4.907
 1442SOL    HW1 4360   0.239   4.659   4.936
 1442SOL    HW2 4361   0.104   4.624   4.851
 1443SOL     OW 4362   1.563   4.759   3.928
 1443SOL    HW1 4363   1.484   4.703   3.951
 1443SOL    HW2 4364   1.607   4.791   4.012
 1444SOL     OW 4365   0.591   4.420   3.996
 1444SOL    HW1 4366   0.592   4.508   3.949
 1444SOL    HW2 4367   0.528   4.425   4.073
 1445SOL     OW 4368   1.300   4.133   4.677
 1445SOL    HW1 4369   1.208   4.094   4.668
 1445SOL    HW2 4370   1.355   4.076   4.738
 1446SOL     OW 4371   1.046   4.409   4.138
 1446SOL    HW1 4372   1.075   4.413   4.234
 1446SOL    HW2 4373   0.960   4.358   4.131
 1447SOL     OW 4374   0.105   4.541   4.425
 1447SOL    HW1 4375   0.180   4.519   4.488
 1447SOL    HW2 4376   0.103   4.640   4.410
 1448SOL     OW 4377   0.874   4.061   3.926
 1448SOL    HW1 4378   0.932   4.116   3.866
 1448SOL    HW2 4379   0.828   3.991   3.872
 1449SOL     OW 4380   1.420   4.883   4.270
 1449SOL    HW1 4381   1.510   4.860   4.234
 1449SOL    HW2 4382   1.397   4.977   4.244
 1450SOL     OW 4383   0.561   3.870   4.693
 1450SOL    HW1 4384   0.498   3.889   4.769
 1450SOL    HW2 4385   0.585   3.956   4.648
 1451SOL     OW 4386   1.750   4.729   4.615
 1451SOL    HW1 4387   1.711   4.717   4.523
 1451SOL    HW2 4388   1.676   4.750   4.680
 1452SOL     OW 4389   0.293   4.664   3.977
 1452SOL    HW1 4390   0.380   4.689   3.934
 1452SOL    HW2 4391   0.263   4.576   3.942
 1453SOL     OW 4392   1.493   4.491   4.425
 1453SOL    HW1 4393   1.496   4.452   4.517
 1453SOL    HW2 4394   1.572   4.551   4.412
 1454SOL     OW 4395   1.400   3.815   4.183
 1454SOL    HW1 4396   1.400   3.794   4.086
 1454SOL    HW2 4397   1.490   3.792   4.222
 1455SOL     OW 4398   0.406   4.391   4.196
 1455SOL    HW1 4399   0.423   4.294   4.214
 1455SOL    HW2 4400   0.307   4.407   4.191
 1456SOL     OW 4401   0.652   3.828   3.825
 1456SOL    HW1 4402   0.705   3.746   3.847
 1456SOL    HW2 4403   0.584   3.806   3.754
 1457SOL     OW 4404   0.906   4.220   4.600
 1457SOL    HW1 4405   0.880   4.208   4.504
 1457SOL    HW2 4406   0.957   4.139   4.630
 1458SOL     OW 4407   0.581   3.785   4.208
 1458SOL    HW1 4408   0.501   3.783   4.268
 1458SOL    HW2 4409   0.576   3.866   4.150
 1459SOL     OW 4410   0.262   3.708   3.955
 1459SOL    HW1 4411   0.283   3.804   3.934
 1459SOL    HW2 4412   0.346   3.660   3.979
 1460SOL     OW 4413   0.979   3.966   4.164
 1460SOL    HW1 4414   0.943   4.000   4.077
 1460SOL    HW2 4415   1.076   3.989   4.171
 1461SOL     OW 4416   0.444   4.766   4.470
 1461SOL    HW1 4417   0.382   4.797   4.542
 1461SOL    HW2 4418   0.403   4.784   4.381
 1462SOL     OW 4419   1.030   4.229   3.774
 1462SOL    HW1 4420   0.986   4.316   3.752
 1462SOL    HW2 4421   1.101   4.244   3.842
 1463SOL     OW 4422   0.867   4.160   4.337
 1463SOL    HW1 4423   0.824   4.217   4.267
 1463SOL    HW2 4424   0.910   4.081   4.294
 1464SOL     OW 4425   1.035   3.767   4.451
 1464SOL    HW1 4426   0.968   3.764   4.376
 1464SOL    HW2 4427   1.012   3.699   4.519
 1465SOL     OW 4428   1.395   4.896   4.604
 1465SOL    HW1 4429   1.302   4.869   4.579
 1465SOL    HW2 4430   1.432   4.957   4.533
 1466SOL     OW 4431   1.482   4.356   4.674
 1466SOL    HW1 4432   1.415   4.283   4.686
 1466SOL    HW2 4433   1.552   4.351   4.745
 1467SOL     OW 4434   1.817   4.500   4.093
 1467SOL    HW1 4435   1.878   4.463   4.162
 1467SOL    HW2 4436   1.804   4.434   4.019
 1468SOL     OW 4437   1.386   4.313   3.776
 1468SOL    HW1 4438   1.341   4.282   3.860
 1468SOL    HW2 4439   1.485   4.302   3.786
 1469SOL     OW 4440   0.559   3.991   4.032
 1469SOL    HW1 4441   0.595   3.935   3.956
 1469SOL    HW2 4442   0.524   4.077   3.995
 1470SOL     OW 4443   1.559   4.800   4.796
 1470SOL    HW1 4444   1.573   4.872   4.864
 1470SOL    HW2 4445   1.492   4.831   4.728
 1471SOL     OW 4446   0.716   4.737   4.101
 1471SOL    HW1 4447   0.705   4.722   4.200
 1471SOL    HW2 4448   0.788   4.678   4.066
 1472SOL     OW 4449   0.391   4.577   4.990
 1472SOL    HW1 4450   0.456   4.625   0.048
 1472SOL    HW2 4451   0.349   4.503   0.042
 1473SOL     OW 4452   0.323   4.811   4.216
 1473SOL    HW1 4453   0.378   4.891   4.190
 1473SOL    HW2 4454   0.315   4.750   4.137
 1474SOL     OW 4455   0.550   4.220   4.589
 1474SOL    HW1 4456   0.561   4.287   4.515
 1474SOL    HW2 4457   0.612   4.241   4.663
 1475SOL     OW 4458   1.583   4.355   4.194
 1475SOL    HW1 4459   1.535   4.396   4.272
 1475SOL    HW2 4460   1.649   4.421   4.158
 1476SOL     OW 4461   0.577   4.551   4.774
 1476SOL    HW1 4462   0.620   4.640   4.759
 1476SOL    HW2 4463   0.504   4.560   4.841
 1477SOL     OW 4464   1.283   4.551   4.771
 1477SOL    HW1 4465   1.202   4.531   4.716
 1477SOL    HW2 4466   1.361   4.502   4.733
 1478SOL     OW 4467   1.211   4.247   3.985
 1478SOL    HW1 4468   1.234   4.168   4.043
 1478SOL    HW2 4469   1.161   4.314   4.040
 1479SOL     OW 4470   0.360   3.903   4.878
 1479SOL    HW1 4471   0.384   3.953   4.962
 1479SOL    HW2 4472   0.333   3.810   4.902
 1480SOL     OW 4473   4.995   0.068   4.934
 1480SOL    HW1 4474   0.072   0.033   4.987
 1480SOL    HW2 4475   4.987   0.167   4.949
 1481SOL     OW 4476   0.722   4.318   4.791
 1481SOL    HW1 4477   0.787   4.299   4.718
 1481SOL    HW2 4478   0.673   4.403   4.771
 1482SOL     OW 4479   0.348   3.782   4.353
 1482SOL    HW1 4480   0.303   3.869   4.369
 1482SOL    HW2 4481   0.362   3.735   4.441
 1483SOL     OW 4482   1.614   4.119   4.060
 1483SOL    HW1 4483   1.661   4.052   4.119
 1483SOL    HW2 4484   1.589   4.199   4.114
 1484SOL     OW 4485   1.027   4.454   4.664
 1484SOL    HW1 4486   1.015   4.456   4.764
 1484SOL    HW2 4487   0.989   4.369   4.628
 1485SOL     OW 4488   1.518   3.979   3.838
 1485SOL    HW1 4489   1.472   3.899   3.876
 1485SOL    HW2 4490   1.553   4.036   3.913
 1486SOL     OW 4491   1.274   4.560   3.736
 1486SOL    HW1 4492   1.307   4.466   3.745
 1486SOL    HW2 4493   1.324   4.606   3.663
 1487SOL     OW 4494   0.287   4.490   4.618
 1487SOL    HW1 4495   0.378   4.530   4.611
 1487SOL    HW2 4496   0.295   4.393   4.642
 1488SOL     OW 4497   0.298   4.224   4.683
 1488SOL    HW1 4498   0.252   4.136   4.674
 1488SOL    HW2 4499   0.391   4.217   4.646
 1489SOL     OW 4500   1.190   3.991   0.142
 1489SOL    HW1 4501   1.147   3.965   0.229
 1489SOL    HW2 4502   1.141   4.069   0.103
 1490SOL     OW 4503   4.933   0.035   3.946
 1490SOL    HW1 4504   4.842   0.004   3.919
 1490SOL    HW2 4505   4.984   4.957   3.984
 1491SOL     OW 4506   0.945   4.433   4.927
 1491SOL    HW1 4507   0.936   4.521   4.975
 1491SOL    HW2 4508   0.854   4.398   4.906
 1492SOL     OW 4509   0.147   4.301   4.894
 1492SOL    HW1 4510   0.212   4.268   4.825
 1492SOL    HW2 4511   0.092   4.375   4.856
 1493SOL     OW 4512   0.810   4.278   4.090
 1493SOL    HW1 4513   0.821   4.198   4.032
 1493SOL    HW2 4514   0.734   4.333   4.056
 1494SOL     OW 4515   1.686   4.342   4.862
 1494SOL    HW1 4516   1.681   4.275   4.936
 1494SOL    HW2 4517   1.782   4.364   4.844
 1495SOL     OW 4518   0.610   4.122   4.961
 1495SOL    HW1 4519   0.560   4.172   0.032
 1495SOL    HW2 4520   0.654   4.186   4.899
 1496SOL     OW 4521   0.431   4.213   3.910
 1496SOL    HW1 4522   0.502   4.279   3.934
 1496SOL    HW2 4523   0.345   4.261   3.894
 1497SOL     OW 4524   1.257   4.812   4.922
 1497SOL    HW1 4525   1.286   4.745   4.854
 1497SOL    HW2 4526   1.324   4.816   4.996
 1498SOL     OW 4527   1.345   4.618   3.999
 1498SOL    HW1 4528   1.280   4.589   4.071
 1498SOL    HW2 4529   1.308   4.594   3.910
 1499SOL     OW 4530   0.047   0.032   4.670
 1499SOL    HW1 4531   0.018   0.043   4.765
 1499SOL    HW2 4532   4.973   4.991   4.616
 1500SOL     OW 4533   1.768   3.929   4.190
 1500SOL    HW1 4534   1.821   3.909   4.108
 1500SOL    HW2 4535   1.726   3.845   4.224
 1501SOL     OW 4536   1.293   4.656   4.347
 1501SOL    HW1 4537   1.367   4.594   4.373
 1501SOL    HW2 4538   1.331   4.740   4.309
 1502SOL     OW 4539   1.858   3.870   4.723
 1502SOL    HW1 4540   1.882   3.776   4.697
 1502SOL    HW2 4541   1.772   3.895   4.679
 1503SOL     OW 4542   0.224   4.016   4.411
 1503SOL    HW1 4543   0.145   4.065   4.374
 1503SOL    HW2 4544   0.213   4.002   4.509
 1504SOL     OW 4545   0.801   4.808   0.030
 1504SOL    HW1 4546   0.890   4.762   0.033
 1504SOL    HW2 4547   0.798   4.879   0.101
 1505SOL     OW 4548   0.910   4.588   3.972
 1505SOL    HW1 4549   0.973   4.649   3.923
 1505SOL    HW2 4550   0.962   4.528   4.032
 1506SOL     OW 4551   1.587   0.007   4.977
 1506SOL    HW1 4552   1.676   0.007   0.021
 1506SOL    HW2 4553   1.516   0.030   0.043
 1507SOL     OW 4554   1.140   4.811   4.517
 1507SOL    HW1 4555   1.050   4.771   4.533
 1507SOL    HW2 4556   1.190   4.756   4.450
 1508SOL     OW 4557   1.059   3.986   4.643
 1508SOL    HW1 4558   1.059   3.936   4.556
 1508SOL    HW2 4559   1.044   3.922   4.718
 1509SOL     OW 4560   1.721   4.158   0.072
 1509SOL    HW1 4561   1.673   4.134   0.156
 1509SOL    HW2 4562   1.767   4.078   0.035
 1510SOL     OW 4563   0.029   4.042   3.825
 1510SOL    HW1 4564   4.957   3.987   3.781
 1510SOL    HW2 4565   0.056   4.116   3.764
 1511SOL     OW 4566   4.962   3.971   4.089
 1511SOL    HW1 4567   4.984   4.011   4.001
 1511SOL    HW2 4568   0.008   3.883   4.098
 1512SOL     OW 4569   1.659   4.603   4.967
 1512SOL    HW1 4570   1.660   4.510   4.931
 1512SOL    HW2 4571   1.621   4.665   4.899
 1513SOL     OW 4572   1.245   4.046   4.181
 1513SOL    HW1 4573   1.302   3.964   4.181
 1513SOL    HW2 4574   1.267   4.102   4.261
 1514SOL     OW 4575   0.573   4.434   4.413
 1514SOL    HW1 4576   0.624   4.520   4.402
 1514SOL    HW2 4577   0.510   4.423   4.337
 1515SOL     OW 4578   1.702   4.739   0.199
 1515SOL    HW1 4579   1.800   4.755   0.206
 1515SOL    HW2 4580   1.683   4.681   0.120
 1516SOL     OW 4581   0.897   4.689   4.575
 1516SOL    HW1 4582   0.936   4.602   4.606
 1516SOL    HW2 4583   0.838   4.726   4.646
 1517SOL     OW 4584   1.079   4.734   3.821
 1517SOL    HW1 4585   1.043   4.790   3.747
 1517SOL    HW2 4586   1.150   4.673   3.786
 1518SOL     OW 4587   0.116   4.811   4.400
 1518SOL    HW1 4588   0.160   4.825   4.489
 1518SOL    HW2 4589   0.183   4.826   4.327
 1519SOL     OW 4590   1.834   3.919   4.996
 1519SOL    HW1 4591   1.776   3.843   0.024
 1519SOL    HW2 4592   1.853   3.913   4.898
 1520SOL     OW 4593   0.426   4.130   4.247
 1520SOL    HW1 4594   0.478   4.062   4.196
 1520SOL    HW2 4595   0.365   4.085   4.312
 1521SOL     OW 4596   1.448   3.963   4.833
 1521SOL    HW1 4597   1.448   3.866   4.810
 1521SOL    HW2 4598   1.458   3.973   4.932
 1522SOL     OW 4599   1.032   3.763   4.814
 1522SOL    HW1 4600   1.014   3.687   4.752
 1522SOL    HW2 4601   1.118   3.747   4.863
 1523SOL     OW 4602   0.780   4.970   3.960
 1523SOL    HW1 4603   0.744   4.899   4.021
 1523SOL    HW2 4604   0.874   4.993   3.986
 1524SOL     OW 4605   1.397   3.746   3.916
 1524SOL    HW1 4606   1.447   3.675   3.866
 1524SOL    HW2 4607   1.303   3.716   3.931
 1525SOL     OW 4608   1.304   4.198   4.404
 1525SOL    HW1 4609   1.250   4.282   4.394
 1525SOL    HW2 4610   1.303   4.170   4.500
 1526SOL     OW 4611   1.619   3.945   4.615
 1526SOL    HW1 4612   1.563   3.969   4.695
 1526SOL    HW2 4613   1.615   4.020   4.549
 1527SOL     OW 4614   0.053   4.802   4.026
 1527SOL    HW1 4615   0.140   4.763   3.997
 1527SOL    HW2 4616   0.026   4.762   4.113
 1528SOL     OW 4617   2.095   0.653   0.078
 1528SOL    HW1 4618   2.011   0.636   0.130
 1528SOL    HW2 4619   2.165   0.588   0.107
 1529SOL     OW 4620   2.069   0.299   1.009
 1529SOL    HW1 4621   2.123   0.255   1.081
 1529SOL    HW2 4622   1.989   0.243   0.989
 1530SOL     OW 4623   1.846   0.414   0.661
 1530SOL    HW1 4624   1.766   0.435   0.718
 1530SOL    HW2 4625   1.824   0.340   0.598
 1531SOL     OW 4626   2.431   1.320   1.222
 1531SOL    HW1 4627   2.346   1.315   1.170
 1531SOL    HW2 4628   2.452   1.416   1.243
 1532SOL     OW 4629   3.476   1.503   0.725
 1532SOL    HW1 4630   3.422   1.469   0.802
 1532SOL    HW2 4631   3.415   1.528   0.650
 1533SOL     OW 4632   2.968   0.720   0.692
 1533SOL    HW1 4633   3.023   0.801   0.671
 1533SOL    HW2 4634   2.926   0.730   0.782
 1534SOL     OW 4635   3.718   0.602   0.206
 1534SOL    HW1 4636   3.683   0.695   0.202
 1534SOL    HW2 4637   3.668   0.550   0.275
 1535SOL     OW 4638   2.579   1.136   1.067
 1535SOL    HW1 4639   2.521   1.174   1.140
 1535SOL    HW2 4640   2.619   1.211   1.014
 1536SOL     OW 4641   2.765   0.729   1.821
 1536SOL    HW1 4642   2.775   0.790   1.900
 1536SOL    HW2 4643   2.778   0.782   1.737
 1537SOL     OW 4644   2.540   0.974   0.676
 1537SOL    HW1 4645   2.612   0.975   0.745
 1537SOL    HW2 4646   2.469   1.041   0.701
 1538SOL     OW 4647   2.567   1.162   1.844
 1538SOL    HW1 4648   2.628   1.229   1.886
 1538SOL    HW2 4649   2.489   1.209   1.802
 1539SOL     OW 4650   2.197   1.392   1.068
 1539SOL    HW1 4651   2.114   1.354   1.028
 1539SOL    HW2 4652   2.245   1.448   1.000
 1540SOL     OW 4653   3.304   1.509   1.387
 1540SOL    HW1 4654   3.363   1.590   1.395
 1540SOL    HW2 4655   3.225   1.519   1.447
 1541SOL     OW 4656   2.347   0.397   1.438
 1541SOL    HW1 4657   2.422   0.333   1.448
 1541SOL    HW2 4658   2.262   0.354   1.469
 1542SOL     OW 4659   3.455   0.459   0.771
 1542SOL    HW1 4660   3.436   0.496   0.680
 1542SOL    HW2 4661   3.409   0.515   0.840
 1543SOL     OW 4662   2.082   1.730   0.486
 1543SOL    HW1 4663   2.101   1.809   0.543
 1543SOL    HW2 4664   2.165   1.705   0.435
 1544SOL     OW 4665   2.994   1.342   1.706
 1544SOL    HW1 4666   3.052   1.327   1.786
 1544SOL    HW2 4667   2.933   1.263   1.694
 1545SOL     OW 4668   2.139   1.471   0.571
 1545SOL    HW1 4669   2.096   1.561   0.568
 1545SOL    HW2 4670   2.086   1.411   0.632
 1546SOL     OW 4671   2.152   1.095   0.907
 1546SOL    HW1 4672   2.159   0.999   0.932
 1546SOL    HW2 4673   2.087   1.141   0.968
 1547SOL     OW 4674   2.417   1.828   1.406
 1547SOL    HW1 4675   2.341   1.801   1.465
 1547SOL    HW2 4676   2.467   1.904   1.448
 1548SOL     OW 4677   2.440   0.954   0.202
 1548SOL    HW1 4678   2.506   0.957   0.127
 1548SOL    HW2 4679   2.476   1.004   0.281
 1549SOL     OW 4680   3.485   0.157   1.490
 1549SOL    HW1 4681   3.512   0.242   1.445
 1549SOL    HW2 4682   3.427   0.178   1.569
 1550SOL     OW 4683   1.956   0.670   0.589
 1550SOL    HW1 4684   1.924   0.578   0.611
 1550SOL    HW2 4685   1.955   0.726   0.672
 1551SOL     OW 4686   3.726   1.743   0.332
 1551SOL    HW1 4687   3.797   1.725   0.401
 1551SOL    HW2 4688   3.733   1.838   0.301
 1552SOL     OW 4689   1.938   1.583   0.096
 1552SOL    HW1 4690   1.950   1.498   0.147
 1552SOL    HW2 4691   1.899   1.653   0.156
 1553SOL     OW 4692   3.536   0.948   0.673
 1553SOL    HW1 4693   3.578   0.880   0.611
 1553SOL    HW2 4694   3.503   1.026   0.619
 1554SOL     OW 4695   3.462   1.137   0.491
 1554SOL    HW1 4696   3.453   1.115   0.394
 1554SOL    HW2 4697   3.532   1.208   0.502
 1555SOL     OW 4698   1.964   0.779   1.569
 1555SOL    HW1 4699   2.033   0.845   1.597
 1555SOL    HW2 4700   1.881   0.827   1.540
 1556SOL     OW 4701   2.486   1.390   0.723
 1556SOL    HW1 4702   2.440   1.302   0.735
 1556SOL    HW2 4703   2.477   1.419   0.628
 1557SOL     OW 4704   3.113   1.217   1.425
 1557SOL    HW1 4705   3.133   1.145   1.359
 1557SOL    HW2 4706   3.182   1.217   1.498
 1558SOL     OW 4707   2.651   0.079   0.555
 1558SOL    HW1 4708   2.692   0.158   0.509
 1558SOL    HW2 4709   2.552   0.078   0.538
 1559SOL     OW 4710   2.058   0.958   1.294
 1559SOL    HW1 4711   2.151   0.923   1.284
 1559SOL    HW2 4712   1.999   0.912   1.228
 1560SOL     OW 4713   3.392   1.027   0.244
 1560SOL    HW1 4714   3.316   0.975   0.282
 1560SOL    HW2 4715   3.466   0.964   0.220
 1561SOL     OW 4716   3.051   1.814   1.631
 1561SOL    HW1 4717   3.048   1.883   1.559
 1561SOL    HW2 4718   3.060   1.723   1.590
 1562SOL     OW 4719   2.213   0.272   1.914
 1562SOL    HW1 4720   2.253   0.355   1.953
 1562SOL    HW2 4721   2.120   0.291   1.881
 1563SOL     OW 4722   3.311   1.414   0.926
 1563SOL    HW1 4723   3.259   1.443   1.006
 1563SOL    HW2 4724   3.295   1.317   0.908
 1564SOL     OW 4725   3.498   1.854   0.561
 1564SOL    HW1 4726   3.489   1.783   0.491
 1564SOL    HW2 4727   3.518   1.811   0.649
 1565SOL     OW 4728   2.428   0.703   0.314
 1565SOL    HW1 4729   2.444   0.794   0.275
 1565SOL    HW2 4730   2.360   0.709   0.386
 1566SOL     OW 4731   3.136   0.391   0.942
 1566SOL    HW1 4732   3.041   0.359   0.942
 1566SOL    HW2 4733   3.193   0.327   0.994
 1567SOL     OW 4734   3.467   1.662   0.371
 1567SOL    HW1 4735   3.565   1.675   0.356
 1567SOL    HW2 4736   3.422   1.643   0.284
 1568SOL     OW 4737   2.655   0.595   1.451
 1568SOL    HW1 4738   2.619   0.568   1.541
 1568SOL    HW2 4739   2.623   0.529   1.382
 1569SOL     OW 4740   3.253   0.437   1.670
 1569SOL    HW1 4741   3.249   0.494   1.752
 1569SOL    HW2 4742   3.303   0.352   1.690
 1570SOL     OW 4743   2.809   0.882   1.591
 1570SOL    HW1 4744   2.865   0.815   1.542
 1570SOL    HW2 4745   2.754   0.933   1.525
 1571SOL     OW 4746   2.862   0.414   1.193
 1571SOL    HW1 4747   2.766   0.427   1.221
 1571SOL    HW2 4748   2.864   0.369   1.104
 1572SOL     OW 4749   2.895   0.707   0.426
 1572SOL    HW1 4750   2.909   0.705   0.525
 1572SOL    HW2 4751   2.810   0.659   0.404
 1573SOL     OW 4752   1.959   0.829   0.808
 1573SOL    HW1 4753   2.047   0.829   0.856
 1573SOL    HW2 4754   1.904   0.906   0.841
 1574SOL     OW 4755   1.967   1.894   1.600
 1574SOL    HW1 4756   1.977   1.861   1.694
 1574SOL    HW2 4757   1.875   1.873   1.567
 1575SOL     OW 4758   2.721   0.352   0.172
 1575SOL    HW1 4759   2.787   0.416   0.132
 1575SOL    HW2 4760   2.740   0.260   0.138
 1576SOL     OW 4761   3.523   0.578   1.848
 1576SOL    HW1 4762   3.509   0.660   1.793
 1576SOL    HW2 4763   3.552   0.502   1.789
 1577SOL     OW 4764   3.228   1.184   0.612
 1577SOL    HW1 4765   3.315   1.170   0.565
 1577SOL    HW2 4766   3.172   1.249   0.560
 1578SOL     OW 4767   2.377   0.232   0.919
 1578SOL    HW1 4768   2.410   0.226   1.013
 1578SOL    HW2 4769   2.388   0.326   0.886
 1579SOL     OW 4770   2.835   1.473   0.477
 1579SOL    HW1 4771   2.815   1.546   0.412
 1579SOL    HW2 4772   2.797   1.496   0.567
 1580SOL     OW 4773   2.219   1.801   0.879
 1580SOL    HW1 4774   2.258   1.709   0.882
 1580SOL    HW2 4775   2.288   1.867   0.908
 1581SOL     OW 4776   3.661   1.049   0.900
 1581SOL    HW1 4777   3.617   1.021   0.814
 1581SOL    HW2 4778   3.592   1.059   0.971
 1582SOL     OW 4779   3.060   1.538   1.519
 1582SOL    HW1 4780   3.052   1.468   1.590
 1582SOL    HW2 4781   3.000   1.515   1.442
 1583SOL     OW 4782   2.185   0.936   0.319
 1583SOL    HW1 4783   2.273   0.948   0.273
 1583SOL    HW2 4784   2.185   0.850   0.370
 1584SOL     OW 4785   3.323   0.783   0.738
 1584SOL    HW1 4786   3.327   0.730   0.822
 1584SOL    HW2 4787   3.405   0.841   0.731
 1585SOL     OW 4788   2.331   1.302   1.749
 1585SOL    HW1 4789   2.309   1.306   1.652
 1585SOL    HW2 4790   2.247   1.285   1.801
 1586SOL     OW 4791   2.944   1.773   0.145
 1586SOL    HW1 4792   2.884   1.737   0.217
 1586SOL    HW2 4793   3.000   1.699   0.108
 1587SOL     OW 4794   2.090   0.300   1.480
 1587SOL    HW1 4795   2.039   0.385   1.470
 1587SOL    HW2 4796   2.062   0.254   1.564
 1588SOL     OW 4797   3.514   1.380   0.096
 1588SOL    HW1 4798   3.477   1.472   0.109
 1588SOL    HW2 4799   3.439   1.313   0.097
 1589SOL     OW 4800   2.330   1.714   0.363
 1589SOL    HW1 4801   2.367   1.790   0.417
 1589SOL    HW2 4802   2.396   1.687   0.293
 1590SOL     OW 4803   3.329   0.155   0.447
 1590SOL    HW1 4804   3.327   0.119   0.353
 1590SOL    HW2 4805   3.424   0.169   0.476
 1591SOL     OW 4806   2.095   1.788   1.204
 1591SOL    HW1 4807   2.146   1.709   1.237
 1591SOL    HW2 4808   2.058   1.769   1.113
 1592SOL     OW 4809   2.820   1.694   0.899
 1592SOL    HW1 4810   2.911   1.653   0.911
 1592SOL    HW2 4811   2.771   1.645   0.827
 1593SOL     OW 4812   2.211   0.702   0.487
 1593SOL    HW1 4813   2.238   0.606   0.497
 1593SOL    HW2 4814   2.117   0.712   0.519
 1594SOL     OW 4815   3.387   0.200   1.744
 1594SOL    HW1 4816   3.384   0.232   1.839
 1594SOL    HW2 4817   3.390   0.100   1.743
 1595SOL     OW 4818   2.410   0.092   0.127
 1595SOL    HW1 4819   2.483   0.040   0.171
 1595SOL    HW2 4820   2.435   0.111   0.032
 1596SOL     OW 4821   2.595   0.288   1.725
 1596SOL    HW1 4822   2.679   0.234   1.729
 1596SOL    HW2 4823   2.535   0.262   1.801
 1597SOL     OW 4824   2.715   1.519   1.184
 1597SOL    HW1 4825   2.696   1.471   1.099
 1597SOL    HW2 4826   2.786   1.469   1.236
 1598SOL     OW 4827   3.173   0.581   1.445
 1598SOL    HW1 4828   3.213   0.542   1.528
 1598SOL    HW2 4829   3.212   0.672   1.429
 1599SOL     OW 4830   2.666   1.369   0.947
 1599SOL    HW1 4831   2.761   1.367   0.914
 1599SOL    HW2 4832   2.604   1.383   0.870
 1600SOL     OW 4833   2.779   0.519   0.881
 1600SOL    HW1 4834   2.755   0.514   0.784
 1600SOL    HW2 4835   2.805   0.428   0.913
 1601SOL     OW 4836   2.373   0.080   0.497
 1601SOL    HW1 4837   2.299   0.082   0.565
 1601SOL    HW2 4838   2.361   0.155   0.433
 1602SOL     OW 4839   3.287   1.229   0.093
 1602SOL    HW1 4840   3.322   1.149   0.142
 1602SOL    HW2 4841   3.203   1.260   0.138
 1603SOL     OW 4842   2.138   0.066   0.164
 1603SOL    HW1 4843   2.237   0.060   0.160
 1603SOL    HW2 4844   2.099   4.974   0.161
 1604SOL     OW 4845   2.803   0.281   0.438
 1604SOL    HW1 4846   2.777   0.310   0.346
 1604SOL    HW2 4847   2.903   0.280   0.445
 1605SOL     OW 4848   2.918   0.692   1.430
 1605SOL    HW1 4849   2.840   0.630   1.442
 1605SOL    HW2 4850   3.003   0.640   1.435
 1606SOL     OW 4851   3.078   1.574   0.814
 1606SOL    HW1 4852   3.088   1.650   0.750
 1606SOL    HW2 4853   3.168   1.540   0.840
 1607SOL     OW 4854   2.341   1.157   0.723
 1607SOL    HW1 4855   2.278   1.136   0.798
 1607SOL    HW2 4856   2.291   1.156   0.636
 1608SOL     OW 4857   3.099   1.791   0.641
 1608SOL    HW1 4858   3.153   1.854   0.585
 1608SOL    HW2 4859   3.019   1.839   0.676
 1609SOL     OW 4860   2.900   0.522   0.073
 1609SOL    HW1 4861   2.887   0.601   0.013
 1609SOL    HW2 4862   2.969   0.544   0.142
 1610SOL     OW 4863   1.986   0.558   1.407
 1610SOL    HW1 4864   2.077   0.565   1.366
 1610SOL    HW2 4865   1.971   0.636   1.468
 1611SOL     OW 4866   2.429   0.223   1.200
 1611SOL    HW1 4867   2.476   0.200   1.285
 1611SOL    HW2 4868   2.332   0.202   1.208
 1612SOL     OW 4869   2.723   0.481   0.619
 1612SOL    HW1 4870   2.670   0.538   0.556
 1612SOL    HW2 4871   2.755   0.399   0.571
 1613SOL     OW 4872   2.818   0.065   0.768
 1613SOL    HW1 4873   2.757   0.072   0.689
 1613SOL    HW2 4874   2.886   4.993   0.752
 1614SOL     OW 4875   3.265   1.141   0.884
 1614SOL    HW1 4876   3.209   1.063   0.911
 1614SOL    HW2 4877   3.254   1.157   0.786
 1615SOL     OW 4878   3.308   0.617   0.961
 1615SOL    HW1 4879   3.242   0.543   0.967
 1615SOL    HW2 4880   3.373   0.610   1.037
 1616SOL     OW 4881   3.611   0.784   0.459
 1616SOL    HW1 4882   3.698   0.745   0.488
 1616SOL    HW2 4883   3.620   0.821   0.366
 1617SOL     OW 4884   2.387   1.415   0.157
 1617SOL    HW1 4885   2.308   1.393   0.215
 1617SOL    HW2 4886   2.383   1.361   0.073
 1618SOL     OW 4887   3.637   1.323   0.577
 1618SOL    HW1 4888   3.722   1.296   0.623
 1618SOL    HW2 4889   3.590   1.391   0.632
 1619SOL     OW 4890   3.222   0.584   0.082
 1619SOL    HW1 4891   3.177   0.574   0.171
 1619SOL    HW2 4892   3.269   0.499   0.058
 1620SOL     OW 4893   2.342   0.281   0.315
 1620SOL    HW1 4894   2.372   0.214   0.248
 1620SOL    HW2 4895   2.322   0.368   0.268
 1621SOL     OW 4896   3.598   1.237   1.531
 1621SOL    HW1 4897   3.687   1.198   1.510
 1621SOL    HW2 4898   3.610   1.328   1.572
 1622SOL     OW 4899   2.888   1.358   1.347
 1622SOL    HW1 4900   2.802   1.328   1.387
 1622SOL    HW2 4901   2.963   1.307   1.388
 1623SOL     OW 4902   3.483   1.648   1.674
 1623SOL    HW1 4903   3.462   1.686   1.584
 1623SOL    HW2 4904   3.559   1.584   1.667
 1624SOL     OW 4905   3.007   1.259   1.118
 1624SOL    HW1 4906   2.947   1.291   1.191
 1624SOL    HW2 4907   2.971   1.288   1.029
 1625SOL     OW 4908   3.460   1.097   1.084
 1625SOL    HW1 4909   3.453   1.164   1.158
 1625SOL    HW2 4910   3.388   1.114   1.017
 1626SOL     OW 4911   2.769   0.044   1.378
 1626SOL    HW1 4912   2.788   0.043   1.280
 1626SOL    HW2 4913   2.848   0.083   1.426
 1627SOL     OW 4914   2.825   1.123   1.717
 1627SOL    HW1 4915   2.732   1.139   1.750
 1627SOL    HW2 4916   2.828   1.037   1.667
 1628SOL     OW 4917   2.580   1.055   0.415
 1628SOL    HW1 4918   2.564   1.028   0.510
 1628SOL    HW2 4919   2.664   1.014   0.382
 1629SOL     OW 4920   2.303   0.834   1.272
 1629SOL    HW1 4921   2.371   0.842   1.345
 1629SOL    HW2 4922   2.267   0.741   1.270
 1630SOL     OW 4923   3.108   0.367   1.291
 1630SOL    HW1 4924   3.140   0.445   1.346
 1630SOL    HW2 4925   3.018   0.389   1.254
 1631SOL     OW 4926   1.928   1.561   1.352
 1631SOL    HW1 4927   1.887   1.632   1.296
 1631SOL    HW2 4928   2.028   1.566   1.345
 1632SOL     OW 4929   2.183   1.149   0.495
 1632SOL    HW1 4930   2.191   1.228   0.435
 1632SOL    HW2 4931   2.176   1.066   0.440
 1633SOL     OW 4932   2.400   0.512   0.864
 1633SOL    HW1 4933   2.405   0.567   0.781
 1633SOL    HW2 4934   2.467   0.546   0.930
 1634SOL     OW 4935   3.094   1.378   0.466
 1634SOL    HW1 4936   3.157   1.450   0.494
 1634SOL    HW2 4937   3.000   1.408   0.481
 1635SOL     OW 4938   3.175   1.477   1.149
 1635SOL    HW1 4939   3.223   1.486   1.236
 1635SOL    HW2 4940   3.118   1.394   1.151
 1636SOL     OW 4941   3.417   0.610   0.538
 1636SOL    HW1 4942   3.347   0.660   0.589
 1636SOL    HW2 4943   3.485   0.673   0.502
 1637SOL     OW 4944   2.201   1.541   1.294
 1637SOL    HW1 4945   2.191   1.481   1.214
 1637SOL    HW2 4946   2.297   1.564   1.306
 1638SOL     OW 4947   2.339   0.707   1.666
 1638SOL    HW1 4948   2.371   0.759   1.587
 1638SOL    HW2 4949   2.410   0.643   1.695
 1639SOL     OW 4950   3.484   0.799   1.697
 1639SOL    HW1 4951   3.391   0.835   1.691
 1639SOL    HW2 4952   3.538   0.831   1.619
 1640SOL     OW 4953   2.809   0.131   1.744
 1640SOL    HW1 4954   2.894   0.183   1.732
 1640SOL    HW2 4955   2.830   0.033   1.746
 1641SOL     OW 4956   2.361   0.074   1.802
 1641SOL    HW1 4957   2.328   0.042   1.713
 1641SOL    HW2 4958   2.301   0.145   1.837
 1642SOL     OW 4959   2.452   0.886   1.047
 1642SOL    HW1 4960   2.493   0.977   1.046
 1642SOL    HW2 4961   2.399   0.875   1.131
 1643SOL     OW 4962   3.146   0.856   1.001
 1643SOL    HW1 4963   3.052   0.826   0.981
 1643SOL    HW2 4964   3.208   0.778   0.990
 1644SOL     OW 4965   3.066   0.538   0.300
 1644SOL    HW1 4966   3.091   0.465   0.363
 1644SOL    HW2 4967   3.010   0.605   0.348
 1645SOL     OW 4968   2.160   0.169   1.245
 1645SOL    HW1 4969   2.131   0.216   1.329
 1645SOL    HW2 4970   2.102   0.089   1.230
 1646SOL     OW 4971   1.918   1.301   1.262
 1646SOL    HW1 4972   1.951   1.242   1.337
 1646SOL    HW2 4973   1.912   1.395   1.295
 1647SOL     OW 4974   2.574   0.637   1.036
 1647SOL    HW1 4975   2.649   0.618   0.972
 1647SOL    HW2 4976   2.542   0.730   1.023
 1648SOL     OW 4977   3.621   0.976   1.861
 1648SOL    HW1 4978   3.574   0.905   1.809
 1648SOL    HW2 4979   3.564   1.004   1.939
 1649SOL     OW 4980   2.165   0.076   0.681
 1649SOL    HW1 4981   2.139   0.172   0.694
 1649SOL    HW2 4982   2.219   0.045   0.759
 1650SOL     OW 4983   3.565   0.445   0.371
 1650SOL    HW1 4984   3.575   0.355   0.412
 1650SOL    HW2 4985   3.499   0.499   0.423
 1651SOL     OW 4986   2.883   0.756   0.963
 1651SOL    HW1 4987   2.858   0.776   1.058
 1651SOL    HW2 4988   2.854   0.663   0.940
 1652SOL     OW 4989   2.845   1.562   1.773
 1652SOL    HW1 4990   2.811   1.619   1.698
 1652SOL    HW2 4991   2.886   1.479   1.735
 1653SOL     OW 4992   3.699   1.489   1.601
 1653SOL    HW1 4993   3.719   1.517   1.507
 1653SOL    HW2 4994   3.781   1.500   1.658
 1654SOL     OW 4995   2.234   0.912   1.818
 1654SOL    HW1 4996   2.301   0.942   1.886
 1654SOL    HW2 4997   2.273   0.836   1.766
 1655SOL     OW 4998   3.336   0.332   0.061
 1655SOL    HW1 4999   3.337   0.249   0.118
 1655SOL    HW2 5000   3.427   0.372   0.059
 1656SOL     OW 5001   3.129   0.838   0.062
 1656SOL    HW1 5002   3.169   0.747   0.055
 1656SOL    HW2 5003   3.166   0.896   4.989
 1657SOL     OW 5004   2.924   1.356   0.874
 1657SOL    HW1 5005   2.936   1.276   0.816
 1657SOL    HW2 5006   2.981   1.431   0.839
 1658SOL     OW 5007   2.193   0.822   0.954
 1658SOL    HW1 5008   2.290   0.843   0.965
 1658SOL    HW2 5009   2.178   0.725   0.973
 1659SOL     OW 5010   2.170   0.546   1.003
 1659SOL    HW1 5011   2.122   0.459   1.004
 1659SOL    HW2 5012   2.251   0.539   0.945
 1660SOL     OW 5013   3.004   0.321   1.696
 1660SOL    HW1 5014   2.954   0.378   1.760
 1660SOL    HW2 5015   3.094   0.361   1.678
 1661SOL     OW 5016   3.012   0.167   1.457
 1661SOL    HW1 5017   3.004   0.210   1.547
 1661SOL    HW2 5018   3.047   0.234   1.391
 1662SOL     OW 5019   1.926   1.323   0.213
 1662SOL    HW1 5020   1.828   1.341   0.218
 1662SOL    HW2 5021   1.942   1.225   0.207
 1663SOL     OW 5022   1.961   1.753   0.957
 1663SOL    HW1 5023   1.926   1.670   0.915
 1663SOL    HW2 5024   2.051   1.775   0.919
 1664SOL     OW 5025   2.346   1.554   0.901
 1664SOL    HW1 5026   2.419   1.615   0.931
 1664SOL    HW2 5027   2.381   1.493   0.830
 1665SOL     OW 5028   2.786   0.800   1.213
 1665SOL    HW1 5029   2.847   0.773   1.288
 1665SOL    HW2 5030   2.701   0.748   1.218
 1666SOL     OW 5031   1.908   0.612   1.138
 1666SOL    HW1 5032   1.982   0.599   1.073
 1666SOL    HW2 5033   1.940   0.592   1.230
 1667SOL     OW 5034   2.085   0.609   1.754
 1667SOL    HW1 5035   2.180   0.625   1.728
 1667SOL    HW2 5036   2.025   0.660   1.693
 1668SOL     OW 5037   3.249   0.926   1.638
 1668SOL    HW1 5038   3.268   1.024   1.635
 1668SOL    HW2 5039   3.238   0.892   1.544
 1669SOL     OW 5040   2.666   0.574   0.351
 1669SOL    HW1 5041   2.670   0.496   0.289
 1669SOL    HW2 5042   2.579   0.622   0.340
 1670SOL     OW 5043   3.500   0.605   1.161
 1670SOL    HW1 5044   3.485   0.540   1.235
 1670SOL    HW2 5045   3.597   0.606   1.137
 1671SOL     OW 5046   2.089   1.541   1.716
 1671SOL    HW1 5047   2.068   1.610   1.785
 1671SOL    HW2 5048   2.095   1.451   1.759
 1672SOL     OW 5049   2.590   0.447   1.228
 1672SOL    HW1 5050   2.528   0.371   1.214
 1672SOL    HW2 5051   2.575   0.516   1.157
 1673SOL     OW 5052   2.727   1.702   1.545
 1673SOL    HW1 5053   2.692   1.633   1.482
 1673SOL    HW2 5054   2.755   1.783   1.494
 1674SOL     OW 5055   2.313   0.509   0.164
 1674SOL    HW1 5056   2.378   0.481   0.094
 1674SOL    HW2 5057   2.354   0.579   0.222
 1675SOL     OW 5058   2.000   1.143   1.481
 1675SOL    HW1 5059   2.006   1.104   1.573
 1675SOL    HW2 5060   2.023   1.073   1.413
 1676SOL     OW 5061   3.133   1.032   1.210
 1676SOL    HW1 5062   3.142   0.965   1.136
 1676SOL    HW2 5063   3.089   1.115   1.174
 1677SOL     OW 5064   3.177   0.883   0.329
 1677SOL    HW1 5065   3.108   0.850   0.393
 1677SOL    HW2 5066   3.152   0.857   0.236
 1678SOL     OW 5067   3.628   1.718   1.162
 1678SOL    HW1 5068   3.698   1.738   1.094
 1678SOL    HW2 5069   3.589   1.628   1.144
 1679SOL     OW 5070   3.128   1.748   1.113
 1679SOL    HW1 5071   3.218   1.783   1.087
 1679SOL    HW2 5072   3.132   1.649   1.125
 1680SOL     OW 5073   1.946   1.266   0.996
 1680SOL    HW1 5074   1.927   1.278   1.094
 1680SOL    HW2 5075   1.886   1.195   0.959
 1681SOL     OW 5076   2.550   1.711   1.756
 1681SOL    HW1 5077   2.480   1.782   1.749
 1681SOL    HW2 5078   2.618   1.724   1.684
 1682SOL     OW 5079   2.829   0.114   0.081
 1682SOL    HW1 5080   2.850   0.073   4.992
 1682SOL    HW2 5081   2.914   0.144   0.125
 1683SOL     OW 5082   3.626   0.197   0.495
 1683SOL    HW1 5083   3.688   0.198   0.417
 1683SOL    HW2 5084   3.650   0.121   0.556
 1684SOL     OW 5085   3.268   1.581   0.544
 1684SOL    HW1 5086   3.332   1.610   0.474
 1684SOL    HW2 5087   3.208   1.658   0.568
 1685SOL     OW 5088   2.006   1.784   1.847
 1685SOL    HW1 5089   1.953   1.712   1.891
 1685SOL    HW2 5090   2.059   1.834   1.916
 1686SOL     OW 5091   3.121   0.937   0.649
 1686SOL    HW1 5092   3.196   0.879   0.679
 1686SOL    HW2 5093   3.157   1.025   0.617
 1687SOL     OW 5094   2.630   1.291   1.425
 1687SOL    HW1 5095   2.605   1.342   1.507
 1687SOL    HW2 5096   2.554   1.297   1.359
 1688SOL     OW 5097   2.520   1.647   0.175
 1688SOL    HW1 5098   2.506   1.698   0.090
 1688SOL    HW2 5099   2.478   1.557   0.166
 1689SOL     OW 5100   3.466   1.736   1.403
 1689SOL    HW1 5101   3.521   1.729   1.320
 1689SOL    HW2 5102   3.447   1.833   1.422
 1690SOL     OW 5103   3.728   0.131   0.978
 1690SOL    HW1 5104   3.745   0.033   0.992
 1690SOL    HW2 5105   3.635   0.143   0.943
 1691SOL     OW 5106   2.099   0.335   0.730
 1691SOL    HW1 5107   2.008   0.370   0.707
 1691SOL    HW2 5108   2.107   0.326   0.829
 1692SOL     OW 5109   3.101   1.565   0.052
 1692SOL    HW1 5110   3.085   1.488   0.114
 1692SOL    HW2 5111   3.132   1.530   4.964
 1693SOL     OW 5112   2.675   1.020   1.397
 1693SOL    HW1 5113   2.717   1.002   1.308
 1693SOL    HW2 5114   2.662   1.118   1.409
 1694SOL     OW 5115   2.802   0.944   0.316
 1694SOL    HW1 5116   2.850   0.968   0.232
 1694SOL    HW2 5117   2.842   0.861   0.355
 1695SOL     OW 5118   3.371   1.615   0.122
 1695SOL    HW1 5119   3.272   1.611   0.104
 1695SOL    HW2 5120   3.407   1.701   0.086
 1696SOL     OW 5121   2.225   1.321   1.498
 1696SOL    HW1 5122   2.217   1.399   1.436
 1696SOL    HW2 5123   2.147   1.260   1.487
 1697SOL     OW 5124   3.448   1.288   1.295
 1697SOL    HW1 5125   3.509   1.260   1.369
 1697SOL    HW2 5126   3.385   1.358   1.330
 1698SOL     OW 5127   2.930   1.117   0.750
 1698SOL    HW1 5128   2.852   1.068   0.788
 1698SOL    HW2 5129   2.993   1.052   0.707
 1699SOL     OW 5130   2.877   0.260   0.961
 1699SOL    HW1 5131   2.859   0.215   0.874
 1699SOL    HW2 5132   2.869   0.193   1.035
 1700SOL     OW 5133   2.475   1.476   0.468
 1700SOL    HW1 5134   2.510   1.424   0.390
 1700SOL    HW2 5135   2.397   1.531   0.439
 1701SOL     OW 5136   3.622   0.397   1.407
 1701SOL    HW1 5137   3.697   0.463   1.403
 1701SOL    HW2 5138   3.633   0.329   1.335
 1702SOL     OW 5139   2.173   1.368   0.325
 1702SOL    HW1 5140   2.083   1.359   0.283
 1702SOL    HW2 5141   2.165   1.416   0.412
 1703SOL     OW 5142   2.004   1.034   1.734
 1703SOL    HW1 5143   1.921   1.011   1.785
 1703SOL    HW2 5144   2.083   0.987   1.775
 1704SOL     OW 5145   2.546   0.198   1.459
 1704SOL    HW1 5146   2.624   0.141   1.432
 1704SOL    HW2 5147   2.559   0.228   1.553
 1705SOL     OW 5148   3.255   0.844   1.378
 1705SOL    HW1 5149   3.193   0.904   1.327
 1705SOL    HW2 5150   3.346   0.849   1.339
 1706SOL     OW 5151   1.942   0.218   0.283
 1706SOL    HW1 5152   1.947   0.314   0.254
 1706SOL    HW2 5153   2.024   0.170   0.252
 1707SOL     OW 5154   3.054   1.335   0.196
 1707SOL    HW1 5155   2.957   1.323   0.175
 1707SOL    HW2 5156   3.066   1.340   0.295
 1708SOL     OW 5157   2.497   0.822   1.459
 1708SOL    HW1 5158   2.553   0.903   1.447
 1708SOL    HW2 5159   2.555   0.741   1.459
 1709SOL     OW 5160   3.383   1.835   1.053
 1709SOL    HW1 5161   3.407   1.894   0.976
 1709SOL    HW2 5162   3.465   1.791   1.089
 1710SOL     OW 5163   2.568   0.560   1.710
 1710SOL    HW1 5164   2.636   0.611   1.764
 1710SOL    HW2 5165   2.583   0.462   1.723
 1711SOL     OW 5166   3.325   1.189   1.622
 1711SOL    HW1 5167   3.313   1.209   1.719
 1711SOL    HW2 5168   3.418   1.211   1.594
 1712SOL     OW 5169   2.213   1.762   1.584
 1712SOL    HW1 5170   2.128   1.813   1.569
 1712SOL    HW2 5171   2.191   1.670   1.617
 1713SOL     OW 5172   3.496   0.874   1.248
 1713SOL    HW1 5173   3.502   0.786   1.201
 1713SOL    HW2 5174   3.487   0.947   1.181
 1714SOL     OW 5175   3.096   0.306   0.457
 1714SOL    HW1 5176   3.179   0.250   0.462
 1714SOL    HW2 5177   3.089   0.361   0.540
 1715SOL     OW 5178   2.421   0.721   0.681
 1715SOL    HW1 5179   2.469   0.809   0.678
 1715SOL    HW2 5180   2.342   0.724   0.620
 1716SOL     OW 5181   3.604   0.369   1.687
 1716SOL    HW1 5182   3.607   0.382   1.588
 1716SOL    HW2 5183   3.536   0.299   1.708
 1717SOL     OW 5184   3.609   0.925   1.491
 1717SOL    HW1 5185   3.597   1.022   1.513
 1717SOL    HW2 5186   3.574   0.906   1.400
 1718SOL     OW 5187   2.791   1.341   0.079
 1718SOL    HW1 5188   2.740   1.314   0.161
 1718SOL    HW2 5189   2.755   1.429   0.045
 1719SOL     OW 5190   2.536   1.741   0.943
 1719SOL    HW1 5191   2.511   1.837   0.934
 1719SOL    HW2 5192   2.636   1.733   0.947
 1720SOL     OW 5193   2.729   0.979   0.880
 1720SOL    HW1 5194   2.782   0.900   0.912
 1720SOL    HW2 5195   2.685   1.023   0.957
 1721SOL     OW 5196   2.911   1.000   0.061
 1721SOL    HW1 5197   2.927   1.082   0.007
 1721SOL    HW2 5198   2.996   0.949   0.072
 1722SOL     OW 5199   3.727   1.523   0.855
 1722SOL    HW1 5200   3.639   1.517   0.807
 1722SOL    HW2 5201   3.749   1.434   0.895
 1723SOL     OW 5202   2.066   1.285   1.832
 1723SOL    HW1 5203   2.046   1.199   1.785
 1723SOL    HW2 5204   2.003   1.297   1.909
 1724SOL     OW 5205   2.015   1.251   0.692
 1724SOL    HW1 5206   2.037   1.206   0.778
 1724SOL    HW2 5207   2.065   1.206   0.617
 1725SOL     OW 5208   2.549   1.443   1.644
 1725SOL    HW1 5209   2.468   1.397   1.682
 1725SOL    HW2 5210   2.558   1.534   1.685
 1726SOL     OW 5211   3.633   0.196   1.228
 1726SOL    HW1 5212   3.570   0.119   1.242
 1726SOL    HW2 5213   3.674   0.190   1.138
 1727SOL     OW 5214   2.266   0.444   0.531
 1727SOL    HW1 5215   2.299   0.374   0.468
 1727SOL    HW2 5216   2.217   0.401   0.607
 1728SOL     OW 5217   3.519   1.480   1.107
 1728SOL    HW1 5218   3.456   1.461   1.032
 1728SOL    HW2 5219   3.513   1.407   1.175
 1729SOL     OW 5220   2.221   0.575   1.276
 1729SOL    HW1 5221   2.280   0.513   1.326
 1729SOL    HW2 5222   2.220   0.550   1.179
 1730SOL     OW 5223   2.688   1.588   0.686
 1730SOL    HW1 5224   2.655   1.664   0.630
 1730SOL    HW2 5225   2.615   1.521   0.698
 1731SOL     OW 5226   3.262   0.219   1.119
 1731SOL    HW1 5227   3.258   0.124   1.151
 1731SOL    HW2 5228   3.217   0.279   1.185
 1732SOL     OW 5229   2.844   0.022   1.113
 1732SOL    HW1 5230   2.767   4.987   1.059
 1732SOL    HW2 5231   2.928   4.977   1.085
 1733SOL     OW 5232   2.673   1.301   0.321
 1733SOL    HW1 5233   2.635   1.217   0.359
 1733SOL    HW2 5234   2.730   1.345   0.390
 1734SOL     OW 5235   2.473   1.588   1.288
 1734SOL    HW1 5236   2.463   1.679   1.326
 1734SOL    HW2 5237   2.563   1.578   1.246
 1735SOL     OW 5238   3.279   0.071   0.183
 1735SOL    HW1 5239   3.272   4.971   0.188
 1735SOL    HW2 5240   3.187   0.110   0.180
 1736SOL     OW 5241   3.086   0.467   0.674
 1736SOL    HW1 5242   3.041   0.556   0.678
 1736SOL    HW2 5243   3.116   0.440   0.766
 1737SOL     OW 5244   3.472   0.213   0.918
 1737SOL    HW1 5245   3.400   0.213   0.987
 1737SOL    HW2 5246   3.462   0.294   0.859
 1738SOL     OW 5247   2.749   1.689   0.326
 1738SOL    HW1 5248   2.666   1.671   0.273
 1738SOL    HW2 5249   2.729   1.756   0.397
 1739SOL     OW 5250   2.058   0.677   2.023
 1739SOL    HW1 5251   1.969   0.640   2.053
 1739SOL    HW2 5252   2.066   0.668   1.924
 1740SOL     OW 5253   2.074   0.293   2.870
 1740SOL    HW1 5254   2.124   0.254   2.947
 1740SOL    HW2 5255   1.992   0.239   2.852
 1741SOL     OW 5256   1.858   0.438   2.506
 1741SOL    HW1 5257   1.771   0.444   2.554
 1741SOL    HW2 5258   1.847   0.387   2.421
 1742SOL     OW 5259   2.436   1.317   3.084
 1742SOL    HW1 5260   2.350   1.313   3.032
 1742SOL    HW2 5261   2.457   1.412   3.106
 1743SOL     OW 5262   3.463   1.516   2.568
 1743SOL    HW1 5263   3.412   1.481   2.646
 1743SOL    HW2 5264   3.401   1.532   2.491
 1744SOL     OW 5265   3.000   0.712   2.530
 1744SOL    HW1 5266   3.049   0.798   2.515
 1744SOL    HW2 5267   2.943   0.720   2.611
 1745SOL     OW 5268   3.666   0.573   2.076
 1745SOL    HW1 5269   3.618   0.582   1.989
 1745SOL    HW2 5270   3.620   0.505   2.132
 1746SOL     OW 5271   2.579   1.135   2.921
 1746SOL    HW1 5272   2.524   1.173   2.995
 1746SOL    HW2 5273   2.619   1.210   2.868
 1747SOL     OW 5274   2.772   0.726   3.670
 1747SOL    HW1 5275   2.795   0.789   3.744
 1747SOL    HW2 5276   2.778   0.773   3.582
 1748SOL     OW 5277   2.549   0.976   2.520
 1748SOL    HW1 5278   2.621   0.981   2.590
 1748SOL    HW2 5279   2.478   1.043   2.542
 1749SOL     OW 5280   2.569   1.163   3.704
 1749SOL    HW1 5281   2.630   1.230   3.747
 1749SOL    HW2 5282   2.491   1.210   3.664
 1750SOL     OW 5283   2.205   1.389   2.934
 1750SOL    HW1 5284   2.125   1.341   2.898
 1750SOL    HW2 5285   2.248   1.442   2.861
 1751SOL     OW 5286   3.302   1.511   3.241
 1751SOL    HW1 5287   3.361   1.592   3.253
 1751SOL    HW2 5288   3.222   1.520   3.301
 1752SOL     OW 5289   2.346   0.401   3.297
 1752SOL    HW1 5290   2.422   0.337   3.309
 1752SOL    HW2 5291   2.262   0.357   3.329
 1753SOL     OW 5292   3.448   0.441   2.618
 1753SOL    HW1 5293   3.375   0.443   2.550
 1753SOL    HW2 5294   3.431   0.511   2.687
 1754SOL     OW 5295   2.089   1.739   2.332
 1754SOL    HW1 5296   2.114   1.811   2.398
 1754SOL    HW2 5297   2.165   1.726   2.267
 1755SOL     OW 5298   2.989   1.339   3.562
 1755SOL    HW1 5299   3.052   1.325   3.638
 1755SOL    HW2 5300   2.929   1.260   3.554
 1756SOL     OW 5301   2.117   1.467   2.388
 1756SOL    HW1 5302   2.090   1.563   2.394
 1756SOL    HW2 5303   2.073   1.415   2.462
 1757SOL     OW 5304   2.164   1.095   2.742
 1757SOL    HW1 5305   2.170   0.999   2.767
 1757SOL    HW2 5306   2.103   1.142   2.806
 1758SOL     OW 5307   2.418   1.807   3.285
 1758SOL    HW1 5308   2.339   1.789   3.344
 1758SOL    HW2 5309   2.463   1.891   3.314
 1759SOL     OW 5310   2.423   0.996   2.027
 1759SOL    HW1 5311   2.473   1.041   1.953
 1759SOL    HW2 5312   2.463   1.021   2.115
 1760SOL     OW 5313   3.482   0.155   3.351
 1760SOL    HW1 5314   3.510   0.240   3.307
 1760SOL    HW2 5315   3.425   0.176   3.431
 1761SOL     OW 5316   1.968   0.695   2.439
 1761SOL    HW1 5317   1.941   0.602   2.465
 1761SOL    HW2 5318   1.970   0.753   2.521
 1762SOL     OW 5319   3.716   1.755   2.179
 1762SOL    HW1 5320   3.791   1.744   2.244
 1762SOL    HW2 5321   3.718   1.847   2.141
 1763SOL     OW 5322   1.908   1.573   1.981
 1763SOL    HW1 5323   1.888   1.477   2.001
 1763SOL    HW2 5324   1.887   1.629   2.062
 1764SOL     OW 5325   3.564   0.932   2.534
 1764SOL    HW1 5326   3.656   0.895   2.541
 1764SOL    HW2 5327   3.554   0.981   2.447
 1765SOL     OW 5328   3.536   1.109   2.307
 1765SOL    HW1 5329   3.618   1.089   2.255
 1765SOL    HW2 5330   3.556   1.178   2.377
 1766SOL     OW 5331   1.964   0.775   3.429
 1766SOL    HW1 5332   2.039   0.839   3.444
 1766SOL    HW2 5333   1.882   0.826   3.403
 1767SOL     OW 5334   2.489   1.393   2.573
 1767SOL    HW1 5335   2.445   1.303   2.577
 1767SOL    HW2 5336   2.474   1.433   2.482
 1768SOL     OW 5337   3.114   1.214   3.281
 1768SOL    HW1 5338   3.135   1.142   3.215
 1768SOL    HW2 5339   3.183   1.214   3.354
 1769SOL     OW 5340   2.705   0.079   2.379
 1769SOL    HW1 5341   2.747   0.166   2.355
 1769SOL    HW2 5342   2.606   0.089   2.384
 1770SOL     OW 5343   2.060   0.953   3.166
 1770SOL    HW1 5344   2.153   0.920   3.149
 1770SOL    HW2 5345   1.999   0.919   3.094
 1771SOL     OW 5346   3.412   1.034   2.066
 1771SOL    HW1 5347   3.338   0.970   2.086
 1771SOL    HW2 5348   3.455   1.064   2.151
 1772SOL     OW 5349   3.049   1.816   3.485
 1772SOL    HW1 5350   3.049   1.886   3.413
 1772SOL    HW2 5351   3.057   1.725   3.443
 1773SOL     OW 5352   2.213   0.270   3.779
 1773SOL    HW1 5353   2.253   0.353   3.818
 1773SOL    HW2 5354   2.121   0.289   3.746
 1774SOL     OW 5355   3.324   1.414   2.780
 1774SOL    HW1 5356   3.268   1.439   2.859
 1774SOL    HW2 5357   3.306   1.318   2.756
 1775SOL     OW 5358   3.492   1.834   2.406
 1775SOL    HW1 5359   3.483   1.773   2.327
 1775SOL    HW2 5360   3.504   1.779   2.489
 1776SOL     OW 5361   2.430   0.725   2.136
 1776SOL    HW1 5362   2.437   0.816   2.095
 1776SOL    HW2 5363   2.364   0.728   2.211
 1777SOL     OW 5364   3.142   0.393   2.797
 1777SOL    HW1 5365   3.046   0.364   2.796
 1777SOL    HW2 5366   3.196   0.329   2.852
 1778SOL     OW 5367   3.456   1.670   2.184
 1778SOL    HW1 5368   3.554   1.689   2.177
 1778SOL    HW2 5369   3.418   1.657   2.092
 1779SOL     OW 5370   2.655   0.596   3.308
 1779SOL    HW1 5371   2.619   0.569   3.397
 1779SOL    HW2 5372   2.624   0.531   3.239
 1780SOL     OW 5373   3.253   0.437   3.533
 1780SOL    HW1 5374   3.249   0.494   3.615
 1780SOL    HW2 5375   3.302   0.353   3.553
 1781SOL     OW 5376   2.809   0.882   3.441
 1781SOL    HW1 5377   2.865   0.816   3.392
 1781SOL    HW2 5378   2.753   0.934   3.376
 1782SOL     OW 5379   2.863   0.414   3.049
 1782SOL    HW1 5380   2.768   0.427   3.078
 1782SOL    HW2 5381   2.865   0.371   2.959
 1783SOL     OW 5382   2.911   0.692   2.265
 1783SOL    HW1 5383   2.937   0.692   2.362
 1783SOL    HW2 5384   2.819   0.653   2.255
 1784SOL     OW 5385   1.954   0.861   2.655
 1784SOL    HW1 5386   2.043   0.845   2.698
 1784SOL    HW2 5387   1.903   0.930   2.708
 1785SOL     OW 5388   1.959   1.893   3.463
 1785SOL    HW1 5389   1.971   1.862   3.557
 1785SOL    HW2 5390   1.865   1.874   3.433
 1786SOL     OW 5391   2.716   0.370   2.061
 1786SOL    HW1 5392   2.775   0.401   1.987
 1786SOL    HW2 5393   2.652   0.301   2.026
 1787SOL     OW 5394   3.524   0.577   3.708
 1787SOL    HW1 5395   3.510   0.659   3.653
 1787SOL    HW2 5396   3.553   0.502   3.649
 1788SOL     OW 5397   3.270   1.167   2.418
 1788SOL    HW1 5398   3.356   1.152   2.369
 1788SOL    HW2 5399   3.214   1.231   2.366
 1789SOL     OW 5400   2.412   0.226   2.780
 1789SOL    HW1 5401   2.424   0.226   2.880
 1789SOL    HW2 5402   2.408   0.320   2.747
 1790SOL     OW 5403   2.858   1.467   2.329
 1790SOL    HW1 5404   2.837   1.542   2.267
 1790SOL    HW2 5405   2.826   1.489   2.421
 1791SOL     OW 5406   2.221   1.794   2.747
 1791SOL    HW1 5407   2.261   1.703   2.747
 1791SOL    HW2 5408   2.289   1.861   2.778
 1792SOL     OW 5409   3.655   1.066   2.768
 1792SOL    HW1 5410   3.609   1.049   2.680
 1792SOL    HW2 5411   3.586   1.073   2.840
 1793SOL     OW 5412   3.057   1.536   3.373
 1793SOL    HW1 5413   3.048   1.467   3.444
 1793SOL    HW2 5414   2.996   1.513   3.296
 1794SOL     OW 5415   2.154   0.938   2.128
 1794SOL    HW1 5416   2.242   0.960   2.086
 1794SOL    HW2 5417   2.125   0.847   2.098
 1795SOL     OW 5418   3.345   0.774   2.577
 1795SOL    HW1 5419   3.342   0.724   2.663
 1795SOL    HW2 5420   3.428   0.831   2.575
 1796SOL     OW 5421   2.332   1.301   3.613
 1796SOL    HW1 5422   2.310   1.306   3.515
 1796SOL    HW2 5423   2.249   1.283   3.665
 1797SOL     OW 5424   3.019   1.764   2.099
 1797SOL    HW1 5425   2.927   1.745   2.134
 1797SOL    HW2 5426   3.042   1.695   2.030
 1798SOL     OW 5427   2.093   0.297   3.342
 1798SOL    HW1 5428   2.037   0.380   3.336
 1798SOL    HW2 5429   2.071   0.247   3.426
 1799SOL     OW 5430   3.498   1.388   1.955
 1799SOL    HW1 5431   3.467   1.482   1.943
 1799SOL    HW2 5432   3.425   1.325   1.930
 1800SOL     OW 5433   2.330   1.751   2.179
 1800SOL    HW1 5434   2.374   1.806   2.250
 1800SOL    HW2 5435   2.399   1.710   2.120
 1801SOL     OW 5436   3.310   0.138   2.301
 1801SOL    HW1 5437   3.298   0.090   2.214
 1801SOL    HW2 5438   3.408   0.149   2.320
 1802SOL     OW 5439   2.082   1.790   3.073
 1802SOL    HW1 5440   2.139   1.713   3.104
 1802SOL    HW2 5441   2.051   1.772   2.980
 1803SOL     OW 5442   2.816   1.700   2.748
 1803SOL    HW1 5443   2.907   1.662   2.758
 1803SOL    HW2 5444   2.767   1.652   2.674
 1804SOL     OW 5445   2.243   0.697   2.340
 1804SOL    HW1 5446   2.254   0.599   2.358
 1804SOL    HW2 5447   2.148   0.723   2.357
 1805SOL     OW 5448   3.387   0.199   3.606
 1805SOL    HW1 5449   3.384   0.232   3.700
 1805SOL    HW2 5450   3.391   0.099   3.606
 1806SOL     OW 5451   2.528   0.173   1.995
 1806SOL    HW1 5452   2.570   0.101   2.050
 1806SOL    HW2 5453   2.464   0.132   1.930
 1807SOL     OW 5454   2.592   0.289   3.587
 1807SOL    HW1 5455   2.676   0.235   3.587
 1807SOL    HW2 5456   2.538   0.266   3.667
 1808SOL     OW 5457   2.718   1.515   3.036
 1808SOL    HW1 5458   2.699   1.466   2.951
 1808SOL    HW2 5459   2.787   1.464   3.089
 1809SOL     OW 5460   3.172   0.581   3.307
 1809SOL    HW1 5461   3.211   0.542   3.390
 1809SOL    HW2 5462   3.211   0.671   3.290
 1810SOL     OW 5463   2.670   1.364   2.798
 1810SOL    HW1 5464   2.765   1.366   2.766
 1810SOL    HW2 5465   2.608   1.379   2.721
 1811SOL     OW 5466   2.781   0.526   2.734
 1811SOL    HW1 5467   2.758   0.522   2.637
 1811SOL    HW2 5468   2.806   0.434   2.766
 1812SOL     OW 5469   2.434   0.106   2.363
 1812SOL    HW1 5470   2.353   0.074   2.412
 1812SOL    HW2 5471   2.410   0.179   2.300
 1813SOL     OW 5472   3.289   1.215   1.897
 1813SOL    HW1 5473   3.331   1.144   1.952
 1813SOL    HW2 5474   3.202   1.243   1.939
 1814SOL     OW 5475   2.124   0.066   2.085
 1814SOL    HW1 5476   2.172   0.136   2.033
 1814SOL    HW2 5477   2.172   4.979   2.076
 1815SOL     OW 5478   2.837   0.305   2.301
 1815SOL    HW1 5479   2.799   0.329   2.211
 1815SOL    HW2 5480   2.937   0.310   2.297
 1816SOL     OW 5481   2.917   0.692   3.281
 1816SOL    HW1 5482   2.839   0.632   3.295
 1816SOL    HW2 5483   3.002   0.639   3.290
 1817SOL     OW 5484   3.072   1.593   2.668
 1817SOL    HW1 5485   3.086   1.658   2.593
 1817SOL    HW2 5486   3.158   1.581   2.719
 1818SOL     OW 5487   2.348   1.159   2.554
 1818SOL    HW1 5488   2.286   1.137   2.630
 1818SOL    HW2 5489   2.298   1.152   2.468
 1819SOL     OW 5490   3.108   1.793   2.474
 1819SOL    HW1 5491   3.159   1.855   2.415
 1819SOL    HW2 5492   3.030   1.840   2.513
 1820SOL     OW 5493   2.893   0.491   1.886
 1820SOL    HW1 5494   2.854   0.579   1.860
 1820SOL    HW2 5495   2.960   0.505   1.959
 1821SOL     OW 5496   1.983   0.556   3.265
 1821SOL    HW1 5497   2.074   0.563   3.224
 1821SOL    HW2 5498   1.969   0.633   3.327
 1822SOL     OW 5499   2.428   0.224   3.062
 1822SOL    HW1 5500   2.475   0.203   3.148
 1822SOL    HW2 5501   2.331   0.202   3.071
 1823SOL     OW 5502   2.732   0.494   2.472
 1823SOL    HW1 5503   2.677   0.548   2.408
 1823SOL    HW2 5504   2.773   0.417   2.424
 1824SOL     OW 5505   2.831   0.057   2.623
 1824SOL    HW1 5506   2.787   0.063   2.533
 1824SOL    HW2 5507   2.902   4.987   2.621
 1825SOL     OW 5508   3.282   1.147   2.717
 1825SOL    HW1 5509   3.214   1.076   2.737
 1825SOL    HW2 5510   3.291   1.157   2.618
 1826SOL     OW 5511   3.318   0.621   2.810
 1826SOL    HW1 5512   3.252   0.546   2.816
 1826SOL    HW2 5513   3.381   0.616   2.887
 1827SOL     OW 5514   3.663   0.788   2.245
 1827SOL    HW1 5515   3.728   0.760   2.316
 1827SOL    HW2 5516   3.661   0.719   2.173
 1828SOL     OW 5517   2.366   1.432   2.009
 1828SOL    HW1 5518   2.287   1.400   2.061
 1828SOL    HW2 5519   2.364   1.391   1.917
 1829SOL     OW 5520   3.603   1.280   2.499
 1829SOL    HW1 5521   3.701   1.276   2.521
 1829SOL    HW2 5522   3.567   1.370   2.522
 1830SOL     OW 5523   3.243   0.577   1.903
 1830SOL    HW1 5524   3.192   0.550   1.985
 1830SOL    HW2 5525   3.341   0.569   1.921
 1831SOL     OW 5526   2.377   0.303   2.185
 1831SOL    HW1 5527   2.436   0.258   2.118
 1831SOL    HW2 5528   2.335   0.384   2.144
 1832SOL     OW 5529   3.599   1.238   3.394
 1832SOL    HW1 5530   3.689   1.198   3.375
 1832SOL    HW2 5531   3.611   1.328   3.435
 1833SOL     OW 5532   2.889   1.354   3.202
 1833SOL    HW1 5533   2.803   1.327   3.243
 1833SOL    HW2 5534   2.965   1.304   3.244
 1834SOL     OW 5535   3.483   1.650   3.536
 1834SOL    HW1 5536   3.463   1.686   3.445
 1834SOL    HW2 5537   3.560   1.586   3.530
 1835SOL     OW 5538   3.011   1.260   2.971
 1835SOL    HW1 5539   2.951   1.290   3.045
 1835SOL    HW2 5540   2.975   1.290   2.883
 1836SOL     OW 5541   3.451   1.098   2.948
 1836SOL    HW1 5542   3.442   1.165   3.021
 1836SOL    HW2 5543   3.382   1.117   2.877
 1837SOL     OW 5544   2.769   0.047   3.239
 1837SOL    HW1 5545   2.788   0.049   3.141
 1837SOL    HW2 5546   2.847   0.085   3.289
 1838SOL     OW 5547   2.824   1.116   3.582
 1838SOL    HW1 5548   2.731   1.132   3.614
 1838SOL    HW2 5549   2.827   1.033   3.527
 1839SOL     OW 5550   2.576   1.056   2.253
 1839SOL    HW1 5551   2.561   1.027   2.348
 1839SOL    HW2 5552   2.654   1.006   2.215
 1840SOL     OW 5553   2.303   0.833   3.123
 1840SOL    HW1 5554   2.372   0.841   3.196
 1840SOL    HW2 5555   2.266   0.740   3.122
 1841SOL     OW 5556   3.108   0.368   3.150
 1841SOL    HW1 5557   3.140   0.445   3.205
 1841SOL    HW2 5558   3.018   0.389   3.112
 1842SOL     OW 5559   1.928   1.560   3.217
 1842SOL    HW1 5560   1.885   1.630   3.159
 1842SOL    HW2 5561   2.027   1.566   3.209
 1843SOL     OW 5562   2.183   1.135   2.330
 1843SOL    HW1 5563   2.183   1.211   2.265
 1843SOL    HW2 5564   2.173   1.049   2.281
 1844SOL     OW 5565   2.401   0.513   2.727
 1844SOL    HW1 5566   2.407   0.566   2.643
 1844SOL    HW2 5567   2.469   0.547   2.792
 1845SOL     OW 5568   3.113   1.366   2.276
 1845SOL    HW1 5569   3.176   1.437   2.306
 1845SOL    HW2 5570   3.020   1.389   2.302
 1846SOL     OW 5571   3.180   1.476   3.000
 1846SOL    HW1 5572   3.225   1.485   3.089
 1846SOL    HW2 5573   3.122   1.395   3.001
 1847SOL     OW 5574   3.449   0.634   2.355
 1847SOL    HW1 5575   3.394   0.676   2.427
 1847SOL    HW2 5576   3.510   0.703   2.315
 1848SOL     OW 5577   2.201   1.543   3.156
 1848SOL    HW1 5578   2.193   1.483   3.077
 1848SOL    HW2 5579   2.297   1.566   3.171
 1849SOL     OW 5580   2.338   0.709   3.523
 1849SOL    HW1 5581   2.371   0.760   3.443
 1849SOL    HW2 5582   2.409   0.645   3.552
 1850SOL     OW 5583   3.485   0.799   3.558
 1850SOL    HW1 5584   3.392   0.834   3.552
 1850SOL    HW2 5585   3.538   0.831   3.480
 1851SOL     OW 5586   2.807   0.131   3.598
 1851SOL    HW1 5587   2.892   0.183   3.589
 1851SOL    HW2 5588   2.827   0.034   3.604
 1852SOL     OW 5589   2.359   0.069   3.668
 1852SOL    HW1 5590   2.326   0.040   3.578
 1852SOL    HW2 5591   2.300   0.141   3.703
 1853SOL     OW 5592   2.449   0.886   2.894
 1853SOL    HW1 5593   2.492   0.976   2.894
 1853SOL    HW2 5594   2.395   0.874   2.978
 1854SOL     OW 5595   3.153   0.855   2.852
 1854SOL    HW1 5596   3.060   0.827   2.829
 1854SOL    HW2 5597   3.216   0.779   2.837
 1855SOL     OW 5598   3.061   0.524   2.107
 1855SOL    HW1 5599   3.089   0.450   2.168
 1855SOL    HW2 5600   3.012   0.593   2.159
 1856SOL     OW 5601   2.160   0.168   3.107
 1856SOL    HW1 5602   2.132   0.215   3.191
 1856SOL    HW2 5603   2.102   0.088   3.093
 1857SOL     OW 5604   1.921   1.299   3.133
 1857SOL    HW1 5605   1.952   1.242   3.208
 1857SOL    HW2 5606   1.915   1.394   3.163
 1858SOL     OW 5607   2.579   0.639   2.894
 1858SOL    HW1 5608   2.652   0.620   2.829
 1858SOL    HW2 5609   2.543   0.731   2.878
 1859SOL     OW 5610   3.624   0.976   3.721
 1859SOL    HW1 5611   3.577   0.904   3.669
 1859SOL    HW2 5612   3.566   1.005   3.797
 1860SOL     OW 5613   2.185   0.066   2.512
 1860SOL    HW1 5614   2.162   0.159   2.539
 1860SOL    HW2 5615   2.247   0.026   2.579
 1861SOL     OW 5616   3.503   0.403   2.222
 1861SOL    HW1 5617   3.518   0.326   2.284
 1861SOL    HW2 5618   3.471   0.482   2.275
 1862SOL     OW 5619   2.889   0.763   2.810
 1862SOL    HW1 5620   2.865   0.783   2.905
 1862SOL    HW2 5621   2.858   0.671   2.785
 1863SOL     OW 5622   2.847   1.563   3.633
 1863SOL    HW1 5623   2.813   1.620   3.559
 1863SOL    HW2 5624   2.885   1.478   3.595
 1864SOL     OW 5625   3.700   1.490   3.466
 1864SOL    HW1 5626   3.721   1.518   3.373
 1864SOL    HW2 5627   3.782   1.501   3.523
 1865SOL     OW 5628   2.236   0.911   3.680
 1865SOL    HW1 5629   2.303   0.941   3.747
 1865SOL    HW2 5630   2.274   0.836   3.625
 1866SOL     OW 5631   3.384   0.275   2.001
 1866SOL    HW1 5632   3.352   0.186   2.033
 1866SOL    HW2 5633   3.424   0.326   2.077
 1867SOL     OW 5634   3.135   0.824   1.862
 1867SOL    HW1 5635   3.169   0.730   1.871
 1867SOL    HW2 5636   3.171   0.865   1.779
 1868SOL     OW 5637   2.931   1.362   2.728
 1868SOL    HW1 5638   2.950   1.281   2.673
 1868SOL    HW2 5639   2.984   1.439   2.692
 1869SOL     OW 5640   2.191   0.821   2.794
 1869SOL    HW1 5641   2.289   0.839   2.803
 1869SOL    HW2 5642   2.172   0.726   2.818
 1870SOL     OW 5643   2.167   0.545   2.858
 1870SOL    HW1 5644   2.121   0.456   2.860
 1870SOL    HW2 5645   2.250   0.538   2.803
 1871SOL     OW 5646   3.004   0.319   3.558
 1871SOL    HW1 5647   2.954   0.376   3.624
 1871SOL    HW2 5648   3.094   0.361   3.540
 1872SOL     OW 5649   3.015   0.167   3.317
 1872SOL    HW1 5650   3.007   0.210   3.407
 1872SOL    HW2 5651   3.049   0.234   3.251
 1873SOL     OW 5652   1.884   1.292   2.041
 1873SOL    HW1 5653   1.791   1.318   2.012
 1873SOL    HW2 5654   1.882   1.201   2.081
 1874SOL     OW 5655   1.961   1.758   2.822
 1874SOL    HW1 5656   1.916   1.683   2.774
 1874SOL    HW2 5657   2.052   1.773   2.784
 1875SOL     OW 5658   2.349   1.548   2.758
 1875SOL    HW1 5659   2.421   1.609   2.791
 1875SOL    HW2 5660   2.386   1.489   2.687
 1876SOL     OW 5661   2.791   0.801   3.060
 1876SOL    HW1 5662   2.848   0.773   3.137
 1876SOL    HW2 5663   2.707   0.747   3.060
 1877SOL     OW 5664   1.911   0.610   2.994
 1877SOL    HW1 5665   1.989   0.597   2.933
 1877SOL    HW2 5666   1.939   0.591   3.088
 1878SOL     OW 5667   2.086   0.606   3.614
 1878SOL    HW1 5668   2.181   0.623   3.588
 1878SOL    HW2 5669   2.025   0.658   3.554
 1879SOL     OW 5670   3.249   0.925   3.497
 1879SOL    HW1 5671   3.269   1.023   3.494
 1879SOL    HW2 5672   3.238   0.891   3.404
 1880SOL     OW 5673   2.660   0.593   2.217
 1880SOL    HW1 5674   2.669   0.512   2.160
 1880SOL    HW2 5675   2.579   0.645   2.189
 1881SOL     OW 5676   3.503   0.609   3.014
 1881SOL    HW1 5677   3.485   0.543   3.086
 1881SOL    HW2 5678   3.601   0.610   2.993
 1882SOL     OW 5679   2.086   1.538   3.585
 1882SOL    HW1 5680   2.063   1.601   3.659
 1882SOL    HW2 5681   2.094   1.446   3.621
 1883SOL     OW 5682   2.592   0.448   3.086
 1883SOL    HW1 5683   2.527   0.373   3.072
 1883SOL    HW2 5684   2.577   0.517   3.015
 1884SOL     OW 5685   2.729   1.706   3.407
 1884SOL    HW1 5686   2.689   1.639   3.345
 1884SOL    HW2 5687   2.759   1.786   3.355
 1885SOL     OW 5688   2.282   0.513   2.038
 1885SOL    HW1 5689   2.355   0.578   2.059
 1885SOL    HW2 5690   2.194   0.560   2.041
 1886SOL     OW 5691   2.001   1.142   3.348
 1886SOL    HW1 5692   2.006   1.104   3.441
 1886SOL    HW2 5693   2.024   1.071   3.282
 1887SOL     OW 5694   3.135   1.031   3.063
 1887SOL    HW1 5695   3.147   0.965   2.989
 1887SOL    HW2 5696   3.090   1.113   3.027
 1888SOL     OW 5697   3.197   0.878   2.126
 1888SOL    HW1 5698   3.129   0.843   2.192
 1888SOL    HW2 5699   3.167   0.858   2.033
 1889SOL     OW 5700   3.621   1.705   3.022
 1889SOL    HW1 5701   3.690   1.734   2.956
 1889SOL    HW2 5702   3.590   1.613   2.998
 1890SOL     OW 5703   3.126   1.747   2.969
 1890SOL    HW1 5704   3.217   1.785   2.949
 1890SOL    HW2 5705   3.133   1.649   2.982
 1891SOL     OW 5706   1.977   1.237   2.876
 1891SOL    HW1 5707   1.951   1.260   2.970
 1891SOL    HW2 5708   1.904   1.185   2.833
 1892SOL     OW 5709   2.549   1.711   3.616
 1892SOL    HW1 5710   2.479   1.782   3.608
 1892SOL    HW2 5711   2.619   1.725   3.545
 1893SOL     OW 5712   3.594   0.153   2.327
 1893SOL    HW1 5713   3.646   0.167   2.243
 1893SOL    HW2 5714   3.654   0.117   2.398
 1894SOL     OW 5715   3.272   1.578   2.370
 1894SOL    HW1 5716   3.331   1.609   2.295
 1894SOL    HW2 5717   3.208   1.651   2.395
 1895SOL     OW 5718   1.999   1.791   3.711
 1895SOL    HW1 5719   1.949   1.716   3.755
 1895SOL    HW2 5720   2.055   1.838   3.779
 1896SOL     OW 5721   3.145   0.943   2.507
 1896SOL    HW1 5722   3.218   0.879   2.531
 1896SOL    HW2 5723   3.184   1.023   2.461
 1897SOL     OW 5724   2.633   1.290   3.287
 1897SOL    HW1 5725   2.608   1.342   3.369
 1897SOL    HW2 5726   2.557   1.295   3.221
 1898SOL     OW 5727   2.537   1.644   2.022
 1898SOL    HW1 5728   2.555   1.668   1.927
 1898SOL    HW2 5729   2.483   1.560   2.026
 1899SOL     OW 5730   3.467   1.735   3.262
 1899SOL    HW1 5731   3.522   1.726   3.179
 1899SOL    HW2 5732   3.449   1.832   3.279
 1900SOL     OW 5733   3.731   0.125   2.845
 1900SOL    HW1 5734   3.752   0.028   2.856
 1900SOL    HW2 5735   3.640   0.136   2.807
 1901SOL     OW 5736   2.098   0.314   2.591
 1901SOL    HW1 5737   2.013   0.361   2.566
 1901SOL    HW2 5738   2.104   0.307   2.691
 1902SOL     OW 5739   3.091   1.577   1.912
 1902SOL    HW1 5740   3.083   1.484   1.947
 1902SOL    HW2 5741   3.013   1.596   1.851
 1903SOL     OW 5742   2.674   1.020   3.250
 1903SOL    HW1 5743   2.715   1.004   3.160
 1903SOL    HW2 5744   2.662   1.118   3.264
 1904SOL     OW 5745   2.784   0.918   2.157
 1904SOL    HW1 5746   2.833   0.946   2.075
 1904SOL    HW2 5747   2.832   0.840   2.200
 1905SOL     OW 5748   3.359   1.649   1.921
 1905SOL    HW1 5749   3.264   1.623   1.909
 1905SOL    HW2 5750   3.404   1.657   1.832
 1906SOL     OW 5751   2.226   1.322   3.363
 1906SOL    HW1 5752   2.218   1.398   3.298
 1906SOL    HW2 5753   2.148   1.260   3.351
 1907SOL     OW 5754   3.449   1.289   3.157
 1907SOL    HW1 5755   3.510   1.262   3.231
 1907SOL    HW2 5756   3.386   1.360   3.189
 1908SOL     OW 5757   2.955   1.119   2.612
 1908SOL    HW1 5758   2.873   1.073   2.644
 1908SOL    HW2 5759   3.016   1.053   2.568
 1909SOL     OW 5760   2.878   0.264   2.814
 1909SOL    HW1 5761   2.862   0.218   2.727
 1909SOL    HW2 5762   2.872   0.197   2.888
 1910SOL     OW 5763   2.470   1.497   2.324
 1910SOL    HW1 5764   2.526   1.439   2.266
 1910SOL    HW2 5765   2.386   1.521   2.277
 1911SOL     OW 5766   3.622   0.394   3.270
 1911SOL    HW1 5767   3.697   0.460   3.263
 1911SOL    HW2 5768   3.632   0.326   3.197
 1912SOL     OW 5769   2.144   1.347   2.152
 1912SOL    HW1 5770   2.053   1.334   2.112
 1912SOL    HW2 5771   2.136   1.398   2.237
 1913SOL     OW 5772   2.004   1.033   3.600
 1913SOL    HW1 5773   1.920   1.007   3.649
 1913SOL    HW2 5774   2.082   0.984   3.639
 1914SOL     OW 5775   2.545   0.200   3.320
 1914SOL    HW1 5776   2.623   0.143   3.293
 1914SOL    HW2 5777   2.557   0.230   3.415
 1915SOL     OW 5778   1.970   0.368   1.838
 1915SOL    HW1 5779   1.883   0.360   1.789
 1915SOL    HW2 5780   2.012   0.456   1.816
 1916SOL     OW 5781   3.254   0.843   3.237
 1916SOL    HW1 5782   3.191   0.901   3.184
 1916SOL    HW2 5783   3.346   0.849   3.198
 1917SOL     OW 5784   1.882   0.187   2.096
 1917SOL    HW1 5785   1.891   0.266   2.036
 1917SOL    HW2 5786   1.969   0.140   2.103
 1918SOL     OW 5787   3.049   1.319   2.002
 1918SOL    HW1 5788   2.951   1.301   1.991
 1918SOL    HW2 5789   3.072   1.323   2.099
 1919SOL     OW 5790   2.495   0.822   3.313
 1919SOL    HW1 5791   2.551   0.904   3.300
 1919SOL    HW2 5792   2.554   0.741   3.314
 1920SOL     OW 5793   3.381   1.838   2.920
 1920SOL    HW1 5794   3.408   1.898   2.844
 1920SOL    HW2 5795   3.463   1.794   2.957
 1921SOL     OW 5796   2.567   0.561   3.567
 1921SOL    HW1 5797   2.636   0.611   3.619
 1921SOL    HW2 5798   2.580   0.463   3.580
 1922SOL     OW 5799   3.326   1.189   3.480
 1922SOL    HW1 5800   3.313   1.209   3.577
 1922SOL    HW2 5801   3.420   1.210   3.453
 1923SOL     OW 5802   2.204   1.759   3.454
 1923SOL    HW1 5803   2.120   1.810   3.437
 1923SOL    HW2 5804   2.182   1.668   3.489
 1924SOL     OW 5805   3.496   0.875   3.108
 1924SOL    HW1 5806   3.502   0.788   3.060
 1924SOL    HW2 5807   3.483   0.949   3.042
 1925SOL     OW 5808   3.114   0.336   2.304
 1925SOL    HW1 5809   3.180   0.261   2.299
 1925SOL    HW2 5810   3.131   0.390   2.386
 1926SOL     OW 5811   2.433   0.721   2.542
 1926SOL    HW1 5812   2.483   0.807   2.534
 1926SOL    HW2 5813   2.365   0.714   2.470
 1927SOL     OW 5814   3.604   0.367   3.548
 1927SOL    HW1 5815   3.608   0.380   3.449
 1927SOL    HW2 5816   3.536   0.298   3.570
 1928SOL     OW 5817   3.609   0.925   3.352
 1928SOL    HW1 5818   3.596   1.022   3.374
 1928SOL    HW2 5819   3.574   0.906   3.260
 1929SOL     OW 5820   2.755   1.346   1.949
 1929SOL    HW1 5821   2.710   1.355   2.038
 1929SOL    HW2 5822   2.763   1.437   1.907
 1930SOL     OW 5823   2.537   1.735   2.809
 1930SOL    HW1 5824   2.510   1.831   2.807
 1930SOL    HW2 5825   2.637   1.728   2.805
 1931SOL     OW 5826   2.738   0.987   2.728
 1931SOL    HW1 5827   2.790   0.907   2.757
 1931SOL    HW2 5828   2.691   1.027   2.806
 1932SOL     OW 5829   2.915   0.969   1.929
 1932SOL    HW1 5830   2.892   1.036   1.859
 1932SOL    HW2 5831   2.997   0.918   1.902
 1933SOL     OW 5832   3.706   1.541   2.707
 1933SOL    HW1 5833   3.622   1.538   2.652
 1933SOL    HW2 5834   3.710   1.460   2.765
 1934SOL     OW 5835   2.068   1.282   3.695
 1934SOL    HW1 5836   2.048   1.195   3.650
 1934SOL    HW2 5837   2.004   1.296   3.771
 1935SOL     OW 5838   2.020   1.241   2.534
 1935SOL    HW1 5839   2.053   1.198   2.618
 1935SOL    HW2 5840   2.065   1.200   2.455
 1936SOL     OW 5841   2.549   1.443   3.505
 1936SOL    HW1 5842   2.469   1.396   3.543
 1936SOL    HW2 5843   2.557   1.534   3.545
 1937SOL     OW 5844   3.628   0.194   3.090
 1937SOL    HW1 5845   3.563   0.118   3.102
 1937SOL    HW2 5846   3.672   0.185   3.000
 1938SOL     OW 5847   2.262   0.438   2.402
 1938SOL    HW1 5848   2.309   0.374   2.342
 1938SOL    HW2 5849   2.214   0.387   2.474
 1939SOL     OW 5850   3.538   1.458   2.953
 1939SOL    HW1 5851   3.468   1.444   2.884
 1939SOL    HW2 5852   3.527   1.391   3.027
 1940SOL     OW 5853   2.219   0.575   3.132
 1940SOL    HW1 5854   2.279   0.514   3.184
 1940SOL    HW2 5855   2.219   0.548   3.036
 1941SOL     OW 5856   2.695   1.583   2.533
 1941SOL    HW1 5857   2.661   1.649   2.466
 1941SOL    HW2 5858   2.624   1.514   2.551
 1942SOL     OW 5859   3.262   0.220   2.976
 1942SOL    HW1 5860   3.258   0.125   3.008
 1942SOL    HW2 5861   3.217   0.279   3.043
 1943SOL     OW 5862   2.847   0.032   2.974
 1943SOL    HW1 5863   2.771   4.998   2.919
 1943SOL    HW2 5864   2.929   4.978   2.953
 1944SOL     OW 5865   2.648   1.324   2.203
 1944SOL    HW1 5866   2.622   1.229   2.221
 1944SOL    HW2 5867   2.728   1.348   2.258
 1945SOL     OW 5868   2.477   1.581   3.148
 1945SOL    HW1 5869   2.466   1.670   3.193
 1945SOL    HW2 5870   2.566   1.577   3.103
 1946SOL     OW 5871   3.289   0.014   2.058
 1946SOL    HW1 5872   3.352   4.939   2.041
 1946SOL    HW2 5873   3.198   4.990   2.026
 1947SOL     OW 5874   3.161   0.480   2.533
 1947SOL    HW1 5875   3.109   0.565   2.525
 1947SOL    HW2 5876   3.154   0.445   2.626
 1948SOL     OW 5877   3.477   0.204   2.777
 1948SOL    HW1 5878   3.403   0.206   2.844
 1948SOL    HW2 5879   3.467   0.282   2.715
 1949SOL     OW 5880   1.896   1.036   2.162
 1949SOL    HW1 5881   1.993   1.019   2.144
 1949SOL    HW2 5882   1.850   0.949   2.181
 1950SOL     OW 5883   2.762   1.690   2.190
 1950SOL    HW1 5884   2.683   1.669   2.133
 1950SOL    HW2 5885   2.739   1.763   2.255
 1951SOL     OW 5886   2.059   0.675   3.883
 1951SOL    HW1 5887   1.971   0.639   3.913
 1951SOL    HW2 5888   2.067   0.666   3.784
 1952SOL     OW 5889   2.095   0.285   4.717
 1952SOL    HW1 5890   2.127   0.280   4.811
 1952SOL    HW2 5891   2.013   0.228   4.706
 1953SOL     OW 5892   1.861   0.439   4.352
 1953SOL    HW1 5893   1.771   0.442   4.396
 1953SOL    HW2 5894   1.854   0.393   4.264
 1954SOL     OW 5895   2.397   1.307   4.896
 1954SOL    HW1 5896   2.310   1.324   4.850
 1954SOL    HW2 5897   2.468   1.365   4.855
 1955SOL     OW 5898   3.463   1.500   4.435
 1955SOL    HW1 5899   3.409   1.472   4.514
 1955SOL    HW2 5900   3.402   1.520   4.358
 1956SOL     OW 5901   3.002   0.702   4.396
 1956SOL    HW1 5902   3.045   0.791   4.381
 1956SOL    HW2 5903   2.941   0.708   4.474
 1957SOL     OW 5904   3.668   0.571   3.936
 1957SOL    HW1 5905   3.620   0.580   3.848
 1957SOL    HW2 5906   3.620   0.504   3.993
 1958SOL     OW 5907   2.553   1.105   4.783
 1958SOL    HW1 5908   2.480   1.148   4.836
 1958SOL    HW2 5909   2.597   1.173   4.725
 1959SOL     OW 5910   2.543   0.983   4.380
 1959SOL    HW1 5911   2.616   0.982   4.448
 1959SOL    HW2 5912   2.475   1.052   4.406
 1960SOL     OW 5913   2.189   1.378   4.737
 1960SOL    HW1 5914   2.096   1.368   4.701
 1960SOL    HW2 5915   2.235   1.455   4.692
 1961SOL     OW 5916   3.460   0.443   4.455
 1961SOL    HW1 5917   3.377   0.444   4.399
 1961SOL    HW2 5918   3.453   0.511   4.527
 1962SOL     OW 5919   2.093   1.736   4.189
 1962SOL    HW1 5920   2.116   1.809   4.254
 1962SOL    HW2 5921   2.169   1.723   4.126
 1963SOL     OW 5922   2.109   1.463   4.252
 1963SOL    HW1 5923   2.086   1.560   4.258
 1963SOL    HW2 5924   2.064   1.414   4.327
 1964SOL     OW 5925   2.154   1.097   4.608
 1964SOL    HW1 5926   2.163   0.998   4.622
 1964SOL    HW2 5927   2.133   1.141   4.696
 1965SOL     OW 5928   2.427   0.994   3.886
 1965SOL    HW1 5929   2.477   1.039   3.812
 1965SOL    HW2 5930   2.467   1.019   3.974
 1966SOL     OW 5931   1.967   0.699   4.296
 1966SOL    HW1 5932   1.942   0.606   4.322
 1966SOL    HW2 5933   1.965   0.758   4.377
 1967SOL     OW 5934   3.716   1.752   4.041
 1967SOL    HW1 5935   3.792   1.740   4.105
 1967SOL    HW2 5936   3.716   1.846   4.007
 1968SOL     OW 5937   1.912   1.573   3.845
 1968SOL    HW1 5938   1.893   1.477   3.865
 1968SOL    HW2 5939   1.890   1.629   3.925
 1969SOL     OW 5940   3.555   0.929   4.380
 1969SOL    HW1 5941   3.648   0.903   4.406
 1969SOL    HW2 5942   3.557   0.979   4.293
 1970SOL     OW 5943   3.538   1.115   4.155
 1970SOL    HW1 5944   3.623   1.096   4.106
 1970SOL    HW2 5945   3.557   1.176   4.231
 1971SOL     OW 5946   2.485   1.406   4.430
 1971SOL    HW1 5947   2.436   1.319   4.436
 1971SOL    HW2 5948   2.475   1.443   4.338
 1972SOL     OW 5949   2.715   0.075   4.278
 1972SOL    HW1 5950   2.757   0.159   4.243
 1972SOL    HW2 5951   2.615   0.082   4.271
 1973SOL     OW 5952   2.036   0.963   4.914
 1973SOL    HW1 5953   2.130   0.931   4.923
 1973SOL    HW2 5954   1.980   0.891   4.872
 1974SOL     OW 5955   3.414   1.036   3.919
 1974SOL    HW1 5956   3.340   0.973   3.942
 1974SOL    HW2 5957   3.459   1.066   4.003
 1975SOL     OW 5958   3.297   1.397   4.631
 1975SOL    HW1 5959   3.255   1.394   4.722
 1975SOL    HW2 5960   3.295   1.305   4.591
 1976SOL     OW 5961   3.495   1.842   4.268
 1976SOL    HW1 5962   3.486   1.778   4.191
 1976SOL    HW2 5963   3.515   1.791   4.351
 1977SOL     OW 5964   2.432   0.723   3.999
 1977SOL    HW1 5965   2.440   0.814   3.956
 1977SOL    HW2 5966   2.365   0.727   4.073
 1978SOL     OW 5967   3.176   0.383   4.662
 1978SOL    HW1 5968   3.081   0.352   4.666
 1978SOL    HW2 5969   3.235   0.317   4.709
 1979SOL     OW 5970   3.456   1.669   4.050
 1979SOL    HW1 5971   3.554   1.687   4.043
 1979SOL    HW2 5972   3.417   1.657   3.958
 1980SOL     OW 5973   2.910   0.689   4.132
 1980SOL    HW1 5974   2.938   0.684   4.228
 1980SOL    HW2 5975   2.818   0.651   4.122
 1981SOL     OW 5976   1.948   0.873   4.508
 1981SOL    HW1 5977   2.038   0.855   4.546
 1981SOL    HW2 5978   1.903   0.945   4.561
 1982SOL     OW 5979   2.719   0.367   3.928
 1982SOL    HW1 5980   2.778   0.400   3.855
 1982SOL    HW2 5981   2.655   0.299   3.891
 1983SOL     OW 5982   3.269   1.160   4.252
 1983SOL    HW1 5983   3.356   1.147   4.203
 1983SOL    HW2 5984   3.214   1.228   4.203
 1984SOL     OW 5985   2.368   0.244   4.646
 1984SOL    HW1 5986   2.275   0.245   4.681
 1984SOL    HW2 5987   2.390   0.333   4.606
 1985SOL     OW 5988   2.854   1.469   4.198
 1985SOL    HW1 5989   2.832   1.543   4.134
 1985SOL    HW2 5990   2.826   1.496   4.290
 1986SOL     OW 5991   2.218   1.805   4.602
 1986SOL    HW1 5992   2.261   1.714   4.608
 1986SOL    HW2 5993   2.278   1.872   4.645
 1987SOL     OW 5994   3.649   1.084   4.618
 1987SOL    HW1 5995   3.603   1.089   4.530
 1987SOL    HW2 5996   3.581   1.073   4.691
 1988SOL     OW 5997   2.159   0.938   3.989
 1988SOL    HW1 5998   2.247   0.960   3.947
 1988SOL    HW2 5999   2.130   0.846   3.960
 1989SOL     OW 6000   3.338   0.775   4.423
 1989SOL    HW1 6001   3.338   0.722   4.508
 1989SOL    HW2 6002   3.419   0.832   4.418
 1990SOL     OW 6003   3.016   1.762   3.956
 1990SOL    HW1 6004   2.925   1.742   3.993
 1990SOL    HW2 6005   3.041   1.692   3.889
 1991SOL     OW 6006   3.501   1.388   3.818
 1991SOL    HW1 6007   3.469   1.482   3.809
 1991SOL    HW2 6008   3.428   1.325   3.791
 1992SOL     OW 6009   2.333   1.749   4.037
 1992SOL    HW1 6010   2.376   1.805   4.108
 1992SOL    HW2 6011   2.403   1.710   3.977
 1993SOL     OW 6012   3.306   0.134   4.156
 1993SOL    HW1 6013   3.294   0.088   4.068
 1993SOL    HW2 6014   3.403   0.144   4.175
 1994SOL     OW 6015   2.074   1.752   4.915
 1994SOL    HW1 6016   2.034   1.690   4.982
 1994SOL    HW2 6017   2.027   1.741   4.827
 1995SOL     OW 6018   2.836   1.702   4.624
 1995SOL    HW1 6019   2.925   1.656   4.622
 1995SOL    HW2 6020   2.775   1.658   4.558
 1996SOL     OW 6021   2.242   0.698   4.201
 1996SOL    HW1 6022   2.252   0.600   4.216
 1996SOL    HW2 6023   2.147   0.725   4.218
 1997SOL     OW 6024   2.531   0.173   3.854
 1997SOL    HW1 6025   2.572   0.102   3.911
 1997SOL    HW2 6026   2.467   0.131   3.790
 1998SOL     OW 6027   2.649   1.316   4.644
 1998SOL    HW1 6028   2.746   1.337   4.633
 1998SOL    HW2 6029   2.598   1.351   4.566
 1999SOL     OW 6030   2.770   0.495   4.606
 1999SOL    HW1 6031   2.746   0.489   4.509
 1999SOL    HW2 6032   2.819   0.412   4.634
 2000SOL     OW 6033   2.446   0.105   4.226
 2000SOL    HW1 6034   2.363   0.069   4.270
 2000SOL    HW2 6035   2.421   0.180   4.164
 2001SOL     OW 6036   3.289   1.218   3.754
 2001SOL    HW1 6037   3.332   1.146   3.808
 2001SOL    HW2 6038   3.202   1.245   3.796
 2002SOL     OW 6039   2.123   0.063   3.952
 2002SOL    HW1 6040   2.175   0.133   3.902
 2002SOL    HW2 6041   2.168   4.975   3.942
 2003SOL     OW 6042   2.837   0.294   4.167
 2003SOL    HW1 6043   2.799   0.320   4.079
 2003SOL    HW2 6044   2.936   0.303   4.165
 2004SOL     OW 6045   3.078   1.575   4.551
 2004SOL    HW1 6046   3.098   1.641   4.479
 2004SOL    HW2 6047   3.163   1.531   4.580
 2005SOL     OW 6048   2.344   1.169   4.424
 2005SOL    HW1 6049   2.280   1.148   4.498
 2005SOL    HW2 6050   2.297   1.159   4.336
 2006SOL     OW 6051   3.116   1.779   4.345
 2006SOL    HW1 6052   3.167   1.842   4.287
 2006SOL    HW2 6053   3.036   1.825   4.383
 2007SOL     OW 6054   2.893   0.488   3.750
 2007SOL    HW1 6055   2.855   0.575   3.719
 2007SOL    HW2 6056   2.960   0.504   3.823
 2008SOL     OW 6057   2.727   0.481   4.340
 2008SOL    HW1 6058   2.674   0.537   4.276
 2008SOL    HW2 6059   2.769   0.405   4.291
 2009SOL     OW 6060   2.869   0.050   4.515
 2009SOL    HW1 6061   2.807   0.060   4.437
 2009SOL    HW2 6062   2.925   4.968   4.503
 2010SOL     OW 6063   3.289   1.139   4.533
 2010SOL    HW1 6064   3.214   1.075   4.547
 2010SOL    HW2 6065   3.303   1.153   4.435
 2011SOL     OW 6066   3.328   0.622   4.656
 2011SOL    HW1 6067   3.274   0.540   4.671
 2011SOL    HW2 6068   3.404   0.624   4.721
 2012SOL     OW 6069   3.666   0.792   4.097
 2012SOL    HW1 6070   3.729   0.766   4.170
 2012SOL    HW2 6071   3.664   0.721   4.028
 2013SOL     OW 6072   2.366   1.432   3.872
 2013SOL    HW1 6073   2.288   1.399   3.926
 2013SOL    HW2 6074   2.363   1.391   3.781
 2014SOL     OW 6075   3.602   1.264   4.366
 2014SOL    HW1 6076   3.701   1.263   4.381
 2014SOL    HW2 6077   3.565   1.354   4.392
 2015SOL     OW 6078   3.244   0.577   3.767
 2015SOL    HW1 6079   3.193   0.550   3.848
 2015SOL    HW2 6080   3.342   0.569   3.785
 2016SOL     OW 6081   2.383   0.302   4.046
 2016SOL    HW1 6082   2.440   0.256   3.978
 2016SOL    HW2 6083   2.339   0.382   4.005
 2017SOL     OW 6084   2.939   1.224   4.876
 2017SOL    HW1 6085   2.881   1.268   4.944
 2017SOL    HW2 6086   2.918   1.261   4.785
 2018SOL     OW 6087   3.414   1.067   4.771
 2018SOL    HW1 6088   3.337   1.064   4.834
 2018SOL    HW2 6089   3.382   1.092   4.679
 2019SOL     OW 6090   2.577   1.055   4.114
 2019SOL    HW1 6091   2.557   1.028   4.208
 2019SOL    HW2 6092   2.660   1.009   4.083
 2020SOL     OW 6093   2.279   0.844   4.986
 2020SOL    HW1 6094   2.328   0.882   0.064
 2020SOL    HW2 6095   2.216   0.772   0.018
 2021SOL     OW 6096   2.190   1.134   4.193
 2021SOL    HW1 6097   2.187   1.210   4.128
 2021SOL    HW2 6098   2.181   1.048   4.143
 2022SOL     OW 6099   2.390   0.519   4.579
 2022SOL    HW1 6100   2.410   0.583   4.505
 2022SOL    HW2 6101   2.455   0.533   4.653
 2023SOL     OW 6102   3.109   1.368   4.132
 2023SOL    HW1 6103   3.173   1.436   4.166
 2023SOL    HW2 6104   3.016   1.392   4.162
 2024SOL     OW 6105   3.183   1.359   4.874
 2024SOL    HW1 6106   3.238   1.314   4.944
 2024SOL    HW2 6107   3.093   1.316   4.869
 2025SOL     OW 6108   3.445   0.642   4.200
 2025SOL    HW1 6109   3.390   0.681   4.274
 2025SOL    HW2 6110   3.508   0.711   4.165
 2026SOL     OW 6111   2.447   0.844   4.764
 2026SOL    HW1 6112   2.481   0.938   4.760
 2026SOL    HW2 6113   2.386   0.834   4.842
 2027SOL     OW 6114   3.135   0.829   4.681
 2027SOL    HW1 6115   3.044   0.790   4.665
 2027SOL    HW2 6116   3.204   0.757   4.672
 2028SOL     OW 6117   3.062   0.524   3.971
 2028SOL    HW1 6118   3.089   0.450   4.031
 2028SOL    HW2 6119   3.011   0.593   4.023
 2029SOL     OW 6120   2.196   0.267   4.965
 2029SOL    HW1 6121   2.277   0.316   4.996
 2029SOL    HW2 6122   2.166   0.204   0.036
 2030SOL     OW 6123   1.868   1.374   4.927
 2030SOL    HW1 6124   1.878   1.300   4.993
 2030SOL    HW2 6125   1.896   1.461   4.968
 2031SOL     OW 6126   2.570   0.587   4.779
 2031SOL    HW1 6127   2.645   0.563   4.719
 2031SOL    HW2 6128   2.542   0.682   4.762
 2032SOL     OW 6129   2.184   0.062   4.360
 2032SOL    HW1 6130   2.162   0.155   4.387
 2032SOL    HW2 6131   2.244   0.020   4.428
 2033SOL     OW 6132   3.503   0.405   4.083
 2033SOL    HW1 6133   3.511   0.329   4.147
 2033SOL    HW2 6134   3.469   0.486   4.131
 2034SOL     OW 6135   2.872   0.735   4.664
 2034SOL    HW1 6136   2.864   0.745   4.764
 2034SOL    HW2 6137   2.837   0.645   4.637
 2035SOL     OW 6138   3.385   0.276   3.861
 2035SOL    HW1 6139   3.353   0.186   3.893
 2035SOL    HW2 6140   3.426   0.326   3.938
 2036SOL     OW 6141   3.135   0.823   3.724
 2036SOL    HW1 6142   3.171   0.730   3.733
 2036SOL    HW2 6143   3.172   0.865   3.640
 2037SOL     OW 6144   2.922   1.347   4.624
 2037SOL    HW1 6145   2.945   1.266   4.571
 2037SOL    HW2 6146   2.976   1.425   4.591
 2038SOL     OW 6147   2.193   0.823   4.631
 2038SOL    HW1 6148   2.291   0.828   4.645
 2038SOL    HW2 6149   2.163   0.728   4.644
 2039SOL     OW 6150   2.137   0.554   4.669
 2039SOL    HW1 6151   2.103   0.463   4.695
 2039SOL    HW2 6152   2.228   0.545   4.629
 2040SOL     OW 6153   3.053   0.229   0.194
 2040SOL    HW1 6154   3.063   0.255   0.290
 2040SOL    HW2 6155   3.065   0.309   0.136
 2041SOL     OW 6156   1.884   1.294   3.901
 2041SOL    HW1 6157   1.791   1.319   3.875
 2041SOL    HW2 6158   1.885   1.201   3.939
 2042SOL     OW 6159   1.955   1.757   4.658
 2042SOL    HW1 6160   1.924   1.682   4.600
 2042SOL    HW2 6161   2.049   1.782   4.633
 2043SOL     OW 6162   2.359   1.568   4.619
 2043SOL    HW1 6163   2.430   1.629   4.656
 2043SOL    HW2 6164   2.399   1.510   4.548
 2044SOL     OW 6165   2.827   0.758   4.934
 2044SOL    HW1 6166   2.873   0.835   4.978
 2044SOL    HW2 6167   2.728   0.764   4.952
 2045SOL     OW 6168   1.962   0.688   4.836
 2045SOL    HW1 6169   2.017   0.642   4.766
 2045SOL    HW2 6170   2.004   0.674   4.926
 2046SOL     OW 6171   2.660   0.589   4.085
 2046SOL    HW1 6172   2.670   0.508   4.028
 2046SOL    HW2 6173   2.579   0.640   4.056
 2047SOL     OW 6174   3.550   0.623   4.820
 2047SOL    HW1 6175   3.544   0.554   4.892
 2047SOL    HW2 6176   3.646   0.648   4.806
 2048SOL     OW 6177   2.500   0.423   4.994
 2048SOL    HW1 6178   2.583   0.396   0.043
 2048SOL    HW2 6179   2.525   0.475   4.913
 2049SOL     OW 6180   2.284   0.512   3.900
 2049SOL    HW1 6181   2.357   0.577   3.922
 2049SOL    HW2 6182   2.196   0.558   3.903
 2050SOL     OW 6183   1.982   1.055   0.169
 2050SOL    HW1 6184   2.054   1.016   0.225
 2050SOL    HW2 6185   1.999   1.032   0.073
 2051SOL     OW 6186   3.151   1.029   4.859
 2051SOL    HW1 6187   3.143   0.960   4.787
 2051SOL    HW2 6188   3.078   1.096   4.849
 2052SOL     OW 6189   3.199   0.882   3.986
 2052SOL    HW1 6190   3.136   0.843   4.053
 2052SOL    HW2 6191   3.168   0.860   3.894
 2053SOL     OW 6192   3.568   1.725   4.798
 2053SOL    HW1 6193   3.655   1.737   4.751
 2053SOL    HW2 6194   3.549   1.627   4.808
 2054SOL     OW 6195   1.923   1.319   4.670
 2054SOL    HW1 6196   1.903   1.337   4.766
 2054SOL    HW2 6197   1.883   1.231   4.643
 2055SOL     OW 6198   3.584   0.148   4.182
 2055SOL    HW1 6199   3.638   0.165   4.099
 2055SOL    HW2 6200   3.644   0.115   4.255
 2056SOL     OW 6201   3.275   1.569   4.236
 2056SOL    HW1 6202   3.334   1.604   4.163
 2056SOL    HW2 6203   3.214   1.642   4.267
 2057SOL     OW 6204   3.135   0.943   4.360
 2057SOL    HW1 6205   3.208   0.880   4.383
 2057SOL    HW2 6206   3.171   1.018   4.304
 2058SOL     OW 6207   2.539   1.641   3.880
 2058SOL    HW1 6208   2.555   1.665   3.785
 2058SOL    HW2 6209   2.484   1.558   3.885
 2059SOL     OW 6210   3.476   1.845   0.026
 2059SOL    HW1 6211   3.514   1.804   4.943
 2059SOL    HW2 6212   3.518   1.935   0.041
 2060SOL     OW 6213   3.753   0.133   4.697
 2060SOL    HW1 6214   3.765   0.035   4.711
 2060SOL    HW2 6215   3.666   0.150   4.651
 2061SOL     OW 6216   2.096   0.309   4.439
 2061SOL    HW1 6217   2.012   0.359   4.414
 2061SOL    HW2 6218   2.103   0.305   4.539
 2062SOL     OW 6219   3.092   1.574   3.771
 2062SOL    HW1 6220   3.084   1.481   3.807
 2062SOL    HW2 6221   3.014   1.594   3.711
 2063SOL     OW 6222   2.633   0.971   0.013
 2063SOL    HW1 6223   2.613   1.022   4.930
 2063SOL    HW2 6224   2.727   0.991   0.043
 2064SOL     OW 6225   2.800   0.928   4.038
 2064SOL    HW1 6226   2.838   0.944   3.947
 2064SOL    HW2 6227   2.842   0.846   4.077
 2065SOL     OW 6228   3.360   1.648   3.785
 2065SOL    HW1 6229   3.265   1.621   3.772
 2065SOL    HW2 6230   3.405   1.657   3.696
 2066SOL     OW 6231   2.959   1.106   4.506
 2066SOL    HW1 6232   2.873   1.059   4.527
 2066SOL    HW2 6233   3.014   1.048   4.445
 2067SOL     OW 6234   2.920   0.268   4.675
 2067SOL    HW1 6235   2.902   0.200   4.603
 2067SOL    HW2 6236   2.915   0.224   4.764
 2068SOL     OW 6237   2.474   1.502   4.179
 2068SOL    HW1 6238   2.530   1.441   4.123
 2068SOL    HW2 6239   2.394   1.530   4.128
 2069SOL     OW 6240   3.579   0.445   0.026
 2069SOL    HW1 6241   3.632   0.501   0.090
 2069SOL    HW2 6242   3.635   0.368   4.995
 2070SOL     OW 6243   2.144   1.345   4.015
 2070SOL    HW1 6244   2.054   1.332   3.974
 2070SOL    HW2 6245   2.134   1.396   4.101
 2071SOL     OW 6246   1.970   0.366   3.701
 2071SOL    HW1 6247   1.884   0.357   3.653
 2071SOL    HW2 6248   2.012   0.454   3.679
 2072SOL     OW 6249   1.883   0.190   3.953
 2072SOL    HW1 6250   1.896   0.267   3.890
 2072SOL    HW2 6251   1.970   0.141   3.964
 2073SOL     OW 6252   3.048   1.317   3.860
 2073SOL    HW1 6253   2.950   1.302   3.848
 2073SOL    HW2 6254   3.069   1.322   3.958
 2074SOL     OW 6255   3.340   1.858   4.713
 2074SOL    HW1 6256   3.376   1.919   4.643
 2074SOL    HW2 6257   3.413   1.797   4.746
 2075SOL     OW 6258   3.523   0.871   4.944
 2075SOL    HW1 6259   3.522   0.783   4.896
 2075SOL    HW2 6260   3.495   0.944   4.882
 2076SOL     OW 6261   3.113   0.335   4.167
 2076SOL    HW1 6262   3.177   0.259   4.160
 2076SOL    HW2 6263   3.132   0.387   4.250
 2077SOL     OW 6264   2.432   0.727   4.403
 2077SOL    HW1 6265   2.479   0.815   4.392
 2077SOL    HW2 6266   2.363   0.718   4.331
 2078SOL     OW 6267   3.630   0.870   0.192
 2078SOL    HW1 6268   3.705   0.936   0.192
 2078SOL    HW2 6269   3.590   0.865   0.100
 2079SOL     OW 6270   2.758   1.346   3.812
 2079SOL    HW1 6271   2.713   1.353   3.901
 2079SOL    HW2 6272   2.764   1.437   3.771
 2080SOL     OW 6273   2.540   1.755   4.699
 2080SOL    HW1 6274   2.498   1.846   4.707
 2080SOL    HW2 6275   2.639   1.765   4.695
 2081SOL     OW 6276   2.732   0.967   4.588
 2081SOL    HW1 6277   2.777   0.880   4.610
 2081SOL    HW2 6278   2.676   0.997   4.665
 2082SOL     OW 6279   2.904   0.948   3.789
 2082SOL    HW1 6280   2.883   1.021   3.725
 2082SOL    HW2 6281   2.991   0.905   3.765
 2083SOL     OW 6282   3.720   1.546   4.533
 2083SOL    HW1 6283   3.627   1.536   4.497
 2083SOL    HW2 6284   3.747   1.461   4.578
 2084SOL     OW 6285   2.016   1.226   4.392
 2084SOL    HW1 6286   2.050   1.186   4.478
 2084SOL    HW2 6287   2.069   1.189   4.315
 2085SOL     OW 6288   3.717   0.230   4.950
 2085SOL    HW1 6289   3.710   0.148   0.007
 2085SOL    HW2 6290   3.732   0.204   4.855
 2086SOL     OW 6291   2.257   0.438   4.253
 2086SOL    HW1 6292   2.309   0.374   4.197
 2086SOL    HW2 6293   2.210   0.388   4.326
 2087SOL     OW 6294   3.520   1.463   4.822
 2087SOL    HW1 6295   3.457   1.410   4.764
 2087SOL    HW2 6296   3.533   1.415   4.909
 2088SOL     OW 6297   2.696   1.600   4.409
 2088SOL    HW1 6298   2.671   1.673   4.345
 2088SOL    HW2 6299   2.622   1.534   4.415
 2089SOL     OW 6300   3.342   0.215   4.812
 2089SOL    HW1 6301   3.375   0.125   4.840
 2089SOL    HW2 6302   3.331   0.273   4.892
 2090SOL     OW 6303   2.929   0.011   4.841
 2090SOL    HW1 6304   2.904   4.996   4.745
 2090SOL    HW2 6305   3.006   4.951   4.865
 2091SOL     OW 6306   2.650   1.323   4.065
 2091SOL    HW1 6307   2.623   1.228   4.082
 2091SOL    HW2 6308   2.728   1.347   4.123
 2092SOL     OW 6309   3.288   0.013   3.913
 2092SOL    HW1 6310   3.351   4.936   3.898
 2092SOL    HW2 6311   3.197   4.989   3.879
 2093SOL     OW 6312   3.172   0.474   4.397
 2093SOL    HW1 6313   3.117   0.558   4.392
 2093SOL    HW2 6314   3.169   0.438   4.490
 2094SOL     OW 6315   3.513   0.204   4.592
 2094SOL    HW1 6316   3.445   0.205   4.665
 2094SOL    HW2 6317   3.498   0.282   4.531
 2095SOL     OW 6318   1.901   1.037   4.016
 2095SOL    HW1 6319   1.999   1.021   4.002
 2095SOL    HW2 6320   1.856   0.950   4.034
 2096SOL     OW 6321   2.761   1.687   4.050
 2096SOL    HW1 6322   2.683   1.666   3.992
 2096SOL    HW2 6323   2.736   1.757   4.117
 2097SOL     OW 6324   2.081   2.450   0.068
 2097SOL    HW1 6325   2.002   2.462   0.128
 2097SOL    HW2 6326   2.075   2.362   0.021
 2098SOL     OW 6327   2.071   2.147   0.991
 2098SOL    HW1 6328   2.111   2.113   1.077
 2098SOL    HW2 6329   1.983   2.102   0.975
 2099SOL     OW 6330   1.836   2.280   0.634
 2099SOL    HW1 6331   1.752   2.298   0.685
 2099SOL    HW2 6332   1.819   2.210   0.565
 2100SOL     OW 6333   2.432   3.177   1.220
 2100SOL    HW1 6334   2.348   3.173   1.167
 2100SOL    HW2 6335   2.454   3.272   1.242
 2101SOL     OW 6336   3.474   3.363   0.717
 2101SOL    HW1 6337   3.420   3.336   0.797
 2101SOL    HW2 6338   3.412   3.386   0.641
 2102SOL     OW 6339   2.999   2.567   0.696
 2102SOL    HW1 6340   3.055   2.647   0.672
 2102SOL    HW2 6341   2.952   2.583   0.782
 2103SOL     OW 6342   3.693   2.475   0.201
 2103SOL    HW1 6343   3.663   2.570   0.190
 2103SOL    HW2 6344   3.643   2.433   0.277
 2104SOL     OW 6345   2.578   2.990   1.062
 2104SOL    HW1 6346   2.520   3.027   1.135
 2104SOL    HW2 6347   2.619   3.066   1.011
 2105SOL     OW 6348   2.760   2.589   1.822
 2105SOL    HW1 6349   2.768   2.651   1.900
 2105SOL    HW2 6350   2.776   2.639   1.737
 2106SOL     OW 6351   2.542   2.837   0.672
 2106SOL    HW1 6352   2.616   2.837   0.739
 2106SOL    HW2 6353   2.473   2.905   0.698
 2107SOL     OW 6354   2.571   3.021   1.841
 2107SOL    HW1 6355   2.631   3.089   1.884
 2107SOL    HW2 6356   2.492   3.067   1.801
 2108SOL     OW 6357   2.200   3.250   1.067
 2108SOL    HW1 6358   2.118   3.211   1.025
 2108SOL    HW2 6359   2.247   3.307   1.000
 2109SOL     OW 6360   3.303   3.373   1.383
 2109SOL    HW1 6361   3.362   3.454   1.392
 2109SOL    HW2 6362   3.225   3.381   1.445
 2110SOL     OW 6363   2.338   2.223   1.442
 2110SOL    HW1 6364   2.418   2.164   1.457
 2110SOL    HW2 6365   2.256   2.177   1.476
 2111SOL     OW 6366   3.428   2.301   0.749
 2111SOL    HW1 6367   3.353   2.300   0.682
 2111SOL    HW2 6368   3.411   2.373   0.817
 2112SOL     OW 6369   2.077   3.585   0.486
 2112SOL    HW1 6370   2.097   3.664   0.545
 2112SOL    HW2 6371   2.161   3.556   0.440
 2113SOL     OW 6372   2.990   3.202   1.703
 2113SOL    HW1 6373   3.047   3.188   1.784
 2113SOL    HW2 6374   2.930   3.122   1.690
 2114SOL     OW 6375   2.137   3.327   0.571
 2114SOL    HW1 6376   2.092   3.417   0.570
 2114SOL    HW2 6377   2.086   3.266   0.632
 2115SOL     OW 6378   2.160   2.950   0.909
 2115SOL    HW1 6379   2.165   2.853   0.932
 2115SOL    HW2 6380   2.094   2.995   0.970
 2116SOL     OW 6381   2.417   3.672   1.423
 2116SOL    HW1 6382   2.339   3.650   1.481
 2116SOL    HW2 6383   2.462   3.754   1.457
 2117SOL     OW 6384   2.447   2.808   0.203
 2117SOL    HW1 6385   2.511   2.812   0.126
 2117SOL    HW2 6386   2.484   2.859   0.280
 2118SOL     OW 6387   3.438   2.000   1.464
 2118SOL    HW1 6388   3.491   2.077   1.429
 2118SOL    HW2 6389   3.394   2.025   1.550
 2119SOL     OW 6390   1.961   2.531   0.579
 2119SOL    HW1 6391   1.924   2.440   0.599
 2119SOL    HW2 6392   1.961   2.586   0.663
 2120SOL     OW 6393   3.712   3.597   0.336
 2120SOL    HW1 6394   3.788   3.579   0.398
 2120SOL    HW2 6395   3.722   3.688   0.295
 2121SOL     OW 6396   1.951   3.445   0.097
 2121SOL    HW1 6397   1.963   3.356   0.142
 2121SOL    HW2 6398   1.910   3.510   0.161
 2122SOL     OW 6399   3.544   2.835   0.694
 2122SOL    HW1 6400   3.585   2.795   0.613
 2122SOL    HW2 6401   3.531   2.934   0.680
 2123SOL     OW 6402   3.488   2.989   0.444
 2123SOL    HW1 6403   3.542   2.906   0.429
 2123SOL    HW2 6404   3.538   3.051   0.504
 2124SOL     OW 6405   1.983   2.614   1.567
 2124SOL    HW1 6406   2.068   2.667   1.574
 2124SOL    HW2 6407   1.907   2.676   1.547
 2125SOL     OW 6408   2.487   3.254   0.724
 2125SOL    HW1 6409   2.441   3.166   0.737
 2125SOL    HW2 6410   2.479   3.282   0.629
 2126SOL     OW 6411   3.114   3.076   1.422
 2126SOL    HW1 6412   3.135   3.004   1.355
 2126SOL    HW2 6413   3.183   3.076   1.494
 2127SOL     OW 6414   2.683   1.876   0.526
 2127SOL    HW1 6415   2.734   1.956   0.497
 2127SOL    HW2 6416   2.585   1.896   0.524
 2128SOL     OW 6417   2.063   2.809   1.294
 2128SOL    HW1 6418   2.154   2.769   1.283
 2128SOL    HW2 6419   1.999   2.766   1.230
 2129SOL     OW 6420   3.361   2.863   0.181
 2129SOL    HW1 6421   3.315   2.812   0.254
 2129SOL    HW2 6422   3.456   2.835   0.176
 2130SOL     OW 6423   3.043   3.679   1.632
 2130SOL    HW1 6424   3.045   3.748   1.561
 2130SOL    HW2 6425   3.055   3.588   1.591
 2131SOL     OW 6426   2.216   2.126   1.884
 2131SOL    HW1 6427   2.252   2.208   1.927
 2131SOL    HW2 6428   2.118   2.138   1.867
 2132SOL     OW 6429   3.312   3.279   0.922
 2132SOL    HW1 6430   3.260   3.304   1.003
 2132SOL    HW2 6431   3.299   3.182   0.902
 2133SOL     OW 6432   3.485   3.696   0.558
 2133SOL    HW1 6433   3.479   3.632   0.482
 2133SOL    HW2 6434   3.507   3.647   0.642
 2134SOL     OW 6435   2.448   2.557   0.317
 2134SOL    HW1 6436   2.463   2.649   0.279
 2134SOL    HW2 6437   2.380   2.563   0.390
 2135SOL     OW 6438   3.144   2.252   0.948
 2135SOL    HW1 6439   3.052   2.211   0.949
 2135SOL    HW2 6440   3.204   2.199   1.008
 2136SOL     OW 6441   3.450   3.527   0.345
 2136SOL    HW1 6442   3.549   3.538   0.338
 2136SOL    HW2 6443   3.412   3.512   0.254
 2137SOL     OW 6444   2.661   2.442   1.439
 2137SOL    HW1 6445   2.629   2.418   1.531
 2137SOL    HW2 6446   2.631   2.372   1.374
 2138SOL     OW 6447   3.247   2.328   1.665
 2138SOL    HW1 6448   3.251   2.379   1.751
 2138SOL    HW2 6449   3.290   2.239   1.676
 2139SOL     OW 6450   2.809   2.738   1.589
 2139SOL    HW1 6451   2.865   2.672   1.540
 2139SOL    HW2 6452   2.754   2.791   1.524
 2140SOL     OW 6453   2.867   2.247   1.193
 2140SOL    HW1 6454   2.772   2.257   1.220
 2140SOL    HW2 6455   2.873   2.195   1.108
 2141SOL     OW 6456   2.910   2.563   0.434
 2141SOL    HW1 6457   2.932   2.558   0.532
 2141SOL    HW2 6458   2.826   2.512   0.416
 2142SOL     OW 6459   1.965   2.690   0.798
 2142SOL    HW1 6460   2.052   2.686   0.848
 2142SOL    HW2 6461   1.908   2.763   0.835
 2143SOL     OW 6462   1.964   3.757   1.594
 2143SOL    HW1 6463   1.972   3.733   1.690
 2143SOL    HW2 6464   1.873   3.733   1.560
 2144SOL     OW 6465   2.743   2.198   0.214
 2144SOL    HW1 6466   2.798   2.261   0.160
 2144SOL    HW2 6467   2.728   2.114   0.162
 2145SOL     OW 6468   3.526   2.422   1.835
 2145SOL    HW1 6469   3.516   2.505   1.779
 2145SOL    HW2 6470   3.550   2.345   1.776
 2146SOL     OW 6471   3.254   3.026   0.583
 2146SOL    HW1 6472   3.334   3.014   0.524
 2146SOL    HW2 6473   3.193   3.094   0.543
 2147SOL     OW 6474   2.420   1.994   0.927
 2147SOL    HW1 6475   2.427   2.019   1.023
 2147SOL    HW2 6476   2.417   2.077   0.871
 2148SOL     OW 6477   2.839   3.333   0.480
 2148SOL    HW1 6478   2.819   3.406   0.414
 2148SOL    HW2 6479   2.800   3.358   0.569
 2149SOL     OW 6480   2.219   3.664   0.888
 2149SOL    HW1 6481   2.260   3.573   0.890
 2149SOL    HW2 6482   2.286   3.732   0.917
 2150SOL     OW 6483   3.673   2.899   0.925
 2150SOL    HW1 6484   3.629   2.877   0.838
 2150SOL    HW2 6485   3.603   2.916   0.994
 2151SOL     OW 6486   3.060   3.399   1.518
 2151SOL    HW1 6487   3.051   3.329   1.588
 2151SOL    HW2 6488   2.999   3.378   1.441
 2152SOL     OW 6489   2.194   2.791   0.319
 2152SOL    HW1 6490   2.282   2.805   0.274
 2152SOL    HW2 6491   2.196   2.707   0.372
 2153SOL     OW 6492   3.365   2.624   0.708
 2153SOL    HW1 6493   3.352   2.581   0.797
 2153SOL    HW2 6494   3.434   2.695   0.715
 2154SOL     OW 6495   2.332   3.156   1.749
 2154SOL    HW1 6496   2.309   3.164   1.652
 2154SOL    HW2 6497   2.250   3.133   1.801
 2155SOL     OW 6498   2.903   3.627   0.113
 2155SOL    HW1 6499   2.857   3.597   0.197
 2155SOL    HW2 6500   2.979   3.565   0.093
 2156SOL     OW 6501   2.083   2.121   1.492
 2156SOL    HW1 6502   2.018   2.197   1.494
 2156SOL    HW2 6503   2.042   2.041   1.536
 2157SOL     OW 6504   3.523   3.241   0.174
 2157SOL    HW1 6505   3.489   3.335   0.162
 2157SOL    HW2 6506   3.449   3.177   0.155
 2158SOL     OW 6507   2.329   3.563   0.368
 2158SOL    HW1 6508   2.365   3.640   0.421
 2158SOL    HW2 6509   2.393   3.539   0.296
 2159SOL     OW 6510   3.251   1.950   0.480
 2159SOL    HW1 6511   3.240   1.916   0.387
 2159SOL    HW2 6512   3.345   1.931   0.511
 2160SOL     OW 6513   2.094   3.645   1.207
 2160SOL    HW1 6514   2.145   3.566   1.239
 2160SOL    HW2 6515   2.058   3.627   1.115
 2161SOL     OW 6516   2.821   3.555   0.901
 2161SOL    HW1 6517   2.910   3.513   0.916
 2161SOL    HW2 6518   2.773   3.507   0.829
 2162SOL     OW 6519   2.216   2.557   0.479
 2162SOL    HW1 6520   2.243   2.461   0.488
 2162SOL    HW2 6521   2.122   2.569   0.512
 2163SOL     OW 6522   3.337   2.068   1.720
 2163SOL    HW1 6523   3.354   2.090   1.816
 2163SOL    HW2 6524   3.267   1.996   1.715
 2164SOL     OW 6525   2.468   2.004   0.098
 2164SOL    HW1 6526   2.562   1.969   0.094
 2164SOL    HW2 6527   2.458   2.080   0.034
 2165SOL     OW 6528   2.629   2.129   1.747
 2165SOL    HW1 6529   2.716   2.081   1.746
 2165SOL    HW2 6530   2.570   2.091   1.818
 2166SOL     OW 6531   2.717   3.379   1.182
 2166SOL    HW1 6532   2.698   3.330   1.097
 2166SOL    HW2 6533   2.786   3.329   1.234
 2167SOL     OW 6534   3.176   2.450   1.430
 2167SOL    HW1 6535   3.211   2.416   1.517
 2167SOL    HW2 6536   3.212   2.541   1.413
 2168SOL     OW 6537   2.669   3.225   0.946
 2168SOL    HW1 6538   2.763   3.221   0.910
 2168SOL    HW2 6539   2.606   3.242   0.870
 2169SOL     OW 6540   2.786   2.373   0.886
 2169SOL    HW1 6541   2.764   2.361   0.789
 2169SOL    HW2 6542   2.819   2.287   0.924
 2170SOL     OW 6543   2.416   1.940   0.496
 2170SOL    HW1 6544   2.336   1.939   0.556
 2170SOL    HW2 6545   2.414   2.021   0.438
 2171SOL     OW 6546   3.290   3.111   0.098
 2171SOL    HW1 6547   3.315   3.018   0.123
 2171SOL    HW2 6548   3.205   3.137   0.145
 2172SOL     OW 6549   2.215   1.930   0.199
 2172SOL    HW1 6550   2.306   1.953   0.165
 2172SOL    HW2 6551   2.218   1.843   0.248
 2173SOL     OW 6552   2.825   2.099   0.457
 2173SOL    HW1 6553   2.790   2.135   0.371
 2173SOL    HW2 6554   2.923   2.117   0.464
 2174SOL     OW 6555   2.918   2.552   1.424
 2174SOL    HW1 6556   2.842   2.488   1.433
 2174SOL    HW2 6557   3.005   2.503   1.425
 2175SOL     OW 6558   3.076   3.429   0.809
 2175SOL    HW1 6559   3.086   3.504   0.743
 2175SOL    HW2 6560   3.166   3.399   0.839
 2176SOL     OW 6561   2.345   3.020   0.724
 2176SOL    HW1 6562   2.284   2.997   0.799
 2176SOL    HW2 6563   2.294   3.018   0.638
 2177SOL     OW 6564   3.098   3.645   0.631
 2177SOL    HW1 6565   3.149   3.707   0.572
 2177SOL    HW2 6566   3.019   3.694   0.670
 2178SOL     OW 6567   2.916   2.362   0.083
 2178SOL    HW1 6568   2.895   2.435   0.018
 2178SOL    HW2 6569   2.982   2.395   0.150
 2179SOL     OW 6570   1.974   2.397   1.400
 2179SOL    HW1 6571   2.067   2.396   1.363
 2179SOL    HW2 6572   1.965   2.473   1.464
 2180SOL     OW 6573   2.427   2.050   1.193
 2180SOL    HW1 6574   2.460   1.976   1.252
 2180SOL    HW2 6575   2.330   2.064   1.209
 2181SOL     OW 6576   2.741   2.309   0.626
 2181SOL    HW1 6577   2.702   2.367   0.555
 2181SOL    HW2 6578   2.771   2.222   0.587
 2182SOL     OW 6579   2.867   1.914   0.743
 2182SOL    HW1 6580   2.802   1.908   0.668
 2182SOL    HW2 6581   2.850   1.840   0.808
 2183SOL     OW 6582   3.277   3.009   0.869
 2183SOL    HW1 6583   3.210   2.939   0.897
 2183SOL    HW2 6584   3.277   3.017   0.770
 2184SOL     OW 6585   3.313   2.484   0.945
 2184SOL    HW1 6586   3.246   2.410   0.955
 2184SOL    HW2 6587   3.378   2.480   1.021
 2185SOL     OW 6588   3.645   2.746   0.454
 2185SOL    HW1 6589   3.700   2.672   0.491
 2185SOL    HW2 6590   3.637   2.737   0.355
 2186SOL     OW 6591   2.388   3.270   0.156
 2186SOL    HW1 6592   2.310   3.247   0.215
 2186SOL    HW2 6593   2.383   3.215   0.072
 2187SOL     OW 6594   3.601   3.119   0.654
 2187SOL    HW1 6595   3.700   3.119   0.667
 2187SOL    HW2 6596   3.565   3.211   0.671
 2188SOL     OW 6597   3.263   2.436   0.087
 2188SOL    HW1 6598   3.211   2.416   0.170
 2188SOL    HW2 6599   3.330   2.364   0.071
 2189SOL     OW 6600   2.403   2.154   0.321
 2189SOL    HW1 6601   2.440   2.091   0.252
 2189SOL    HW2 6602   2.372   2.237   0.276
 2190SOL     OW 6603   3.599   3.106   1.531
 2190SOL    HW1 6604   3.688   3.065   1.511
 2190SOL    HW2 6605   3.613   3.196   1.573
 2191SOL     OW 6606   2.888   3.218   1.345
 2191SOL    HW1 6607   2.802   3.188   1.386
 2191SOL    HW2 6608   2.964   3.167   1.386
 2192SOL     OW 6609   3.484   3.512   1.672
 2192SOL    HW1 6610   3.464   3.549   1.581
 2192SOL    HW2 6611   3.561   3.449   1.666
 2193SOL     OW 6612   3.005   3.117   1.115
 2193SOL    HW1 6613   2.944   3.151   1.187
 2193SOL    HW2 6614   2.969   3.145   1.026
 2194SOL     OW 6615   3.460   2.958   1.089
 2194SOL    HW1 6616   3.452   3.026   1.162
 2194SOL    HW2 6617   3.393   2.976   1.018
 2195SOL     OW 6618   2.792   1.926   1.382
 2195SOL    HW1 6619   2.811   1.906   1.286
 2195SOL    HW2 6620   2.870   1.973   1.423
 2196SOL     OW 6621   2.826   2.979   1.717
 2196SOL    HW1 6622   2.733   2.995   1.750
 2196SOL    HW2 6623   2.829   2.893   1.667
 2197SOL     OW 6624   2.591   2.912   0.411
 2197SOL    HW1 6625   2.573   2.887   0.505
 2197SOL    HW2 6626   2.677   2.871   0.381
 2198SOL     OW 6627   2.300   2.670   1.268
 2198SOL    HW1 6628   2.373   2.681   1.335
 2198SOL    HW2 6629   2.264   2.577   1.271
 2199SOL     OW 6630   3.118   2.224   1.291
 2199SOL    HW1 6631   3.146   2.307   1.339
 2199SOL    HW2 6632   3.026   2.236   1.254
 2200SOL     OW 6633   1.929   3.418   1.357
 2200SOL    HW1 6634   1.886   3.487   1.299
 2200SOL    HW2 6635   2.029   3.424   1.347
 2201SOL     OW 6636   2.186   3.005   0.498
 2201SOL    HW1 6637   2.193   3.085   0.437
 2201SOL    HW2 6638   2.180   2.922   0.443
 2202SOL     OW 6639   2.388   2.388   0.865
 2202SOL    HW1 6640   2.397   2.449   0.787
 2202SOL    HW2 6641   2.461   2.406   0.931
 2203SOL     OW 6642   3.096   3.229   0.472
 2203SOL    HW1 6643   3.160   3.301   0.498
 2203SOL    HW2 6644   3.002   3.260   0.489
 2204SOL     OW 6645   3.174   3.334   1.146
 2204SOL    HW1 6646   3.222   3.344   1.234
 2204SOL    HW2 6647   3.117   3.252   1.148
 2205SOL     OW 6648   3.383   2.489   0.458
 2205SOL    HW1 6649   3.389   2.526   0.550
 2205SOL    HW2 6650   3.331   2.552   0.400
 2206SOL     OW 6651   2.201   3.397   1.293
 2206SOL    HW1 6652   2.192   3.338   1.213
 2206SOL    HW2 6653   2.297   3.421   1.306
 2207SOL     OW 6654   2.338   2.588   1.645
 2207SOL    HW1 6655   2.385   2.633   1.569
 2207SOL    HW2 6656   2.394   2.513   1.679
 2208SOL     OW 6657   3.495   2.651   1.692
 2208SOL    HW1 6658   3.403   2.690   1.683
 2208SOL    HW2 6659   3.552   2.682   1.616
 2209SOL     OW 6660   2.860   1.988   1.753
 2209SOL    HW1 6661   2.918   2.069   1.742
 2209SOL    HW2 6662   2.913   1.906   1.731
 2210SOL     OW 6663   2.352   1.912   1.772
 2210SOL    HW1 6664   2.299   1.858   1.707
 2210SOL    HW2 6665   2.300   1.994   1.798
 2211SOL     OW 6666   2.459   2.729   1.048
 2211SOL    HW1 6667   2.497   2.822   1.047
 2211SOL    HW2 6668   2.401   2.718   1.129
 2212SOL     OW 6669   3.150   2.719   0.990
 2212SOL    HW1 6670   3.056   2.687   0.974
 2212SOL    HW2 6671   3.214   2.644   0.974
 2213SOL     OW 6672   3.086   2.403   0.298
 2213SOL    HW1 6673   3.105   2.323   0.356
 2213SOL    HW2 6674   3.032   2.469   0.349
 2214SOL     OW 6675   2.156   2.051   1.234
 2214SOL    HW1 6676   2.128   2.083   1.324
 2214SOL    HW2 6677   2.134   1.954   1.225
 2215SOL     OW 6678   1.923   3.160   1.259
 2215SOL    HW1 6679   1.953   3.100   1.333
 2215SOL    HW2 6680   1.914   3.254   1.294
 2216SOL     OW 6681   2.577   2.476   1.044
 2216SOL    HW1 6682   2.654   2.458   0.982
 2216SOL    HW2 6683   2.546   2.570   1.032
 2217SOL     OW 6684   3.617   2.835   1.863
 2217SOL    HW1 6685   3.575   2.760   1.812
 2217SOL    HW2 6686   3.556   2.863   1.937
 2218SOL     OW 6687   2.184   1.933   0.643
 2218SOL    HW1 6688   2.144   2.023   0.660
 2218SOL    HW2 6689   2.193   1.883   0.729
 2219SOL     OW 6690   3.454   2.257   0.324
 2219SOL    HW1 6691   3.510   2.198   0.382
 2219SOL    HW2 6692   3.426   2.338   0.376
 2220SOL     OW 6693   2.888   2.616   0.956
 2220SOL    HW1 6694   2.862   2.637   1.050
 2220SOL    HW2 6695   2.857   2.524   0.932
 2221SOL     OW 6696   2.846   3.425   1.772
 2221SOL    HW1 6697   2.812   3.483   1.697
 2221SOL    HW2 6698   2.885   3.342   1.733
 2222SOL     OW 6699   3.702   3.354   1.606
 2222SOL    HW1 6700   3.724   3.380   1.512
 2222SOL    HW2 6701   3.784   3.366   1.664
 2223SOL     OW 6702   2.226   2.780   1.810
 2223SOL    HW1 6703   2.294   2.806   1.879
 2223SOL    HW2 6704   2.265   2.709   1.751
 2224SOL     OW 6705   3.333   2.131   0.109
 2224SOL    HW1 6706   3.235   2.130   0.128
 2224SOL    HW2 6707   3.382   2.172   0.187
 2225SOL     OW 6708   3.144   2.681   0.073
 2225SOL    HW1 6709   3.187   2.592   0.064
 2225SOL    HW2 6710   3.203   2.751   0.034
 2226SOL     OW 6711   2.926   3.207   0.866
 2226SOL    HW1 6712   2.948   3.125   0.813
 2226SOL    HW2 6713   2.981   3.284   0.833
 2227SOL     OW 6714   2.195   2.676   0.951
 2227SOL    HW1 6715   2.293   2.691   0.958
 2227SOL    HW2 6716   2.174   2.581   0.976
 2228SOL     OW 6717   2.160   2.399   1.005
 2228SOL    HW1 6718   2.115   2.310   0.999
 2228SOL    HW2 6719   2.242   2.399   0.948
 2229SOL     OW 6720   2.997   2.219   1.696
 2229SOL    HW1 6721   2.948   2.268   1.768
 2229SOL    HW2 6722   3.084   2.264   1.679
 2230SOL     OW 6723   3.019   2.048   1.479
 2230SOL    HW1 6724   3.003   2.109   1.556
 2230SOL    HW2 6725   3.064   2.099   1.405
 2231SOL     OW 6726   1.932   3.182   0.206
 2231SOL    HW1 6727   1.833   3.199   0.214
 2231SOL    HW2 6728   1.949   3.084   0.202
 2232SOL     OW 6729   1.960   3.612   0.959
 2232SOL    HW1 6730   1.926   3.529   0.916
 2232SOL    HW2 6731   2.050   3.635   0.922
 2233SOL     OW 6732   2.348   3.418   0.902
 2233SOL    HW1 6733   2.421   3.480   0.931
 2233SOL    HW2 6734   2.382   3.357   0.831
 2234SOL     OW 6735   2.786   2.655   1.204
 2234SOL    HW1 6736   2.846   2.632   1.281
 2234SOL    HW2 6737   2.702   2.602   1.210
 2235SOL     OW 6738   1.905   2.458   1.135
 2235SOL    HW1 6739   1.986   2.450   1.076
 2235SOL    HW2 6740   1.930   2.437   1.229
 2236SOL     OW 6741   2.061   2.418   1.747
 2236SOL    HW1 6742   2.150   2.394   1.707
 2236SOL    HW2 6743   2.018   2.488   1.691
 2237SOL     OW 6744   3.261   2.783   1.635
 2237SOL    HW1 6745   3.279   2.882   1.634
 2237SOL    HW2 6746   3.247   2.751   1.542
 2238SOL     OW 6747   2.682   2.422   0.378
 2238SOL    HW1 6748   2.688   2.341   0.319
 2238SOL    HW2 6749   2.597   2.471   0.358
 2239SOL     OW 6750   3.498   2.469   1.148
 2239SOL    HW1 6751   3.474   2.403   1.219
 2239SOL    HW2 6752   3.596   2.465   1.130
 2240SOL     OW 6753   2.088   3.396   1.734
 2240SOL    HW1 6754   2.055   3.440   1.818
 2240SOL    HW2 6755   2.102   3.299   1.751
 2241SOL     OW 6756   2.595   2.274   1.231
 2241SOL    HW1 6757   2.532   2.197   1.221
 2241SOL    HW2 6758   2.574   2.343   1.162
 2242SOL     OW 6759   2.729   3.566   1.545
 2242SOL    HW1 6760   2.693   3.498   1.480
 2242SOL    HW2 6761   2.758   3.648   1.495
 2243SOL     OW 6762   2.333   2.370   0.160
 2243SOL    HW1 6763   2.381   2.439   0.214
 2243SOL    HW2 6764   2.241   2.402   0.140
 2244SOL     OW 6765   2.000   3.000   1.476
 2244SOL    HW1 6766   2.002   2.961   1.568
 2244SOL    HW2 6767   2.025   2.929   1.410
 2245SOL     OW 6768   3.135   2.892   1.203
 2245SOL    HW1 6769   3.145   2.827   1.128
 2245SOL    HW2 6770   3.088   2.974   1.170
 2246SOL     OW 6771   3.218   2.688   0.343
 2246SOL    HW1 6772   3.148   2.707   0.412
 2246SOL    HW2 6773   3.175   2.674   0.254
 2247SOL     OW 6774   3.631   3.574   1.167
 2247SOL    HW1 6775   3.700   3.597   1.099
 2247SOL    HW2 6776   3.591   3.485   1.146
 2248SOL     OW 6777   3.124   3.605   1.108
 2248SOL    HW1 6778   3.213   3.640   1.081
 2248SOL    HW2 6779   3.129   3.506   1.122
 2249SOL     OW 6780   1.950   3.120   0.994
 2249SOL    HW1 6781   1.932   3.134   1.091
 2249SOL    HW2 6782   1.890   3.049   0.958
 2250SOL     OW 6783   2.550   3.572   1.753
 2250SOL    HW1 6784   2.479   3.642   1.745
 2250SOL    HW2 6785   2.618   3.585   1.681
 2251SOL     OW 6786   2.740   1.954   0.069
 2251SOL    HW1 6787   2.758   1.960   4.971
 2251SOL    HW2 6788   2.810   1.898   0.113
 2252SOL     OW 6789   3.624   2.082   0.464
 2252SOL    HW1 6790   3.687   2.055   0.391
 2252SOL    HW2 6791   3.581   2.001   0.503
 2253SOL     OW 6792   3.268   3.438   0.535
 2253SOL    HW1 6793   3.326   3.468   0.459
 2253SOL    HW2 6794   3.207   3.512   0.561
 2254SOL     OW 6795   1.990   3.670   1.847
 2254SOL    HW1 6796   1.944   3.588   1.881
 2254SOL    HW2 6797   2.050   3.707   1.918
 2255SOL     OW 6798   3.152   2.780   0.632
 2255SOL    HW1 6799   3.230   2.721   0.653
 2255SOL    HW2 6800   3.186   2.871   0.605
 2256SOL     OW 6801   2.630   3.149   1.425
 2256SOL    HW1 6802   2.606   3.201   1.507
 2256SOL    HW2 6803   2.555   3.154   1.359
 2257SOL     OW 6804   2.518   3.502   0.177
 2257SOL    HW1 6805   2.503   3.555   0.093
 2257SOL    HW2 6806   2.476   3.412   0.167
 2258SOL     OW 6807   3.466   3.601   1.401
 2258SOL    HW1 6808   3.523   3.591   1.320
 2258SOL    HW2 6809   3.446   3.698   1.418
 2259SOL     OW 6810   3.709   2.010   0.959
 2259SOL    HW1 6811   3.736   1.916   0.939
 2259SOL    HW2 6812   3.617   2.026   0.923
 2260SOL     OW 6813   2.086   2.179   0.710
 2260SOL    HW1 6814   1.998   2.218   0.683
 2260SOL    HW2 6815   2.092   2.176   0.810
 2261SOL     OW 6816   3.105   3.437   0.056
 2261SOL    HW1 6817   3.084   3.365   0.123
 2261SOL    HW2 6818   3.121   3.396   4.967
 2262SOL     OW 6819   2.680   2.878   1.394
 2262SOL    HW1 6820   2.721   2.865   1.304
 2262SOL    HW2 6821   2.664   2.976   1.409
 2263SOL     OW 6822   2.819   2.799   0.321
 2263SOL    HW1 6823   2.861   2.814   0.231
 2263SOL    HW2 6824   2.857   2.717   0.363
 2264SOL     OW 6825   3.377   3.472   0.082
 2264SOL    HW1 6826   3.278   3.459   0.080
 2264SOL    HW2 6827   3.417   3.432   5.000
 2265SOL     OW 6828   2.222   3.182   1.501
 2265SOL    HW1 6829   2.216   3.257   1.435
 2265SOL    HW2 6830   2.146   3.118   1.486
 2266SOL     OW 6831   3.449   3.151   1.296
 2266SOL    HW1 6832   3.510   3.124   1.370
 2266SOL    HW2 6833   3.385   3.221   1.328
 2267SOL     OW 6834   2.961   2.961   0.756
 2267SOL    HW1 6835   2.877   2.918   0.787
 2267SOL    HW2 6836   3.016   2.894   0.706
 2268SOL     OW 6837   2.900   2.102   0.957
 2268SOL    HW1 6838   2.891   2.064   0.865
 2268SOL    HW2 6839   2.899   2.028   1.024
 2269SOL     OW 6840   2.478   3.333   0.468
 2269SOL    HW1 6841   2.513   3.281   0.390
 2269SOL    HW2 6842   2.401   3.390   0.438
 2270SOL     OW 6843   3.631   2.210   1.409
 2270SOL    HW1 6844   3.697   2.285   1.401
 2270SOL    HW2 6845   3.651   2.140   1.341
 2271SOL     OW 6846   2.176   3.223   0.326
 2271SOL    HW1 6847   2.087   3.215   0.282
 2271SOL    HW2 6848   2.167   3.272   0.413
 2272SOL     OW 6849   1.990   2.894   1.729
 2272SOL    HW1 6850   1.908   2.868   1.780
 2272SOL    HW2 6851   2.069   2.845   1.767
 2273SOL     OW 6852   2.560   2.045   1.491
 2273SOL    HW1 6853   2.644   2.013   1.448
 2273SOL    HW2 6854   2.581   2.081   1.582
 2274SOL     OW 6855   3.258   2.709   1.372
 2274SOL    HW1 6856   3.199   2.769   1.320
 2274SOL    HW2 6857   3.351   2.714   1.336
 2275SOL     OW 6858   1.943   2.000   0.249
 2275SOL    HW1 6859   1.905   2.034   0.163
 2275SOL    HW2 6860   2.041   1.984   0.237
 2276SOL     OW 6861   3.052   3.209   0.200
 2276SOL    HW1 6862   2.956   3.191   0.177
 2276SOL    HW2 6863   3.063   3.205   0.300
 2277SOL     OW 6864   2.507   2.673   1.440
 2277SOL    HW1 6865   2.564   2.754   1.430
 2277SOL    HW2 6866   2.565   2.591   1.442
 2278SOL     OW 6867   3.378   3.686   1.046
 2278SOL    HW1 6868   3.401   3.753   0.975
 2278SOL    HW2 6869   3.462   3.644   1.081
 2279SOL     OW 6870   2.582   2.403   1.699
 2279SOL    HW1 6871   2.640   2.462   1.755
 2279SOL    HW2 6872   2.600   2.307   1.722
 2280SOL     OW 6873   3.328   3.049   1.618
 2280SOL    HW1 6874   3.316   3.070   1.715
 2280SOL    HW2 6875   3.421   3.072   1.590
 2281SOL     OW 6876   2.206   3.616   1.596
 2281SOL    HW1 6877   2.123   3.668   1.576
 2281SOL    HW2 6878   2.181   3.528   1.637
 2282SOL     OW 6879   3.504   2.733   1.249
 2282SOL    HW1 6880   3.507   2.647   1.199
 2282SOL    HW2 6881   3.491   2.809   1.185
 2283SOL     OW 6882   3.093   2.171   0.458
 2283SOL    HW1 6883   3.154   2.092   0.462
 2283SOL    HW2 6884   3.107   2.227   0.540
 2284SOL     OW 6885   2.413   2.589   0.681
 2284SOL    HW1 6886   2.464   2.675   0.675
 2284SOL    HW2 6887   2.337   2.591   0.617
 2285SOL     OW 6888   3.585   2.198   1.681
 2285SOL    HW1 6889   3.602   2.204   1.583
 2285SOL    HW2 6890   3.505   2.140   1.698
 2286SOL     OW 6891   3.630   2.771   1.490
 2286SOL    HW1 6892   3.624   2.868   1.513
 2286SOL    HW2 6893   3.590   2.756   1.399
 2287SOL     OW 6894   2.789   3.198   0.077
 2287SOL    HW1 6895   2.741   3.173   0.161
 2287SOL    HW2 6896   2.749   3.282   0.040
 2288SOL     OW 6897   2.537   3.608   0.941
 2288SOL    HW1 6898   2.511   3.704   0.937
 2288SOL    HW2 6899   2.636   3.600   0.945
 2289SOL     OW 6900   2.737   2.840   0.871
 2289SOL    HW1 6901   2.786   2.759   0.903
 2289SOL    HW2 6902   2.688   2.883   0.948
 2290SOL     OW 6903   2.918   2.831   0.057
 2290SOL    HW1 6904   2.938   2.917   0.010
 2290SOL    HW2 6905   3.002   2.777   0.066
 2291SOL     OW 6906   3.726   3.383   0.849
 2291SOL    HW1 6907   3.640   3.377   0.799
 2291SOL    HW2 6908   3.746   3.294   0.891
 2292SOL     OW 6909   2.069   3.134   1.832
 2292SOL    HW1 6910   2.043   3.050   1.784
 2292SOL    HW2 6911   2.008   3.149   1.909
 2293SOL     OW 6912   2.016   3.108   0.693
 2293SOL    HW1 6913   2.036   3.067   0.781
 2293SOL    HW2 6914   2.067   3.061   0.621
 2294SOL     OW 6915   2.548   3.302   1.644
 2294SOL    HW1 6916   2.469   3.255   1.682
 2294SOL    HW2 6917   2.555   3.394   1.683
 2295SOL     OW 6918   3.675   2.012   1.232
 2295SOL    HW1 6919   3.677   1.913   1.249
 2295SOL    HW2 6920   3.690   2.029   1.135
 2296SOL     OW 6921   2.263   2.298   0.519
 2296SOL    HW1 6922   2.313   2.230   0.465
 2296SOL    HW2 6923   2.209   2.251   0.589
 2297SOL     OW 6924   3.521   3.339   1.104
 2297SOL    HW1 6925   3.457   3.322   1.030
 2297SOL    HW2 6926   3.513   3.267   1.172
 2298SOL     OW 6927   2.219   2.409   1.282
 2298SOL    HW1 6928   2.275   2.344   1.332
 2298SOL    HW2 6929   2.218   2.385   1.185
 2299SOL     OW 6930   2.690   3.453   0.686
 2299SOL    HW1 6931   2.658   3.531   0.632
 2299SOL    HW2 6932   2.615   3.388   0.698
 2300SOL     OW 6933   3.293   2.102   1.122
 2300SOL    HW1 6934   3.310   2.005   1.142
 2300SOL    HW2 6935   3.237   2.141   1.194
 2301SOL     OW 6936   2.885   1.873   1.117
 2301SOL    HW1 6937   2.832   1.808   1.062
 2301SOL    HW2 6938   2.978   1.838   1.129
 2302SOL     OW 6939   2.676   3.163   0.322
 2302SOL    HW1 6940   2.640   3.076   0.357
 2302SOL    HW2 6941   2.732   3.207   0.392
 2303SOL     OW 6942   2.473   3.442   1.288
 2303SOL    HW1 6943   2.463   3.531   1.332
 2303SOL    HW2 6944   2.564   3.437   1.245
 2304SOL     OW 6945   3.206   1.868   0.229
 2304SOL    HW1 6946   3.263   1.909   0.158
 2304SOL    HW2 6947   3.113   1.856   0.193
 2305SOL     OW 6948   3.136   2.323   0.681
 2305SOL    HW1 6949   3.088   2.411   0.678
 2305SOL    HW2 6950   3.141   2.291   0.776
 2306SOL     OW 6951   3.449   2.064   0.897
 2306SOL    HW1 6952   3.396   2.089   0.978
 2306SOL    HW2 6953   3.445   2.138   0.830
 2307SOL     OW 6954   2.745   3.548   0.327
 2307SOL    HW1 6955   2.661   3.526   0.278
 2307SOL    HW2 6956   2.725   3.613   0.401
 2308SOL     OW 6957   2.063   2.501   2.013
 2308SOL    HW1 6958   1.973   2.475   2.048
 2308SOL    HW2 6959   2.064   2.489   1.914
 2309SOL     OW 6960   2.073   2.145   2.856
 2309SOL    HW1 6961   2.115   2.110   2.940
 2309SOL    HW2 6962   1.982   2.103   2.846
 2310SOL     OW 6963   1.841   2.280   2.502
 2310SOL    HW1 6964   1.756   2.303   2.549
 2310SOL    HW2 6965   1.824   2.206   2.437
 2311SOL     OW 6966   2.436   3.186   3.071
 2311SOL    HW1 6967   2.348   3.185   3.023
 2311SOL    HW2 6968   2.464   3.281   3.085
 2312SOL     OW 6969   3.446   3.377   2.545
 2312SOL    HW1 6970   3.397   3.341   2.625
 2312SOL    HW2 6971   3.381   3.394   2.471
 2313SOL     OW 6972   2.990   2.572   2.525
 2313SOL    HW1 6973   3.037   2.660   2.515
 2313SOL    HW2 6974   2.926   2.577   2.602
 2314SOL     OW 6975   3.653   2.430   2.071
 2314SOL    HW1 6976   3.613   2.435   1.979
 2314SOL    HW2 6977   3.606   2.359   2.124
 2315SOL     OW 6978   2.552   2.985   2.906
 2315SOL    HW1 6979   2.509   3.036   2.981
 2315SOL    HW2 6980   2.587   3.049   2.838
 2316SOL     OW 6981   2.725   2.570   3.724
 2316SOL    HW1 6982   2.706   2.621   3.808
 2316SOL    HW2 6983   2.751   2.633   3.651
 2317SOL     OW 6984   2.551   2.846   2.511
 2317SOL    HW1 6985   2.621   2.850   2.582
 2317SOL    HW2 6986   2.477   2.909   2.534
 2318SOL     OW 6987   2.521   3.004   3.715
 2318SOL    HW1 6988   2.594   3.067   3.741
 2318SOL    HW2 6989   2.455   3.052   3.656
 2319SOL     OW 6990   2.200   3.247   2.927
 2319SOL    HW1 6991   2.121   3.197   2.892
 2319SOL    HW2 6992   2.243   3.299   2.852
 2320SOL     OW 6993   2.333   2.224   3.310
 2320SOL    HW1 6994   2.412   2.166   3.326
 2320SOL    HW2 6995   2.250   2.178   3.342
 2321SOL     OW 6996   3.442   2.302   2.613
 2321SOL    HW1 6997   3.378   2.308   2.537
 2321SOL    HW2 6998   3.419   2.370   2.682
 2322SOL     OW 6999   2.089   3.595   2.332
 2322SOL    HW1 7000   2.114   3.667   2.398
 2322SOL    HW2 7001   2.165   3.579   2.270
 2323SOL     OW 7002   2.117   3.323   2.391
 2323SOL    HW1 7003   2.088   3.419   2.398
 2323SOL    HW2 7004   2.072   3.270   2.463
 2324SOL     OW 7005   2.155   2.949   2.737
 2324SOL    HW1 7006   2.164   2.854   2.765
 2324SOL    HW2 7007   2.096   2.997   2.802
 2325SOL     OW 7008   2.455   3.637   3.319
 2325SOL    HW1 7009   2.366   3.623   3.363
 2325SOL    HW2 7010   2.478   3.735   3.323
 2326SOL     OW 7011   2.423   2.851   2.022
 2326SOL    HW1 7012   2.474   2.895   1.948
 2326SOL    HW2 7013   2.463   2.877   2.110
 2327SOL     OW 7014   3.438   2.000   3.317
 2327SOL    HW1 7015   3.483   2.080   3.278
 2327SOL    HW2 7016   3.397   2.025   3.405
 2328SOL     OW 7017   1.964   2.537   2.438
 2328SOL    HW1 7018   1.929   2.445   2.459
 2328SOL    HW2 7019   1.962   2.593   2.520
 2329SOL     OW 7020   3.721   3.606   2.177
 2329SOL    HW1 7021   3.796   3.596   2.243
 2329SOL    HW2 7022   3.720   3.699   2.141
 2330SOL     OW 7023   1.920   3.435   1.968
 2330SOL    HW1 7024   1.893   3.339   1.983
 2330SOL    HW2 7025   1.897   3.489   2.049
 2331SOL     OW 7026   3.554   2.766   2.481
 2331SOL    HW1 7027   3.617   2.707   2.430
 2331SOL    HW2 7028   3.529   2.845   2.425
 2332SOL     OW 7029   3.531   2.984   2.305
 2332SOL    HW1 7030   3.616   2.963   2.257
 2332SOL    HW2 7031   3.550   3.046   2.382
 2333SOL     OW 7032   1.978   2.619   3.432
 2333SOL    HW1 7033   2.062   2.672   3.440
 2333SOL    HW2 7034   1.902   2.680   3.409
 2334SOL     OW 7035   2.456   3.252   2.568
 2334SOL    HW1 7036   2.411   3.163   2.560
 2334SOL    HW2 7037   2.461   3.295   2.478
 2335SOL     OW 7038   2.699   1.892   2.371
 2335SOL    HW1 7039   2.745   1.976   2.342
 2335SOL    HW2 7040   2.600   1.908   2.376
 2336SOL     OW 7041   2.065   2.804   3.166
 2336SOL    HW1 7042   2.156   2.765   3.151
 2336SOL    HW2 7043   2.001   2.769   3.097
 2337SOL     OW 7044   3.414   2.899   2.063
 2337SOL    HW1 7045   3.340   2.836   2.087
 2337SOL    HW2 7046   3.456   2.934   2.147
 2338SOL     OW 7047   2.219   2.125   3.745
 2338SOL    HW1 7048   2.257   2.208   3.787
 2338SOL    HW2 7049   2.122   2.138   3.727
 2339SOL     OW 7050   3.318   3.265   2.771
 2339SOL    HW1 7051   3.237   3.282   2.826
 2339SOL    HW2 7052   3.315   3.172   2.734
 2340SOL     OW 7053   3.489   3.693   2.402
 2340SOL    HW1 7054   3.482   3.631   2.324
 2340SOL    HW2 7055   3.496   3.640   2.487
 2341SOL     OW 7056   2.434   2.566   2.143
 2341SOL    HW1 7057   2.441   2.657   2.101
 2341SOL    HW2 7058   2.365   2.569   2.215
 2342SOL     OW 7059   3.145   2.260   2.802
 2342SOL    HW1 7060   3.054   2.220   2.797
 2342SOL    HW2 7061   3.202   2.207   2.865
 2343SOL     OW 7062   3.458   3.529   2.180
 2343SOL    HW1 7063   3.557   3.544   2.175
 2343SOL    HW2 7064   3.422   3.518   2.087
 2344SOL     OW 7065   2.666   2.447   3.315
 2344SOL    HW1 7066   2.627   2.416   3.402
 2344SOL    HW2 7067   2.643   2.381   3.243
 2345SOL     OW 7068   3.247   2.320   3.535
 2345SOL    HW1 7069   3.254   2.366   3.624
 2345SOL    HW2 7070   3.291   2.230   3.540
 2346SOL     OW 7071   2.806   2.745   3.521
 2346SOL    HW1 7072   2.858   2.685   3.460
 2346SOL    HW2 7073   2.747   2.805   3.467
 2347SOL     OW 7074   2.880   2.259   3.044
 2347SOL    HW1 7075   2.786   2.271   3.073
 2347SOL    HW2 7076   2.882   2.204   2.961
 2348SOL     OW 7077   2.906   2.548   2.262
 2348SOL    HW1 7078   2.933   2.550   2.358
 2348SOL    HW2 7079   2.817   2.503   2.253
 2349SOL     OW 7080   1.948   2.711   2.651
 2349SOL    HW1 7081   2.039   2.697   2.691
 2349SOL    HW2 7082   1.899   2.781   2.704
 2350SOL     OW 7083   1.965   3.753   3.456
 2350SOL    HW1 7084   1.977   3.725   3.551
 2350SOL    HW2 7085   1.872   3.732   3.426
 2351SOL     OW 7086   2.710   2.203   2.066
 2351SOL    HW1 7087   2.770   2.247   1.998
 2351SOL    HW2 7088   2.655   2.133   2.021
 2352SOL     OW 7089   3.534   2.405   3.698
 2352SOL    HW1 7090   3.518   2.488   3.645
 2352SOL    HW2 7091   3.558   2.330   3.636
 2353SOL     OW 7092   3.258   3.022   2.393
 2353SOL    HW1 7093   3.345   3.013   2.346
 2353SOL    HW2 7094   3.200   3.088   2.345
 2354SOL     OW 7095   2.419   1.988   2.804
 2354SOL    HW1 7096   2.431   2.020   2.898
 2354SOL    HW2 7097   2.419   2.066   2.742
 2355SOL     OW 7098   2.853   3.335   2.327
 2355SOL    HW1 7099   2.834   3.406   2.258
 2355SOL    HW2 7100   2.817   3.364   2.415
 2356SOL     OW 7101   2.222   3.653   2.750
 2356SOL    HW1 7102   2.261   3.561   2.748
 2356SOL    HW2 7103   2.289   3.717   2.788
 2357SOL     OW 7104   3.639   2.888   2.712
 2357SOL    HW1 7105   3.605   2.833   2.636
 2357SOL    HW2 7106   3.606   2.982   2.702
 2358SOL     OW 7107   2.158   2.794   2.125
 2358SOL    HW1 7108   2.246   2.817   2.083
 2358SOL    HW2 7109   2.131   2.701   2.096
 2359SOL     OW 7110   3.333   2.631   2.568
 2359SOL    HW1 7111   3.339   2.581   2.654
 2359SOL    HW2 7112   3.419   2.679   2.552
 2360SOL     OW 7113   2.327   3.169   3.601
 2360SOL    HW1 7114   2.307   3.174   3.503
 2360SOL    HW2 7115   2.242   3.154   3.651
 2361SOL     OW 7116   3.022   3.624   2.095
 2361SOL    HW1 7117   2.928   3.607   2.126
 2361SOL    HW2 7118   3.047   3.555   2.027
 2362SOL     OW 7119   2.079   2.117   3.352
 2362SOL    HW1 7120   2.017   2.195   3.358
 2362SOL    HW2 7121   2.038   2.038   3.396
 2363SOL     OW 7122   3.504   3.248   1.953
 2363SOL    HW1 7123   3.473   3.343   1.941
 2363SOL    HW2 7124   3.431   3.185   1.927
 2364SOL     OW 7125   2.333   3.601   2.183
 2364SOL    HW1 7126   2.377   3.660   2.250
 2364SOL    HW2 7127   2.401   3.566   2.118
 2365SOL     OW 7128   3.261   1.961   2.316
 2365SOL    HW1 7129   3.262   1.937   2.219
 2365SOL    HW2 7130   3.348   1.934   2.358
 2366SOL     OW 7131   2.083   3.650   3.070
 2366SOL    HW1 7132   2.133   3.568   3.099
 2366SOL    HW2 7133   2.047   3.636   2.978
 2367SOL     OW 7134   2.796   3.565   2.735
 2367SOL    HW1 7135   2.888   3.526   2.734
 2367SOL    HW2 7136   2.745   3.531   2.656
 2368SOL     OW 7137   2.241   2.539   2.343
 2368SOL    HW1 7138   2.254   2.441   2.355
 2368SOL    HW2 7139   2.145   2.562   2.361
 2369SOL     OW 7140   3.345   2.061   3.579
 2369SOL    HW1 7141   3.363   2.083   3.675
 2369SOL    HW2 7142   3.278   1.987   3.574
 2370SOL     OW 7143   2.530   1.984   1.971
 2370SOL    HW1 7144   2.592   1.909   1.995
 2370SOL    HW2 7145   2.461   1.950   1.906
 2371SOL     OW 7146   2.621   2.120   3.597
 2371SOL    HW1 7147   2.710   2.075   3.596
 2371SOL    HW2 7148   2.566   2.084   3.672
 2372SOL     OW 7149   3.167   2.471   3.320
 2372SOL    HW1 7150   3.203   2.422   3.399
 2372SOL    HW2 7151   3.212   2.560   3.312
 2373SOL     OW 7152   2.655   3.167   2.738
 2373SOL    HW1 7153   2.748   3.202   2.722
 2373SOL    HW2 7154   2.593   3.206   2.670
 2374SOL     OW 7155   2.793   2.386   2.732
 2374SOL    HW1 7156   2.768   2.373   2.636
 2374SOL    HW2 7157   2.822   2.299   2.771
 2375SOL     OW 7158   2.426   1.936   2.359
 2375SOL    HW1 7159   2.349   1.931   2.422
 2375SOL    HW2 7160   2.413   2.012   2.296
 2376SOL     OW 7161   3.291   3.079   1.893
 2376SOL    HW1 7162   3.333   3.007   1.948
 2376SOL    HW2 7163   3.203   3.105   1.933
 2377SOL     OW 7164   2.148   1.910   2.045
 2377SOL    HW1 7165   2.194   1.987   2.002
 2377SOL    HW2 7166   2.215   1.853   2.092
 2378SOL     OW 7167   2.831   2.120   2.301
 2378SOL    HW1 7168   2.792   2.151   2.214
 2378SOL    HW2 7169   2.929   2.138   2.302
 2379SOL     OW 7170   2.909   2.577   3.325
 2379SOL    HW1 7171   2.833   2.511   3.328
 2379SOL    HW2 7172   2.996   2.528   3.325
 2380SOL     OW 7173   3.057   3.485   2.655
 2380SOL    HW1 7174   3.074   3.544   2.576
 2380SOL    HW2 7175   3.136   3.487   2.716
 2381SOL     OW 7176   2.335   3.010   2.544
 2381SOL    HW1 7177   2.276   2.988   2.621
 2381SOL    HW2 7178   2.283   3.002   2.459
 2382SOL     OW 7179   3.102   3.672   2.461
 2382SOL    HW1 7180   3.157   3.732   2.403
 2382SOL    HW2 7181   3.028   3.726   2.503
 2383SOL     OW 7182   2.882   2.352   1.906
 2383SOL    HW1 7183   2.844   2.441   1.878
 2383SOL    HW2 7184   2.953   2.366   1.975
 2384SOL     OW 7185   1.971   2.404   3.262
 2384SOL    HW1 7186   2.065   2.402   3.226
 2384SOL    HW2 7187   1.963   2.480   3.327
 2385SOL     OW 7188   2.438   2.076   3.063
 2385SOL    HW1 7189   2.484   2.037   3.143
 2385SOL    HW2 7190   2.339   2.073   3.076
 2386SOL     OW 7191   2.739   2.323   2.474
 2386SOL    HW1 7192   2.690   2.378   2.406
 2386SOL    HW2 7193   2.776   2.241   2.430
 2387SOL     OW 7194   2.881   1.916   2.589
 2387SOL    HW1 7195   2.818   1.913   2.512
 2387SOL    HW2 7196   2.856   1.844   2.654
 2388SOL     OW 7197   3.293   3.015   2.673
 2388SOL    HW1 7198   3.242   2.937   2.707
 2388SOL    HW2 7199   3.284   3.020   2.573
 2389SOL     OW 7200   3.325   2.481   2.807
 2389SOL    HW1 7201   3.255   2.410   2.816
 2389SOL    HW2 7202   3.385   2.479   2.886
 2390SOL     OW 7203   3.671   2.636   2.249
 2390SOL    HW1 7204   3.739   2.598   2.312
 2390SOL    HW2 7205   3.660   2.575   2.170
 2391SOL     OW 7206   2.364   3.291   2.004
 2391SOL    HW1 7207   2.285   3.261   2.059
 2391SOL    HW2 7208   2.359   3.248   1.914
 2392SOL     OW 7209   3.594   3.134   2.521
 2392SOL    HW1 7210   3.693   3.135   2.537
 2392SOL    HW2 7211   3.558   3.227   2.527
 2393SOL     OW 7212   3.250   2.442   1.912
 2393SOL    HW1 7213   3.198   2.411   1.992
 2393SOL    HW2 7214   3.347   2.425   1.926
 2394SOL     OW 7215   2.380   2.123   2.167
 2394SOL    HW1 7216   2.437   2.077   2.099
 2394SOL    HW2 7217   2.345   2.208   2.127
 2395SOL     OW 7218   3.673   3.037   3.455
 2395SOL    HW1 7219   3.758   3.006   3.413
 2395SOL    HW2 7220   3.686   3.129   3.493
 2396SOL     OW 7221   2.795   1.929   3.240
 2396SOL    HW1 7222   2.815   1.908   3.144
 2396SOL    HW2 7223   2.873   1.978   3.279
 2397SOL     OW 7224   2.577   2.917   2.245
 2397SOL    HW1 7225   2.563   2.892   2.341
 2397SOL    HW2 7226   2.654   2.865   2.208
 2398SOL     OW 7227   2.302   2.668   3.127
 2398SOL    HW1 7228   2.374   2.679   3.196
 2398SOL    HW2 7229   2.266   2.575   3.132
 2399SOL     OW 7230   3.125   2.247   3.160
 2399SOL    HW1 7231   3.146   2.330   3.212
 2399SOL    HW2 7232   3.036   2.257   3.116
 2400SOL     OW 7233   1.924   3.422   3.219
 2400SOL    HW1 7234   1.879   3.490   3.160
 2400SOL    HW2 7235   2.023   3.429   3.208
 2401SOL     OW 7236   2.172   2.994   2.322
 2401SOL    HW1 7237   2.174   3.071   2.258
 2401SOL    HW2 7238   2.167   2.909   2.270
 2402SOL     OW 7239   2.384   2.413   2.741
 2402SOL    HW1 7240   2.396   2.471   2.661
 2402SOL    HW2 7241   2.462   2.425   2.803
 2403SOL     OW 7242   3.104   3.228   2.268
 2403SOL    HW1 7243   3.166   3.302   2.294
 2403SOL    HW2 7244   3.011   3.251   2.296
 2404SOL     OW 7245   3.089   3.306   2.916
 2404SOL    HW1 7246   3.059   3.261   3.000
 2404SOL    HW2 7247   3.023   3.288   2.843
 2405SOL     OW 7248   3.433   2.482   2.345
 2405SOL    HW1 7249   3.375   2.527   2.413
 2405SOL    HW2 7250   3.497   2.548   2.306
 2406SOL     OW 7251   2.195   3.403   3.146
 2406SOL    HW1 7252   2.183   3.341   3.069
 2406SOL    HW2 7253   2.292   3.429   3.153
 2407SOL     OW 7254   2.337   2.570   3.516
 2407SOL    HW1 7255   2.377   2.618   3.439
 2407SOL    HW2 7256   2.399   2.498   3.547
 2408SOL     OW 7257   3.489   2.635   3.565
 2408SOL    HW1 7258   3.397   2.674   3.574
 2408SOL    HW2 7259   3.536   2.677   3.488
 2409SOL     OW 7260   2.856   1.986   3.608
 2409SOL    HW1 7261   2.913   2.067   3.603
 2409SOL    HW2 7262   2.911   1.905   3.584
 2410SOL     OW 7263   2.352   1.911   3.632
 2410SOL    HW1 7264   2.295   1.856   3.572
 2410SOL    HW2 7265   2.301   1.993   3.660
 2411SOL     OW 7266   2.454   2.726   2.902
 2411SOL    HW1 7267   2.483   2.822   2.898
 2411SOL    HW2 7268   2.394   2.713   2.981
 2412SOL     OW 7269   3.158   2.716   2.843
 2412SOL    HW1 7270   3.066   2.690   2.814
 2412SOL    HW2 7271   3.221   2.641   2.827
 2413SOL     OW 7272   3.066   2.380   2.112
 2413SOL    HW1 7273   3.088   2.303   2.172
 2413SOL    HW2 7274   3.016   2.450   2.164
 2414SOL     OW 7275   2.166   2.047   3.097
 2414SOL    HW1 7276   2.134   2.082   3.185
 2414SOL    HW2 7277   2.141   1.950   3.089
 2415SOL     OW 7278   1.922   3.162   3.129
 2415SOL    HW1 7279   1.954   3.103   3.203
 2415SOL    HW2 7280   1.913   3.256   3.163
 2416SOL     OW 7281   2.595   2.490   2.904
 2416SOL    HW1 7282   2.662   2.473   2.832
 2416SOL    HW2 7283   2.552   2.580   2.889
 2417SOL     OW 7284   3.634   2.803   3.733
 2417SOL    HW1 7285   3.588   2.735   3.677
 2417SOL    HW2 7286   3.572   2.834   3.806
 2418SOL     OW 7287   2.193   1.925   2.508
 2418SOL    HW1 7288   2.149   2.013   2.526
 2418SOL    HW2 7289   2.200   1.873   2.593
 2419SOL     OW 7290   3.484   2.255   2.202
 2419SOL    HW1 7291   3.529   2.187   2.260
 2419SOL    HW2 7292   3.452   2.332   2.258
 2420SOL     OW 7293   2.889   2.628   2.819
 2420SOL    HW1 7294   2.875   2.642   2.917
 2420SOL    HW2 7295   2.862   2.535   2.794
 2421SOL     OW 7296   2.825   3.402   3.582
 2421SOL    HW1 7297   2.809   3.478   3.520
 2421SOL    HW2 7298   2.750   3.336   3.574
 2422SOL     OW 7299   3.802   3.284   3.479
 2422SOL    HW1 7300   3.863   3.253   3.405
 2422SOL    HW2 7301   3.851   3.352   3.535
 2423SOL     OW 7302   2.222   2.770   3.672
 2423SOL    HW1 7303   2.287   2.797   3.743
 2423SOL    HW2 7304   2.262   2.696   3.618
 2424SOL     OW 7305   3.375   2.125   1.980
 2424SOL    HW1 7306   3.330   2.044   2.016
 2424SOL    HW2 7307   3.415   2.177   2.056
 2425SOL     OW 7308   3.146   2.688   1.864
 2425SOL    HW1 7309   3.180   2.595   1.877
 2425SOL    HW2 7310   3.183   2.727   1.780
 2426SOL     OW 7311   2.921   3.246   2.704
 2426SOL    HW1 7312   2.941   3.156   2.667
 2426SOL    HW2 7313   2.971   3.316   2.653
 2427SOL     OW 7314   2.186   2.677   2.793
 2427SOL    HW1 7315   2.285   2.687   2.792
 2427SOL    HW2 7316   2.161   2.586   2.826
 2428SOL     OW 7317   2.150   2.402   2.867
 2428SOL    HW1 7318   2.112   2.310   2.859
 2428SOL    HW2 7319   2.236   2.407   2.816
 2429SOL     OW 7320   2.994   2.218   3.564
 2429SOL    HW1 7321   2.947   2.265   3.638
 2429SOL    HW2 7322   3.084   2.260   3.549
 2430SOL     OW 7323   3.019   2.059   3.336
 2430SOL    HW1 7324   3.002   2.114   3.418
 2430SOL    HW2 7325   3.066   2.114   3.267
 2431SOL     OW 7326   1.885   3.152   2.039
 2431SOL    HW1 7327   1.792   3.179   2.013
 2431SOL    HW2 7328   1.882   3.060   2.078
 2432SOL     OW 7329   1.960   3.617   2.822
 2432SOL    HW1 7330   1.916   3.541   2.774
 2432SOL    HW2 7331   2.051   3.632   2.784
 2433SOL     OW 7332   2.353   3.413   2.761
 2433SOL    HW1 7333   2.430   3.457   2.808
 2433SOL    HW2 7334   2.387   3.354   2.689
 2434SOL     OW 7335   2.821   2.679   3.087
 2434SOL    HW1 7336   2.856   2.644   3.174
 2434SOL    HW2 7337   2.729   2.645   3.072
 2435SOL     OW 7338   1.901   2.458   2.996
 2435SOL    HW1 7339   1.983   2.448   2.939
 2435SOL    HW2 7340   1.926   2.440   3.092
 2436SOL     OW 7341   2.064   2.420   3.606
 2436SOL    HW1 7342   2.159   2.414   3.573
 2436SOL    HW2 7343   2.015   2.489   3.553
 2437SOL     OW 7344   3.259   2.786   3.553
 2437SOL    HW1 7345   3.273   2.880   3.585
 2437SOL    HW2 7346   3.260   2.784   3.453
 2438SOL     OW 7347   2.661   2.429   2.224
 2438SOL    HW1 7348   2.667   2.347   2.167
 2438SOL    HW2 7349   2.581   2.482   2.198
 2439SOL     OW 7350   3.505   2.473   3.023
 2439SOL    HW1 7351   3.494   2.400   3.090
 2439SOL    HW2 7352   3.603   2.486   3.004
 2440SOL     OW 7353   2.089   3.402   3.587
 2440SOL    HW1 7354   2.062   3.460   3.664
 2440SOL    HW2 7355   2.096   3.307   3.618
 2441SOL     OW 7356   2.610   2.295   3.093
 2441SOL    HW1 7357   2.543   2.221   3.079
 2441SOL    HW2 7358   2.595   2.367   3.025
 2442SOL     OW 7359   2.720   3.600   3.408
 2442SOL    HW1 7360   2.629   3.580   3.369
 2442SOL    HW2 7361   2.764   3.672   3.355
 2443SOL     OW 7362   2.293   2.350   2.034
 2443SOL    HW1 7363   2.364   2.415   2.061
 2443SOL    HW2 7364   2.204   2.396   2.036
 2444SOL     OW 7365   2.004   3.001   3.340
 2444SOL    HW1 7366   2.006   2.966   3.434
 2444SOL    HW2 7367   2.028   2.928   3.276
 2445SOL     OW 7368   3.079   2.804   3.092
 2445SOL    HW1 7369   3.120   2.787   3.002
 2445SOL    HW2 7370   2.985   2.770   3.093
 2446SOL     OW 7371   3.201   2.743   2.130
 2446SOL    HW1 7372   3.131   2.707   2.192
 2446SOL    HW2 7373   3.173   2.724   2.035
 2447SOL     OW 7374   3.582   3.620   2.971
 2447SOL    HW1 7375   3.671   3.640   2.931
 2447SOL    HW2 7376   3.560   3.524   2.958
 2448SOL     OW 7377   3.102   3.584   2.976
 2448SOL    HW1 7378   3.189   3.627   2.950
 2448SOL    HW2 7379   3.108   3.485   2.960
 2449SOL     OW 7380   1.972   3.095   2.873
 2449SOL    HW1 7381   1.947   3.119   2.966
 2449SOL    HW2 7382   1.900   3.041   2.831
 2450SOL     OW 7383   2.553   3.587   3.632
 2450SOL    HW1 7384   2.480   3.654   3.620
 2450SOL    HW2 7385   2.626   3.605   3.566
 2451SOL     OW 7386   3.633   2.066   2.336
 2451SOL    HW1 7387   3.684   2.048   2.252
 2451SOL    HW2 7388   3.589   1.981   2.367
 2452SOL     OW 7389   3.257   3.446   2.352
 2452SOL    HW1 7390   3.322   3.475   2.282
 2452SOL    HW2 7391   3.195   3.522   2.373
 2453SOL     OW 7392   1.999   3.659   3.708
 2453SOL    HW1 7393   1.948   3.584   3.748
 2453SOL    HW2 7394   2.055   3.703   3.778
 2454SOL     OW 7395   3.133   2.805   2.506
 2454SOL    HW1 7396   3.206   2.741   2.529
 2454SOL    HW2 7397   3.169   2.879   2.451
 2455SOL     OW 7398   2.569   3.129   3.321
 2455SOL    HW1 7399   2.564   3.205   3.386
 2455SOL    HW2 7400   2.511   3.148   3.242
 2456SOL     OW 7401   2.535   3.500   2.017
 2456SOL    HW1 7402   2.552   3.526   1.922
 2456SOL    HW2 7403   2.480   3.416   2.019
 2457SOL     OW 7404   3.702   2.009   2.835
 2457SOL    HW1 7405   3.733   1.917   2.810
 2457SOL    HW2 7406   3.612   2.026   2.795
 2458SOL     OW 7407   2.085   2.166   2.577
 2458SOL    HW1 7408   2.000   2.211   2.549
 2458SOL    HW2 7409   2.092   2.165   2.677
 2459SOL     OW 7410   3.093   3.437   1.908
 2459SOL    HW1 7411   3.084   3.344   1.943
 2459SOL    HW2 7412   3.015   3.458   1.848
 2460SOL     OW 7413   2.673   2.881   3.317
 2460SOL    HW1 7414   2.712   2.874   3.225
 2460SOL    HW2 7415   2.633   2.971   3.329
 2461SOL     OW 7416   2.782   2.771   2.151
 2461SOL    HW1 7417   2.834   2.802   2.072
 2461SOL    HW2 7418   2.829   2.695   2.194
 2462SOL     OW 7419   3.362   3.508   1.918
 2462SOL    HW1 7420   3.266   3.481   1.906
 2462SOL    HW2 7421   3.406   3.517   1.829
 2463SOL     OW 7422   2.223   3.188   3.349
 2463SOL    HW1 7423   2.211   3.262   3.283
 2463SOL    HW2 7424   2.150   3.121   3.339
 2464SOL     OW 7425   2.953   2.989   2.623
 2464SOL    HW1 7426   2.869   2.944   2.653
 2464SOL    HW2 7427   3.013   2.923   2.579
 2465SOL     OW 7428   2.902   2.107   2.808
 2465SOL    HW1 7429   2.897   2.069   2.716
 2465SOL    HW2 7430   2.898   2.032   2.875
 2466SOL     OW 7431   2.490   3.375   2.327
 2466SOL    HW1 7432   2.537   3.309   2.268
 2466SOL    HW2 7433   2.409   3.410   2.280
 2467SOL     OW 7434   3.626   2.237   3.265
 2467SOL    HW1 7435   3.695   2.309   3.262
 2467SOL    HW2 7436   3.653   2.163   3.203
 2468SOL     OW 7437   2.141   3.212   2.150
 2468SOL    HW1 7438   2.049   3.200   2.112
 2468SOL    HW2 7439   2.135   3.261   2.237
 2469SOL     OW 7440   1.994   2.900   3.595
 2469SOL    HW1 7441   1.910   2.874   3.644
 2469SOL    HW2 7442   2.071   2.848   3.631
 2470SOL     OW 7443   2.558   2.040   3.337
 2470SOL    HW1 7444   2.644   2.006   3.298
 2470SOL    HW2 7445   2.574   2.074   3.429
 2471SOL     OW 7446   1.945   2.188   1.854
 2471SOL    HW1 7447   1.862   2.170   1.803
 2471SOL    HW2 7448   1.981   2.278   1.830
 2472SOL     OW 7449   3.268   2.735   3.277
 2472SOL    HW1 7450   3.195   2.761   3.215
 2472SOL    HW2 7451   3.356   2.737   3.229
 2473SOL     OW 7452   1.904   2.019   2.099
 2473SOL    HW1 7453   1.889   2.085   2.027
 2473SOL    HW2 7454   1.997   1.981   2.091
 2474SOL     OW 7455   3.047   3.179   1.995
 2474SOL    HW1 7456   2.949   3.163   1.983
 2474SOL    HW2 7457   3.068   3.183   2.093
 2475SOL     OW 7458   2.502   2.668   3.312
 2475SOL    HW1 7459   2.556   2.751   3.325
 2475SOL    HW2 7460   2.562   2.589   3.312
 2476SOL     OW 7461   3.335   3.709   2.896
 2476SOL    HW1 7462   3.353   3.772   2.821
 2476SOL    HW2 7463   3.422   3.674   2.931
 2477SOL     OW 7464   2.567   2.395   3.567
 2477SOL    HW1 7465   2.621   2.450   3.631
 2477SOL    HW2 7466   2.586   2.298   3.583
 2478SOL     OW 7467   2.211   3.614   3.450
 2478SOL    HW1 7468   2.129   3.667   3.429
 2478SOL    HW2 7469   2.184   3.526   3.491
 2479SOL     OW 7470   3.499   2.744   3.100
 2479SOL    HW1 7471   3.497   2.646   3.082
 2479SOL    HW2 7472   3.522   2.793   3.016
 2480SOL     OW 7473   3.100   2.186   2.311
 2480SOL    HW1 7474   3.160   2.106   2.311
 2480SOL    HW2 7475   3.121   2.243   2.390
 2481SOL     OW 7476   2.424   2.598   2.545
 2481SOL    HW1 7477   2.475   2.682   2.528
 2481SOL    HW2 7478   2.359   2.582   2.470
 2482SOL     OW 7479   3.593   2.189   3.536
 2482SOL    HW1 7480   3.602   2.208   3.438
 2482SOL    HW2 7481   3.513   2.131   3.551
 2483SOL     OW 7482   3.589   2.786   3.369
 2483SOL    HW1 7483   3.615   2.877   3.401
 2483SOL    HW2 7484   3.579   2.788   3.269
 2484SOL     OW 7485   2.757   3.208   1.949
 2484SOL    HW1 7486   2.710   3.216   2.037
 2484SOL    HW2 7487   2.764   3.298   1.906
 2485SOL     OW 7488   2.551   3.576   2.874
 2485SOL    HW1 7489   2.514   3.667   2.856
 2485SOL    HW2 7490   2.640   3.567   2.828
 2486SOL     OW 7491   2.736   2.845   2.724
 2486SOL    HW1 7492   2.788   2.766   2.759
 2486SOL    HW2 7493   2.680   2.882   2.797
 2487SOL     OW 7494   2.920   2.828   1.929
 2487SOL    HW1 7495   2.896   2.895   1.858
 2487SOL    HW2 7496   3.004   2.779   1.902
 2488SOL     OW 7497   3.675   3.457   2.684
 2488SOL    HW1 7498   3.613   3.441   2.608
 2488SOL    HW2 7499   3.636   3.419   2.768
 2489SOL     OW 7500   2.068   3.145   3.691
 2489SOL    HW1 7501   2.045   3.059   3.645
 2489SOL    HW2 7502   2.008   3.158   3.769
 2490SOL     OW 7503   2.015   3.097   2.531
 2490SOL    HW1 7504   2.049   3.052   2.614
 2490SOL    HW2 7505   2.059   3.057   2.451
 2491SOL     OW 7506   2.548   3.322   3.529
 2491SOL    HW1 7507   2.472   3.267   3.561
 2491SOL    HW2 7508   2.540   3.415   3.564
 2492SOL     OW 7509   3.689   2.027   3.109
 2492SOL    HW1 7510   3.726   1.938   3.138
 2492SOL    HW2 7511   3.690   2.032   3.009
 2493SOL     OW 7512   2.260   2.274   2.384
 2493SOL    HW1 7513   2.298   2.204   2.323
 2493SOL    HW2 7514   2.204   2.231   2.454
 2494SOL     OW 7515   3.538   3.357   2.898
 2494SOL    HW1 7516   3.456   3.321   2.854
 2494SOL    HW2 7517   3.580   3.286   2.955
 2495SOL     OW 7518   2.216   2.409   3.145
 2495SOL    HW1 7519   2.272   2.343   3.196
 2495SOL    HW2 7520   2.214   2.383   3.049
 2496SOL     OW 7521   2.680   3.499   2.496
 2496SOL    HW1 7522   2.690   3.589   2.453
 2496SOL    HW2 7523   2.607   3.448   2.450
 2497SOL     OW 7524   3.286   2.110   2.983
 2497SOL    HW1 7525   3.300   2.015   3.007
 2497SOL    HW2 7526   3.236   2.156   3.057
 2498SOL     OW 7527   2.885   1.876   2.971
 2498SOL    HW1 7528   2.830   1.814   2.915
 2498SOL    HW2 7529   2.977   1.839   2.982
 2499SOL     OW 7530   2.646   3.186   2.201
 2499SOL    HW1 7531   2.619   3.091   2.215
 2499SOL    HW2 7532   2.726   3.206   2.257
 2500SOL     OW 7533   2.465   3.461   3.110
 2500SOL    HW1 7534   2.472   3.526   3.186
 2500SOL    HW2 7535   2.501   3.504   3.027
 2501SOL     OW 7536   3.256   1.887   2.051
 2501SOL    HW1 7537   3.306   1.816   2.002
 2501SOL    HW2 7538   3.162   1.857   2.067
 2502SOL     OW 7539   3.151   2.340   2.533
 2502SOL    HW1 7540   3.097   2.424   2.525
 2502SOL    HW2 7541   3.150   2.309   2.628
 2503SOL     OW 7542   3.446   2.064   2.761
 2503SOL    HW1 7543   3.390   2.092   2.839
 2503SOL    HW2 7544   3.447   2.137   2.693
 2504SOL     OW 7545   1.897   2.892   2.157
 2504SOL    HW1 7546   1.994   2.877   2.139
 2504SOL    HW2 7547   1.852   2.804   2.175
 2505SOL     OW 7548   2.762   3.552   2.174
 2505SOL    HW1 7549   2.683   3.528   2.118
 2505SOL    HW2 7550   2.736   3.622   2.241
 2506SOL     OW 7551   2.063   2.484   3.878
 2506SOL    HW1 7552   1.972   2.461   3.912
 2506SOL    HW2 7553   2.064   2.480   3.778
 2507SOL     OW 7554   2.081   2.152   4.719
 2507SOL    HW1 7555   2.137   2.105   4.787
 2507SOL    HW2 7556   1.990   2.111   4.715
 2508SOL     OW 7557   1.857   2.290   4.359
 2508SOL    HW1 7558   1.774   2.313   4.409
 2508SOL    HW2 7559   1.838   2.215   4.295
 2509SOL     OW 7560   2.396   3.162   4.894
 2509SOL    HW1 7561   2.308   3.179   4.850
 2509SOL    HW2 7562   2.466   3.218   4.851
 2510SOL     OW 7563   3.460   3.359   4.445
 2510SOL    HW1 7564   3.406   3.329   4.523
 2510SOL    HW2 7565   3.399   3.379   4.368
 2511SOL     OW 7566   2.989   2.572   4.397
 2511SOL    HW1 7567   3.039   2.658   4.380
 2511SOL    HW2 7568   2.938   2.580   4.482
 2512SOL     OW 7569   3.659   2.419   3.934
 2512SOL    HW1 7570   3.621   2.422   3.842
 2512SOL    HW2 7571   3.608   2.354   3.990
 2513SOL     OW 7572   2.557   2.961   4.785
 2513SOL    HW1 7573   2.483   3.002   4.838
 2513SOL    HW2 7574   2.599   3.031   4.727
 2514SOL     OW 7575   2.550   2.840   4.382
 2514SOL    HW1 7576   2.621   2.839   4.452
 2514SOL    HW2 7577   2.481   2.909   4.404
 2515SOL     OW 7578   2.184   3.234   4.740
 2515SOL    HW1 7579   2.092   3.225   4.702
 2515SOL    HW2 7580   2.231   3.310   4.695
 2516SOL     OW 7581   3.449   2.323   4.462
 2516SOL    HW1 7582   3.385   2.325   4.385
 2516SOL    HW2 7583   3.420   2.388   4.532
 2517SOL     OW 7584   2.092   3.597   4.185
 2517SOL    HW1 7585   2.116   3.669   4.250
 2517SOL    HW2 7586   2.168   3.583   4.121
 2518SOL     OW 7587   2.115   3.327   4.252
 2518SOL    HW1 7588   2.089   3.424   4.255
 2518SOL    HW2 7589   2.069   3.278   4.326
 2519SOL     OW 7590   2.156   2.958   4.607
 2519SOL    HW1 7591   2.164   2.860   4.623
 2519SOL    HW2 7592   2.138   3.006   4.693
 2520SOL     OW 7593   2.418   2.838   3.903
 2520SOL    HW1 7594   2.455   2.890   3.826
 2520SOL    HW2 7595   2.466   2.863   3.987
 2521SOL     OW 7596   1.970   2.546   4.292
 2521SOL    HW1 7597   1.939   2.454   4.315
 2521SOL    HW2 7598   1.966   2.603   4.374
 2522SOL     OW 7599   3.711   3.603   4.041
 2522SOL    HW1 7600   3.789   3.592   4.102
 2522SOL    HW2 7601   3.712   3.696   4.003
 2523SOL     OW 7602   1.913   3.435   3.835
 2523SOL    HW1 7603   1.891   3.339   3.852
 2523SOL    HW2 7604   1.890   3.489   3.916
 2524SOL     OW 7605   3.562   2.797   4.382
 2524SOL    HW1 7606   3.654   2.758   4.393
 2524SOL    HW2 7607   3.556   2.846   4.295
 2525SOL     OW 7608   3.536   2.972   4.156
 2525SOL    HW1 7609   3.620   2.947   4.106
 2525SOL    HW2 7610   3.558   3.041   4.224
 2526SOL     OW 7611   2.482   3.265   4.433
 2526SOL    HW1 7612   2.436   3.177   4.438
 2526SOL    HW2 7613   2.472   3.303   4.341
 2527SOL     OW 7614   2.695   1.880   4.241
 2527SOL    HW1 7615   2.743   1.962   4.211
 2527SOL    HW2 7616   2.596   1.897   4.242
 2528SOL     OW 7617   2.046   2.820   4.917
 2528SOL    HW1 7618   2.138   2.781   4.924
 2528SOL    HW2 7619   1.986   2.756   4.869
 2529SOL     OW 7620   3.409   2.878   3.925
 2529SOL    HW1 7621   3.332   2.822   3.955
 2529SOL    HW2 7622   3.457   2.914   4.005
 2530SOL     OW 7623   3.295   3.258   4.641
 2530SOL    HW1 7624   3.248   3.255   4.729
 2530SOL    HW2 7625   3.292   3.168   4.599
 2531SOL     OW 7626   3.493   3.704   4.271
 2531SOL    HW1 7627   3.485   3.634   4.200
 2531SOL    HW2 7628   3.517   3.660   4.358
 2532SOL     OW 7629   2.437   2.568   4.001
 2532SOL    HW1 7630   2.438   2.658   3.958
 2532SOL    HW2 7631   2.369   2.566   4.074
 2533SOL     OW 7632   3.155   2.266   4.674
 2533SOL    HW1 7633   3.065   2.224   4.664
 2533SOL    HW2 7634   3.210   2.212   4.738
 2534SOL     OW 7635   3.450   3.524   4.062
 2534SOL    HW1 7636   3.548   3.541   4.048
 2534SOL    HW2 7637   3.406   3.508   3.974
 2535SOL     OW 7638   2.909   2.554   4.131
 2535SOL    HW1 7639   2.932   2.554   4.228
 2535SOL    HW2 7640   2.820   2.509   4.118
 2536SOL     OW 7641   1.950   2.724   4.504
 2536SOL    HW1 7642   2.042   2.710   4.540
 2536SOL    HW2 7643   1.903   2.794   4.558
 2537SOL     OW 7644   2.709   2.196   3.931
 2537SOL    HW1 7645   2.771   2.240   3.866
 2537SOL    HW2 7646   2.654   2.127   3.884
 2538SOL     OW 7647   3.269   3.020   4.254
 2538SOL    HW1 7648   3.356   3.005   4.208
 2538SOL    HW2 7649   3.216   3.088   4.204
 2539SOL     OW 7650   2.392   1.992   4.716
 2539SOL    HW1 7651   2.336   2.001   4.799
 2539SOL    HW2 7652   2.413   2.083   4.680
 2540SOL     OW 7653   2.856   3.327   4.195
 2540SOL    HW1 7654   2.836   3.399   4.129
 2540SOL    HW2 7655   2.825   3.356   4.286
 2541SOL     OW 7656   2.222   3.661   4.599
 2541SOL    HW1 7657   2.262   3.570   4.606
 2541SOL    HW2 7658   2.285   3.728   4.639
 2542SOL     OW 7659   3.646   2.931   4.616
 2542SOL    HW1 7660   3.604   2.909   4.528
 2542SOL    HW2 7661   3.577   2.926   4.688
 2543SOL     OW 7662   2.160   2.796   4.003
 2543SOL    HW1 7663   2.249   2.817   3.962
 2543SOL    HW2 7664   2.135   2.702   3.982
 2544SOL     OW 7665   3.342   2.639   4.420
 2544SOL    HW1 7666   3.339   2.590   4.507
 2544SOL    HW2 7667   3.424   2.696   4.417
 2545SOL     OW 7668   2.972   3.633   3.865
 2545SOL    HW1 7669   2.903   3.608   3.933
 2545SOL    HW2 7670   3.003   3.551   3.817
 2546SOL     OW 7671   3.465   3.211   3.810
 2546SOL    HW1 7672   3.405   3.265   3.869
 2546SOL    HW2 7673   3.411   3.140   3.765
 2547SOL     OW 7674   2.334   3.609   4.035
 2547SOL    HW1 7675   2.377   3.664   4.107
 2547SOL    HW2 7676   2.404   3.564   3.980
 2548SOL     OW 7677   3.257   1.955   4.183
 2548SOL    HW1 7678   3.258   1.933   4.086
 2548SOL    HW2 7679   3.347   1.933   4.222
 2549SOL     OW 7680   2.083   3.628   4.921
 2549SOL    HW1 7681   2.046   3.564   4.989
 2549SOL    HW2 7682   2.035   3.615   4.834
 2550SOL     OW 7683   2.834   3.558   4.624
 2550SOL    HW1 7684   2.923   3.512   4.624
 2550SOL    HW2 7685   2.775   3.517   4.554
 2551SOL     OW 7686   2.244   2.541   4.199
 2551SOL    HW1 7687   2.256   2.442   4.208
 2551SOL    HW2 7688   2.149   2.565   4.220
 2552SOL     OW 7689   2.533   1.979   3.830
 2552SOL    HW1 7690   2.597   1.905   3.851
 2552SOL    HW2 7691   2.463   1.946   3.767
 2553SOL     OW 7692   2.645   3.178   4.648
 2553SOL    HW1 7693   2.743   3.196   4.635
 2553SOL    HW2 7694   2.594   3.213   4.569
 2554SOL     OW 7695   2.768   2.353   4.596
 2554SOL    HW1 7696   2.743   2.347   4.499
 2554SOL    HW2 7697   2.818   2.271   4.623
 2555SOL     OW 7698   2.426   1.933   4.218
 2555SOL    HW1 7699   2.348   1.930   4.280
 2555SOL    HW2 7700   2.416   2.010   4.154
 2556SOL     OW 7701   3.279   3.017   3.727
 2556SOL    HW1 7702   3.327   2.959   3.792
 2556SOL    HW2 7703   3.199   3.058   3.772
 2557SOL     OW 7704   2.150   1.910   3.907
 2557SOL    HW1 7705   2.196   1.987   3.864
 2557SOL    HW2 7706   2.217   1.852   3.952
 2558SOL     OW 7707   2.825   2.108   4.166
 2558SOL    HW1 7708   2.788   2.140   4.079
 2558SOL    HW2 7709   2.923   2.127   4.170
 2559SOL     OW 7710   3.077   3.430   4.553
 2559SOL    HW1 7711   3.098   3.498   4.482
 2559SOL    HW2 7712   3.161   3.386   4.582
 2560SOL     OW 7713   2.348   3.026   4.423
 2560SOL    HW1 7714   2.283   3.005   4.496
 2560SOL    HW2 7715   2.302   3.019   4.334
 2561SOL     OW 7716   3.118   3.638   4.353
 2561SOL    HW1 7717   3.169   3.702   4.295
 2561SOL    HW2 7718   3.038   3.684   4.391
 2562SOL     OW 7719   2.882   2.347   3.777
 2562SOL    HW1 7720   2.834   2.432   3.759
 2562SOL    HW2 7721   2.952   2.361   3.846
 2563SOL     OW 7722   2.729   2.317   4.330
 2563SOL    HW1 7723   2.687   2.374   4.259
 2563SOL    HW2 7724   2.764   2.233   4.289
 2564SOL     OW 7725   2.889   1.907   4.448
 2564SOL    HW1 7726   2.822   1.904   4.375
 2564SOL    HW2 7727   2.865   1.839   4.518
 2565SOL     OW 7728   3.277   3.006   4.535
 2565SOL    HW1 7729   3.199   2.945   4.552
 2565SOL    HW2 7730   3.290   3.015   4.436
 2566SOL     OW 7731   3.325   2.490   4.657
 2566SOL    HW1 7732   3.263   2.414   4.678
 2566SOL    HW2 7733   3.403   2.488   4.720
 2567SOL     OW 7734   3.667   2.639   4.095
 2567SOL    HW1 7735   3.731   2.611   4.166
 2567SOL    HW2 7736   3.664   2.569   4.024
 2568SOL     OW 7737   2.365   3.287   3.875
 2568SOL    HW1 7738   2.284   3.258   3.925
 2568SOL    HW2 7739   2.372   3.236   3.790
 2569SOL     OW 7740   3.610   3.142   4.346
 2569SOL    HW1 7741   3.706   3.138   4.373
 2569SOL    HW2 7742   3.568   3.224   4.385
 2570SOL     OW 7743   3.254   2.419   3.788
 2570SOL    HW1 7744   3.201   2.390   3.868
 2570SOL    HW2 7745   3.351   2.400   3.803
 2571SOL     OW 7746   2.387   2.121   4.024
 2571SOL    HW1 7747   2.443   2.073   3.957
 2571SOL    HW2 7748   2.352   2.207   3.985
 2572SOL     OW 7749   2.938   3.080   4.874
 2572SOL    HW1 7750   2.878   3.121   4.944
 2572SOL    HW2 7751   2.915   3.118   4.785
 2573SOL     OW 7752   3.411   2.927   4.765
 2573SOL    HW1 7753   3.335   2.925   4.831
 2573SOL    HW2 7754   3.376   2.954   4.675
 2574SOL     OW 7755   2.585   2.902   4.115
 2574SOL    HW1 7756   2.573   2.873   4.210
 2574SOL    HW2 7757   2.658   2.848   4.072
 2575SOL     OW 7758   2.281   2.684   4.988
 2575SOL    HW1 7759   2.329   2.724   0.065
 2575SOL    HW2 7760   2.229   2.604   0.018
 2576SOL     OW 7761   2.192   3.001   4.193
 2576SOL    HW1 7762   2.188   3.077   4.128
 2576SOL    HW2 7763   2.182   2.915   4.144
 2577SOL     OW 7764   2.381   2.386   4.582
 2577SOL    HW1 7765   2.402   2.451   4.509
 2577SOL    HW2 7766   2.452   2.390   4.652
 2578SOL     OW 7767   3.113   3.228   4.134
 2578SOL    HW1 7768   3.175   3.296   4.174
 2578SOL    HW2 7769   3.019   3.250   4.160
 2579SOL     OW 7770   3.174   3.229   4.879
 2579SOL    HW1 7771   3.233   3.188   4.949
 2579SOL    HW2 7772   3.088   3.177   4.874
 2580SOL     OW 7773   3.438   2.496   4.196
 2580SOL    HW1 7774   3.388   2.541   4.269
 2580SOL    HW2 7775   3.507   2.558   4.159
 2581SOL     OW 7776   2.460   2.695   4.771
 2581SOL    HW1 7777   2.490   2.790   4.766
 2581SOL    HW2 7778   2.392   2.685   4.844
 2582SOL     OW 7779   3.133   2.700   4.685
 2582SOL    HW1 7780   3.043   2.658   4.673
 2582SOL    HW2 7781   3.204   2.630   4.678
 2583SOL     OW 7782   3.062   2.374   3.987
 2583SOL    HW1 7783   3.081   2.297   4.049
 2583SOL    HW2 7784   3.016   2.447   4.038
 2584SOL     OW 7785   2.197   1.994   4.915
 2584SOL    HW1 7786   2.204   2.019   0.011
 2584SOL    HW2 7787   2.156   1.903   4.907
 2585SOL     OW 7788   1.868   3.240   4.926
 2585SOL    HW1 7789   1.877   3.169   4.996
 2585SOL    HW2 7790   1.900   3.327   4.962
 2586SOL     OW 7791   2.569   2.435   4.779
 2586SOL    HW1 7792   2.646   2.415   4.718
 2586SOL    HW2 7793   2.542   2.531   4.768
 2587SOL     OW 7794   2.191   1.927   4.362
 2587SOL    HW1 7795   2.151   2.017   4.379
 2587SOL    HW2 7796   2.199   1.877   4.448
 2588SOL     OW 7797   3.474   2.258   4.063
 2588SOL    HW1 7798   3.521   2.194   4.123
 2588SOL    HW2 7799   3.447   2.340   4.115
 2589SOL     OW 7800   2.874   2.590   4.666
 2589SOL    HW1 7801   2.868   2.594   4.765
 2589SOL    HW2 7802   2.838   2.503   4.633
 2590SOL     OW 7803   3.382   2.117   3.840
 2590SOL    HW1 7804   3.333   2.038   3.877
 2590SOL    HW2 7805   3.417   2.173   3.916
 2591SOL     OW 7806   3.130   2.658   3.753
 2591SOL    HW1 7807   3.170   2.566   3.763
 2591SOL    HW2 7808   3.174   2.704   3.676
 2592SOL     OW 7809   2.918   3.203   4.622
 2592SOL    HW1 7810   2.941   3.122   4.568
 2592SOL    HW2 7811   2.973   3.281   4.590
 2593SOL     OW 7812   2.195   2.683   4.630
 2593SOL    HW1 7813   2.295   2.685   4.623
 2593SOL    HW2 7814   2.165   2.591   4.652
 2594SOL     OW 7815   2.135   2.416   4.683
 2594SOL    HW1 7816   2.100   2.325   4.701
 2594SOL    HW2 7817   2.226   2.409   4.640
 2595SOL     OW 7818   3.065   2.132   0.155
 2595SOL    HW1 7819   3.051   2.135   0.254
 2595SOL    HW2 7820   3.010   2.203   0.111
 2596SOL     OW 7821   1.886   3.152   3.900
 2596SOL    HW1 7822   1.793   3.179   3.875
 2596SOL    HW2 7823   1.885   3.059   3.936
 2597SOL     OW 7824   1.961   3.614   4.664
 2597SOL    HW1 7825   1.928   3.538   4.608
 2597SOL    HW2 7826   2.054   3.639   4.635
 2598SOL     OW 7827   2.358   3.423   4.626
 2598SOL    HW1 7828   2.429   3.483   4.663
 2598SOL    HW2 7829   2.397   3.366   4.553
 2599SOL     OW 7830   2.826   2.591   4.937
 2599SOL    HW1 7831   2.864   2.672   4.982
 2599SOL    HW2 7832   2.727   2.587   4.952
 2600SOL     OW 7833   1.953   2.555   4.834
 2600SOL    HW1 7834   2.010   2.510   4.765
 2600SOL    HW2 7835   1.989   2.535   4.925
 2601SOL     OW 7836   2.667   2.432   4.081
 2601SOL    HW1 7837   2.670   2.347   4.027
 2601SOL    HW2 7838   2.586   2.484   4.055
 2602SOL     OW 7839   3.555   2.481   4.810
 2602SOL    HW1 7840   3.556   2.406   4.876
 2602SOL    HW2 7841   3.649   2.514   4.795
 2603SOL     OW 7842   2.459   2.238   4.951
 2603SOL    HW1 7843   2.414   2.289   0.024
 2603SOL    HW2 7844   2.503   2.302   4.888
 2604SOL     OW 7845   2.301   2.349   3.892
 2604SOL    HW1 7846   2.370   2.417   3.918
 2604SOL    HW2 7847   2.210   2.390   3.896
 2605SOL     OW 7848   1.994   2.915   0.169
 2605SOL    HW1 7849   2.065   2.875   0.227
 2605SOL    HW2 7850   2.012   2.893   0.074
 2606SOL     OW 7851   3.154   2.900   4.866
 2606SOL    HW1 7852   3.144   2.826   4.800
 2606SOL    HW2 7853   3.076   2.963   4.857
 2607SOL     OW 7854   3.185   2.745   4.007
 2607SOL    HW1 7855   3.130   2.700   4.078
 2607SOL    HW2 7856   3.158   2.710   3.917
 2608SOL     OW 7857   3.578   3.586   4.802
 2608SOL    HW1 7858   3.664   3.589   4.751
 2608SOL    HW2 7859   3.549   3.491   4.813
 2609SOL     OW 7860   1.919   3.172   4.670
 2609SOL    HW1 7861   1.899   3.191   4.766
 2609SOL    HW2 7862   1.879   3.084   4.645
 2610SOL     OW 7863   3.631   2.078   4.200
 2610SOL    HW1 7864   3.684   2.056   4.118
 2610SOL    HW2 7865   3.587   1.995   4.234
 2611SOL     OW 7866   3.272   3.427   4.248
 2611SOL    HW1 7867   3.334   3.462   4.177
 2611SOL    HW2 7868   3.213   3.500   4.281
 2612SOL     OW 7869   3.135   2.800   4.353
 2612SOL    HW1 7870   3.209   2.738   4.378
 2612SOL    HW2 7871   3.172   2.877   4.300
 2613SOL     OW 7872   2.542   3.492   3.886
 2613SOL    HW1 7873   2.551   3.525   3.792
 2613SOL    HW2 7874   2.485   3.410   3.888
 2614SOL     OW 7875   3.584   3.679   0.056
 2614SOL    HW1 7876   3.587   3.648   4.961
 2614SOL    HW2 7877   3.501   3.645   0.099
 2615SOL     OW 7878   3.708   2.018   4.709
 2615SOL    HW1 7879   3.734   1.925   4.682
 2615SOL    HW2 7880   3.621   2.042   4.666
 2616SOL     OW 7881   2.097   2.172   4.435
 2616SOL    HW1 7882   2.013   2.219   4.408
 2616SOL    HW2 7883   2.106   2.172   4.534
 2617SOL     OW 7884   3.059   3.396   3.737
 2617SOL    HW1 7885   3.063   3.306   3.782
 2617SOL    HW2 7886   2.980   3.399   3.676
 2618SOL     OW 7887   2.639   2.826   0.014
 2618SOL    HW1 7888   2.621   2.878   4.931
 2618SOL    HW2 7889   2.735   2.837   0.040
 2619SOL     OW 7890   2.778   2.758   3.990
 2619SOL    HW1 7891   2.830   2.795   3.912
 2619SOL    HW2 7892   2.835   2.693   4.040
 2620SOL     OW 7893   3.320   3.482   3.817
 2620SOL    HW1 7894   3.230   3.453   3.787
 2620SOL    HW2 7895   3.388   3.455   3.749
 2621SOL     OW 7896   2.960   2.963   4.501
 2621SOL    HW1 7897   2.875   2.916   4.527
 2621SOL    HW2 7898   3.013   2.904   4.440
 2622SOL     OW 7899   2.915   2.120   4.641
 2622SOL    HW1 7900   2.917   2.066   4.556
 2622SOL    HW2 7901   2.896   2.059   4.718
 2623SOL     OW 7902   2.473   3.357   4.181
 2623SOL    HW1 7903   2.528   3.292   4.129
 2623SOL    HW2 7904   2.389   3.378   4.130
 2624SOL     OW 7905   3.607   2.295   0.002
 2624SOL    HW1 7906   3.639   2.353   0.077
 2624SOL    HW2 7907   3.638   2.201   0.017
 2625SOL     OW 7908   2.140   3.210   4.014
 2625SOL    HW1 7909   2.049   3.195   3.975
 2625SOL    HW2 7910   2.132   3.260   4.100
 2626SOL     OW 7911   1.950   2.188   3.713
 2626SOL    HW1 7912   1.866   2.171   3.662
 2626SOL    HW2 7913   1.987   2.278   3.687
 2627SOL     OW 7914   1.907   2.019   3.961
 2627SOL    HW1 7915   1.892   2.085   3.888
 2627SOL    HW2 7916   1.999   1.981   3.953
 2628SOL     OW 7917   3.073   3.148   3.867
 2628SOL    HW1 7918   2.996   3.084   3.861
 2628SOL    HW2 7919   3.091   3.170   3.962
 2629SOL     OW 7920   3.350   3.720   4.734
 2629SOL    HW1 7921   3.380   3.776   4.656
 2629SOL    HW2 7922   3.427   3.664   4.766
 2630SOL     OW 7923   3.529   2.732   4.929
 2630SOL    HW1 7924   3.527   2.642   4.884
 2630SOL    HW2 7925   3.491   2.801   4.867
 2631SOL     OW 7926   3.093   2.179   4.182
 2631SOL    HW1 7927   3.153   2.099   4.182
 2631SOL    HW2 7928   3.113   2.236   4.262
 2632SOL     OW 7929   2.421   2.593   4.408
 2632SOL    HW1 7930   2.473   2.677   4.392
 2632SOL    HW2 7931   2.358   2.578   4.332
 2633SOL     OW 7932   3.629   2.747   0.176
 2633SOL    HW1 7933   3.706   2.811   0.175
 2633SOL    HW2 7934   3.592   2.737   0.084
 2634SOL     OW 7935   2.694   3.204   3.807
 2634SOL    HW1 7936   2.670   3.191   3.904
 2634SOL    HW2 7937   2.722   3.299   3.793
 2635SOL     OW 7938   2.541   3.611   4.704
 2635SOL    HW1 7939   2.503   3.703   4.705
 2635SOL    HW2 7940   2.640   3.615   4.695
 2636SOL     OW 7941   2.736   2.826   4.592
 2636SOL    HW1 7942   2.778   2.739   4.616
 2636SOL    HW2 7943   2.679   2.857   4.668
 2637SOL     OW 7944   2.919   2.827   3.766
 2637SOL    HW1 7945   2.870   2.818   3.679
 2637SOL    HW2 7946   2.998   2.767   3.767
 2638SOL     OW 7947   3.711   3.402   4.549
 2638SOL    HW1 7948   3.621   3.393   4.507
 2638SOL    HW2 7949   3.741   3.313   4.585
 2639SOL     OW 7950   2.019   3.094   4.392
 2639SOL    HW1 7951   2.051   3.052   4.477
 2639SOL    HW2 7952   2.073   3.057   4.316
 2640SOL     OW 7953   3.723   2.021   4.986
 2640SOL    HW1 7954   3.778   1.937   4.988
 2640SOL    HW2 7955   3.703   2.045   4.892
 2641SOL     OW 7956   2.263   2.277   4.233
 2641SOL    HW1 7957   2.304   2.205   4.177
 2641SOL    HW2 7958   2.213   2.235   4.310
 2642SOL     OW 7959   3.484   3.340   4.859
 2642SOL    HW1 7960   3.434   3.291   4.787
 2642SOL    HW2 7961   3.563   3.285   4.887
 2643SOL     OW 7962   2.698   3.465   4.404
 2643SOL    HW1 7963   2.674   3.539   4.341
 2643SOL    HW2 7964   2.621   3.400   4.408
 2644SOL     OW 7965   3.308   2.105   4.836
 2644SOL    HW1 7966   3.303   2.007   4.816
 2644SOL    HW2 7967   3.324   2.118   4.934
 2645SOL     OW 7968   2.870   1.904   4.819
 2645SOL    HW1 7969   2.858   1.828   4.755
 2645SOL    HW2 7970   2.946   1.883   4.881
 2646SOL     OW 7971   2.646   3.170   4.075
 2646SOL    HW1 7972   2.623   3.075   4.091
 2646SOL    HW2 7973   2.727   3.194   4.128
 2647SOL     OW 7974   3.255   1.885   3.915
 2647SOL    HW1 7975   3.305   1.813   3.867
 2647SOL    HW2 7976   3.161   1.855   3.930
 2648SOL     OW 7977   3.146   2.337   4.400
 2648SOL    HW1 7978   3.092   2.421   4.394
 2648SOL    HW2 7979   3.153   2.309   4.496
 2649SOL     OW 7980   3.466   2.090   4.609
 2649SOL    HW1 7981   3.413   2.113   4.691
 2649SOL    HW2 7982   3.465   2.166   4.545
 2650SOL     OW 7983   1.899   2.892   4.016
 2650SOL    HW1 7984   1.997   2.877   4.007
 2650SOL    HW2 7985   1.853   2.804   4.030
 2651SOL     OW 7986   2.769   3.546   4.040
 2651SOL    HW1 7987   2.685   3.521   3.991
 2651SOL    HW2 7988   2.746   3.613   4.111
 2652SOL     OW 7989   2.085   4.378   0.108
 2652SOL    HW1 7990   2.002   4.372   0.164
 2652SOL    HW2 7991   2.153   4.313   0.141
 2653SOL     OW 7992   2.069   3.994   0.993
 2653SOL    HW1 7993   2.110   3.960   1.078
 2653SOL    HW2 7994   1.979   3.952   0.980
 2654SOL     OW 7995   1.834   4.118   0.638
 2654SOL    HW1 7996   1.749   4.137   0.686
 2654SOL    HW2 7997   1.817   4.048   0.568
 2655SOL     OW 7998   3.008   4.440   0.695
 2655SOL    HW1 7999   3.062   4.521   0.677
 2655SOL    HW2 8000   2.959   4.451   0.782
 2656SOL     OW 8001   3.696   4.358   0.235
 2656SOL    HW1 8002   3.667   4.298   0.160
 2656SOL    HW2 8003   3.632   4.349   0.311
 2657SOL     OW 8004   2.652   4.924   0.937
 2657SOL    HW1 8005   2.554   4.926   0.916
 2657SOL    HW2 8006   2.701   4.982   0.872
 2658SOL     OW 8007   2.742   4.454   1.837
 2658SOL    HW1 8008   2.741   4.502   1.925
 2658SOL    HW2 8009   2.761   4.520   1.763
 2659SOL     OW 8010   2.560   4.661   0.667
 2659SOL    HW1 8011   2.647   4.662   0.717
 2659SOL    HW2 8012   2.498   4.730   0.704
 2660SOL     OW 8013   2.564   4.886   1.868
 2660SOL    HW1 8014   2.600   4.920   1.955
 2660SOL    HW2 8015   2.497   4.951   1.831
 2661SOL     OW 8016   2.335   4.093   1.451
 2661SOL    HW1 8017   2.413   4.031   1.460
 2661SOL    HW2 8018   2.251   4.045   1.477
 2662SOL     OW 8019   3.429   4.149   0.747
 2662SOL    HW1 8020   3.356   4.151   0.679
 2662SOL    HW2 8021   3.414   4.222   0.813
 2663SOL     OW 8022   2.201   4.774   0.971
 2663SOL    HW1 8023   2.189   4.675   0.964
 2663SOL    HW2 8024   2.116   4.817   1.001
 2664SOL     OW 8025   2.441   4.666   0.167
 2664SOL    HW1 8026   2.497   4.699   0.092
 2664SOL    HW2 8027   2.479   4.698   0.254
 2665SOL     OW 8028   3.435   3.867   1.455
 2665SOL    HW1 8029   3.492   3.942   1.423
 2665SOL    HW2 8030   3.392   3.892   1.542
 2666SOL     OW 8031   1.972   4.355   0.586
 2666SOL    HW1 8032   1.927   4.267   0.597
 2666SOL    HW2 8033   1.963   4.408   0.670
 2667SOL     OW 8034   3.566   4.646   0.618
 2667SOL    HW1 8035   3.636   4.602   0.563
 2667SOL    HW2 8036   3.530   4.726   0.569
 2668SOL     OW 8037   3.529   4.860   0.452
 2668SOL    HW1 8038   3.540   4.819   0.361
 2668SOL    HW2 8039   3.615   4.901   0.481
 2669SOL     OW 8040   2.052   4.467   1.585
 2669SOL    HW1 8041   2.152   4.474   1.587
 2669SOL    HW2 8042   2.012   4.551   1.620
 2670SOL     OW 8043   3.199   4.984   1.281
 2670SOL    HW1 8044   3.161   4.893   1.261
 2670SOL    HW2 8045   3.143   0.029   1.350
 2671SOL     OW 8046   2.679   3.731   0.531
 2671SOL    HW1 8047   2.728   3.813   0.499
 2671SOL    HW2 8048   2.580   3.749   0.529
 2672SOL     OW 8049   2.024   4.697   1.275
 2672SOL    HW1 8050   2.114   4.656   1.262
 2672SOL    HW2 8051   1.961   4.628   1.311
 2673SOL     OW 8052   3.290   4.799   0.167
 2673SOL    HW1 8053   3.243   4.728   0.220
 2673SOL    HW2 8054   3.389   4.782   0.170
 2674SOL     OW 8055   2.214   3.980   1.886
 2674SOL    HW1 8056   2.248   4.062   1.933
 2674SOL    HW2 8057   2.115   3.989   1.871
 2675SOL     OW 8058   2.452   4.422   0.321
 2675SOL    HW1 8059   2.462   4.508   0.270
 2675SOL    HW2 8060   2.381   4.432   0.390
 2676SOL     OW 8061   3.141   4.110   0.943
 2676SOL    HW1 8062   3.049   4.070   0.946
 2676SOL    HW2 8063   3.200   4.061   1.007
 2677SOL     OW 8064   2.646   4.331   1.444
 2677SOL    HW1 8065   2.613   4.304   1.534
 2677SOL    HW2 8066   2.625   4.259   1.378
 2678SOL     OW 8067   3.237   4.191   1.668
 2678SOL    HW1 8068   3.245   4.242   1.753
 2678SOL    HW2 8069   3.282   4.102   1.677
 2679SOL     OW 8070   2.799   4.625   1.607
 2679SOL    HW1 8071   2.854   4.557   1.558
 2679SOL    HW2 8072   2.750   4.682   1.541
 2680SOL     OW 8073   2.873   4.112   1.196
 2680SOL    HW1 8074   2.778   4.127   1.225
 2680SOL    HW2 8075   2.874   4.058   1.112
 2681SOL     OW 8076   2.921   4.432   0.433
 2681SOL    HW1 8077   2.941   4.433   0.531
 2681SOL    HW2 8078   2.835   4.384   0.417
 2682SOL     OW 8079   1.950   4.512   0.802
 2682SOL    HW1 8080   2.039   4.514   0.848
 2682SOL    HW2 8081   1.897   4.592   0.830
 2683SOL     OW 8082   2.732   4.061   0.204
 2683SOL    HW1 8083   2.801   4.117   0.158
 2683SOL    HW2 8084   2.720   3.975   0.156
 2684SOL     OW 8085   3.521   4.290   1.832
 2684SOL    HW1 8086   3.520   4.372   1.774
 2684SOL    HW2 8087   3.546   4.211   1.777
 2685SOL     OW 8088   3.295   4.896   0.589
 2685SOL    HW1 8089   3.379   4.880   0.537
 2685SOL    HW2 8090   3.262   4.989   0.570
 2686SOL     OW 8091   2.419   3.863   0.936
 2686SOL    HW1 8092   2.430   3.889   1.032
 2686SOL    HW2 8093   2.411   3.945   0.880
 2687SOL     OW 8094   3.662   4.742   0.856
 2687SOL    HW1 8095   3.621   4.709   0.771
 2687SOL    HW2 8096   3.590   4.749   0.926
 2688SOL     OW 8097   2.192   4.673   0.307
 2688SOL    HW1 8098   2.274   4.669   0.250
 2688SOL    HW2 8099   2.179   4.584   0.352
 2689SOL     OW 8100   3.367   4.465   0.675
 2689SOL    HW1 8101   3.359   4.431   0.768
 2689SOL    HW2 8102   3.446   4.526   0.668
 2690SOL     OW 8103   2.083   3.984   1.490
 2690SOL    HW1 8104   2.018   4.060   1.495
 2690SOL    HW2 8105   2.042   3.903   1.532
 2691SOL     OW 8106   3.247   3.803   0.463
 2691SOL    HW1 8107   3.239   3.768   0.370
 2691SOL    HW2 8108   3.337   3.781   0.500
 2692SOL     OW 8109   2.227   4.402   0.486
 2692SOL    HW1 8110   2.260   4.309   0.499
 2692SOL    HW2 8111   2.130   4.407   0.513
 2693SOL     OW 8112   3.335   3.931   1.714
 2693SOL    HW1 8113   3.354   3.952   1.810
 2693SOL    HW2 8114   3.266   3.858   1.709
 2694SOL     OW 8115   2.444   3.837   0.108
 2694SOL    HW1 8116   2.542   3.830   0.090
 2694SOL    HW2 8117   2.394   3.852   0.022
 2695SOL     OW 8118   2.618   4.003   1.737
 2695SOL    HW1 8119   2.706   3.955   1.736
 2695SOL    HW2 8120   2.560   3.967   1.809
 2696SOL     OW 8121   3.161   4.338   1.450
 2696SOL    HW1 8122   3.195   4.290   1.531
 2696SOL    HW2 8123   3.204   4.428   1.443
 2697SOL     OW 8124   2.796   4.230   0.885
 2697SOL    HW1 8125   2.776   4.221   0.788
 2697SOL    HW2 8126   2.820   4.140   0.922
 2698SOL     OW 8127   2.411   3.791   0.498
 2698SOL    HW1 8128   2.332   3.790   0.559
 2698SOL    HW2 8129   2.407   3.871   0.439
 2699SOL     OW 8130   2.195   3.772   0.222
 2699SOL    HW1 8131   2.283   3.800   0.185
 2699SOL    HW2 8132   2.205   3.685   0.270
 2700SOL     OW 8133   2.813   3.957   0.453
 2700SOL    HW1 8134   2.779   3.995   0.367
 2700SOL    HW2 8135   2.911   3.974   0.460
 2701SOL     OW 8136   2.903   4.440   1.429
 2701SOL    HW1 8137   2.827   4.376   1.442
 2701SOL    HW2 8138   2.990   4.391   1.438
 2702SOL     OW 8139   2.387   4.832   0.787
 2702SOL    HW1 8140   2.317   4.819   0.857
 2702SOL    HW2 8141   2.343   4.831   0.697
 2703SOL     OW 8142   2.925   4.207   0.086
 2703SOL    HW1 8143   2.900   4.281   0.024
 2703SOL    HW2 8144   2.990   4.242   0.155
 2704SOL     OW 8145   1.977   4.271   1.404
 2704SOL    HW1 8146   2.069   4.267   1.365
 2704SOL    HW2 8147   1.973   4.343   1.473
 2705SOL     OW 8148   2.435   3.930   1.201
 2705SOL    HW1 8149   2.478   3.875   1.273
 2705SOL    HW2 8150   2.336   3.930   1.213
 2706SOL     OW 8151   2.750   4.177   0.622
 2706SOL    HW1 8152   2.714   4.235   0.550
 2706SOL    HW2 8153   2.767   4.085   0.586
 2707SOL     OW 8154   2.870   3.772   0.742
 2707SOL    HW1 8155   2.802   3.766   0.669
 2707SOL    HW2 8156   2.854   3.700   0.809
 2708SOL     OW 8157   3.298   4.817   0.866
 2708SOL    HW1 8158   3.221   4.754   0.875
 2708SOL    HW2 8159   3.296   4.860   0.776
 2709SOL     OW 8160   3.318   4.339   0.932
 2709SOL    HW1 8161   3.247   4.269   0.942
 2709SOL    HW2 8162   3.382   4.332   1.009
 2710SOL     OW 8163   3.744   4.553   0.430
 2710SOL    HW1 8164   3.783   4.481   0.488
 2710SOL    HW2 8165   3.728   4.517   0.339
 2711SOL     OW 8166   3.272   4.283   0.116
 2711SOL    HW1 8167   3.213   4.271   0.196
 2711SOL    HW2 8168   3.309   4.194   0.088
 2712SOL     OW 8169   2.388   4.004   0.324
 2712SOL    HW1 8170   2.421   3.945   0.250
 2712SOL    HW2 8171   2.348   4.087   0.285
 2713SOL     OW 8172   3.606   4.917   1.501
 2713SOL    HW1 8173   3.706   4.919   1.505
 2713SOL    HW2 8174   3.571   0.011   1.500
 2714SOL     OW 8175   3.479   4.769   1.057
 2714SOL    HW1 8176   3.484   4.843   1.125
 2714SOL    HW2 8177   3.408   4.789   0.991
 2715SOL     OW 8178   2.793   3.793   1.384
 2715SOL    HW1 8179   2.814   3.770   1.289
 2715SOL    HW2 8180   2.871   3.841   1.425
 2716SOL     OW 8181   2.815   4.853   1.760
 2716SOL    HW1 8182   2.721   4.863   1.793
 2716SOL    HW2 8183   2.821   4.771   1.702
 2717SOL     OW 8184   2.570   4.725   0.395
 2717SOL    HW1 8185   2.556   4.707   0.493
 2717SOL    HW2 8186   2.663   4.698   0.369
 2718SOL     OW 8187   2.274   4.555   1.267
 2718SOL    HW1 8188   2.351   4.574   1.328
 2718SOL    HW2 8189   2.249   4.459   1.273
 2719SOL     OW 8190   3.122   4.107   1.301
 2719SOL    HW1 8191   3.144   4.191   1.350
 2719SOL    HW2 8192   3.031   4.113   1.261
 2720SOL     OW 8193   2.293   4.815   0.530
 2720SOL    HW1 8194   2.329   4.904   0.500
 2720SOL    HW2 8195   2.245   4.771   0.455
 2721SOL     OW 8196   2.396   4.225   0.875
 2721SOL    HW1 8197   2.392   4.285   0.796
 2721SOL    HW2 8198   2.469   4.255   0.937
 2722SOL     OW 8199   3.427   4.344   0.420
 2722SOL    HW1 8200   3.407   4.378   0.512
 2722SOL    HW2 8201   3.380   4.401   0.353
 2723SOL     OW 8202   2.341   4.454   1.630
 2723SOL    HW1 8203   2.386   4.506   1.558
 2723SOL    HW2 8204   2.402   4.382   1.663
 2724SOL     OW 8205   3.515   4.520   1.685
 2724SOL    HW1 8206   3.426   4.566   1.687
 2724SOL    HW2 8207   3.566   4.549   1.604
 2725SOL     OW 8208   2.847   3.853   1.750
 2725SOL    HW1 8209   2.906   3.934   1.743
 2725SOL    HW2 8210   2.900   3.771   1.729
 2726SOL     OW 8211   2.352   3.772   1.771
 2726SOL    HW1 8212   2.296   3.715   1.711
 2726SOL    HW2 8213   2.299   3.852   1.800
 2727SOL     OW 8214   2.476   4.588   1.057
 2727SOL    HW1 8215   2.456   4.659   0.989
 2727SOL    HW2 8216   2.400   4.581   1.121
 2728SOL     OW 8217   3.153   4.574   0.996
 2728SOL    HW1 8218   3.062   4.535   0.980
 2728SOL    HW2 8219   3.223   4.505   0.975
 2729SOL     OW 8220   3.084   4.253   0.310
 2729SOL    HW1 8221   3.096   4.174   0.370
 2729SOL    HW2 8222   3.031   4.324   0.356
 2730SOL     OW 8223   2.164   3.905   1.236
 2730SOL    HW1 8224   2.131   3.940   1.324
 2730SOL    HW2 8225   2.141   3.808   1.228
 2731SOL     OW 8226   2.585   4.336   1.039
 2731SOL    HW1 8227   2.661   4.323   0.976
 2731SOL    HW2 8228   2.553   4.431   1.034
 2732SOL     OW 8229   3.622   4.686   1.881
 2732SOL    HW1 8230   3.584   4.618   1.818
 2732SOL    HW2 8231   3.552   4.710   1.949
 2733SOL     OW 8232   2.180   3.785   0.646
 2733SOL    HW1 8233   2.143   3.876   0.663
 2733SOL    HW2 8234   2.192   3.737   0.734
 2734SOL     OW 8235   3.474   4.094   0.313
 2734SOL    HW1 8236   3.524   4.034   0.375
 2734SOL    HW2 8237   3.453   4.180   0.359
 2735SOL     OW 8238   2.898   4.469   0.968
 2735SOL    HW1 8239   2.868   4.493   1.060
 2735SOL    HW2 8240   2.868   4.376   0.946
 2736SOL     OW 8241   2.224   4.619   1.821
 2736SOL    HW1 8242   2.289   4.650   1.890
 2736SOL    HW2 8243   2.269   4.557   1.757
 2737SOL     OW 8244   3.319   4.007   0.104
 2737SOL    HW1 8245   3.229   3.975   0.133
 2737SOL    HW2 8246   3.377   4.019   0.184
 2738SOL     OW 8247   3.124   4.491   0.036
 2738SOL    HW1 8248   3.185   4.415   0.057
 2738SOL    HW2 8249   3.137   4.519   4.941
 2739SOL     OW 8250   2.194   4.502   0.922
 2739SOL    HW1 8251   2.264   4.492   0.851
 2739SOL    HW2 8252   2.183   4.416   0.971
 2740SOL     OW 8253   2.172   4.240   1.020
 2740SOL    HW1 8254   2.121   4.154   1.011
 2740SOL    HW2 8255   2.255   4.235   0.966
 2741SOL     OW 8256   2.987   4.084   1.703
 2741SOL    HW1 8257   2.939   4.134   1.775
 2741SOL    HW2 8258   3.075   4.128   1.686
 2742SOL     OW 8259   3.020   3.918   1.482
 2742SOL    HW1 8260   3.000   3.977   1.560
 2742SOL    HW2 8261   3.067   3.972   1.412
 2743SOL     OW 8262   1.820   0.025   0.126
 2743SOL    HW1 8263   1.849   0.094   0.193
 2743SOL    HW2 8264   1.874   4.942   0.139
 2744SOL     OW 8265   2.796   4.560   1.209
 2744SOL    HW1 8266   2.836   4.516   1.289
 2744SOL    HW2 8267   2.700   4.534   1.201
 2745SOL     OW 8268   1.902   4.301   1.137
 2745SOL    HW1 8269   1.984   4.298   1.080
 2745SOL    HW2 8270   1.928   4.295   1.234
 2746SOL     OW 8271   2.080   4.251   1.750
 2746SOL    HW1 8272   2.168   4.215   1.719
 2746SOL    HW2 8273   2.055   4.329   1.694
 2747SOL     OW 8274   3.291   4.680   1.676
 2747SOL    HW1 8275   3.325   4.772   1.691
 2747SOL    HW2 8276   3.273   4.666   1.579
 2748SOL     OW 8277   2.690   4.291   0.374
 2748SOL    HW1 8278   2.691   4.209   0.316
 2748SOL    HW2 8279   2.605   4.341   0.359
 2749SOL     OW 8280   3.492   4.304   1.141
 2749SOL    HW1 8281   3.468   4.232   1.207
 2749SOL    HW2 8282   3.591   4.304   1.127
 2750SOL     OW 8283   2.602   4.152   1.239
 2750SOL    HW1 8284   2.538   4.076   1.227
 2750SOL    HW2 8285   2.587   4.219   1.166
 2751SOL     OW 8286   2.311   4.232   0.182
 2751SOL    HW1 8287   2.366   4.207   0.103
 2751SOL    HW2 8288   2.360   4.299   0.237
 2752SOL     OW 8289   2.017   4.868   1.498
 2752SOL    HW1 8290   2.007   4.809   1.579
 2752SOL    HW2 8291   2.023   4.811   1.416
 2753SOL     OW 8292   3.093   4.724   1.223
 2753SOL    HW1 8293   3.128   4.682   1.140
 2753SOL    HW2 8294   2.998   4.694   1.238
 2754SOL     OW 8295   3.168   4.586   0.293
 2754SOL    HW1 8296   3.100   4.553   0.359
 2754SOL    HW2 8297   3.150   4.544   0.204
 2755SOL     OW 8298   1.948   4.861   1.052
 2755SOL    HW1 8299   1.959   4.808   1.136
 2755SOL    HW2 8300   1.894   4.809   0.986
 2756SOL     OW 8301   2.717   3.828   0.053
 2756SOL    HW1 8302   2.739   3.835   4.956
 2756SOL    HW2 8303   2.778   3.760   0.096
 2757SOL     OW 8304   3.621   3.921   0.470
 2757SOL    HW1 8305   3.683   3.896   0.396
 2757SOL    HW2 8306   3.577   3.839   0.507
 2758SOL     OW 8307   3.169   4.655   0.639
 2758SOL    HW1 8308   3.240   4.585   0.644
 2758SOL    HW2 8309   3.209   4.741   0.606
 2759SOL     OW 8310   3.699   3.863   0.966
 2759SOL    HW1 8311   3.729   3.770   0.942
 2759SOL    HW2 8312   3.608   3.879   0.929
 2760SOL     OW 8313   2.090   4.033   0.715
 2760SOL    HW1 8314   2.001   4.067   0.686
 2760SOL    HW2 8315   2.093   4.027   0.815
 2761SOL     OW 8316   2.692   4.770   1.397
 2761SOL    HW1 8317   2.726   4.737   1.309
 2761SOL    HW2 8318   2.708   4.869   1.404
 2762SOL     OW 8319   2.811   4.652   0.304
 2762SOL    HW1 8320   2.858   4.668   0.217
 2762SOL    HW2 8321   2.858   4.578   0.354
 2763SOL     OW 8322   2.246   0.015   1.560
 2763SOL    HW1 8323   2.294   0.035   1.474
 2763SOL    HW2 8324   2.162   4.964   1.540
 2764SOL     OW 8325   3.474   4.957   1.254
 2764SOL    HW1 8326   3.518   4.935   1.341
 2764SOL    HW2 8327   3.377   4.974   1.269
 2765SOL     OW 8328   2.971   4.835   0.743
 2765SOL    HW1 8329   2.894   4.778   0.771
 2765SOL    HW2 8330   3.040   4.778   0.697
 2766SOL     OW 8331   2.897   3.960   0.960
 2766SOL    HW1 8332   2.890   3.920   0.868
 2766SOL    HW2 8333   2.895   3.887   1.028
 2767SOL     OW 8334   3.631   4.079   1.410
 2767SOL    HW1 8335   3.695   4.156   1.402
 2767SOL    HW2 8336   3.656   4.009   1.343
 2768SOL     OW 8337   1.985   4.705   1.717
 2768SOL    HW1 8338   1.908   4.707   1.780
 2768SOL    HW2 8339   2.069   4.683   1.768
 2769SOL     OW 8340   2.556   3.903   1.483
 2769SOL    HW1 8341   2.642   3.871   1.445
 2769SOL    HW2 8342   2.572   3.945   1.573
 2770SOL     OW 8343   3.262   4.601   1.409
 2770SOL    HW1 8344   3.195   4.650   1.353
 2770SOL    HW2 8345   3.345   4.585   1.355
 2771SOL     OW 8346   1.934   3.854   0.249
 2771SOL    HW1 8347   1.904   3.888   0.160
 2771SOL    HW2 8348   2.032   3.832   0.245
 2772SOL     OW 8349   2.499   4.566   1.428
 2772SOL    HW1 8350   2.556   4.648   1.426
 2772SOL    HW2 8351   2.557   4.485   1.431
 2773SOL     OW 8352   2.563   4.281   1.702
 2773SOL    HW1 8353   2.622   4.337   1.759
 2773SOL    HW2 8354   2.582   4.184   1.719
 2774SOL     OW 8355   3.441   4.922   1.734
 2774SOL    HW1 8356   3.494   4.933   1.819
 2774SOL    HW2 8357   3.504   4.906   1.658
 2775SOL     OW 8358   3.476   4.564   1.240
 2775SOL    HW1 8359   3.483   4.473   1.201
 2775SOL    HW2 8360   3.479   4.632   1.167
 2776SOL     OW 8361   3.085   4.021   0.462
 2776SOL    HW1 8362   3.147   3.943   0.465
 2776SOL    HW2 8363   3.099   4.077   0.544
 2777SOL     OW 8364   2.374   4.460   0.716
 2777SOL    HW1 8365   2.446   4.527   0.696
 2777SOL    HW2 8366   2.319   4.446   0.634
 2778SOL     OW 8367   3.581   4.063   1.681
 2778SOL    HW1 8368   3.599   4.071   1.583
 2778SOL    HW2 8369   3.500   4.005   1.694
 2779SOL     OW 8370   3.622   4.638   1.459
 2779SOL    HW1 8371   3.613   4.737   1.474
 2779SOL    HW2 8372   3.570   4.612   1.378
 2780SOL     OW 8373   2.767   4.686   0.844
 2780SOL    HW1 8374   2.804   4.615   0.904
 2780SOL    HW2 8375   2.723   4.756   0.900
 2781SOL     OW 8376   2.919   4.673   0.048
 2781SOL    HW1 8377   2.966   4.751   0.007
 2781SOL    HW2 8378   2.982   4.596   0.053
 2782SOL     OW 8379   1.892   4.975   0.615
 2782SOL    HW1 8380   1.870   4.916   0.693
 2782SOL    HW2 8381   1.988   0.003   0.620
 2783SOL     OW 8382   3.682   3.876   1.239
 2783SOL    HW1 8383   3.695   3.780   1.262
 2783SOL    HW2 8384   3.688   3.889   1.140
 2784SOL     OW 8385   2.291   4.149   0.547
 2784SOL    HW1 8386   2.326   4.081   0.483
 2784SOL    HW2 8387   2.225   4.105   0.609
 2785SOL     OW 8388   2.223   4.285   1.289
 2785SOL    HW1 8389   2.278   4.220   1.341
 2785SOL    HW2 8390   2.220   4.256   1.193
 2786SOL     OW 8391   3.286   3.968   1.129
 2786SOL    HW1 8392   3.302   3.874   1.158
 2786SOL    HW2 8393   3.235   4.017   1.201
 2787SOL     OW 8394   2.884   3.733   1.122
 2787SOL    HW1 8395   2.828   3.668   1.070
 2787SOL    HW2 8396   2.977   3.697   1.130
 2788SOL     OW 8397   2.612   4.957   0.247
 2788SOL    HW1 8398   2.592   4.890   0.319
 2788SOL    HW2 8399   2.690   0.013   0.274
 2789SOL     OW 8400   3.200   3.720   0.209
 2789SOL    HW1 8401   3.213   3.656   0.133
 2789SOL    HW2 8402   3.131   3.788   0.183
 2790SOL     OW 8403   3.133   4.185   0.676
 2790SOL    HW1 8404   3.092   4.275   0.674
 2790SOL    HW2 8405   3.138   4.152   0.771
 2791SOL     OW 8406   3.440   3.918   0.903
 2791SOL    HW1 8407   3.387   3.947   0.983
 2791SOL    HW2 8408   3.439   3.990   0.834
 2792SOL     OW 8409   2.054   4.330   2.015
 2792SOL    HW1 8410   1.960   4.316   2.046
 2792SOL    HW2 8411   2.059   4.319   1.916
 2793SOL     OW 8412   2.074   3.995   2.857
 2793SOL    HW1 8413   2.115   3.963   2.942
 2793SOL    HW2 8414   1.983   3.957   2.846
 2794SOL     OW 8415   1.839   4.122   2.502
 2794SOL    HW1 8416   1.755   4.147   2.551
 2794SOL    HW2 8417   1.820   4.050   2.436
 2795SOL     OW 8418   2.991   4.449   2.533
 2795SOL    HW1 8419   3.046   4.529   2.510
 2795SOL    HW2 8420   2.943   4.465   2.619
 2796SOL     OW 8421   3.643   4.295   2.072
 2796SOL    HW1 8422   3.604   4.302   1.980
 2796SOL    HW2 8423   3.598   4.220   2.121
 2797SOL     OW 8424   2.651   4.948   2.802
 2797SOL    HW1 8425   2.556   4.979   2.797
 2797SOL    HW2 8426   2.703   4.992   2.729
 2798SOL     OW 8427   2.737   4.456   3.703
 2798SOL    HW1 8428   2.735   4.502   3.791
 2798SOL    HW2 8429   2.757   4.522   3.631
 2799SOL     OW 8430   2.564   4.682   2.499
 2799SOL    HW1 8431   2.643   4.687   2.559
 2799SOL    HW2 8432   2.495   4.749   2.528
 2800SOL     OW 8433   2.561   4.882   3.736
 2800SOL    HW1 8434   2.598   4.918   3.822
 2800SOL    HW2 8435   2.493   4.946   3.699
 2801SOL     OW 8436   2.322   4.101   3.317
 2801SOL    HW1 8437   2.401   4.042   3.335
 2801SOL    HW2 8438   2.238   4.053   3.341
 2802SOL     OW 8439   3.451   4.172   2.607
 2802SOL    HW1 8440   3.419   4.200   2.516
 2802SOL    HW2 8441   3.419   4.237   2.675
 2803SOL     OW 8442   2.221   4.775   2.819
 2803SOL    HW1 8443   2.204   4.677   2.809
 2803SOL    HW2 8444   2.138   4.820   2.853
 2804SOL     OW 8445   2.402   4.713   2.012
 2804SOL    HW1 8446   2.454   4.763   1.943
 2804SOL    HW2 8447   2.455   4.711   2.097
 2805SOL     OW 8448   3.569   3.801   3.377
 2805SOL    HW1 8449   3.576   3.844   3.287
 2805SOL    HW2 8450   3.499   3.848   3.431
 2806SOL     OW 8451   1.968   4.366   2.433
 2806SOL    HW1 8452   1.929   4.276   2.454
 2806SOL    HW2 8453   1.963   4.424   2.515
 2807SOL     OW 8454   3.566   4.661   2.477
 2807SOL    HW1 8455   3.617   4.594   2.422
 2807SOL    HW2 8456   3.549   4.743   2.423
 2808SOL     OW 8457   3.539   4.877   2.304
 2808SOL    HW1 8458   3.619   4.837   2.260
 2808SOL    HW2 8459   3.553   4.975   2.317
 2809SOL     OW 8460   2.054   4.473   3.444
 2809SOL    HW1 8461   2.154   4.479   3.447
 2809SOL    HW2 8462   2.015   4.557   3.481
 2810SOL     OW 8463   3.194   4.985   3.145
 2810SOL    HW1 8464   3.155   4.895   3.127
 2810SOL    HW2 8465   3.138   0.032   3.213
 2811SOL     OW 8466   2.695   3.745   2.370
 2811SOL    HW1 8467   2.745   3.826   2.338
 2811SOL    HW2 8468   2.597   3.765   2.372
 2812SOL     OW 8469   2.028   4.699   3.136
 2812SOL    HW1 8470   2.117   4.656   3.124
 2812SOL    HW2 8471   1.963   4.632   3.172
 2813SOL     OW 8472   3.426   4.762   2.071
 2813SOL    HW1 8473   3.350   4.702   2.095
 2813SOL    HW2 8474   3.467   4.798   2.154
 2814SOL     OW 8475   2.217   3.987   3.745
 2814SOL    HW1 8476   2.251   4.067   3.794
 2814SOL    HW2 8477   2.119   3.996   3.729
 2815SOL     OW 8478   2.433   4.409   2.156
 2815SOL    HW1 8479   2.444   4.501   2.117
 2815SOL    HW2 8480   2.363   4.411   2.226
 2816SOL     OW 8481   3.144   4.134   2.798
 2816SOL    HW1 8482   3.052   4.094   2.794
 2816SOL    HW2 8483   3.200   4.082   2.862
 2817SOL     OW 8484   2.650   4.337   3.304
 2817SOL    HW1 8485   2.614   4.311   3.394
 2817SOL    HW2 8486   2.630   4.265   3.238
 2818SOL     OW 8487   3.242   4.198   3.538
 2818SOL    HW1 8488   3.246   4.249   3.624
 2818SOL    HW2 8489   3.313   4.128   3.537
 2819SOL     OW 8490   2.795   4.627   3.472
 2819SOL    HW1 8491   2.852   4.562   3.423
 2819SOL    HW2 8492   2.746   4.684   3.406
 2820SOL     OW 8493   2.878   4.118   3.054
 2820SOL    HW1 8494   2.783   4.133   3.082
 2820SOL    HW2 8495   2.880   4.071   2.966
 2821SOL     OW 8496   2.901   4.405   2.271
 2821SOL    HW1 8497   2.929   4.416   2.367
 2821SOL    HW2 8498   2.815   4.355   2.267
 2822SOL     OW 8499   1.952   4.528   2.647
 2822SOL    HW1 8500   2.041   4.526   2.691
 2822SOL    HW2 8501   1.899   4.605   2.682
 2823SOL     OW 8502   2.714   4.056   2.069
 2823SOL    HW1 8503   2.770   4.106   2.003
 2823SOL    HW2 8504   2.657   3.989   2.021
 2824SOL     OW 8505   3.524   4.297   3.686
 2824SOL    HW1 8506   3.518   4.382   3.633
 2824SOL    HW2 8507   3.557   4.223   3.627
 2825SOL     OW 8508   3.298   4.896   2.445
 2825SOL    HW1 8509   3.382   4.872   2.396
 2825SOL    HW2 8510   3.267   4.986   2.417
 2826SOL     OW 8511   2.432   3.823   2.829
 2826SOL    HW1 8512   2.438   3.865   2.920
 2826SOL    HW2 8513   2.438   3.895   2.759
 2827SOL     OW 8514   3.656   4.748   2.724
 2827SOL    HW1 8515   3.621   4.721   2.634
 2827SOL    HW2 8516   3.580   4.756   2.788
 2828SOL     OW 8517   2.147   4.698   2.121
 2828SOL    HW1 8518   2.238   4.715   2.083
 2828SOL    HW2 8519   2.114   4.609   2.089
 2829SOL     OW 8520   3.356   4.499   2.568
 2829SOL    HW1 8521   3.356   4.456   2.658
 2829SOL    HW2 8522   3.437   4.556   2.558
 2830SOL     OW 8523   2.075   3.984   3.353
 2830SOL    HW1 8524   2.009   4.059   3.362
 2830SOL    HW2 8525   2.037   3.902   3.395
 2831SOL     OW 8526   3.267   3.829   2.307
 2831SOL    HW1 8527   3.268   3.803   2.210
 2831SOL    HW2 8528   3.353   3.799   2.350
 2832SOL     OW 8529   2.239   4.384   2.350
 2832SOL    HW1 8530   2.260   4.287   2.363
 2832SOL    HW2 8531   2.141   4.400   2.364
 2833SOL     OW 8532   3.375   3.936   3.563
 2833SOL    HW1 8533   3.383   3.942   3.663
 2833SOL    HW2 8534   3.286   3.898   3.539
 2834SOL     OW 8535   2.537   3.845   1.964
 2834SOL    HW1 8536   2.608   3.776   1.974
 2834SOL    HW2 8537   2.467   3.811   1.901
 2835SOL     OW 8538   2.599   4.005   3.584
 2835SOL    HW1 8539   2.687   3.964   3.609
 2835SOL    HW2 8540   2.529   3.975   3.648
 2836SOL     OW 8541   3.160   4.342   3.317
 2836SOL    HW1 8542   3.195   4.297   3.399
 2836SOL    HW2 8543   3.204   4.431   3.307
 2837SOL     OW 8544   2.795   4.236   2.737
 2837SOL    HW1 8545   2.773   4.226   2.640
 2837SOL    HW2 8546   2.824   4.148   2.775
 2838SOL     OW 8547   2.426   3.790   2.359
 2838SOL    HW1 8548   2.348   3.787   2.421
 2838SOL    HW2 8549   2.413   3.865   2.294
 2839SOL     OW 8550   2.150   3.763   2.050
 2839SOL    HW1 8551   2.198   3.840   2.007
 2839SOL    HW2 8552   2.217   3.704   2.095
 2840SOL     OW 8553   2.836   3.966   2.301
 2840SOL    HW1 8554   2.795   4.000   2.216
 2840SOL    HW2 8555   2.933   3.989   2.302
 2841SOL     OW 8556   2.905   4.448   3.290
 2841SOL    HW1 8557   2.828   4.385   3.302
 2841SOL    HW2 8558   2.991   4.399   3.300
 2842SOL     OW 8559   2.360   4.835   2.595
 2842SOL    HW1 8560   2.310   4.818   2.680
 2842SOL    HW2 8561   2.300   4.816   2.517
 2843SOL     OW 8562   2.874   4.220   1.912
 2843SOL    HW1 8563   2.833   4.308   1.887
 2843SOL    HW2 8564   2.947   4.235   1.979
 2844SOL     OW 8565   1.971   4.283   3.262
 2844SOL    HW1 8566   2.063   4.277   3.223
 2844SOL    HW2 8567   1.968   4.355   3.331
 2845SOL     OW 8568   2.438   3.938   3.077
 2845SOL    HW1 8569   2.480   3.917   3.165
 2845SOL    HW2 8570   2.338   3.934   3.086
 2846SOL     OW 8571   2.744   4.170   2.478
 2846SOL    HW1 8572   2.695   4.222   2.409
 2846SOL    HW2 8573   2.785   4.088   2.436
 2847SOL     OW 8574   2.880   3.792   2.593
 2847SOL    HW1 8575   2.820   3.799   2.513
 2847SOL    HW2 8576   2.850   3.716   2.650
 2848SOL     OW 8577   3.263   4.863   2.726
 2848SOL    HW1 8578   3.164   4.853   2.728
 2848SOL    HW2 8579   3.293   4.885   2.633
 2849SOL     OW 8580   3.329   4.345   2.803
 2849SOL    HW1 8581   3.256   4.276   2.807
 2849SOL    HW2 8582   3.390   4.333   2.881
 2850SOL     OW 8583   3.671   4.493   2.259
 2850SOL    HW1 8584   3.739   4.451   2.319
 2850SOL    HW2 8585   3.660   4.436   2.177
 2851SOL     OW 8586   3.246   4.311   1.912
 2851SOL    HW1 8587   3.197   4.279   1.993
 2851SOL    HW2 8588   3.344   4.296   1.923
 2852SOL     OW 8589   2.386   3.975   2.165
 2852SOL    HW1 8590   2.444   3.931   2.096
 2852SOL    HW2 8591   2.348   4.060   2.128
 2853SOL     OW 8592   3.605   4.916   3.360
 2853SOL    HW1 8593   3.704   4.920   3.364
 2853SOL    HW2 8594   3.568   0.009   3.359
 2854SOL     OW 8595   3.453   4.778   2.903
 2854SOL    HW1 8596   3.463   4.847   2.975
 2854SOL    HW2 8597   3.378   4.804   2.842
 2855SOL     OW 8598   2.799   3.802   3.232
 2855SOL    HW1 8599   2.820   3.784   3.136
 2855SOL    HW2 8600   2.875   3.851   3.274
 2856SOL     OW 8601   2.812   4.855   3.624
 2856SOL    HW1 8602   2.718   4.864   3.658
 2856SOL    HW2 8603   2.818   4.774   3.566
 2857SOL     OW 8604   2.571   4.703   2.221
 2857SOL    HW1 8605   2.569   4.694   2.320
 2857SOL    HW2 8606   2.649   4.652   2.185
 2858SOL     OW 8607   2.276   4.558   3.127
 2858SOL    HW1 8608   2.353   4.576   3.189
 2858SOL    HW2 8609   2.249   4.463   3.134
 2859SOL     OW 8610   3.124   4.113   3.167
 2859SOL    HW1 8611   3.145   4.198   3.215
 2859SOL    HW2 8612   3.034   4.121   3.123
 2860SOL     OW 8613   2.196   4.802   2.380
 2860SOL    HW1 8614   2.163   4.897   2.382
 2860SOL    HW2 8615   2.173   4.760   2.293
 2861SOL     OW 8616   2.396   4.255   2.738
 2861SOL    HW1 8617   2.399   4.317   2.659
 2861SOL    HW2 8618   2.472   4.276   2.799
 2862SOL     OW 8619   3.441   4.335   2.359
 2862SOL    HW1 8620   3.387   4.390   2.422
 2862SOL    HW2 8621   3.509   4.392   2.314
 2863SOL     OW 8622   2.341   4.459   3.489
 2863SOL    HW1 8623   2.386   4.512   3.417
 2863SOL    HW2 8624   2.403   4.388   3.522
 2864SOL     OW 8625   3.509   4.526   3.541
 2864SOL    HW1 8626   3.421   4.573   3.543
 2864SOL    HW2 8627   3.560   4.554   3.460
 2865SOL     OW 8628   2.829   3.879   3.674
 2865SOL    HW1 8629   2.897   3.944   3.639
 2865SOL    HW2 8630   2.876   3.806   3.724
 2866SOL     OW 8631   2.351   3.778   3.627
 2866SOL    HW1 8632   2.295   3.720   3.568
 2866SOL    HW2 8633   2.296   3.856   3.659
 2867SOL     OW 8634   2.473   4.593   2.918
 2867SOL    HW1 8635   2.447   4.665   2.854
 2867SOL    HW2 8636   2.400   4.581   2.986
 2868SOL     OW 8637   3.150   4.558   2.886
 2868SOL    HW1 8638   3.063   4.531   2.845
 2868SOL    HW2 8639   3.222   4.495   2.856
 2869SOL     OW 8640   3.064   4.244   2.115
 2869SOL    HW1 8641   3.086   4.165   2.172
 2869SOL    HW2 8642   3.016   4.313   2.170
 2870SOL     OW 8643   2.167   3.905   3.102
 2870SOL    HW1 8644   2.128   3.942   3.186
 2870SOL    HW2 8645   2.139   3.809   3.092
 2871SOL     OW 8646   2.595   4.347   2.903
 2871SOL    HW1 8647   2.666   4.332   2.834
 2871SOL    HW2 8648   2.559   4.440   2.895
 2872SOL     OW 8649   3.624   4.684   3.737
 2872SOL    HW1 8650   3.583   4.619   3.672
 2872SOL    HW2 8651   3.555   4.710   3.805
 2873SOL     OW 8652   2.193   3.780   2.509
 2873SOL    HW1 8653   2.149   3.868   2.526
 2873SOL    HW2 8654   2.201   3.729   2.595
 2874SOL     OW 8655   3.481   4.112   2.201
 2874SOL    HW1 8656   3.527   4.043   2.257
 2874SOL    HW2 8657   3.449   4.187   2.259
 2875SOL     OW 8658   2.889   4.483   2.813
 2875SOL    HW1 8659   2.867   4.504   2.908
 2875SOL    HW2 8660   2.864   4.388   2.793
 2876SOL     OW 8661   2.228   4.621   3.682
 2876SOL    HW1 8662   2.294   4.646   3.754
 2876SOL    HW2 8663   2.272   4.560   3.617
 2877SOL     OW 8664   3.380   3.983   1.974
 2877SOL    HW1 8665   3.334   3.901   2.009
 2877SOL    HW2 8666   3.417   4.035   2.051
 2878SOL     OW 8667   3.146   4.563   1.877
 2878SOL    HW1 8668   3.175   4.468   1.884
 2878SOL    HW2 8669   3.196   4.608   1.803
 2879SOL     OW 8670   2.196   4.507   2.766
 2879SOL    HW1 8671   2.267   4.496   2.696
 2879SOL    HW2 8672   2.185   4.421   2.816
 2880SOL     OW 8673   2.170   4.245   2.878
 2880SOL    HW1 8674   2.125   4.157   2.868
 2880SOL    HW2 8675   2.255   4.246   2.825
 2881SOL     OW 8676   2.997   4.081   3.581
 2881SOL    HW1 8677   2.947   4.134   3.650
 2881SOL    HW2 8678   3.085   4.125   3.561
 2882SOL     OW 8679   3.006   3.936   3.346
 2882SOL    HW1 8680   2.995   3.986   3.432
 2882SOL    HW2 8681   3.057   3.993   3.281
 2883SOL     OW 8682   1.739   4.983   1.963
 2883SOL    HW1 8683   1.785   0.059   2.008
 2883SOL    HW2 8684   1.785   4.897   1.988
 2884SOL     OW 8685   2.802   4.568   3.067
 2884SOL    HW1 8686   2.844   4.523   3.146
 2884SOL    HW2 8687   2.707   4.537   3.058
 2885SOL     OW 8688   1.903   4.301   2.992
 2885SOL    HW1 8689   1.986   4.299   2.936
 2885SOL    HW2 8690   1.927   4.300   3.089
 2886SOL     OW 8691   2.082   4.258   3.611
 2886SOL    HW1 8692   2.174   4.229   3.586
 2886SOL    HW2 8693   2.054   4.335   3.554
 2887SOL     OW 8694   3.285   4.684   3.538
 2887SOL    HW1 8695   3.320   4.776   3.554
 2887SOL    HW2 8696   3.267   4.671   3.440
 2888SOL     OW 8697   2.662   4.275   2.234
 2888SOL    HW1 8698   2.671   4.195   2.175
 2888SOL    HW2 8699   2.580   4.326   2.208
 2889SOL     OW 8700   3.501   4.310   3.016
 2889SOL    HW1 8701   3.489   4.248   3.094
 2889SOL    HW2 8702   3.598   4.311   2.990
 2890SOL     OW 8703   2.607   4.160   3.098
 2890SOL    HW1 8704   2.542   4.085   3.083
 2890SOL    HW2 8705   2.595   4.229   3.026
 2891SOL     OW 8706   2.292   4.201   2.040
 2891SOL    HW1 8707   2.361   4.267   2.069
 2891SOL    HW2 8708   2.202   4.243   2.041
 2892SOL     OW 8709   2.017   4.870   3.358
 2892SOL    HW1 8710   2.008   4.812   3.439
 2892SOL    HW2 8711   2.024   4.813   3.276
 2893SOL     OW 8712   3.083   4.728   3.090
 2893SOL    HW1 8713   3.122   4.678   3.012
 2893SOL    HW2 8714   2.988   4.698   3.104
 2894SOL     OW 8715   3.213   4.612   2.143
 2894SOL    HW1 8716   3.142   4.593   2.211
 2894SOL    HW2 8717   3.179   4.592   2.052
 2895SOL     OW 8718   1.967   4.860   2.908
 2895SOL    HW1 8719   1.977   4.808   2.992
 2895SOL    HW2 8720   1.907   4.811   2.844
 2896SOL     OW 8721   3.630   3.924   2.335
 2896SOL    HW1 8722   3.683   3.905   2.253
 2896SOL    HW2 8723   3.586   3.839   2.367
 2897SOL     OW 8724   3.156   4.664   2.487
 2897SOL    HW1 8725   3.227   4.599   2.516
 2897SOL    HW2 8726   3.199   4.748   2.456
 2898SOL     OW 8727   3.693   3.893   2.836
 2898SOL    HW1 8728   3.730   3.803   2.812
 2898SOL    HW2 8729   3.603   3.904   2.794
 2899SOL     OW 8730   2.087   4.020   2.577
 2899SOL    HW1 8731   2.000   4.061   2.549
 2899SOL    HW2 8732   2.092   4.020   2.677
 2900SOL     OW 8733   2.692   4.773   3.259
 2900SOL    HW1 8734   2.729   4.739   3.172
 2900SOL    HW2 8735   2.708   4.872   3.265
 2901SOL     OW 8736   2.778   4.576   2.092
 2901SOL    HW1 8737   2.841   4.643   2.054
 2901SOL    HW2 8738   2.827   4.517   2.156
 2902SOL     OW 8739   2.244   0.017   3.424
 2902SOL    HW1 8740   2.294   0.035   3.339
 2902SOL    HW2 8741   2.161   4.966   3.403
 2903SOL     OW 8742   3.467   4.955   3.113
 2903SOL    HW1 8743   3.514   4.930   3.198
 2903SOL    HW2 8744   3.371   4.972   3.132
 2904SOL     OW 8745   2.992   4.827   2.642
 2904SOL    HW1 8746   2.904   4.783   2.658
 2904SOL    HW2 8747   3.048   4.771   2.582
 2905SOL     OW 8748   2.901   3.975   2.812
 2905SOL    HW1 8749   2.898   3.937   2.719
 2905SOL    HW2 8750   2.898   3.900   2.878
 2906SOL     OW 8751   3.608   4.122   3.244
 2906SOL    HW1 8752   3.693   4.174   3.237
 2906SOL    HW2 8753   3.615   4.039   3.188
 2907SOL     OW 8754   1.989   4.709   3.578
 2907SOL    HW1 8755   1.910   4.708   3.640
 2907SOL    HW2 8756   2.072   4.688   3.630
 2908SOL     OW 8757   2.556   3.900   3.328
 2908SOL    HW1 8758   2.644   3.873   3.290
 2908SOL    HW2 8759   2.570   3.941   3.418
 2909SOL     OW 8760   1.941   4.039   1.856
 2909SOL    HW1 8761   1.856   4.026   1.804
 2909SOL    HW2 8762   1.985   4.124   1.827
 2910SOL     OW 8763   3.260   4.606   3.270
 2910SOL    HW1 8764   3.190   4.652   3.216
 2910SOL    HW2 8765   3.341   4.592   3.214
 2911SOL     OW 8766   1.905   3.872   2.099
 2911SOL    HW1 8767   1.890   3.936   2.023
 2911SOL    HW2 8768   1.998   3.836   2.093
 2912SOL     OW 8769   2.500   4.571   3.288
 2912SOL    HW1 8770   2.556   4.653   3.285
 2912SOL    HW2 8771   2.559   4.490   3.292
 2913SOL     OW 8772   2.558   4.287   3.560
 2913SOL    HW1 8773   2.617   4.340   3.620
 2913SOL    HW2 8774   2.574   4.189   3.575
 2914SOL     OW 8775   3.444   4.923   3.600
 2914SOL    HW1 8776   3.498   4.931   3.684
 2914SOL    HW2 8777   3.506   4.905   3.523
 2915SOL     OW 8778   3.472   4.576   3.095
 2915SOL    HW1 8779   3.482   4.483   3.061
 2915SOL    HW2 8780   3.465   4.640   3.019
 2916SOL     OW 8781   3.099   4.047   2.308
 2916SOL    HW1 8782   3.165   3.972   2.308
 2916SOL    HW2 8783   3.116   4.106   2.388
 2917SOL     OW 8784   2.386   4.473   2.564
 2917SOL    HW1 8785   2.453   4.543   2.539
 2917SOL    HW2 8786   2.333   4.448   2.484
 2918SOL     OW 8787   3.595   4.090   3.518
 2918SOL    HW1 8788   3.599   4.110   3.420
 2918SOL    HW2 8789   3.518   4.028   3.536
 2919SOL     OW 8790   3.622   4.640   3.315
 2919SOL    HW1 8791   3.614   4.738   3.333
 2919SOL    HW2 8792   3.569   4.616   3.233
 2920SOL     OW 8793   2.756   4.704   2.699
 2920SOL    HW1 8794   2.790   4.628   2.754
 2920SOL    HW2 8795   2.710   4.770   2.758
 2921SOL     OW 8796   2.954   4.735   1.966
 2921SOL    HW1 8797   2.914   4.792   1.894
 2921SOL    HW2 8798   3.024   4.676   1.927
 2922SOL     OW 8799   1.904   0.022   2.496
 2922SOL    HW1 8800   1.881   4.957   2.569
 2922SOL    HW2 8801   2.003   0.039   2.496
 2923SOL     OW 8802   3.611   3.876   3.103
 2923SOL    HW1 8803   3.589   3.779   3.091
 2923SOL    HW2 8804   3.649   3.913   3.019
 2924SOL     OW 8805   2.275   4.123   2.394
 2924SOL    HW1 8806   2.305   4.053   2.328
 2924SOL    HW2 8807   2.212   4.082   2.460
 2925SOL     OW 8808   2.218   4.291   3.148
 2925SOL    HW1 8809   2.270   4.225   3.202
 2925SOL    HW2 8810   2.216   4.262   3.053
 2926SOL     OW 8811   3.281   3.985   2.980
 2926SOL    HW1 8812   3.287   3.887   2.996
 2926SOL    HW2 8813   3.235   4.029   3.057
 2927SOL     OW 8814   2.878   3.736   2.963
 2927SOL    HW1 8815   2.824   3.685   2.896
 2927SOL    HW2 8816   2.965   3.690   2.979
 2928SOL     OW 8817   2.632   4.959   2.133
 2928SOL    HW1 8818   2.603   4.868   2.162
 2928SOL    HW2 8819   2.676   0.006   2.209
 2929SOL     OW 8820   3.260   3.746   2.045
 2929SOL    HW1 8821   3.308   3.674   1.996
 2929SOL    HW2 8822   3.165   3.717   2.062
 2930SOL     OW 8823   3.133   4.206   2.527
 2930SOL    HW1 8824   3.083   4.293   2.524
 2930SOL    HW2 8825   3.145   4.178   2.622
 2931SOL     OW 8826   3.434   3.936   2.754
 2931SOL    HW1 8827   3.387   3.969   2.835
 2931SOL    HW2 8828   3.439   4.009   2.686
 2932SOL     OW 8829   1.878   4.753   2.177
 2932SOL    HW1 8830   1.975   4.756   2.152
 2932SOL    HW2 8831   1.850   4.658   2.193
 2933SOL     OW 8832   2.055   4.331   3.878
 2933SOL    HW1 8833   1.961   4.314   3.908
 2933SOL    HW2 8834   2.060   4.323   3.778
 2934SOL     OW 8835   2.092   3.998   4.709
 2934SOL    HW1 8836   2.146   3.956   4.781
 2934SOL    HW2 8837   2.000   3.959   4.709
 2935SOL     OW 8838   1.846   4.134   4.356
 2935SOL    HW1 8839   1.762   4.161   4.403
 2935SOL    HW2 8840   1.826   4.059   4.293
 2936SOL     OW 8841   3.001   4.433   4.396
 2936SOL    HW1 8842   3.051   4.515   4.367
 2936SOL    HW2 8843   2.960   4.448   4.485
 2937SOL     OW 8844   3.647   4.287   3.925
 2937SOL    HW1 8845   3.607   4.298   3.834
 2937SOL    HW2 8846   3.596   4.218   3.976
 2938SOL     OW 8847   2.615   4.815   4.753
 2938SOL    HW1 8848   2.632   4.821   4.852
 2938SOL    HW2 8849   2.580   4.903   4.720
 2939SOL     OW 8850   2.566   4.684   4.370
 2939SOL    HW1 8851   2.645   4.687   4.431
 2939SOL    HW2 8852   2.499   4.752   4.399
 2940SOL     OW 8853   3.447   4.178   4.469
 2940SOL    HW1 8854   3.371   4.179   4.404
 2940SOL    HW2 8855   3.432   4.248   4.539
 2941SOL     OW 8856   2.198   4.794   4.667
 2941SOL    HW1 8857   2.188   4.695   4.655
 2941SOL    HW2 8858   2.110   4.833   4.694
 2942SOL     OW 8859   2.410   4.700   3.880
 2942SOL    HW1 8860   2.459   4.753   3.810
 2942SOL    HW2 8861   2.459   4.706   3.967
 2943SOL     OW 8862   1.967   4.382   4.287
 2943SOL    HW1 8863   1.932   4.290   4.307
 2943SOL    HW2 8864   1.958   4.440   4.368
 2944SOL     OW 8865   3.554   4.661   4.352
 2944SOL    HW1 8866   3.642   4.615   4.346
 2944SOL    HW2 8867   3.547   4.729   4.279
 2945SOL     OW 8868   3.540   4.867   4.162
 2945SOL    HW1 8869   3.621   4.832   4.116
 2945SOL    HW2 8870   3.551   4.965   4.178
 2946SOL     OW 8871   2.700   3.732   4.239
 2946SOL    HW1 8872   2.750   3.813   4.207
 2946SOL    HW2 8873   2.602   3.751   4.240
 2947SOL     OW 8874   2.008   4.675   4.931
 2947SOL    HW1 8875   2.105   4.649   4.932
 2947SOL    HW2 8876   1.952   4.596   4.905
 2948SOL     OW 8877   3.426   4.763   3.926
 2948SOL    HW1 8878   3.349   4.704   3.951
 2948SOL    HW2 8879   3.470   4.796   4.009
 2949SOL     OW 8880   2.433   4.416   4.010
 2949SOL    HW1 8881   2.439   4.505   3.966
 2949SOL    HW2 8882   2.365   4.420   4.083
 2950SOL     OW 8883   3.158   4.134   4.675
 2950SOL    HW1 8884   3.069   4.090   4.665
 2950SOL    HW2 8885   3.215   4.080   4.736
 2951SOL     OW 8886   2.895   4.401   4.138
 2951SOL    HW1 8887   2.924   4.407   4.233
 2951SOL    HW2 8888   2.807   4.353   4.134
 2952SOL     OW 8889   1.932   4.554   4.494
 2952SOL    HW1 8890   2.025   4.551   4.532
 2952SOL    HW2 8891   1.874   4.609   4.554
 2953SOL     OW 8892   2.713   4.056   3.930
 2953SOL    HW1 8893   2.771   4.107   3.867
 2953SOL    HW2 8894   2.658   3.989   3.879
 2954SOL     OW 8895   3.292   4.889   4.294
 2954SOL    HW1 8896   3.377   4.864   4.248
 2954SOL    HW2 8897   3.263   4.979   4.263
 2955SOL     OW 8898   2.397   3.852   4.707
 2955SOL    HW1 8899   2.340   3.866   4.788
 2955SOL    HW2 8900   2.410   3.940   4.660
 2956SOL     OW 8901   3.612   4.741   4.606
 2956SOL    HW1 8902   3.574   4.724   4.515
 2956SOL    HW2 8903   3.538   4.758   4.671
 2957SOL     OW 8904   2.149   4.703   3.978
 2957SOL    HW1 8905   2.243   4.714   3.945
 2957SOL    HW2 8906   2.113   4.614   3.950
 2958SOL     OW 8907   3.352   4.488   4.419
 2958SOL    HW1 8908   3.354   4.451   4.512
 2958SOL    HW2 8909   3.430   4.550   4.406
 2959SOL     OW 8910   3.252   3.810   4.183
 2959SOL    HW1 8911   3.248   3.785   4.087
 2959SOL    HW2 8912   3.344   3.792   4.218
 2960SOL     OW 8913   2.242   4.395   4.208
 2960SOL    HW1 8914   2.260   4.298   4.220
 2960SOL    HW2 8915   2.144   4.412   4.222
 2961SOL     OW 8916   2.529   3.846   3.829
 2961SOL    HW1 8917   2.600   3.776   3.841
 2961SOL    HW2 8918   2.460   3.814   3.765
 2962SOL     OW 8919   2.783   4.218   4.596
 2962SOL    HW1 8920   2.756   4.207   4.500
 2962SOL    HW2 8921   2.830   4.135   4.626
 2963SOL     OW 8922   2.432   3.789   4.219
 2963SOL    HW1 8923   2.353   3.786   4.280
 2963SOL    HW2 8924   2.422   3.866   4.156
 2964SOL     OW 8925   2.151   3.770   3.907
 2964SOL    HW1 8926   2.198   3.849   3.867
 2964SOL    HW2 8927   2.218   3.712   3.953
 2965SOL     OW 8928   2.833   3.958   4.161
 2965SOL    HW1 8929   2.794   3.994   4.076
 2965SOL    HW2 8930   2.930   3.984   4.166
 2966SOL     OW 8931   2.355   4.837   4.451
 2966SOL    HW1 8932   2.306   4.826   4.537
 2966SOL    HW2 8933   2.295   4.811   4.375
 2967SOL     OW 8934   2.876   4.224   3.780
 2967SOL    HW1 8935   2.834   4.311   3.755
 2967SOL    HW2 8936   2.947   4.240   3.849
 2968SOL     OW 8937   2.731   4.158   4.336
 2968SOL    HW1 8938   2.684   4.212   4.267
 2968SOL    HW2 8939   2.770   4.076   4.294
 2969SOL     OW 8940   2.890   3.765   4.450
 2969SOL    HW1 8941   2.824   3.763   4.376
 2969SOL    HW2 8942   2.865   3.697   4.519
 2970SOL     OW 8943   3.255   4.876   4.582
 2970SOL    HW1 8944   3.157   4.857   4.576
 2970SOL    HW2 8945   3.290   4.898   4.491
 2971SOL     OW 8946   3.341   4.358   4.671
 2971SOL    HW1 8947   3.274   4.285   4.685
 2971SOL    HW2 8948   3.412   4.353   4.742
 2972SOL     OW 8949   3.682   4.500   4.093
 2972SOL    HW1 8950   3.742   4.461   4.162
 2972SOL    HW2 8951   3.669   4.434   4.019
 2973SOL     OW 8952   3.246   4.315   3.784
 2973SOL    HW1 8953   3.196   4.285   3.865
 2973SOL    HW2 8954   3.344   4.306   3.800
 2974SOL     OW 8955   2.388   3.980   4.029
 2974SOL    HW1 8956   2.444   3.935   3.960
 2974SOL    HW2 8957   2.351   4.065   3.991
 2975SOL     OW 8958   3.417   4.800   4.787
 2975SOL    HW1 8959   3.428   4.874   4.853
 2975SOL    HW2 8960   3.352   4.828   4.716
 2976SOL     OW 8961   2.573   4.711   4.093
 2976SOL    HW1 8962   2.570   4.701   4.193
 2976SOL    HW2 8963   2.648   4.657   4.056
 2977SOL     OW 8964   2.258   4.562   4.978
 2977SOL    HW1 8965   2.324   4.595   0.045
 2977SOL    HW2 8966   2.202   4.490   0.019
 2978SOL     OW 8967   2.184   4.797   4.242
 2978SOL    HW1 8968   2.160   4.894   4.244
 2978SOL    HW2 8969   2.165   4.760   4.151
 2979SOL     OW 8970   2.392   4.256   4.599
 2979SOL    HW1 8971   2.400   4.324   4.527
 2979SOL    HW2 8972   2.466   4.268   4.665
 2980SOL     OW 8973   3.446   4.351   4.189
 2980SOL    HW1 8974   3.397   4.391   4.266
 2980SOL    HW2 8975   3.514   4.417   4.154
 2981SOL     OW 8976   2.487   4.566   4.786
 2981SOL    HW1 8977   2.518   4.658   4.762
 2981SOL    HW2 8978   2.395   4.571   4.824
 2982SOL     OW 8979   3.148   4.556   4.770
 2982SOL    HW1 8980   3.065   4.532   4.720
 2982SOL    HW2 8981   3.226   4.509   4.730
 2983SOL     OW 8982   3.064   4.245   3.986
 2983SOL    HW1 8983   3.087   4.166   4.044
 2983SOL    HW2 8984   3.013   4.311   4.040
 2984SOL     OW 8985   2.221   3.863   4.922
 2984SOL    HW1 8986   2.184   3.918   4.997
 2984SOL    HW2 8987   2.178   3.773   4.922
 2985SOL     OW 8988   2.596   4.319   4.784
 2985SOL    HW1 8989   2.661   4.298   4.711
 2985SOL    HW2 8990   2.560   4.411   4.771
 2986SOL     OW 8991   2.193   3.783   4.359
 2986SOL    HW1 8992   2.152   3.873   4.375
 2986SOL    HW2 8993   2.200   3.734   4.445
 2987SOL     OW 8994   3.470   4.113   4.052
 2987SOL    HW1 8995   3.520   4.049   4.111
 2987SOL    HW2 8996   3.446   4.195   4.105
 2988SOL     OW 8997   2.897   4.451   4.674
 2988SOL    HW1 8998   2.884   4.450   4.774
 2988SOL    HW2 8999   2.863   4.365   4.636
 2989SOL     OW 9000   3.377   3.956   3.834
 2989SOL    HW1 9001   3.323   3.883   3.874
 2989SOL    HW2 9002   3.409   4.017   3.907
 2990SOL     OW 9003   3.141   4.564   3.739
 2990SOL    HW1 9004   3.173   4.470   3.749
 2990SOL    HW2 9005   3.190   4.609   3.665
 2991SOL     OW 9006   2.182   4.527   4.605
 2991SOL    HW1 9007   2.260   4.517   4.544
 2991SOL    HW2 9008   2.163   4.439   4.649
 2992SOL     OW 9009   2.143   4.267   4.698
 2992SOL    HW1 9010   2.107   4.174   4.707
 2992SOL    HW2 9011   2.236   4.264   4.662
 2993SOL     OW 9012   3.057   3.962   0.179
 2993SOL    HW1 9013   3.052   3.984   0.276
 2993SOL    HW2 9014   3.010   4.033   0.126
 2994SOL     OW 9015   1.745   4.981   3.823
 2994SOL    HW1 9016   1.789   0.060   3.866
 2994SOL    HW2 9017   1.789   4.897   3.856
 2995SOL     OW 9018   2.814   4.426   4.939
 2995SOL    HW1 9019   2.814   4.516   4.982
 2995SOL    HW2 9020   2.721   4.401   4.913
 2996SOL     OW 9021   1.958   4.397   4.861
 2996SOL    HW1 9022   2.017   4.354   4.792
 2996SOL    HW2 9023   1.999   4.386   4.951
 2997SOL     OW 9024   2.655   4.273   4.096
 2997SOL    HW1 9025   2.664   4.194   4.035
 2997SOL    HW2 9026   2.576   4.328   4.067
 2998SOL     OW 9027   3.546   4.345   4.860
 2998SOL    HW1 9028   3.541   4.278   4.935
 2998SOL    HW2 9029   3.642   4.366   4.842
 2999SOL     OW 9030   2.497   4.169   4.995
 2999SOL    HW1 9031   2.579   4.135   0.042
 2999SOL    HW2 9032   2.524   4.222   4.914
 3000SOL     OW 9033   2.294   4.205   3.899
 3000SOL    HW1 9034   2.362   4.272   3.928
 3000SOL    HW2 9035   2.203   4.245   3.902
 3001SOL     OW 9036   1.986   4.806   0.170
 3001SOL    HW1 9037   2.047   4.760   0.235
 3001SOL    HW2 9038   1.990   4.760   0.082
 3002SOL     OW 9039   3.124   4.819   4.926
 3002SOL    HW1 9040   3.152   4.753   4.856
 3002SOL    HW2 9041   3.190   4.818   0.001
 3003SOL     OW 9042   3.212   4.620   4.005
 3003SOL    HW1 9043   3.145   4.602   4.077
 3003SOL    HW2 9044   3.172   4.597   3.916
 3004SOL     OW 9045   1.939   4.867   4.746
 3004SOL    HW1 9046   1.963   4.814   4.827
 3004SOL    HW2 9047   1.870   4.818   4.693
 3005SOL     OW 9048   3.627   3.932   4.189
 3005SOL    HW1 9049   3.679   3.909   4.107
 3005SOL    HW2 9050   3.584   3.850   4.226
 3006SOL     OW 9051   3.154   4.653   4.334
 3006SOL    HW1 9052   3.226   4.589   4.360
 3006SOL    HW2 9053   3.195   4.739   4.305
 3007SOL     OW 9054   3.718   3.875   4.720
 3007SOL    HW1 9055   3.744   3.782   4.693
 3007SOL    HW2 9056   3.631   3.899   4.676
 3008SOL     OW 9057   2.093   4.027   4.429
 3008SOL    HW1 9058   2.007   4.070   4.403
 3008SOL    HW2 9059   2.102   4.027   4.529
 3009SOL     OW 9060   2.660   4.797   0.026
 3009SOL    HW1 9061   2.751   4.755   0.035
 3009SOL    HW2 9062   2.648   4.865   0.098
 3010SOL     OW 9063   2.773   4.576   3.960
 3010SOL    HW1 9064   2.836   4.642   3.921
 3010SOL    HW2 9065   2.822   4.517   4.024
 3011SOL     OW 9066   3.448   0.003   4.970
 3011SOL    HW1 9067   3.539   0.002   0.012
 3011SOL    HW2 9068   3.380   0.024   0.040
 3012SOL     OW 9069   2.997   4.805   4.505
 3012SOL    HW1 9070   2.909   4.762   4.524
 3012SOL    HW2 9071   3.046   4.752   4.436
 3013SOL     OW 9072   2.923   3.978   4.644
 3013SOL    HW1 9073   2.922   3.927   4.558
 3013SOL    HW2 9074   2.905   3.916   4.720
 3014SOL     OW 9075   3.592   4.163   0.071
 3014SOL    HW1 9076   3.542   4.139   0.154
 3014SOL    HW2 9077   3.635   4.081   0.033
 3015SOL     OW 9078   1.945   4.042   3.712
 3015SOL    HW1 9079   1.859   4.029   3.662
 3015SOL    HW2 9080   1.987   4.128   3.685
 3016SOL     OW 9081   1.904   3.873   3.957
 3016SOL    HW1 9082   1.888   3.938   3.882
 3016SOL    HW2 9083   1.997   3.838   3.951
 3017SOL     OW 9084   3.525   4.609   4.960
 3017SOL    HW1 9085   3.524   4.514   4.927
 3017SOL    HW2 9086   3.484   4.669   4.892
 3018SOL     OW 9087   3.099   4.042   4.180
 3018SOL    HW1 9088   3.157   3.961   4.181
 3018SOL    HW2 9089   3.121   4.100   4.259
 3019SOL     OW 9090   2.389   4.475   4.427
 3019SOL    HW1 9091   2.457   4.545   4.405
 3019SOL    HW2 9092   2.338   4.452   4.344
 3020SOL     OW 9093   3.569   4.735   0.198
 3020SOL    HW1 9094   3.668   4.746   0.209
 3020SOL    HW2 9095   3.551   4.681   0.115
 3021SOL     OW 9096   2.765   4.678   4.569
 3021SOL    HW1 9097   2.801   4.595   4.611
 3021SOL    HW2 9098   2.711   4.728   4.636
 3022SOL     OW 9099   2.948   4.734   3.830
 3022SOL    HW1 9100   2.908   4.792   3.759
 3022SOL    HW2 9101   3.018   4.675   3.790
 3023SOL     OW 9102   1.903   0.030   4.349
 3023SOL    HW1 9103   1.880   4.980   4.433
 3023SOL    HW2 9104   2.002   0.042   4.343
 3024SOL     OW 9105   3.694   3.919   4.994
 3024SOL    HW1 9106   3.650   3.834   0.022
 3024SOL    HW2 9107   3.713   3.916   4.896
 3025SOL     OW 9108   2.277   4.133   4.246
 3025SOL    HW1 9109   2.313   4.062   4.186
 3025SOL    HW2 9110   2.217   4.091   4.314
 3026SOL     OW 9111   3.310   3.972   4.835
 3026SOL    HW1 9112   3.307   3.874   4.817
 3026SOL    HW2 9113   3.321   3.989   4.933
 3027SOL     OW 9114   2.866   3.760   4.819
 3027SOL    HW1 9115   2.857   3.687   4.752
 3027SOL    HW2 9116   2.916   3.727   4.899
 3028SOL     OW 9117   2.635   4.964   3.998
 3028SOL    HW1 9118   2.604   4.876   4.033
 3028SOL    HW2 9119   2.686   0.012   4.069
 3029SOL     OW 9120   3.229   3.732   3.919
 3029SOL    HW1 9121   3.278   3.652   3.884
 3029SOL    HW2 9122   3.131   3.719   3.906
 3030SOL     OW 9123   3.159   4.197   4.401
 3030SOL    HW1 9124   3.106   4.282   4.391
 3030SOL    HW2 9125   3.160   4.171   4.498
 3031SOL     OW 9126   3.476   3.946   4.615
 3031SOL    HW1 9127   3.422   3.971   4.696
 3031SOL    HW2 9128   3.472   4.021   4.548
 3032SOL     OW 9129   1.878   4.760   4.021
 3032SOL    HW1 9130   1.976   4.763   4.001
 3032SOL    HW2 9131   1.850   4.665   4.036
 3033SOL     OW 9132   3.962   0.642   0.076
 3033SOL    HW1 9133   3.881   0.626   0.132
 3033SOL    HW2 9134   4.033   0.576   0.100
 3034SOL     OW 9135   3.932   0.302   1.009
 3034SOL    HW1 9136   3.986   0.258   1.080
 3034SOL    HW2 9137   3.851   0.247   0.989
 3035SOL     OW 9138   3.709   0.416   0.662
 3035SOL    HW1 9139   3.630   0.438   0.720
 3035SOL    HW2 9140   3.686   0.342   0.600
 3036SOL     OW 9141   4.291   1.326   1.211
 3036SOL    HW1 9142   4.205   1.322   1.159
 3036SOL    HW2 9143   4.308   1.419   1.241
 3037SOL     OW 9144   4.847   0.807   0.686
 3037SOL    HW1 9145   4.943   0.824   0.706
 3037SOL    HW2 9146   4.797   0.792   0.771
 3038SOL     OW 9147   4.437   1.147   1.051
 3038SOL    HW1 9148   4.380   1.186   1.124
 3038SOL    HW2 9149   4.477   1.221   0.997
 3039SOL     OW 9150   4.621   0.731   1.813
 3039SOL    HW1 9151   4.614   0.787   1.895
 3039SOL    HW2 9152   4.647   0.788   1.735
 3040SOL     OW 9153   4.405   0.971   0.655
 3040SOL    HW1 9154   4.476   0.975   0.726
 3040SOL    HW2 9155   4.332   1.035   0.677
 3041SOL     OW 9156   4.403   1.138   1.828
 3041SOL    HW1 9157   4.447   1.219   1.868
 3041SOL    HW2 9158   4.325   1.168   1.772
 3042SOL     OW 9159   4.054   1.394   1.063
 3042SOL    HW1 9160   3.969   1.357   1.023
 3042SOL    HW2 9161   4.100   1.452   0.995
 3043SOL     OW 9162   4.206   0.398   1.440
 3043SOL    HW1 9163   4.282   0.333   1.453
 3043SOL    HW2 9164   4.121   0.355   1.469
 3044SOL     OW 9165   3.942   1.732   0.499
 3044SOL    HW1 9166   3.963   1.814   0.552
 3044SOL    HW2 9167   4.023   1.703   0.449
 3045SOL     OW 9168   4.823   1.364   1.734
 3045SOL    HW1 9169   4.878   1.355   1.817
 3045SOL    HW2 9170   4.773   1.279   1.718
 3046SOL     OW 9171   3.987   1.464   0.559
 3046SOL    HW1 9172   3.950   1.556   0.568
 3046SOL    HW2 9173   3.941   1.404   0.625
 3047SOL     OW 9174   4.008   1.094   0.901
 3047SOL    HW1 9175   4.022   0.999   0.929
 3047SOL    HW2 9176   3.951   1.141   0.969
 3048SOL     OW 9177   4.282   1.836   1.411
 3048SOL    HW1 9178   4.203   1.807   1.465
 3048SOL    HW2 9179   4.328   1.912   1.457
 3049SOL     OW 9180   4.318   0.929   0.196
 3049SOL    HW1 9181   4.381   0.933   0.118
 3049SOL    HW2 9182   4.359   0.976   0.274
 3050SOL     OW 9183   3.822   0.671   0.587
 3050SOL    HW1 9184   3.791   0.579   0.610
 3050SOL    HW2 9185   3.823   0.727   0.670
 3051SOL     OW 9186   3.799   1.589   0.116
 3051SOL    HW1 9187   3.795   1.494   0.147
 3051SOL    HW2 9188   3.766   1.649   0.189
 3052SOL     OW 9189   3.829   0.776   1.573
 3052SOL    HW1 9190   3.897   0.843   1.602
 3052SOL    HW2 9191   3.746   0.824   1.543
 3053SOL     OW 9192   4.322   1.386   0.726
 3053SOL    HW1 9193   4.282   1.295   0.732
 3053SOL    HW2 9194   4.322   1.416   0.631
 3054SOL     OW 9195   4.506   0.073   0.544
 3054SOL    HW1 9196   4.553   0.158   0.520
 3054SOL    HW2 9197   4.408   0.088   0.547
 3055SOL     OW 9198   3.913   0.950   1.289
 3055SOL    HW1 9199   4.008   0.921   1.282
 3055SOL    HW2 9200   3.858   0.901   1.221
 3056SOL     OW 9201   4.077   0.267   1.918
 3056SOL    HW1 9202   4.115   0.351   1.956
 3056SOL    HW2 9203   3.984   0.285   1.884
 3057SOL     OW 9204   4.301   0.673   0.304
 3057SOL    HW1 9205   4.320   0.763   0.264
 3057SOL    HW2 9206   4.230   0.682   0.374
 3058SOL     OW 9207   4.523   0.598   1.444
 3058SOL    HW1 9208   4.487   0.570   1.533
 3058SOL    HW2 9209   4.492   0.533   1.374
 3059SOL     OW 9210   4.696   0.882   1.590
 3059SOL    HW1 9211   4.751   0.812   1.545
 3059SOL    HW2 9212   4.643   0.932   1.521
 3060SOL     OW 9213   4.724   0.368   1.251
 3060SOL    HW1 9214   4.628   0.396   1.256
 3060SOL    HW2 9215   4.747   0.346   1.156
 3061SOL     OW 9216   4.795   0.715   0.428
 3061SOL    HW1 9217   4.812   0.744   0.522
 3061SOL    HW2 9218   4.707   0.667   0.423
 3062SOL     OW 9219   3.828   0.831   0.806
 3062SOL    HW1 9220   3.916   0.831   0.853
 3062SOL    HW2 9221   3.773   0.907   0.839
 3063SOL     OW 9222   3.825   1.894   1.598
 3063SOL    HW1 9223   3.836   1.861   1.692
 3063SOL    HW2 9224   3.733   1.873   1.565
 3064SOL     OW 9225   4.647   0.378   0.224
 3064SOL    HW1 9226   4.699   0.437   0.162
 3064SOL    HW2 9227   4.646   0.284   0.188
 3065SOL     OW 9228   4.238   0.242   0.922
 3065SOL    HW1 9229   4.272   0.233   1.016
 3065SOL    HW2 9230   4.251   0.335   0.890
 3066SOL     OW 9231   4.711   1.435   0.489
 3066SOL    HW1 9232   4.683   1.514   0.434
 3066SOL    HW2 9233   4.691   1.453   0.585
 3067SOL     OW 9234   4.074   1.810   0.878
 3067SOL    HW1 9235   4.113   1.718   0.879
 3067SOL    HW2 9236   4.143   1.876   0.908
 3068SOL     OW 9237   4.921   1.571   1.535
 3068SOL    HW1 9238   4.907   1.499   1.603
 3068SOL    HW2 9239   4.833   1.603   1.501
 3069SOL     OW 9240   4.061   0.927   0.312
 3069SOL    HW1 9241   4.150   0.937   0.267
 3069SOL    HW2 9242   4.059   0.842   0.364
 3070SOL     OW 9243   4.184   1.275   1.721
 3070SOL    HW1 9244   4.156   1.285   1.625
 3070SOL    HW2 9245   4.103   1.280   1.780
 3071SOL     OW 9246   4.750   1.809   0.192
 3071SOL    HW1 9247   4.701   1.748   0.255
 3071SOL    HW2 9248   4.824   1.758   0.148
 3072SOL     OW 9249   3.949   0.300   1.479
 3072SOL    HW1 9250   3.900   0.386   1.468
 3072SOL    HW2 9251   3.920   0.256   1.564
 3073SOL     OW 9252   4.183   1.711   0.367
 3073SOL    HW1 9253   4.224   1.783   0.421
 3073SOL    HW2 9254   4.248   1.678   0.299
 3074SOL     OW 9255   3.950   1.789   1.204
 3074SOL    HW1 9256   4.000   1.710   1.238
 3074SOL    HW2 9257   3.916   1.771   1.112
 3075SOL     OW 9258   4.658   1.692   0.913
 3075SOL    HW1 9259   4.723   1.634   0.962
 3075SOL    HW2 9260   4.625   1.643   0.832
 3076SOL     OW 9261   4.074   0.695   0.475
 3076SOL    HW1 9262   4.100   0.599   0.488
 3076SOL    HW2 9263   3.981   0.710   0.509
 3077SOL     OW 9264   4.273   0.064   0.153
 3077SOL    HW1 9265   4.347   0.020   0.203
 3077SOL    HW2 9266   4.303   0.087   0.061
 3078SOL     OW 9267   4.489   0.284   1.731
 3078SOL    HW1 9268   4.575   0.234   1.723
 3078SOL    HW2 9269   4.442   0.256   1.815
 3079SOL     OW 9270   4.566   1.527   1.165
 3079SOL    HW1 9271   4.534   1.491   1.077
 3079SOL    HW2 9272   4.633   1.463   1.203
 3080SOL     OW 9273   4.518   1.382   0.923
 3080SOL    HW1 9274   4.605   1.376   0.875
 3080SOL    HW2 9275   4.443   1.390   0.857
 3081SOL     OW 9276   4.653   0.509   0.895
 3081SOL    HW1 9277   4.655   0.497   0.796
 3081SOL    HW2 9278   4.673   0.422   0.939
 3082SOL     OW 9279   4.227   0.084   0.506
 3082SOL    HW1 9280   4.151   0.081   0.571
 3082SOL    HW2 9281   4.212   0.156   0.439
 3083SOL     OW 9282   3.996   0.055   0.172
 3083SOL    HW1 9283   4.096   0.044   0.172
 3083SOL    HW2 9284   3.953   4.965   0.169
 3084SOL     OW 9285   4.704   0.252   0.460
 3084SOL    HW1 9286   4.681   0.306   0.379
 3084SOL    HW2 9287   4.778   0.188   0.438
 3085SOL     OW 9288   4.791   0.672   1.434
 3085SOL    HW1 9289   4.701   0.629   1.441
 3085SOL    HW2 9290   4.860   0.602   1.414
 3086SOL     OW 9291   4.947   1.540   0.743
 3086SOL    HW1 9292   4.972   1.634   0.719
 3086SOL    HW2 9293   0.030   1.485   0.753
 3087SOL     OW 9294   4.199   1.143   0.711
 3087SOL    HW1 9295   4.136   1.125   0.787
 3087SOL    HW2 9296   4.148   1.143   0.625
 3088SOL     OW 9297   4.981   1.828   0.684
 3088SOL    HW1 9298   0.011   1.876   0.602
 3088SOL    HW2 9299   4.889   1.860   0.709
 3089SOL     OW 9300   4.807   0.534   0.067
 3089SOL    HW1 9301   4.772   0.614   0.018
 3089SOL    HW2 9302   4.877   0.563   0.132
 3090SOL     OW 9303   3.851   0.559   1.407
 3090SOL    HW1 9304   3.942   0.567   1.366
 3090SOL    HW2 9305   3.836   0.636   1.469
 3091SOL     OW 9306   4.290   0.221   1.204
 3091SOL    HW1 9307   4.335   0.200   1.290
 3091SOL    HW2 9308   4.193   0.200   1.210
 3092SOL     OW 9309   4.669   0.467   0.626
 3092SOL    HW1 9310   4.614   0.523   0.564
 3092SOL    HW2 9311   4.685   0.377   0.584
 3093SOL     OW 9312   4.656   0.074   0.780
 3093SOL    HW1 9313   4.605   0.068   0.694
 3093SOL    HW2 9314   4.741   0.022   0.773
 3094SOL     OW 9315   4.229   1.412   0.159
 3094SOL    HW1 9316   4.148   1.386   0.213
 3094SOL    HW2 9317   4.231   1.360   0.074
 3095SOL     OW 9318   4.196   0.273   0.312
 3095SOL    HW1 9319   4.226   0.198   0.253
 3095SOL    HW2 9320   4.191   0.357   0.258
 3096SOL     OW 9321   4.734   1.338   1.265
 3096SOL    HW1 9322   4.664   1.306   1.329
 3096SOL    HW2 9323   4.825   1.322   1.304
 3097SOL     OW 9324   4.828   1.224   1.027
 3097SOL    HW1 9325   4.785   1.262   1.109
 3097SOL    HW2 9326   4.792   1.271   0.947
 3098SOL     OW 9327   4.620   0.038   1.400
 3098SOL    HW1 9328   4.641   0.034   1.302
 3098SOL    HW2 9329   4.693   0.088   1.447
 3099SOL     OW 9330   4.688   1.113   1.745
 3099SOL    HW1 9331   4.592   1.125   1.767
 3099SOL    HW2 9332   4.700   1.034   1.685
 3100SOL     OW 9333   4.474   1.036   0.394
 3100SOL    HW1 9334   4.457   1.009   0.489
 3100SOL    HW2 9335   4.562   0.999   0.364
 3101SOL     OW 9336   4.166   0.840   1.276
 3101SOL    HW1 9337   4.236   0.849   1.347
 3101SOL    HW2 9338   4.132   0.746   1.274
 3102SOL     OW 9339   3.785   1.559   1.352
 3102SOL    HW1 9340   3.744   1.630   1.295
 3102SOL    HW2 9341   3.884   1.563   1.344
 3103SOL     OW 9342   4.042   1.139   0.485
 3103SOL    HW1 9343   4.041   1.219   0.424
 3103SOL    HW2 9344   4.043   1.056   0.430
 3104SOL     OW 9345   4.264   0.521   0.867
 3104SOL    HW1 9346   4.265   0.580   0.786
 3104SOL    HW2 9347   4.334   0.552   0.932
 3105SOL     OW 9348   4.962   1.301   0.484
 3105SOL    HW1 9349   0.025   1.378   0.473
 3105SOL    HW2 9350   4.868   1.335   0.486
 3106SOL     OW 9351   4.055   1.540   1.290
 3106SOL    HW1 9352   4.047   1.482   1.209
 3106SOL    HW2 9353   4.151   1.565   1.304
 3107SOL     OW 9354   4.205   0.703   1.658
 3107SOL    HW1 9355   4.239   0.759   1.582
 3107SOL    HW2 9356   4.275   0.636   1.684
 3108SOL     OW 9357   4.712   0.131   1.728
 3108SOL    HW1 9358   4.796   0.169   1.689
 3108SOL    HW2 9359   4.718   0.032   1.727
 3109SOL     OW 9360   4.233   0.075   1.805
 3109SOL    HW1 9361   4.198   0.042   1.718
 3109SOL    HW2 9362   4.171   0.145   1.842
 3110SOL     OW 9363   4.321   0.888   1.051
 3110SOL    HW1 9364   4.360   0.980   1.045
 3110SOL    HW2 9365   4.267   0.880   1.135
 3111SOL     OW 9366   0.037   0.903   1.082
 3111SOL    HW1 9367   4.947   0.931   1.049
 3111SOL    HW2 9368   0.042   0.804   1.087
 3112SOL     OW 9369   4.987   0.590   0.266
 3112SOL    HW1 9370   0.004   0.499   0.305
 3112SOL    HW2 9371   4.932   0.643   0.330
 3113SOL     OW 9372   4.020   0.168   1.245
 3113SOL    HW1 9373   3.990   0.215   1.328
 3113SOL    HW2 9374   3.962   0.088   1.228
 3114SOL     OW 9375   3.772   1.300   1.256
 3114SOL    HW1 9376   3.801   1.238   1.330
 3114SOL    HW2 9377   3.767   1.394   1.292
 3115SOL     OW 9378   4.444   0.635   1.040
 3115SOL    HW1 9379   4.522   0.617   0.980
 3115SOL    HW2 9380   4.415   0.730   1.029
 3116SOL     OW 9381   4.014   0.070   0.682
 3116SOL    HW1 9382   3.994   0.167   0.696
 3116SOL    HW2 9383   4.062   0.034   0.762
 3117SOL     OW 9384   4.726   0.769   0.941
 3117SOL    HW1 9385   4.722   0.784   1.040
 3117SOL    HW2 9386   4.716   0.671   0.921
 3118SOL     OW 9387   4.642   1.568   1.706
 3118SOL    HW1 9388   4.650   1.602   1.612
 3118SOL    HW2 9389   4.712   1.499   1.723
 3119SOL     OW 9390   4.084   0.901   1.807
 3119SOL    HW1 9391   4.145   0.932   1.880
 3119SOL    HW2 9392   4.128   0.828   1.754
 3120SOL     OW 9393   4.754   1.356   0.794
 3120SOL    HW1 9394   4.770   1.271   0.743
 3120SOL    HW2 9395   4.825   1.422   0.772
 3121SOL     OW 9396   4.062   0.826   0.956
 3121SOL    HW1 9397   4.159   0.846   0.967
 3121SOL    HW2 9398   4.045   0.730   0.975
 3122SOL     OW 9399   4.033   0.550   1.005
 3122SOL    HW1 9400   3.986   0.462   1.005
 3122SOL    HW2 9401   4.115   0.543   0.948
 3123SOL     OW 9402   4.887   0.371   1.671
 3123SOL    HW1 9403   4.821   0.410   1.736
 3123SOL    HW2 9404   4.973   0.422   1.677
 3124SOL     OW 9405   4.845   0.216   1.442
 3124SOL    HW1 9406   4.868   0.274   1.521
 3124SOL    HW2 9407   4.804   0.272   1.370
 3125SOL     OW 9408   3.766   1.309   0.190
 3125SOL    HW1 9409   3.670   1.327   0.169
 3125SOL    HW2 9410   3.781   1.211   0.196
 3126SOL     OW 9411   3.819   1.754   0.956
 3126SOL    HW1 9412   3.787   1.669   0.915
 3126SOL    HW2 9413   3.908   1.778   0.918
 3127SOL     OW 9414   4.195   1.560   0.896
 3127SOL    HW1 9415   4.269   1.621   0.927
 3127SOL    HW2 9416   4.231   1.496   0.828
 3128SOL     OW 9417   4.673   0.794   1.209
 3128SOL    HW1 9418   4.735   0.766   1.283
 3128SOL    HW2 9419   4.587   0.743   1.217
 3129SOL     OW 9420   3.772   0.614   1.139
 3129SOL    HW1 9421   3.847   0.601   1.074
 3129SOL    HW2 9422   3.803   0.594   1.231
 3130SOL     OW 9423   3.950   0.602   1.753
 3130SOL    HW1 9424   4.045   0.617   1.726
 3130SOL    HW2 9425   3.890   0.656   1.694
 3131SOL     OW 9426   4.554   0.577   0.393
 3131SOL    HW1 9427   4.580   0.506   0.328
 3131SOL    HW2 9428   4.463   0.612   0.370
 3132SOL     OW 9429   3.952   1.544   1.713
 3132SOL    HW1 9430   3.932   1.614   1.781
 3132SOL    HW2 9431   3.959   1.455   1.758
 3133SOL     OW 9432   4.458   0.442   1.230
 3133SOL    HW1 9433   4.394   0.366   1.214
 3133SOL    HW2 9434   4.447   0.511   1.158
 3134SOL     OW 9435   4.671   1.661   1.449
 3134SOL    HW1 9436   4.633   1.615   1.368
 3134SOL    HW2 9437   4.659   1.760   1.439
 3135SOL     OW 9438   4.187   0.484   0.137
 3135SOL    HW1 9439   4.246   0.463   0.059
 3135SOL    HW2 9440   4.233   0.551   0.196
 3136SOL     OW 9441   3.849   1.138   1.473
 3136SOL    HW1 9442   3.859   1.103   1.566
 3136SOL    HW2 9443   3.872   1.066   1.407
 3137SOL     OW 9444   4.949   1.746   1.141
 3137SOL    HW1 9445   0.007   1.771   1.064
 3137SOL    HW2 9446   4.991   1.672   1.193
 3138SOL     OW 9447   3.802   1.276   0.990
 3138SOL    HW1 9448   3.782   1.285   1.087
 3138SOL    HW2 9449   3.748   1.201   0.951
 3139SOL     OW 9450   4.434   1.712   1.801
 3139SOL    HW1 9451   4.385   1.758   1.728
 3139SOL    HW2 9452   4.515   1.667   1.764
 3140SOL     OW 9453   4.672   0.111   0.161
 3140SOL    HW1 9454   4.683   0.091   0.063
 3140SOL    HW2 9455   4.603   0.050   0.200
 3141SOL     OW 9456   3.862   1.784   1.844
 3141SOL    HW1 9457   3.811   1.711   1.889
 3141SOL    HW2 9458   3.915   1.835   1.912
 3142SOL     OW 9459   4.495   1.276   1.398
 3142SOL    HW1 9460   4.470   1.323   1.482
 3142SOL    HW2 9461   4.421   1.286   1.332
 3143SOL     OW 9462   4.378   1.632   0.187
 3143SOL    HW1 9463   4.368   1.688   0.105
 3143SOL    HW2 9464   4.329   1.545   0.174
 3144SOL     OW 9465   3.961   0.332   0.729
 3144SOL    HW1 9466   3.871   0.369   0.707
 3144SOL    HW2 9467   3.972   0.326   0.828
 3145SOL     OW 9468   4.561   1.011   1.392
 3145SOL    HW1 9469   4.604   0.991   1.304
 3145SOL    HW2 9470   4.539   1.109   1.396
 3146SOL     OW 9471   4.710   0.941   0.288
 3146SOL    HW1 9472   4.770   0.965   0.212
 3146SOL    HW2 9473   4.747   0.861   0.336
 3147SOL     OW 9474   4.070   1.314   1.479
 3147SOL    HW1 9475   4.063   1.394   1.419
 3147SOL    HW2 9476   3.989   1.256   1.467
 3148SOL     OW 9477   4.775   1.102   0.692
 3148SOL    HW1 9478   4.705   1.069   0.755
 3148SOL    HW2 9479   4.813   1.026   0.640
 3149SOL     OW 9480   4.708   0.247   0.994
 3149SOL    HW1 9481   4.689   0.206   0.904
 3149SOL    HW2 9482   4.709   0.175   1.063
 3150SOL     OW 9483   4.338   1.469   0.472
 3150SOL    HW1 9484   4.386   1.415   0.403
 3150SOL    HW2 9485   4.256   1.509   0.432
 3151SOL     OW 9486   4.010   1.354   0.315
 3151SOL    HW1 9487   3.920   1.344   0.273
 3151SOL    HW2 9488   4.001   1.405   0.401
 3152SOL     OW 9489   3.860   1.039   1.730
 3152SOL    HW1 9490   3.777   1.016   1.782
 3152SOL    HW2 9491   3.938   0.989   1.768
 3153SOL     OW 9492   4.404   0.198   1.469
 3153SOL    HW1 9493   4.476   0.135   1.442
 3153SOL    HW2 9494   4.422   0.231   1.562
 3154SOL     OW 9495   3.796   0.211   0.284
 3154SOL    HW1 9496   3.801   0.306   0.254
 3154SOL    HW2 9497   3.880   0.163   0.257
 3155SOL     OW 9498   4.368   0.826   1.456
 3155SOL    HW1 9499   4.427   0.906   1.443
 3155SOL    HW2 9500   4.423   0.743   1.453
 3156SOL     OW 9501   4.435   0.553   1.700
 3156SOL    HW1 9502   4.499   0.610   1.751
 3156SOL    HW2 9503   4.456   0.456   1.717
 3157SOL     OW 9504   4.071   1.763   1.576
 3157SOL    HW1 9505   3.985   1.813   1.564
 3157SOL    HW2 9506   4.051   1.672   1.612
 3158SOL     OW 9507   4.272   0.725   0.680
 3158SOL    HW1 9508   4.326   0.808   0.670
 3158SOL    HW2 9509   4.198   0.725   0.613
 3159SOL     OW 9510   4.650   1.353   0.091
 3159SOL    HW1 9511   4.600   1.324   0.172
 3159SOL    HW2 9512   4.630   1.449   0.071
 3160SOL     OW 9513   4.384   1.746   0.945
 3160SOL    HW1 9514   4.362   1.843   0.935
 3160SOL    HW2 9515   4.483   1.733   0.940
 3161SOL     OW 9516   4.587   0.993   0.861
 3161SOL    HW1 9517   4.636   0.912   0.892
 3161SOL    HW2 9518   4.545   1.039   0.939
 3162SOL     OW 9519   4.849   0.996   0.052
 3162SOL    HW1 9520   4.819   1.067   4.989
 3162SOL    HW2 9521   4.948   0.982   0.041
 3163SOL     OW 9522   3.929   1.289   1.830
 3163SOL    HW1 9523   3.905   1.204   1.783
 3163SOL    HW2 9524   3.867   1.301   1.908
 3164SOL     OW 9525   3.879   1.238   0.686
 3164SOL    HW1 9526   3.906   1.194   0.771
 3164SOL    HW2 9527   3.927   1.195   0.609
 3165SOL     OW 9528   4.407   1.409   1.618
 3165SOL    HW1 9529   4.325   1.372   1.663
 3165SOL    HW2 9530   4.456   1.468   1.681
 3166SOL     OW 9531   4.121   0.438   0.523
 3166SOL    HW1 9532   4.151   0.367   0.460
 3166SOL    HW2 9533   4.075   0.396   0.601
 3167SOL     OW 9534   4.087   0.580   1.277
 3167SOL    HW1 9535   4.145   0.516   1.327
 3167SOL    HW2 9536   4.086   0.555   1.180
 3168SOL     OW 9537   4.547   1.599   0.681
 3168SOL    HW1 9538   4.534   1.684   0.629
 3168SOL    HW2 9539   4.471   1.537   0.664
 3169SOL     OW 9540   4.704   0.005   1.143
 3169SOL    HW1 9541   4.635   4.966   1.081
 3169SOL    HW2 9542   4.782   4.944   1.148
 3170SOL     OW 9543   4.526   1.300   0.330
 3170SOL    HW1 9544   4.500   1.207   0.353
 3170SOL    HW2 9545   4.595   1.333   0.395
 3171SOL     OW 9546   4.324   1.595   1.281
 3171SOL    HW1 9547   4.319   1.684   1.327
 3171SOL    HW2 9548   4.413   1.585   1.237
 3172SOL     OW 9549   4.597   1.654   0.355
 3172SOL    HW1 9550   4.516   1.635   0.299
 3172SOL    HW2 9551   4.574   1.721   0.426
 3173SOL     OW 9552   3.921   0.673   2.022
 3173SOL    HW1 9553   3.833   0.637   2.052
 3173SOL    HW2 9554   3.929   0.664   1.923
 3174SOL     OW 9555   3.935   0.299   2.872
 3174SOL    HW1 9556   3.990   0.256   2.943
 3174SOL    HW2 9557   3.854   0.243   2.854
 3175SOL     OW 9558   3.718   0.438   2.509
 3175SOL    HW1 9559   3.630   0.444   2.556
 3175SOL    HW2 9560   3.707   0.385   2.425
 3176SOL     OW 9561   4.297   1.327   3.078
 3176SOL    HW1 9562   4.212   1.323   3.027
 3176SOL    HW2 9563   4.316   1.421   3.104
 3177SOL     OW 9564   4.845   0.795   2.549
 3177SOL    HW1 9565   4.942   0.807   2.567
 3177SOL    HW2 9566   4.796   0.785   2.635
 3178SOL     OW 9567   4.433   1.146   2.913
 3178SOL    HW1 9568   4.382   1.187   2.988
 3178SOL    HW2 9569   4.471   1.218   2.855
 3179SOL     OW 9570   4.638   0.733   3.665
 3179SOL    HW1 9571   4.667   0.792   3.740
 3179SOL    HW2 9572   4.650   0.781   3.578
 3180SOL     OW 9573   4.404   0.975   2.510
 3180SOL    HW1 9574   4.472   0.979   2.583
 3180SOL    HW2 9575   4.330   1.040   2.529
 3181SOL     OW 9576   4.410   1.147   3.689
 3181SOL    HW1 9577   4.456   1.227   3.729
 3181SOL    HW2 9578   4.332   1.177   3.635
 3182SOL     OW 9579   4.064   1.395   2.928
 3182SOL    HW1 9580   3.982   1.352   2.891
 3182SOL    HW2 9581   4.108   1.450   2.858
 3183SOL     OW 9582   4.205   0.397   3.301
 3183SOL    HW1 9583   4.281   0.333   3.314
 3183SOL    HW2 9584   4.120   0.353   3.330
 3184SOL     OW 9585   3.941   1.743   2.338
 3184SOL    HW1 9586   3.964   1.814   2.404
 3184SOL    HW2 9587   4.016   1.731   2.274
 3185SOL     OW 9588   4.836   1.344   3.615
 3185SOL    HW1 9589   4.891   1.326   3.696
 3185SOL    HW2 9590   4.777   1.266   3.596
 3186SOL     OW 9591   3.964   1.469   2.390
 3186SOL    HW1 9592   3.943   1.566   2.396
 3186SOL    HW2 9593   3.925   1.421   2.469
 3187SOL     OW 9594   4.015   1.100   2.747
 3187SOL    HW1 9595   4.024   1.005   2.777
 3187SOL    HW2 9596   3.956   1.149   2.811
 3188SOL     OW 9597   4.279   1.837   3.267
 3188SOL    HW1 9598   4.201   1.806   3.321
 3188SOL    HW2 9599   4.325   1.912   3.315
 3189SOL     OW 9600   4.281   0.983   2.030
 3189SOL    HW1 9601   4.325   1.027   1.951
 3189SOL    HW2 9602   4.329   1.010   2.113
 3190SOL     OW 9603   3.826   0.694   2.441
 3190SOL    HW1 9604   3.799   0.601   2.467
 3190SOL    HW2 9605   3.830   0.752   2.523
 3191SOL     OW 9606   3.766   1.573   1.980
 3191SOL    HW1 9607   3.744   1.477   1.998
 3191SOL    HW2 9608   3.745   1.628   2.061
 3192SOL     OW 9609   3.828   0.775   3.433
 3192SOL    HW1 9610   3.898   0.842   3.458
 3192SOL    HW2 9611   3.745   0.823   3.403
 3193SOL     OW 9612   4.325   1.395   2.572
 3193SOL    HW1 9613   4.285   1.303   2.576
 3193SOL    HW2 9614   4.319   1.429   2.478
 3194SOL     OW 9615   4.560   0.081   2.380
 3194SOL    HW1 9616   4.605   0.168   2.357
 3194SOL    HW2 9617   4.461   0.096   2.387
 3195SOL     OW 9618   3.912   0.948   3.156
 3195SOL    HW1 9619   4.007   0.918   3.146
 3195SOL    HW2 9620   3.855   0.903   3.087
 3196SOL     OW 9621   4.076   0.266   3.784
 3196SOL    HW1 9622   4.115   0.351   3.821
 3196SOL    HW2 9623   3.985   0.285   3.747
 3197SOL     OW 9624   4.297   0.718   2.147
 3197SOL    HW1 9625   4.303   0.807   2.102
 3197SOL    HW2 9626   4.226   0.721   2.218
 3198SOL     OW 9627   4.524   0.599   3.304
 3198SOL    HW1 9628   4.489   0.572   3.394
 3198SOL    HW2 9629   4.493   0.534   3.235
 3199SOL     OW 9630   4.694   0.882   3.439
 3199SOL    HW1 9631   4.750   0.812   3.393
 3199SOL    HW2 9632   4.640   0.931   3.370
 3200SOL     OW 9633   4.722   0.368   3.108
 3200SOL    HW1 9634   4.626   0.396   3.113
 3200SOL    HW2 9635   4.745   0.347   3.013
 3201SOL     OW 9636   4.768   0.698   2.297
 3201SOL    HW1 9637   4.791   0.730   2.389
 3201SOL    HW2 9638   4.678   0.654   2.299
 3202SOL     OW 9639   3.816   0.862   2.657
 3202SOL    HW1 9640   3.905   0.847   2.699
 3202SOL    HW2 9641   3.767   0.932   2.707
 3203SOL     OW 9642   3.820   1.892   3.459
 3203SOL    HW1 9643   3.834   1.861   3.553
 3203SOL    HW2 9644   3.726   1.873   3.431
 3204SOL     OW 9645   4.593   0.376   2.068
 3204SOL    HW1 9646   4.648   0.416   1.994
 3204SOL    HW2 9647   4.529   0.310   2.029
 3205SOL     OW 9648   4.247   0.242   2.783
 3205SOL    HW1 9649   4.276   0.235   2.879
 3205SOL    HW2 9650   4.256   0.336   2.752
 3206SOL     OW 9651   4.696   1.467   2.333
 3206SOL    HW1 9652   4.672   1.547   2.278
 3206SOL    HW2 9653   4.674   1.485   2.429
 3207SOL     OW 9654   4.074   1.803   2.749
 3207SOL    HW1 9655   4.116   1.712   2.749
 3207SOL    HW2 9656   4.143   1.871   2.775
 3208SOL     OW 9657   4.909   1.525   3.408
 3208SOL    HW1 9658   4.901   1.461   3.485
 3208SOL    HW2 9659   4.834   1.510   3.344
 3209SOL     OW 9660   4.015   0.934   2.125
 3209SOL    HW1 9661   4.106   0.953   2.090
 3209SOL    HW2 9662   3.987   0.842   2.096
 3210SOL     OW 9663   4.195   1.282   3.578
 3210SOL    HW1 9664   4.164   1.292   3.484
 3210SOL    HW2 9665   4.116   1.283   3.640
 3211SOL     OW 9666   4.858   1.745   2.111
 3211SOL    HW1 9667   4.765   1.727   2.143
 3211SOL    HW2 9668   4.885   1.837   2.138
 3212SOL     OW 9669   3.948   0.298   3.341
 3212SOL    HW1 9670   3.898   0.384   3.329
 3212SOL    HW2 9671   3.919   0.254   3.425
 3213SOL     OW 9672   4.176   1.764   2.191
 3213SOL    HW1 9673   4.222   1.818   2.262
 3213SOL    HW2 9674   4.244   1.716   2.136
 3214SOL     OW 9675   3.938   1.792   3.074
 3214SOL    HW1 9676   3.994   1.716   3.104
 3214SOL    HW2 9677   3.906   1.775   2.980
 3215SOL     OW 9678   4.662   1.696   2.761
 3215SOL    HW1 9679   4.728   1.638   2.809
 3215SOL    HW2 9680   4.626   1.647   2.681
 3216SOL     OW 9681   4.098   0.694   2.340
 3216SOL    HW1 9682   4.109   0.596   2.356
 3216SOL    HW2 9683   4.003   0.720   2.357
 3217SOL     OW 9684   4.408   0.179   1.989
 3217SOL    HW1 9685   4.444   0.106   2.047
 3217SOL    HW2 9686   4.339   0.141   1.927
 3218SOL     OW 9687   4.491   0.286   3.593
 3218SOL    HW1 9688   4.578   0.236   3.586
 3218SOL    HW2 9689   4.443   0.259   3.676
 3219SOL     OW 9690   4.558   1.525   3.003
 3219SOL    HW1 9691   4.533   1.479   2.918
 3219SOL    HW2 9692   4.629   1.473   3.050
 3220SOL     OW 9693   4.517   1.369   2.772
 3220SOL    HW1 9694   4.605   1.357   2.726
 3220SOL    HW2 9695   4.445   1.382   2.703
 3221SOL     OW 9696   4.641   0.510   2.756
 3221SOL    HW1 9697   4.628   0.499   2.658
 3221SOL    HW2 9698   4.662   0.421   2.798
 3222SOL     OW 9699   4.290   0.112   2.368
 3222SOL    HW1 9700   4.206   0.082   2.412
 3222SOL    HW2 9701   4.269   0.182   2.299
 3223SOL     OW 9702   3.982   0.062   2.090
 3223SOL    HW1 9703   4.034   0.128   2.036
 3223SOL    HW2 9704   4.020   4.970   2.076
 3224SOL     OW 9705   4.713   0.296   2.300
 3224SOL    HW1 9706   4.672   0.328   2.215
 3224SOL    HW2 9707   4.810   0.274   2.284
 3225SOL     OW 9708   4.795   0.671   3.289
 3225SOL    HW1 9709   4.706   0.626   3.298
 3225SOL    HW2 9710   4.866   0.603   3.273
 3226SOL     OW 9711   4.948   1.521   2.640
 3226SOL    HW1 9712   4.958   1.618   2.620
 3226SOL    HW2 9713   0.038   1.481   2.655
 3227SOL     OW 9714   4.199   1.152   2.554
 3227SOL    HW1 9715   4.138   1.133   2.631
 3227SOL    HW2 9716   4.148   1.144   2.469
 3228SOL     OW 9717   4.978   1.793   2.586
 3228SOL    HW1 9718   0.023   1.805   2.497
 3228SOL    HW2 9719   4.896   1.849   2.590
 3229SOL     OW 9720   4.762   0.507   1.888
 3229SOL    HW1 9721   4.712   0.587   1.854
 3229SOL    HW2 9722   4.825   0.534   1.960
 3230SOL     OW 9723   3.848   0.558   3.266
 3230SOL    HW1 9724   3.939   0.565   3.225
 3230SOL    HW2 9725   3.834   0.635   3.329
 3231SOL     OW 9726   4.292   0.220   3.065
 3231SOL    HW1 9727   4.337   0.200   3.152
 3231SOL    HW2 9728   4.194   0.198   3.073
 3232SOL     OW 9729   4.618   0.472   2.489
 3232SOL    HW1 9730   4.554   0.525   2.434
 3232SOL    HW2 9731   4.656   0.398   2.434
 3233SOL     OW 9732   4.664   0.071   2.636
 3233SOL    HW1 9733   4.626   0.070   2.544
 3233SOL    HW2 9734   4.746   0.015   2.639
 3234SOL     OW 9735   4.217   1.424   2.046
 3234SOL    HW1 9736   4.130   1.388   2.080
 3234SOL    HW2 9737   4.253   1.363   1.975
 3235SOL     OW 9738   4.250   0.304   2.182
 3235SOL    HW1 9739   4.310   0.262   2.113
 3235SOL    HW2 9740   4.205   0.383   2.141
 3236SOL     OW 9741   4.734   1.350   3.125
 3236SOL    HW1 9742   4.664   1.315   3.188
 3236SOL    HW2 9743   4.824   1.323   3.158
 3237SOL     OW 9744   4.833   1.222   2.891
 3237SOL    HW1 9745   4.789   1.268   2.968
 3237SOL    HW2 9746   4.797   1.258   2.805
 3238SOL     OW 9747   4.620   0.038   3.259
 3238SOL    HW1 9748   4.637   0.032   3.161
 3238SOL    HW2 9749   4.694   0.088   3.304
 3239SOL     OW 9750   4.683   1.106   3.602
 3239SOL    HW1 9751   4.586   1.120   3.624
 3239SOL    HW2 9752   4.692   1.031   3.537
 3240SOL     OW 9753   4.451   1.041   2.243
 3240SOL    HW1 9754   4.436   1.015   2.338
 3240SOL    HW2 9755   4.524   0.984   2.204
 3241SOL     OW 9756   4.163   0.837   3.132
 3241SOL    HW1 9757   4.234   0.846   3.202
 3241SOL    HW2 9758   4.130   0.743   3.130
 3242SOL     OW 9759   3.786   1.560   3.217
 3242SOL    HW1 9760   3.742   1.628   3.158
 3242SOL    HW2 9761   3.885   1.567   3.207
 3243SOL     OW 9762   4.035   1.127   2.332
 3243SOL    HW1 9763   4.029   1.204   2.268
 3243SOL    HW2 9764   4.029   1.041   2.281
 3244SOL     OW 9765   4.263   0.524   2.733
 3244SOL    HW1 9766   4.269   0.580   2.650
 3244SOL    HW2 9767   4.332   0.556   2.799
 3245SOL     OW 9768   4.923   1.367   2.222
 3245SOL    HW1 9769   0.003   1.399   2.272
 3245SOL    HW2 9770   4.840   1.398   2.267
 3246SOL     OW 9771   4.058   1.546   3.151
 3246SOL    HW1 9772   4.052   1.487   3.071
 3246SOL    HW2 9773   4.154   1.570   3.167
 3247SOL     OW 9774   4.207   0.704   3.519
 3247SOL    HW1 9775   4.239   0.758   3.442
 3247SOL    HW2 9776   4.277   0.638   3.546
 3248SOL     OW 9777   4.715   0.133   3.592
 3248SOL    HW1 9778   4.798   0.170   3.551
 3248SOL    HW2 9779   4.718   0.033   3.590
 3249SOL     OW 9780   4.232   0.075   3.668
 3249SOL    HW1 9781   4.197   0.043   3.580
 3249SOL    HW2 9782   4.170   0.144   3.706
 3250SOL     OW 9783   4.310   0.890   2.903
 3250SOL    HW1 9784   4.350   0.981   2.899
 3250SOL    HW2 9785   4.257   0.880   2.987
 3251SOL     OW 9786   0.040   0.907   2.937
 3251SOL    HW1 9787   4.946   0.935   2.915
 3251SOL    HW2 9788   0.044   0.807   2.942
 3252SOL     OW 9789   4.921   0.572   2.107
 3252SOL    HW1 9790   4.948   0.483   2.144
 3252SOL    HW2 9791   4.872   0.624   2.177
 3253SOL     OW 9792   4.023   0.165   3.108
 3253SOL    HW1 9793   3.991   0.213   3.190
 3253SOL    HW2 9794   3.965   0.086   3.091
 3254SOL     OW 9795   3.778   1.301   3.126
 3254SOL    HW1 9796   3.806   1.240   3.200
 3254SOL    HW2 9797   3.771   1.394   3.161
 3255SOL     OW 9798   4.441   0.641   2.907
 3255SOL    HW1 9799   4.517   0.621   2.845
 3255SOL    HW2 9800   4.408   0.734   2.890
 3256SOL     OW 9801   4.043   0.064   2.515
 3256SOL    HW1 9802   4.018   0.158   2.539
 3256SOL    HW2 9803   4.104   0.027   2.585
 3257SOL     OW 9804   4.722   0.767   2.800
 3257SOL    HW1 9805   4.720   0.783   2.899
 3257SOL    HW2 9806   4.707   0.670   2.781
 3258SOL     OW 9807   4.691   1.575   3.669
 3258SOL    HW1 9808   4.664   1.623   3.585
 3258SOL    HW2 9809   4.748   1.496   3.645
 3259SOL     OW 9810   4.093   0.904   3.673
 3259SOL    HW1 9811   4.157   0.933   3.744
 3259SOL    HW2 9812   4.135   0.830   3.619
 3260SOL     OW 9813   0.293   0.274   1.990
 3260SOL    HW1 9814   0.194   0.289   1.981
 3260SOL    HW2 9815   0.337   0.358   2.022
 3261SOL     OW 9816   4.754   1.331   2.649
 3261SOL    HW1 9817   4.773   1.251   2.592
 3261SOL    HW2 9818   4.826   1.399   2.636
 3262SOL     OW 9819   4.052   0.827   2.802
 3262SOL    HW1 9820   4.149   0.845   2.812
 3262SOL    HW2 9821   4.034   0.731   2.824
 3263SOL     OW 9822   4.027   0.550   2.862
 3263SOL    HW1 9823   3.983   0.460   2.862
 3263SOL    HW2 9824   4.111   0.545   2.807
 3264SOL     OW 9825   4.888   0.370   3.530
 3264SOL    HW1 9826   4.822   0.407   3.595
 3264SOL    HW2 9827   4.973   0.421   3.537
 3265SOL     OW 9828   4.843   0.216   3.300
 3265SOL    HW1 9829   4.866   0.273   3.378
 3265SOL    HW2 9830   4.802   0.273   3.228
 3266SOL     OW 9831   3.739   1.289   2.037
 3266SOL    HW1 9832   3.647   1.316   2.008
 3266SOL    HW2 9833   3.736   1.196   2.074
 3267SOL     OW 9834   3.817   1.757   2.821
 3267SOL    HW1 9835   3.779   1.677   2.773
 3267SOL    HW2 9836   3.908   1.777   2.785
 3268SOL     OW 9837   4.202   1.558   2.755
 3268SOL    HW1 9838   4.276   1.619   2.785
 3268SOL    HW2 9839   4.237   1.497   2.684
 3269SOL     OW 9840   4.673   0.794   3.068
 3269SOL    HW1 9841   4.734   0.763   3.141
 3269SOL    HW2 9842   4.587   0.743   3.074
 3270SOL     OW 9843   3.775   0.615   2.997
 3270SOL    HW1 9844   3.852   0.600   2.935
 3270SOL    HW2 9845   3.803   0.595   3.091
 3271SOL     OW 9846   3.952   0.602   3.612
 3271SOL    HW1 9847   4.046   0.618   3.585
 3271SOL    HW2 9848   3.891   0.655   3.553
 3272SOL     OW 9849   4.520   0.582   2.247
 3272SOL    HW1 9850   4.537   0.508   2.182
 3272SOL    HW2 9851   4.441   0.636   2.216
 3273SOL     OW 9852   3.954   1.543   3.578
 3273SOL    HW1 9853   3.935   1.608   3.650
 3273SOL    HW2 9854   3.963   1.451   3.617
 3274SOL     OW 9855   4.457   0.443   3.092
 3274SOL    HW1 9856   4.394   0.367   3.075
 3274SOL    HW2 9857   4.444   0.513   3.022
 3275SOL     OW 9858   4.590   1.707   3.425
 3275SOL    HW1 9859   4.551   1.638   3.364
 3275SOL    HW2 9860   4.616   1.788   3.371
 3276SOL     OW 9861   4.147   0.512   2.038
 3276SOL    HW1 9862   4.219   0.576   2.063
 3276SOL    HW2 9863   4.059   0.558   2.040
 3277SOL     OW 9864   3.853   1.138   3.339
 3277SOL    HW1 9865   3.863   1.102   3.432
 3277SOL    HW2 9866   3.875   1.066   3.273
 3278SOL     OW 9867   4.941   1.737   3.016
 3278SOL    HW1 9868   0.005   1.768   2.946
 3278SOL    HW2 9869   4.987   1.672   3.077
 3279SOL     OW 9870   3.824   1.261   2.864
 3279SOL    HW1 9871   3.801   1.276   2.960
 3279SOL    HW2 9872   3.758   1.198   2.824
 3280SOL     OW 9873   4.399   1.710   3.621
 3280SOL    HW1 9874   4.327   1.778   3.608
 3280SOL    HW2 9875   4.470   1.722   3.552
 3281SOL     OW 9876   3.864   1.790   3.707
 3281SOL    HW1 9877   3.814   1.715   3.750
 3281SOL    HW2 9878   3.916   1.840   3.776
 3282SOL     OW 9879   4.500   1.284   3.268
 3282SOL    HW1 9880   4.478   1.336   3.351
 3282SOL    HW2 9881   4.425   1.292   3.203
 3283SOL     OW 9882   4.377   1.643   2.051
 3283SOL    HW1 9883   4.397   1.667   1.957
 3283SOL    HW2 9884   4.325   1.557   2.053
 3284SOL     OW 9885   3.959   0.313   2.590
 3284SOL    HW1 9886   3.874   0.361   2.568
 3284SOL    HW2 9887   3.970   0.308   2.690
 3285SOL     OW 9888   4.555   1.015   3.247
 3285SOL    HW1 9889   4.598   0.997   3.159
 3285SOL    HW2 9890   4.538   1.113   3.256
 3286SOL     OW 9891   4.645   0.885   2.130
 3286SOL    HW1 9892   4.711   0.922   2.064
 3286SOL    HW2 9893   4.690   0.819   2.189
 3287SOL     OW 9894   4.075   1.317   3.340
 3287SOL    HW1 9895   4.065   1.395   3.278
 3287SOL    HW2 9896   3.995   1.257   3.330
 3288SOL     OW 9897   4.771   1.076   2.543
 3288SOL    HW1 9898   4.696   1.058   2.607
 3288SOL    HW2 9899   4.809   0.989   2.511
 3289SOL     OW 9900   4.699   0.248   2.849
 3289SOL    HW1 9901   4.685   0.206   2.760
 3289SOL    HW2 9902   4.697   0.178   2.920
 3290SOL     OW 9903   4.326   1.479   2.319
 3290SOL    HW1 9904   4.390   1.423   2.268
 3290SOL    HW2 9905   4.244   1.496   2.264
 3291SOL     OW 9906   3.984   1.336   2.160
 3291SOL    HW1 9907   3.894   1.326   2.119
 3291SOL    HW2 9908   3.977   1.392   2.243
 3292SOL     OW 9909   3.866   1.035   3.594
 3292SOL    HW1 9910   3.783   1.013   3.645
 3292SOL    HW2 9911   3.944   0.986   3.634
 3293SOL     OW 9912   4.405   0.200   3.331
 3293SOL    HW1 9913   4.477   0.136   3.304
 3293SOL    HW2 9914   4.424   0.233   3.424
 3294SOL     OW 9915   3.834   0.363   1.838
 3294SOL    HW1 9916   3.746   0.356   1.791
 3294SOL    HW2 9917   3.877   0.450   1.816
 3295SOL     OW 9918   3.742   0.187   2.097
 3295SOL    HW1 9919   3.753   0.266   2.036
 3295SOL    HW2 9920   3.829   0.139   2.105
 3296SOL     OW 9921   4.365   0.826   3.313
 3296SOL    HW1 9922   4.423   0.906   3.299
 3296SOL    HW2 9923   4.422   0.743   3.311
 3297SOL     OW 9924   4.439   0.556   3.562
 3297SOL    HW1 9925   4.504   0.613   3.613
 3297SOL    HW2 9926   4.459   0.460   3.579
 3298SOL     OW 9927   4.065   1.760   3.431
 3298SOL    HW1 9928   3.978   1.808   3.419
 3298SOL    HW2 9929   4.047   1.669   3.469
 3299SOL     OW 9930   4.286   0.722   2.542
 3299SOL    HW1 9931   4.336   0.808   2.531
 3299SOL    HW2 9932   4.218   0.713   2.470
 3300SOL     OW 9933   4.510   1.364   1.929
 3300SOL    HW1 9934   4.512   1.352   2.028
 3300SOL    HW2 9935   4.570   1.440   1.903
 3301SOL     OW 9936   4.388   1.748   2.803
 3301SOL    HW1 9937   4.365   1.845   2.793
 3301SOL    HW2 9938   4.487   1.736   2.795
 3302SOL     OW 9939   4.579   0.992   2.723
 3302SOL    HW1 9940   4.629   0.911   2.753
 3302SOL    HW2 9941   4.538   1.038   2.801
 3303SOL     OW 9942   4.822   0.978   1.949
 3303SOL    HW1 9943   4.783   1.037   1.879
 3303SOL    HW2 9944   4.912   1.013   1.976
 3304SOL     OW 9945   3.938   1.286   3.689
 3304SOL    HW1 9946   3.916   1.200   3.644
 3304SOL    HW2 9947   3.875   1.300   3.766
 3305SOL     OW 9948   3.874   1.235   2.536
 3305SOL    HW1 9949   3.911   1.193   2.619
 3305SOL    HW2 9950   3.920   1.195   2.456
 3306SOL     OW 9951   4.411   1.440   3.485
 3306SOL    HW1 9952   4.336   1.381   3.517
 3306SOL    HW2 9953   4.417   1.521   3.543
 3307SOL     OW 9954   4.120   0.435   2.396
 3307SOL    HW1 9955   4.173   0.371   2.340
 3307SOL    HW2 9956   4.074   0.385   2.470
 3308SOL     OW 9957   4.085   0.577   3.136
 3308SOL    HW1 9958   4.143   0.513   3.187
 3308SOL    HW2 9959   4.084   0.551   3.039
 3309SOL     OW 9960   4.543   1.598   2.538
 3309SOL    HW1 9961   4.521   1.676   2.480
 3309SOL    HW2 9962   4.466   1.534   2.538
 3310SOL     OW 9963   4.691   0.005   2.999
 3310SOL    HW1 9964   4.622   4.970   2.937
 3310SOL    HW2 9965   4.771   4.946   2.997
 3311SOL     OW 9966   4.510   1.312   2.197
 3311SOL    HW1 9967   4.493   1.216   2.218
 3311SOL    HW2 9968   4.587   1.344   2.252
 3312SOL     OW 9969   4.331   1.596   3.142
 3312SOL    HW1 9970   4.325   1.688   3.182
 3312SOL    HW2 9971   4.415   1.589   3.088
 3313SOL     OW 9972   3.754   1.032   2.158
 3313SOL    HW1 9973   3.851   1.017   2.140
 3313SOL    HW2 9974   3.710   0.945   2.179
 3314SOL     OW 9975   4.602   1.694   2.206
 3314SOL    HW1 9976   4.520   1.671   2.154
 3314SOL    HW2 9977   4.580   1.764   2.274
 3315SOL     OW 9978   3.923   0.670   3.882
 3315SOL    HW1 9979   3.835   0.634   3.912
 3315SOL    HW2 9980   3.931   0.661   3.783
 3316SOL     OW 9981   3.974   0.281   4.730
 3316SOL    HW1 9982   3.998   0.278   4.827
 3316SOL    HW2 9983   3.893   0.225   4.714
 3317SOL     OW 9984   3.729   0.439   4.355
 3317SOL    HW1 9985   3.639   0.443   4.397
 3317SOL    HW2 9986   3.721   0.401   4.263
 3318SOL     OW 9987   4.255   1.308   4.901
 3318SOL    HW1 9988   4.173   1.322   4.846
 3318SOL    HW2 9989   4.330   1.364   4.865
 3319SOL     OW 9990   4.853   0.780   4.414
 3319SOL    HW1 9991   4.948   0.807   4.427
 3319SOL    HW2 9992   4.808   0.772   4.503
 3320SOL     OW 9993   4.413   1.107   4.793
 3320SOL    HW1 9994   4.342   1.151   4.848
 3320SOL    HW2 9995   4.458   1.175   4.735
 3321SOL     OW 9996   4.409   0.980   4.379
 3321SOL    HW1 9997   4.474   0.973   4.455
 3321SOL    HW2 9998   4.338   1.046   4.401
 3322SOL     OW 9999   4.063   1.367   4.720
 3322SOL    HW110000   3.966   1.361   4.696
 3322SOL    HW210001   4.104   1.446   4.676
 3323SOL     OW10002   0.219   1.570   0.068
 3323SOL    HW110003   0.126   1.600   0.092
 3323SOL    HW210004   0.252   1.505   0.136
 3324SOL     OW10005   3.944   1.737   4.193
 3324SOL    HW110006   3.966   1.809   4.259
 3324SOL    HW210007   4.021   1.725   4.130
 3325SOL     OW10008   3.968   1.463   4.252
 3325SOL    HW110009   3.943   1.559   4.260
 3325SOL    HW210010   3.925   1.411   4.326
 3326SOL     OW10011   4.016   1.095   4.602
 3326SOL    HW110012   4.019   0.997   4.623
 3326SOL    HW210013   4.005   1.147   4.687
 3327SOL     OW10014   4.287   0.986   3.888
 3327SOL    HW110015   4.332   1.031   3.811
 3327SOL    HW210016   4.331   1.014   3.974
 3328SOL     OW10017   3.829   0.701   4.297
 3328SOL    HW110018   3.806   0.608   4.325
 3328SOL    HW210019   3.824   0.762   4.376
 3329SOL     OW10020   3.773   1.574   3.840
 3329SOL    HW110021   3.754   1.478   3.858
 3329SOL    HW210022   3.749   1.628   3.921
 3330SOL     OW10023   4.347   1.395   4.431
 3330SOL    HW110024   4.298   1.308   4.438
 3330SOL    HW210025   4.336   1.432   4.338
 3331SOL     OW10026   4.548   0.074   4.265
 3331SOL    HW110027   4.596   0.157   4.236
 3331SOL    HW210028   4.449   0.091   4.264
 3332SOL     OW10029   3.894   0.951   4.917
 3332SOL    HW110030   3.990   0.923   4.925
 3332SOL    HW210031   3.842   0.879   4.871
 3333SOL     OW10032   4.300   0.719   4.006
 3333SOL    HW110033   4.305   0.809   3.961
 3333SOL    HW210034   4.229   0.722   4.077
 3334SOL     OW10035   4.774   0.699   4.159
 3334SOL    HW110036   4.797   0.723   4.254
 3334SOL    HW210037   4.684   0.655   4.157
 3335SOL     OW10038   3.802   0.876   4.507
 3335SOL    HW110039   3.892   0.856   4.547
 3335SOL    HW210040   3.758   0.949   4.560
 3336SOL     OW10041   4.596   0.373   3.928
 3336SOL    HW110042   4.651   0.413   3.855
 3336SOL    HW210043   4.531   0.308   3.890
 3337SOL     OW10044   4.253   0.276   4.702
 3337SOL    HW110045   4.154   0.259   4.710
 3337SOL    HW210046   4.269   0.350   4.637
 3338SOL     OW10047   4.704   1.466   4.200
 3338SOL    HW110048   4.671   1.542   4.144
 3338SOL    HW210049   4.686   1.484   4.296
 3339SOL     OW10050   4.073   1.806   4.605
 3339SOL    HW110051   4.116   1.715   4.603
 3339SOL    HW210052   4.139   1.873   4.640
 3340SOL     OW10053   4.019   0.933   3.986
 3340SOL    HW110054   4.109   0.953   3.948
 3340SOL    HW210055   3.990   0.841   3.957
 3341SOL     OW10056   4.801   1.698   3.890
 3341SOL    HW110057   4.734   1.699   3.965
 3341SOL    HW210058   4.757   1.665   3.807
 3342SOL     OW10059   4.181   1.758   4.044
 3342SOL    HW110060   4.227   1.811   4.116
 3342SOL    HW210061   4.249   1.714   3.986
 3343SOL     OW10062   3.882   1.797   4.944
 3343SOL    HW110063   3.865   1.721   0.006
 3343SOL    HW210064   3.860   1.769   4.850
 3344SOL     OW10065   4.661   1.715   4.628
 3344SOL    HW110066   4.737   1.668   4.673
 3344SOL    HW210067   4.627   1.659   4.553
 3345SOL     OW10068   4.101   0.695   4.199
 3345SOL    HW110069   4.109   0.597   4.213
 3345SOL    HW210070   4.007   0.724   4.218
 3346SOL     OW10071   4.410   0.178   3.849
 3346SOL    HW110072   4.444   0.106   3.909
 3346SOL    HW210073   4.341   0.140   3.787
 3347SOL     OW10074   4.512   1.313   4.650
 3347SOL    HW110075   4.610   1.320   4.636
 3347SOL    HW210076   4.464   1.344   4.568
 3348SOL     OW10077   4.643   0.521   4.606
 3348SOL    HW110078   4.628   0.510   4.508
 3348SOL    HW210079   4.662   0.432   4.648
 3349SOL     OW10080   4.281   0.115   4.233
 3349SOL    HW110081   4.192   0.081   4.264
 3349SOL    HW210082   4.267   0.184   4.162
 3350SOL     OW10083   3.986   0.066   3.961
 3350SOL    HW110084   4.035   0.133   3.905
 3350SOL    HW210085   4.021   4.975   3.944
 3351SOL     OW10086   4.702   0.279   4.164
 3351SOL    HW110087   4.665   0.315   4.078
 3351SOL    HW210088   4.799   0.258   4.152
 3352SOL     OW10089   4.936   1.502   4.511
 3352SOL    HW110090   4.949   1.597   4.486
 3352SOL    HW210091   0.015   1.448   4.481
 3353SOL     OW10092   4.206   1.160   4.418
 3353SOL    HW110093   4.142   1.140   4.492
 3353SOL    HW210094   4.158   1.150   4.330
 3354SOL     OW10095   4.985   1.764   4.434
 3354SOL    HW110096   0.039   1.773   4.350
 3354SOL    HW210097   4.907   1.826   4.430
 3355SOL     OW10098   4.763   0.503   3.747
 3355SOL    HW110099   4.717   0.584   3.711
 3355SOL    HW210100   4.826   0.531   3.820
 3356SOL     OW10101   4.620   0.475   4.340
 3356SOL    HW110102   4.559   0.528   4.282
 3356SOL    HW210103   4.651   0.393   4.291
 3357SOL     OW10104   4.645   0.042   4.526
 3357SOL    HW110105   4.600   0.053   4.437
 3357SOL    HW210106   4.732   4.995   4.515
 3358SOL     OW10107   4.224   1.433   3.901
 3358SOL    HW110108   4.138   1.396   3.937
 3358SOL    HW210109   4.259   1.372   3.831
 3359SOL     OW10110   4.257   0.305   4.042
 3359SOL    HW110111   4.316   0.262   3.974
 3359SOL    HW210112   4.211   0.384   4.002
 3360SOL     OW10113   4.740   1.186   4.887
 3360SOL    HW110114   4.701   1.252   4.951
 3360SOL    HW210115   4.754   1.230   4.798
 3361SOL     OW10116   4.446   1.050   4.111
 3361SOL    HW110117   4.426   1.024   4.205
 3361SOL    HW210118   4.528   1.003   4.080
 3362SOL     OW10119   4.140   0.838   4.986
 3362SOL    HW110120   4.195   0.871   0.063
 3362SOL    HW210121   4.079   0.766   0.018
 3363SOL     OW10122   4.048   1.126   4.191
 3363SOL    HW110123   4.041   1.203   4.127
 3363SOL    HW210124   4.039   1.040   4.140
 3364SOL     OW10125   4.259   0.528   4.579
 3364SOL    HW110126   4.273   0.588   4.500
 3364SOL    HW210127   4.322   0.554   4.652
 3365SOL     OW10128   4.941   1.380   4.090
 3365SOL    HW110129   0.014   1.429   4.136
 3365SOL    HW210130   4.853   1.404   4.132
 3366SOL     OW10131   4.293   0.859   4.757
 3366SOL    HW110132   4.333   0.951   4.760
 3366SOL    HW210133   4.238   0.844   4.839
 3367SOL     OW10134   0.027   0.775   4.769
 3367SOL    HW110135   4.938   0.773   4.723
 3367SOL    HW210136   0.099   0.787   4.700
 3368SOL     OW10137   4.921   0.574   3.964
 3368SOL    HW110138   4.955   0.488   4.001
 3368SOL    HW210139   4.874   0.625   4.036
 3369SOL     OW10140   4.046   0.269   4.991
 3369SOL    HW110141   4.093   0.340   0.043
 3369SOL    HW210142   4.018   0.195   0.053
 3370SOL     OW10143   3.810   1.380   4.923
 3370SOL    HW110144   3.811   1.319   0.002
 3370SOL    HW210145   3.802   1.475   4.954
 3371SOL     OW10146   4.436   0.618   4.768
 3371SOL    HW110147   4.515   0.600   4.710
 3371SOL    HW210148   4.405   0.712   4.753
 3372SOL     OW10149   4.031   0.052   4.366
 3372SOL    HW110150   4.010   0.146   4.392
 3372SOL    HW210151   4.092   0.012   4.435
 3373SOL     OW10152   4.755   0.753   4.682
 3373SOL    HW110153   4.746   0.760   4.782
 3373SOL    HW210154   4.720   0.664   4.652
 3374SOL     OW10155   0.293   0.275   3.846
 3374SOL    HW110156   0.195   0.290   3.844
 3374SOL    HW210157   0.338   0.358   3.881
 3375SOL     OW10158   4.790   1.301   4.626
 3375SOL    HW110159   4.784   1.231   4.555
 3375SOL    HW210160   4.837   1.381   4.589
 3376SOL     OW10161   4.045   0.821   4.631
 3376SOL    HW110162   4.142   0.833   4.651
 3376SOL    HW210163   4.021   0.725   4.643
 3377SOL     OW10164   4.005   0.550   4.673
 3377SOL    HW110165   3.978   0.458   4.703
 3377SOL    HW210166   4.096   0.545   4.632
 3378SOL     OW10167   3.746   1.292   3.893
 3378SOL    HW110168   3.653   1.319   3.867
 3378SOL    HW210169   3.744   1.199   3.930
 3379SOL     OW10170   3.813   1.759   4.669
 3379SOL    HW110171   3.781   1.681   4.614
 3379SOL    HW210172   3.907   1.781   4.644
 3380SOL     OW10173   4.213   1.568   4.605
 3380SOL    HW110174   4.283   1.630   4.643
 3380SOL    HW210175   4.256   1.506   4.539
 3381SOL     OW10176   4.719   0.774   4.953
 3381SOL    HW110177   4.781   0.843   4.991
 3381SOL    HW210178   4.624   0.799   4.973
 3382SOL     OW10179   3.822   0.679   4.837
 3382SOL    HW110180   3.878   0.635   4.767
 3382SOL    HW210181   3.865   0.666   4.927
 3383SOL     OW10182   4.526   0.586   4.100
 3383SOL    HW110183   4.541   0.510   4.037
 3383SOL    HW210184   4.445   0.638   4.071
 3384SOL     OW10185   4.336   0.417   4.925
 3384SOL    HW110186   4.310   0.350   4.856
 3384SOL    HW210187   4.384   0.493   4.882
 3385SOL     OW10188   4.150   0.512   3.900
 3385SOL    HW110189   4.222   0.577   3.924
 3385SOL    HW210190   4.061   0.557   3.902
 3386SOL     OW10191   3.844   1.040   0.171
 3386SOL    HW110192   3.921   1.005   0.225
 3386SOL    HW210193   3.859   1.020   0.075
 3387SOL     OW10194   4.910   1.729   4.857
 3387SOL    HW110195   4.992   1.737   4.800
 3387SOL    HW210196   4.933   1.685   4.944
 3388SOL     OW10197   3.792   1.317   4.665
 3388SOL    HW110198   3.787   1.338   4.763
 3388SOL    HW210199   3.745   1.230   4.648
 3389SOL     OW10200   4.383   1.652   3.888
 3389SOL    HW110201   4.401   1.669   3.791
 3389SOL    HW210202   4.333   1.566   3.898
 3390SOL     OW10203   3.962   0.304   4.446
 3390SOL    HW110204   3.880   0.355   4.420
 3390SOL    HW210205   3.972   0.305   4.545
 3391SOL     OW10206   4.515   0.965   0.010
 3391SOL    HW110207   4.490   1.020   4.930
 3391SOL    HW210208   4.592   1.006   0.056
 3392SOL     OW10209   4.670   0.922   4.035
 3392SOL    HW110210   4.711   0.932   3.944
 3392SOL    HW210211   4.707   0.841   4.079
 3393SOL     OW10212   4.765   1.100   4.448
 3393SOL    HW110213   4.695   1.050   4.499
 3393SOL    HW210214   4.790   1.048   4.366
 3394SOL     OW10215   4.691   0.265   4.692
 3394SOL    HW110216   4.668   0.194   4.626
 3394SOL    HW210217   4.703   0.224   4.783
 3395SOL     OW10218   4.331   1.490   4.180
 3395SOL    HW110219   4.390   1.432   4.125
 3395SOL    HW210220   4.246   1.507   4.131
 3396SOL     OW10221   3.994   1.337   4.019
 3396SOL    HW110222   3.904   1.327   3.976
 3396SOL    HW210223   3.985   1.390   4.103
 3397SOL     OW10224   3.837   0.362   3.695
 3397SOL    HW110225   3.748   0.354   3.650
 3397SOL    HW210226   3.879   0.450   3.673
 3398SOL     OW10227   3.743   0.189   3.960
 3398SOL    HW110228   3.755   0.266   3.898
 3398SOL    HW210229   3.831   0.142   3.972
 3399SOL     OW10230   4.296   0.724   4.393
 3399SOL    HW110231   4.342   0.812   4.384
 3399SOL    HW210232   4.224   0.717   4.323
 3400SOL     OW10233   4.519   1.372   3.790
 3400SOL    HW110234   4.522   1.364   3.889
 3400SOL    HW210235   4.575   1.450   3.761
 3401SOL     OW10236   4.387   1.757   4.689
 3401SOL    HW110237   4.357   1.852   4.693
 3401SOL    HW210238   4.485   1.754   4.671
 3402SOL     OW10239   4.583   0.962   4.599
 3402SOL    HW110240   4.640   0.886   4.630
 3402SOL    HW210241   4.533   1.000   4.677
 3403SOL     OW10242   4.795   0.947   3.796
 3403SOL    HW110243   4.760   1.013   3.729
 3403SOL    HW210244   4.891   0.967   3.816
 3404SOL     OW10245   3.875   1.225   4.387
 3404SOL    HW110246   3.908   1.189   4.475
 3404SOL    HW210247   3.929   1.184   4.313
 3405SOL     OW10248   4.115   0.433   4.249
 3405SOL    HW110249   4.174   0.372   4.196
 3405SOL    HW210250   4.073   0.382   4.324
 3406SOL     OW10251   4.549   1.589   4.414
 3406SOL    HW110252   4.522   1.654   4.343
 3406SOL    HW210253   4.480   1.518   4.424
 3407SOL     OW10254   4.719   0.048   4.902
 3407SOL    HW110255   4.684   4.984   4.833
 3407SOL    HW210256   4.819   0.041   4.905
 3408SOL     OW10257   4.511   1.318   4.060
 3408SOL    HW110258   4.489   1.223   4.079
 3408SOL    HW210259   4.590   1.346   4.115
 3409SOL     OW10260   3.761   1.036   4.013
 3409SOL    HW110261   3.858   1.019   3.998
 3409SOL    HW210262   3.715   0.950   4.033
 3410SOL     OW10263   4.594   1.681   4.070
 3410SOL    HW110264   4.514   1.666   4.012
 3410SOL    HW210265   4.577   1.760   4.130
 3411SOL     OW10266   3.945   2.506   0.079
 3411SOL    HW110267   3.859   2.494   0.127
 3411SOL    HW210268   4.016   2.450   0.122
 3412SOL     OW10269   3.936   2.150   0.988
 3412SOL    HW110270   3.974   2.116   1.074
 3412SOL    HW210271   3.848   2.106   0.971
 3413SOL     OW10272   3.687   2.285   0.637
 3413SOL    HW110273   3.602   2.300   0.688
 3413SOL    HW210274   3.672   2.213   0.569
 3414SOL     OW10275   4.296   3.188   1.214
 3414SOL    HW110276   4.211   3.184   1.162
 3414SOL    HW210277   4.314   3.282   1.242
 3415SOL     OW10278   4.841   2.658   0.689
 3415SOL    HW110279   4.938   2.670   0.707
 3415SOL    HW210280   4.793   2.645   0.776
 3416SOL     OW10281   4.434   2.998   1.053
 3416SOL    HW110282   4.379   3.035   1.128
 3416SOL    HW210283   4.474   3.073   1.000
 3417SOL     OW10284   4.624   2.593   1.831
 3417SOL    HW110285   4.607   2.655   1.908
 3417SOL    HW210286   4.651   2.646   1.751
 3418SOL     OW10287   4.403   2.832   0.654
 3418SOL    HW110288   4.473   2.833   0.726
 3418SOL    HW210289   4.332   2.899   0.676
 3419SOL     OW10290   4.414   3.006   1.820
 3419SOL    HW110291   4.454   3.087   1.863
 3419SOL    HW210292   4.336   3.034   1.764
 3420SOL     OW10293   4.061   3.251   1.064
 3420SOL    HW110294   3.977   3.215   1.024
 3420SOL    HW210295   4.106   3.311   0.997
 3421SOL     OW10296   4.199   2.222   1.443
 3421SOL    HW110297   4.279   2.167   1.465
 3421SOL    HW210298   4.117   2.177   1.477
 3422SOL     OW10299   3.940   3.586   0.491
 3422SOL    HW110300   3.961   3.664   0.549
 3422SOL    HW210301   4.017   3.567   0.430
 3423SOL     OW10302   4.844   3.203   1.737
 3423SOL    HW110303   4.896   3.190   1.822
 3423SOL    HW210304   4.787   3.123   1.720
 3424SOL     OW10305   3.994   3.324   0.570
 3424SOL    HW110306   3.957   3.417   0.569
 3424SOL    HW210307   3.942   3.268   0.634
 3425SOL     OW10308   4.012   2.950   0.898
 3425SOL    HW110309   4.026   2.854   0.922
 3425SOL    HW210310   3.956   2.995   0.967
 3426SOL     OW10311   4.278   3.700   1.412
 3426SOL    HW110312   4.199   3.668   1.464
 3426SOL    HW210313   4.322   3.776   1.461
 3427SOL     OW10314   4.310   2.790   0.202
 3427SOL    HW110315   4.370   2.795   0.122
 3427SOL    HW210316   4.350   2.843   0.277
 3428SOL     OW10317   3.788   2.543   0.579
 3428SOL    HW110318   3.752   2.451   0.597
 3428SOL    HW210319   3.799   2.592   0.666
 3429SOL     OW10320   3.794   3.463   0.079
 3429SOL    HW110321   3.810   3.396   0.152
 3429SOL    HW210322   3.736   3.537   0.114
 3430SOL     OW10323   3.847   2.614   1.566
 3430SOL    HW110324   3.930   2.670   1.575
 3430SOL    HW210325   3.770   2.673   1.543
 3431SOL     OW10326   4.326   3.252   0.722
 3431SOL    HW110327   4.285   3.161   0.729
 3431SOL    HW210328   4.322   3.282   0.627
 3432SOL     OW10329   4.536   1.854   0.541
 3432SOL    HW110330   4.589   1.927   0.499
 3432SOL    HW210331   4.438   1.877   0.538
 3433SOL     OW10332   3.914   2.806   1.292
 3433SOL    HW110333   4.006   2.768   1.283
 3433SOL    HW210334   3.853   2.762   1.226
 3434SOL     OW10335   4.071   2.132   1.882
 3434SOL    HW110336   4.110   2.212   1.927
 3434SOL    HW210337   3.973   2.146   1.868
 3435SOL     OW10338   4.333   2.545   0.337
 3435SOL    HW110339   4.334   2.633   0.290
 3435SOL    HW210340   4.313   2.559   0.434
 3436SOL     OW10341   4.505   2.461   1.421
 3436SOL    HW110342   4.490   2.436   1.517
 3436SOL    HW210343   4.483   2.383   1.363
 3437SOL     OW10344   4.698   2.726   1.593
 3437SOL    HW110345   4.754   2.657   1.548
 3437SOL    HW210346   4.645   2.776   1.525
 3438SOL     OW10347   4.733   2.262   1.261
 3438SOL    HW110348   4.634   2.261   1.253
 3438SOL    HW210349   4.774   2.244   1.171
 3439SOL     OW10350   4.790   2.584   0.425
 3439SOL    HW110351   4.807   2.607   0.521
 3439SOL    HW210352   4.710   2.523   0.419
 3440SOL     OW10353   3.826   2.684   0.808
 3440SOL    HW110354   3.917   2.681   0.849
 3440SOL    HW210355   3.773   2.757   0.851
 3441SOL     OW10356   3.820   3.758   1.594
 3441SOL    HW110357   3.831   3.728   1.688
 3441SOL    HW210358   3.727   3.736   1.563
 3442SOL     OW10359   4.644   2.210   0.198
 3442SOL    HW110360   4.676   2.283   0.138
 3442SOL    HW210361   4.601   2.138   0.143
 3443SOL     OW10362   4.274   2.002   0.931
 3443SOL    HW110363   4.284   2.020   1.029
 3443SOL    HW210364   4.275   2.088   0.881
 3444SOL     OW10365   4.713   3.299   0.487
 3444SOL    HW110366   4.686   3.376   0.429
 3444SOL    HW210367   4.689   3.320   0.582
 3445SOL     OW10368   4.075   3.669   0.887
 3445SOL    HW110369   4.117   3.578   0.889
 3445SOL    HW210370   4.143   3.737   0.915
 3446SOL     OW10371   4.894   3.387   1.525
 3446SOL    HW110372   4.891   3.323   1.602
 3446SOL    HW210373   4.829   3.358   1.455
 3447SOL     OW10374   4.053   2.787   0.313
 3447SOL    HW110375   4.143   2.792   0.272
 3447SOL    HW210376   4.046   2.703   0.368
 3448SOL     OW10377   4.197   3.139   1.707
 3448SOL    HW110378   4.162   3.149   1.614
 3448SOL    HW210379   4.120   3.139   1.772
 3449SOL     OW10380   4.751   3.670   0.191
 3449SOL    HW110381   4.699   3.611   0.253
 3449SOL    HW210382   4.826   3.619   0.150
 3450SOL     OW10383   3.945   2.121   1.492
 3450SOL    HW110384   3.883   2.199   1.497
 3450SOL    HW210385   3.903   2.042   1.536
 3451SOL     OW10386   4.178   3.582   0.345
 3451SOL    HW110387   4.222   3.645   0.409
 3451SOL    HW210388   4.247   3.543   0.283
 3452SOL     OW10389   3.949   3.649   1.206
 3452SOL    HW110390   4.000   3.569   1.239
 3452SOL    HW210391   3.915   3.631   1.113
 3453SOL     OW10392   4.662   3.552   0.906
 3453SOL    HW110393   4.726   3.496   0.959
 3453SOL    HW210394   4.630   3.500   0.827
 3454SOL     OW10395   4.042   2.561   0.479
 3454SOL    HW110396   4.072   2.465   0.478
 3454SOL    HW210397   3.948   2.566   0.512
 3455SOL     OW10398   4.303   1.963   0.097
 3455SOL    HW110399   4.402   1.966   0.086
 3455SOL    HW210400   4.259   1.990   0.011
 3456SOL     OW10401   4.484   2.146   1.776
 3456SOL    HW110402   4.576   2.107   1.774
 3456SOL    HW210403   4.426   2.090   1.835
 3457SOL     OW10404   4.560   3.396   1.155
 3457SOL    HW110405   4.536   3.343   1.074
 3457SOL    HW210406   4.630   3.348   1.207
 3458SOL     OW10407   4.517   3.232   0.926
 3458SOL    HW110408   4.605   3.229   0.879
 3458SOL    HW210409   4.444   3.247   0.860
 3459SOL     OW10410   4.652   2.357   0.880
 3459SOL    HW110411   4.658   2.344   0.781
 3459SOL    HW210412   4.674   2.272   0.927
 3460SOL     OW10413   4.276   1.932   0.500
 3460SOL    HW110414   4.194   1.940   0.556
 3460SOL    HW210415   4.281   2.010   0.438
 3461SOL     OW10416   4.053   1.924   0.223
 3461SOL    HW110417   4.140   1.944   0.179
 3461SOL    HW210418   4.060   1.838   0.274
 3462SOL     OW10419   4.686   2.055   0.433
 3462SOL    HW110420   4.654   2.109   0.355
 3462SOL    HW210421   4.775   2.015   0.410
 3463SOL     OW10422   4.826   2.529   1.430
 3463SOL    HW110423   4.765   2.452   1.412
 3463SOL    HW210424   4.921   2.501   1.419
 3464SOL     OW10425   4.947   3.398   0.743
 3464SOL    HW110426   4.972   3.493   0.723
 3464SOL    HW210427   0.030   3.344   0.754
 3465SOL     OW10428   4.201   3.008   0.709
 3465SOL    HW110429   4.139   2.989   0.786
 3465SOL    HW210430   4.148   3.009   0.624
 3466SOL     OW10431   4.985   3.686   0.697
 3466SOL    HW110432   0.017   3.731   0.614
 3466SOL    HW210433   4.893   3.720   0.719
 3467SOL     OW10434   4.777   2.407   0.061
 3467SOL    HW110435   4.741   2.485   0.011
 3467SOL    HW210436   4.849   2.437   0.123
 3468SOL     OW10437   3.840   2.396   1.401
 3468SOL    HW110438   3.933   2.394   1.364
 3468SOL    HW210439   3.831   2.472   1.464
 3469SOL     OW10440   4.287   2.041   1.200
 3469SOL    HW110441   4.315   1.964   1.258
 3469SOL    HW210442   4.190   2.060   1.215
 3470SOL     OW10443   4.684   2.285   0.608
 3470SOL    HW110444   4.638   2.346   0.544
 3470SOL    HW210445   4.681   2.191   0.574
 3471SOL     OW10446   4.724   1.906   0.757
 3471SOL    HW110447   4.657   1.900   0.683
 3471SOL    HW210448   4.707   1.833   0.823
 3472SOL     OW10449   4.239   3.260   0.155
 3472SOL    HW110450   4.160   3.241   0.212
 3472SOL    HW210451   4.235   3.206   0.071
 3473SOL     OW10452   4.285   2.136   0.313
 3473SOL    HW110453   4.301   2.069   0.241
 3473SOL    HW210454   4.269   2.226   0.272
 3474SOL     OW10455   4.737   3.234   1.294
 3474SOL    HW110456   4.662   3.187   1.341
 3474SOL    HW210457   4.824   3.192   1.319
 3475SOL     OW10458   4.844   3.123   1.049
 3475SOL    HW110459   4.795   3.165   1.125
 3475SOL    HW210460   4.805   3.156   0.962
 3476SOL     OW10461   4.646   1.935   1.402
 3476SOL    HW110462   4.659   1.920   1.304
 3476SOL    HW210463   4.716   1.998   1.436
 3477SOL     OW10464   4.690   2.967   1.738
 3477SOL    HW110465   4.594   2.980   1.760
 3477SOL    HW210466   4.701   2.885   1.681
 3478SOL     OW10467   4.473   2.901   0.392
 3478SOL    HW110468   4.458   2.874   0.488
 3478SOL    HW210469   4.560   2.864   0.360
 3479SOL     OW10470   4.156   2.675   1.272
 3479SOL    HW110471   4.227   2.691   1.340
 3479SOL    HW210472   4.126   2.580   1.276
 3480SOL     OW10473   3.787   3.420   1.356
 3480SOL    HW110474   3.744   3.489   1.298
 3480SOL    HW210475   3.887   3.425   1.346
 3481SOL     OW10476   4.041   3.002   0.486
 3481SOL    HW110477   4.047   3.082   0.425
 3481SOL    HW210478   4.037   2.919   0.430
 3482SOL     OW10479   4.243   2.400   0.841
 3482SOL    HW110480   4.262   2.454   0.759
 3482SOL    HW210481   4.316   2.414   0.908
 3483SOL     OW10482   4.961   3.160   0.483
 3483SOL    HW110483   0.026   3.235   0.473
 3483SOL    HW210484   4.868   3.197   0.486
 3484SOL     OW10485   4.056   3.400   1.289
 3484SOL    HW110486   4.050   3.342   1.208
 3484SOL    HW210487   4.152   3.426   1.304
 3485SOL     OW10488   4.209   2.588   1.652
 3485SOL    HW110489   4.250   2.640   1.578
 3485SOL    HW210490   4.271   2.515   1.679
 3486SOL     OW10491   4.730   2.033   1.771
 3486SOL    HW110492   4.792   2.102   1.732
 3486SOL    HW210493   4.764   1.942   1.748
 3487SOL     OW10494   4.208   1.925   1.759
 3487SOL    HW110495   4.156   1.866   1.696
 3487SOL    HW210496   4.151   2.004   1.785
 3488SOL     OW10497   4.322   2.728   1.054
 3488SOL    HW110498   4.361   2.820   1.051
 3488SOL    HW210499   4.266   2.718   1.136
 3489SOL     OW10500   0.032   2.763   1.084
 3489SOL    HW110501   4.944   2.791   1.045
 3489SOL    HW210502   0.036   2.663   1.088
 3490SOL     OW10503   4.972   2.463   0.250
 3490SOL    HW110504   4.981   2.368   0.282
 3490SOL    HW210505   4.923   2.517   0.319
 3491SOL     OW10506   4.015   2.052   1.233
 3491SOL    HW110507   3.988   2.084   1.324
 3491SOL    HW210508   3.991   1.955   1.224
 3492SOL     OW10509   3.778   3.163   1.258
 3492SOL    HW110510   3.803   3.100   1.331
 3492SOL    HW210511   3.770   3.256   1.295
 3493SOL     OW10512   4.432   2.460   1.029
 3493SOL    HW110513   4.516   2.444   0.978
 3493SOL    HW210514   4.415   2.558   1.035
 3494SOL     OW10515   4.042   1.945   0.642
 3494SOL    HW110516   4.001   2.035   0.659
 3494SOL    HW210517   4.050   1.896   0.729
 3495SOL     OW10518   4.714   2.619   0.948
 3495SOL    HW110519   4.707   2.628   1.047
 3495SOL    HW210520   4.707   2.522   0.922
 3496SOL     OW10521   4.668   3.411   1.789
 3496SOL    HW110522   4.656   3.474   1.713
 3496SOL    HW210523   4.741   3.346   1.768
 3497SOL     OW10524   4.082   2.773   1.815
 3497SOL    HW110525   4.146   2.803   1.886
 3497SOL    HW210526   4.126   2.703   1.758
 3498SOL     OW10527   4.756   3.216   0.802
 3498SOL    HW110528   4.770   3.131   0.752
 3498SOL    HW210529   4.825   3.283   0.775
 3499SOL     OW10530   4.065   2.679   0.948
 3499SOL    HW110531   4.162   2.697   0.968
 3499SOL    HW210532   4.043   2.586   0.975
 3500SOL     OW10533   4.027   2.403   1.002
 3500SOL    HW110534   3.983   2.313   0.998
 3500SOL    HW210535   4.105   2.405   0.939
 3501SOL     OW10536   4.890   2.254   1.712
 3501SOL    HW110537   4.838   2.305   1.781
 3501SOL    HW210538   4.986   2.283   1.716
 3502SOL     OW10539   4.827   2.124   1.477
 3502SOL    HW110540   4.852   2.183   1.554
 3502SOL    HW210541   4.802   2.181   1.398
 3503SOL     OW10542   3.784   3.176   0.212
 3503SOL    HW110543   3.686   3.196   0.213
 3503SOL    HW210544   3.798   3.077   0.205
 3504SOL     OW10545   3.818   3.611   0.957
 3504SOL    HW110546   3.786   3.527   0.914
 3504SOL    HW210547   3.907   3.636   0.921
 3505SOL     OW10548   4.201   3.422   0.899
 3505SOL    HW110549   4.274   3.483   0.927
 3505SOL    HW210550   4.234   3.360   0.828
 3506SOL     OW10551   4.665   2.631   1.222
 3506SOL    HW110552   4.744   2.618   1.282
 3506SOL    HW210553   4.587   2.582   1.259
 3507SOL     OW10554   3.769   2.459   1.136
 3507SOL    HW110555   3.849   2.452   1.077
 3507SOL    HW210556   3.795   2.437   1.230
 3508SOL     OW10557   3.926   2.422   1.749
 3508SOL    HW110558   4.020   2.405   1.717
 3508SOL    HW210559   3.883   2.491   1.692
 3509SOL     OW10560   4.574   2.412   0.386
 3509SOL    HW110561   4.588   2.341   0.317
 3509SOL    HW210562   4.488   2.460   0.367
 3510SOL     OW10563   3.956   3.402   1.719
 3510SOL    HW110564   3.934   3.462   1.797
 3510SOL    HW210565   3.969   3.309   1.751
 3511SOL     OW10566   4.458   2.268   1.229
 3511SOL    HW110567   4.398   2.188   1.224
 3511SOL    HW210568   4.437   2.331   1.154
 3512SOL     OW10569   4.578   3.566   1.566
 3512SOL    HW110570   4.540   3.496   1.507
 3512SOL    HW210571   4.605   3.645   1.510
 3513SOL     OW10572   4.153   2.377   0.217
 3513SOL    HW110573   4.221   2.443   0.250
 3513SOL    HW210574   4.103   2.340   0.294
 3514SOL     OW10575   3.847   2.997   1.472
 3514SOL    HW110576   3.857   2.963   1.566
 3514SOL    HW210577   3.873   2.925   1.407
 3515SOL     OW10578   4.940   3.598   1.141
 3515SOL    HW110579   0.002   3.626   1.068
 3515SOL    HW210580   4.986   3.533   1.201
 3516SOL     OW10581   3.809   3.134   0.992
 3516SOL    HW110582   3.791   3.147   1.090
 3516SOL    HW210583   3.756   3.056   0.959
 3517SOL     OW10584   4.406   3.595   1.778
 3517SOL    HW110585   4.328   3.653   1.752
 3517SOL    HW210586   4.468   3.586   1.701
 3518SOL     OW10587   4.577   1.973   0.062
 3518SOL    HW110588   4.608   1.970   4.967
 3518SOL    HW210589   4.637   1.916   0.119
 3519SOL     OW10590   3.856   3.659   1.843
 3519SOL    HW110591   3.808   3.580   1.882
 3519SOL    HW210592   3.912   3.703   1.914
 3520SOL     OW10593   4.499   3.136   1.402
 3520SOL    HW110594   4.478   3.187   1.485
 3520SOL    HW210595   4.424   3.146   1.336
 3521SOL     OW10596   4.379   3.486   0.179
 3521SOL    HW110597   4.378   3.532   0.090
 3521SOL    HW210598   4.334   3.397   0.171
 3522SOL     OW10599   3.943   2.194   0.704
 3522SOL    HW110600   3.852   2.230   0.682
 3522SOL    HW210601   3.954   2.189   0.804
 3523SOL     OW10602   4.566   2.869   1.399
 3523SOL    HW110603   4.607   2.848   1.310
 3523SOL    HW210604   4.545   2.967   1.403
 3524SOL     OW10605   4.706   2.805   0.279
 3524SOL    HW110606   4.768   2.827   0.204
 3524SOL    HW210607   4.741   2.727   0.330
 3525SOL     OW10608   4.069   3.175   1.473
 3525SOL    HW110609   4.061   3.254   1.412
 3525SOL    HW210610   3.989   3.116   1.463
 3526SOL     OW10611   4.772   2.963   0.698
 3526SOL    HW110612   4.702   2.926   0.759
 3526SOL    HW210613   4.810   2.889   0.642
 3527SOL     OW10614   4.716   2.102   0.974
 3527SOL    HW110615   4.730   2.055   0.887
 3527SOL    HW210616   4.711   2.035   1.048
 3528SOL     OW10617   4.334   3.330   0.465
 3528SOL    HW110618   4.388   3.276   0.400
 3528SOL    HW210619   4.248   3.357   0.422
 3529SOL     OW10620   4.028   3.225   0.323
 3529SOL    HW110621   3.938   3.213   0.280
 3529SOL    HW210622   4.016   3.270   0.411
 3530SOL     OW10623   3.855   2.900   1.730
 3530SOL    HW110624   3.772   2.877   1.781
 3530SOL    HW210625   3.933   2.849   1.767
 3531SOL     OW10626   4.417   2.053   1.514
 3531SOL    HW110627   4.501   2.018   1.474
 3531SOL    HW210628   4.435   2.089   1.605
 3532SOL     OW10629   3.787   2.000   0.256
 3532SOL    HW110630   3.755   2.024   0.164
 3532SOL    HW210631   3.886   1.984   0.253
 3533SOL     OW10632   4.363   2.691   1.444
 3533SOL    HW110633   4.427   2.768   1.437
 3533SOL    HW210634   4.414   2.605   1.437
 3534SOL     OW10635   4.451   2.415   1.692
 3534SOL    HW110636   4.510   2.474   1.748
 3534SOL    HW210637   4.459   2.321   1.724
 3535SOL     OW10638   4.062   3.621   1.571
 3535SOL    HW110639   3.976   3.670   1.558
 3535SOL    HW210640   4.044   3.531   1.611
 3536SOL     OW10641   4.282   2.583   0.625
 3536SOL    HW110642   4.326   2.671   0.643
 3536SOL    HW210643   4.187   2.599   0.598
 3537SOL     OW10644   4.653   3.212   0.091
 3537SOL    HW110645   4.601   3.186   0.173
 3537SOL    HW210646   4.634   3.308   0.069
 3538SOL     OW10647   4.388   3.611   0.940
 3538SOL    HW110648   4.367   3.709   0.933
 3538SOL    HW210649   4.487   3.598   0.935
 3539SOL     OW10650   4.583   2.847   0.863
 3539SOL    HW110651   4.629   2.764   0.896
 3539SOL    HW210652   4.538   2.893   0.939
 3540SOL     OW10653   4.854   2.852   0.046
 3540SOL    HW110654   4.822   2.924   4.986
 3540SOL    HW210655   4.953   2.838   0.032
 3541SOL     OW10656   3.943   3.144   1.828
 3541SOL    HW110657   3.917   3.060   1.781
 3541SOL    HW210658   3.883   3.158   1.906
 3542SOL     OW10659   3.874   3.095   0.687
 3542SOL    HW110660   3.907   3.052   0.771
 3542SOL    HW210661   3.923   3.057   0.608
 3543SOL     OW10662   4.424   3.284   1.621
 3543SOL    HW110663   4.339   3.241   1.652
 3543SOL    HW210664   4.466   3.332   1.698
 3544SOL     OW10665   4.096   2.288   0.481
 3544SOL    HW110666   4.166   2.221   0.459
 3544SOL    HW210667   4.045   2.258   0.562
 3545SOL     OW10668   4.085   2.411   1.282
 3545SOL    HW110669   4.140   2.345   1.333
 3545SOL    HW210670   4.087   2.388   1.184
 3546SOL     OW10671   4.550   3.455   0.678
 3546SOL    HW110672   4.532   3.541   0.630
 3546SOL    HW210673   4.470   3.395   0.670
 3547SOL     OW10674   4.707   1.872   1.140
 3547SOL    HW110675   4.654   1.811   1.082
 3547SOL    HW210676   4.800   1.836   1.151
 3548SOL     OW10677   4.526   3.165   0.331
 3548SOL    HW110678   4.500   3.071   0.354
 3548SOL    HW210679   4.596   3.197   0.396
 3549SOL     OW10680   4.326   3.459   1.284
 3549SOL    HW110681   4.319   3.550   1.327
 3549SOL    HW210682   4.412   3.453   1.234
 3550SOL     OW10683   4.595   3.515   0.351
 3550SOL    HW110684   4.514   3.495   0.296
 3550SOL    HW210685   4.570   3.579   0.424
 3551SOL     OW10686   3.920   2.486   2.020
 3551SOL    HW110687   3.828   2.463   2.052
 3551SOL    HW210688   3.923   2.481   1.920
 3552SOL     OW10689   3.925   2.158   2.861
 3552SOL    HW110690   3.967   2.123   2.945
 3552SOL    HW210691   3.838   2.111   2.845
 3553SOL     OW10692   3.704   2.274   2.502
 3553SOL    HW110693   3.619   2.296   2.550
 3553SOL    HW210694   3.687   2.200   2.438
 3554SOL     OW10695   4.327   3.184   3.091
 3554SOL    HW110696   4.248   3.179   3.031
 3554SOL    HW210697   4.345   3.279   3.115
 3555SOL     OW10698   4.835   2.663   2.548
 3555SOL    HW110699   4.933   2.676   2.567
 3555SOL    HW210700   4.787   2.646   2.634
 3556SOL     OW10701   4.438   2.998   2.911
 3556SOL    HW110702   4.401   3.036   2.996
 3556SOL    HW210703   4.469   3.072   2.851
 3557SOL     OW10704   4.612   2.599   3.677
 3557SOL    HW110705   4.599   2.666   3.750
 3557SOL    HW210706   4.641   2.645   3.593
 3558SOL     OW10707   4.390   2.853   2.509
 3558SOL    HW110708   4.462   2.850   2.579
 3558SOL    HW210709   4.317   2.914   2.540
 3559SOL     OW10710   4.426   3.010   3.681
 3559SOL    HW110711   4.462   3.093   3.725
 3559SOL    HW210712   4.352   3.035   3.619
 3560SOL     OW10713   4.112   3.224   2.913
 3560SOL    HW110714   4.080   3.149   2.856
 3560SOL    HW210715   4.147   3.297   2.856
 3561SOL     OW10716   4.195   2.223   3.305
 3561SOL    HW110717   4.275   2.166   3.324
 3561SOL    HW210718   4.113   2.177   3.338
 3562SOL     OW10719   3.945   3.599   2.338
 3562SOL    HW110720   3.967   3.669   2.405
 3562SOL    HW210721   4.021   3.587   2.275
 3563SOL     OW10722   4.844   3.210   3.608
 3563SOL    HW110723   4.899   3.190   3.689
 3563SOL    HW210724   4.790   3.130   3.584
 3564SOL     OW10725   3.940   3.329   2.397
 3564SOL    HW110726   3.933   3.429   2.396
 3564SOL    HW210727   3.908   3.294   2.486
 3565SOL     OW10728   3.984   2.956   2.785
 3565SOL    HW110729   4.022   2.864   2.789
 3565SOL    HW210730   3.906   2.963   2.847
 3566SOL     OW10731   4.300   3.696   3.266
 3566SOL    HW110732   4.215   3.667   3.311
 3566SOL    HW210733   4.339   3.773   3.316
 3567SOL     OW10734   4.277   2.858   2.021
 3567SOL    HW110735   4.326   2.898   1.943
 3567SOL    HW210736   4.324   2.882   2.106
 3568SOL     OW10737   3.829   2.524   2.436
 3568SOL    HW110738   3.793   2.433   2.458
 3568SOL    HW210739   3.831   2.579   2.520
 3569SOL     OW10740   3.776   3.434   1.970
 3569SOL    HW110741   3.754   3.337   1.985
 3569SOL    HW210742   3.754   3.486   2.052
 3570SOL     OW10743   3.932   2.600   3.446
 3570SOL    HW110744   4.032   2.602   3.450
 3570SOL    HW210745   3.894   2.683   3.486
 3571SOL     OW10746   4.311   3.256   2.578
 3571SOL    HW110747   4.267   3.167   2.584
 3571SOL    HW210748   4.310   3.287   2.482
 3572SOL     OW10749   4.552   1.887   2.397
 3572SOL    HW110750   4.604   1.961   2.355
 3572SOL    HW210751   4.454   1.910   2.397
 3573SOL     OW10752   3.898   2.785   3.102
 3573SOL    HW110753   3.994   2.757   3.104
 3573SOL    HW210754   3.842   2.710   3.067
 3574SOL     OW10755   4.079   2.128   3.744
 3574SOL    HW110756   4.116   2.208   3.790
 3574SOL    HW210757   3.980   2.138   3.733
 3575SOL     OW10758   4.305   2.557   2.156
 3575SOL    HW110759   4.317   2.646   2.113
 3575SOL    HW210760   4.231   2.562   2.223
 3576SOL     OW10761   4.505   2.453   3.295
 3576SOL    HW110762   4.478   2.429   3.389
 3576SOL    HW210763   4.481   2.378   3.233
 3577SOL     OW10764   4.693   2.731   3.446
 3577SOL    HW110765   4.747   2.661   3.400
 3577SOL    HW210766   4.640   2.782   3.378
 3578SOL     OW10767   4.727   2.243   3.109
 3578SOL    HW110768   4.627   2.252   3.111
 3578SOL    HW210769   4.757   2.216   3.018
 3579SOL     OW10770   4.747   2.593   2.294
 3579SOL    HW110771   4.776   2.615   2.387
 3579SOL    HW210772   4.670   2.529   2.298
 3580SOL     OW10773   3.829   2.686   2.653
 3580SOL    HW110774   3.917   2.690   2.699
 3580SOL    HW210775   3.769   2.758   2.687
 3581SOL     OW10776   3.829   3.758   3.462
 3581SOL    HW110777   3.833   3.715   3.552
 3581SOL    HW210778   3.734   3.765   3.432
 3582SOL     OW10779   4.599   2.225   2.069
 3582SOL    HW110780   4.665   2.277   2.015
 3582SOL    HW210781   4.538   2.175   2.008
 3583SOL     OW10782   4.270   2.001   2.791
 3583SOL    HW110783   4.280   2.023   2.888
 3583SOL    HW210784   4.274   2.085   2.737
 3584SOL     OW10785   4.700   3.329   2.334
 3584SOL    HW110786   4.670   3.406   2.279
 3584SOL    HW210787   4.677   3.346   2.430
 3585SOL     OW10788   4.086   3.673   2.759
 3585SOL    HW110789   4.130   3.583   2.765
 3585SOL    HW210790   4.152   3.744   2.783
 3586SOL     OW10791   4.906   3.433   3.415
 3586SOL    HW110792   4.905   3.354   3.476
 3586SOL    HW210793   4.815   3.472   3.409
 3587SOL     OW10794   4.023   2.810   2.147
 3587SOL    HW110795   4.107   2.836   2.100
 3587SOL    HW210796   4.002   2.715   2.126
 3588SOL     OW10797   4.215   3.137   3.547
 3588SOL    HW110798   4.168   3.153   3.460
 3588SOL    HW210799   4.150   3.144   3.622
 3589SOL     OW10800   4.854   3.623   2.107
 3589SOL    HW110801   4.767   3.593   2.147
 3589SOL    HW210802   4.846   3.624   2.008
 3590SOL     OW10803   3.941   2.122   3.360
 3590SOL    HW110804   3.882   2.201   3.376
 3590SOL    HW210805   3.899   2.040   3.400
 3591SOL     OW10806   4.180   3.612   2.190
 3591SOL    HW110807   4.226   3.666   2.260
 3591SOL    HW210808   4.248   3.572   2.129
 3592SOL     OW10809   3.958   3.634   3.083
 3592SOL    HW110810   4.004   3.550   3.111
 3592SOL    HW210811   3.916   3.621   2.994
 3593SOL     OW10812   4.670   3.556   2.747
 3593SOL    HW110813   4.725   3.491   2.799
 3593SOL    HW210814   4.628   3.509   2.669
 3594SOL     OW10815   4.098   2.536   2.340
 3594SOL    HW110816   4.117   2.439   2.352
 3594SOL    HW210817   4.002   2.554   2.361
 3595SOL     OW10818   4.371   1.971   1.969
 3595SOL    HW110819   4.428   1.892   1.994
 3595SOL    HW210820   4.309   1.945   1.895
 3596SOL     OW10821   4.474   2.149   3.639
 3596SOL    HW110822   4.566   2.111   3.624
 3596SOL    HW210823   4.423   2.089   3.700
 3597SOL     OW10824   4.584   3.389   2.990
 3597SOL    HW110825   4.546   3.341   2.910
 3597SOL    HW210826   4.650   3.330   3.036
 3598SOL     OW10827   4.512   3.227   2.769
 3598SOL    HW110828   4.601   3.217   2.724
 3598SOL    HW210829   4.442   3.244   2.700
 3599SOL     OW10830   4.647   2.355   2.743
 3599SOL    HW110831   4.650   2.342   2.644
 3599SOL    HW210832   4.672   2.270   2.789
 3600SOL     OW10833   4.285   1.944   2.369
 3600SOL    HW110834   4.204   1.941   2.428
 3600SOL    HW210835   4.274   2.016   2.301
 3601SOL     OW10836   4.003   1.914   2.040
 3601SOL    HW110837   4.051   1.989   1.994
 3601SOL    HW210838   4.069   1.860   2.093
 3602SOL     OW10839   4.704   2.084   2.283
 3602SOL    HW110840   4.664   2.135   2.208
 3602SOL    HW210841   4.796   2.055   2.258
 3603SOL     OW10842   4.812   2.535   3.287
 3603SOL    HW110843   4.750   2.458   3.278
 3603SOL    HW210844   4.906   2.504   3.270
 3604SOL     OW10845   4.956   3.371   2.634
 3604SOL    HW110846   4.969   3.467   2.609
 3604SOL    HW210847   0.045   3.326   2.642
 3605SOL     OW10848   4.178   3.017   2.584
 3605SOL    HW110849   4.116   2.993   2.659
 3605SOL    HW210850   4.129   3.012   2.497
 3606SOL     OW10851   4.992   3.637   2.557
 3606SOL    HW110852   0.033   3.640   2.466
 3606SOL    HW210853   4.911   3.695   2.559
 3607SOL     OW10854   4.776   2.383   1.927
 3607SOL    HW110855   4.725   2.463   1.895
 3607SOL    HW210856   4.837   2.410   2.001
 3608SOL     OW10857   3.840   2.417   3.261
 3608SOL    HW110858   3.930   2.403   3.220
 3608SOL    HW210859   3.845   2.488   3.331
 3609SOL     OW10860   4.283   2.045   3.060
 3609SOL    HW110861   4.311   1.967   3.115
 3609SOL    HW210862   4.186   2.064   3.075
 3610SOL     OW10863   4.665   2.297   2.470
 3610SOL    HW110864   4.604   2.351   2.412
 3610SOL    HW210865   4.686   2.211   2.425
 3611SOL     OW10866   4.731   1.918   2.620
 3611SOL    HW110867   4.669   1.918   2.542
 3611SOL    HW210868   4.708   1.842   2.681
 3612SOL     OW10869   4.222   3.297   2.052
 3612SOL    HW110870   4.134   3.260   2.084
 3612SOL    HW210871   4.265   3.232   1.990
 3613SOL     OW10872   4.242   2.121   2.166
 3613SOL    HW110873   4.291   2.068   2.097
 3613SOL    HW210874   4.210   2.206   2.125
 3614SOL     OW10875   4.744   3.196   3.109
 3614SOL    HW110876   4.678   3.173   3.181
 3614SOL    HW210877   4.837   3.184   3.144
 3615SOL     OW10878   4.833   3.059   2.879
 3615SOL    HW110879   4.794   3.103   2.960
 3615SOL    HW210880   4.797   3.103   2.797
 3616SOL     OW10881   4.657   1.938   3.276
 3616SOL    HW110882   4.662   1.911   3.180
 3616SOL    HW210883   4.732   2.001   3.297
 3617SOL     OW10884   4.697   2.966   3.598
 3617SOL    HW110885   4.601   2.983   3.621
 3617SOL    HW210886   4.704   2.887   3.537
 3618SOL     OW10887   4.440   2.911   2.240
 3618SOL    HW110888   4.427   2.886   2.335
 3618SOL    HW210889   4.509   2.851   2.199
 3619SOL     OW10890   4.154   2.678   3.123
 3619SOL    HW110891   4.227   2.694   3.189
 3619SOL    HW210892   4.124   2.582   3.130
 3620SOL     OW10893   4.028   3.004   2.354
 3620SOL    HW110894   4.026   3.081   2.290
 3620SOL    HW210895   4.028   2.918   2.302
 3621SOL     OW10896   4.239   2.406   2.735
 3621SOL    HW110897   4.251   2.467   2.657
 3621SOL    HW210898   4.317   2.416   2.797
 3622SOL     OW10899   4.931   3.258   2.211
 3622SOL    HW110900   0.010   3.284   2.267
 3622SOL    HW210901   4.847   3.278   2.260
 3623SOL     OW10902   4.093   3.390   3.131
 3623SOL    HW110903   4.093   3.330   3.051
 3623SOL    HW210904   4.187   3.421   3.150
 3624SOL     OW10905   4.211   2.590   3.497
 3624SOL    HW110906   4.256   2.640   3.424
 3624SOL    HW210907   4.271   2.516   3.530
 3625SOL     OW10908   4.715   2.038   3.596
 3625SOL    HW110909   4.779   2.112   3.578
 3625SOL    HW210910   4.749   1.954   3.553
 3626SOL     OW10911   4.201   1.910   3.621
 3626SOL    HW110912   4.146   1.858   3.555
 3626SOL    HW210913   4.150   1.992   3.649
 3627SOL     OW10914   4.329   2.729   2.908
 3627SOL    HW110915   4.365   2.822   2.907
 3627SOL    HW210916   4.265   2.719   2.984
 3628SOL     OW10917   0.044   2.787   2.927
 3628SOL    HW110918   4.950   2.821   2.915
 3628SOL    HW210919   0.043   2.687   2.934
 3629SOL     OW10920   4.934   2.451   2.146
 3629SOL    HW110921   4.974   2.393   2.217
 3629SOL    HW210922   4.872   2.518   2.188
 3630SOL     OW10923   4.012   2.053   3.099
 3630SOL    HW110924   3.984   2.086   3.189
 3630SOL    HW210925   3.988   1.956   3.091
 3631SOL     OW10926   4.444   2.468   2.906
 3631SOL    HW110927   4.519   2.446   2.844
 3631SOL    HW210928   4.420   2.564   2.896
 3632SOL     OW10929   4.047   1.930   2.509
 3632SOL    HW110930   4.006   2.020   2.528
 3632SOL    HW210931   4.055   1.879   2.595
 3633SOL     OW10932   4.709   2.620   2.795
 3633SOL    HW110933   4.709   2.634   2.894
 3633SOL    HW210934   4.701   2.522   2.775
 3634SOL     OW10935   4.689   3.426   3.675
 3634SOL    HW110936   4.660   3.473   3.591
 3634SOL    HW210937   4.749   3.349   3.651
 3635SOL     OW10938   4.113   2.759   3.695
 3635SOL    HW110939   4.186   2.790   3.756
 3635SOL    HW210940   4.151   2.696   3.627
 3636SOL     OW10941   0.278   2.096   2.080
 3636SOL    HW110942   0.185   2.128   2.060
 3636SOL    HW210943   0.312   2.145   2.161
 3637SOL     OW10944   4.751   3.194   2.648
 3637SOL    HW110945   4.766   3.114   2.591
 3637SOL    HW210946   4.827   3.259   2.636
 3638SOL     OW10947   4.065   2.691   2.797
 3638SOL    HW110948   4.165   2.698   2.797
 3638SOL    HW210949   4.037   2.600   2.828
 3639SOL     OW10950   4.007   2.415   2.866
 3639SOL    HW110951   3.964   2.326   2.861
 3639SOL    HW210952   4.091   2.414   2.812
 3640SOL     OW10953   4.871   2.261   3.564
 3640SOL    HW110954   4.823   2.312   3.635
 3640SOL    HW210955   4.965   2.295   3.556
 3641SOL     OW10956   4.859   2.130   3.319
 3641SOL    HW110957   4.856   2.190   3.399
 3641SOL    HW210958   4.819   2.178   3.240
 3642SOL     OW10959   3.747   3.149   2.032
 3642SOL    HW110960   3.655   3.177   2.003
 3642SOL    HW210961   3.743   3.057   2.070
 3643SOL     OW10962   3.821   3.641   2.823
 3643SOL    HW110963   3.780   3.574   2.761
 3643SOL    HW210964   3.915   3.659   2.795
 3644SOL     OW10965   4.222   3.430   2.768
 3644SOL    HW110966   4.294   3.494   2.793
 3644SOL    HW210967   4.252   3.373   2.692
 3645SOL     OW10968   4.669   2.641   3.069
 3645SOL    HW110969   4.736   2.619   3.140
 3645SOL    HW210970   4.586   2.587   3.084
 3646SOL     OW10971   3.779   2.518   3.010
 3646SOL    HW110972   3.850   2.489   2.946
 3646SOL    HW210973   3.798   2.482   3.101
 3647SOL     OW10974   3.945   2.389   3.617
 3647SOL    HW110975   4.035   2.352   3.593
 3647SOL    HW210976   3.924   2.466   3.557
 3648SOL     OW10977   4.532   2.421   2.257
 3648SOL    HW110978   4.549   2.349   2.191
 3648SOL    HW210979   4.450   2.472   2.231
 3649SOL     OW10980   4.012   3.430   3.600
 3649SOL    HW110981   3.964   3.497   3.655
 3649SOL    HW210982   4.023   3.345   3.652
 3650SOL     OW10983   4.453   2.269   3.098
 3650SOL    HW110984   4.391   2.191   3.085
 3650SOL    HW210985   4.438   2.336   3.024
 3651SOL     OW10986   4.626   3.546   3.422
 3651SOL    HW110987   4.570   3.480   3.372
 3651SOL    HW210988   4.635   3.630   3.367
 3652SOL     OW10989   4.158   2.350   2.036
 3652SOL    HW110990   4.228   2.414   2.066
 3652SOL    HW210991   4.068   2.395   2.040
 3653SOL     OW10992   3.899   2.953   3.324
 3653SOL    HW110993   3.909   2.901   3.410
 3653SOL    HW210994   3.898   2.889   3.247
 3654SOL     OW10995   4.950   3.616   3.014
 3654SOL    HW110996   0.008   3.636   2.934
 3654SOL    HW210997   4.988   3.537   3.063
 3655SOL     OW10998   4.407   3.570   3.608
 3655SOL    HW110999   4.334   3.638   3.597
 3655SOL    HW211000   4.482   3.590   3.544
 3656SOL     OW11001   3.856   3.633   3.706
 3656SOL    HW111002   3.803   3.559   3.748
 3656SOL    HW211003   3.904   3.685   3.777
 3657SOL     OW11004   4.526   3.145   3.278
 3657SOL    HW111005   4.503   3.199   3.358
 3657SOL    HW211006   4.451   3.151   3.211
 3658SOL     OW11007   4.385   3.514   2.034
 3658SOL    HW111008   4.401   3.537   1.938
 3658SOL    HW211009   4.334   3.428   2.040
 3659SOL     OW11010   3.950   2.174   2.580
 3659SOL    HW111011   3.864   2.215   2.551
 3659SOL    HW211012   3.956   2.176   2.680
 3660SOL     OW11013   4.565   2.873   3.250
 3660SOL    HW111014   4.609   2.854   3.162
 3660SOL    HW211015   4.556   2.971   3.262
 3661SOL     OW11016   4.621   2.749   2.110
 3661SOL    HW111017   4.691   2.794   2.054
 3661SOL    HW211018   4.665   2.692   2.178
 3662SOL     OW11019   4.048   3.191   3.336
 3662SOL    HW111020   4.057   3.253   3.258
 3662SOL    HW211021   4.001   3.107   3.308
 3663SOL     OW11022   4.763   2.942   2.540
 3663SOL    HW111023   4.690   2.920   2.604
 3663SOL    HW211024   4.806   2.857   2.508
 3664SOL     OW11025   4.718   2.099   2.848
 3664SOL    HW111026   4.735   2.058   2.758
 3664SOL    HW211027   4.708   2.027   2.916
 3665SOL     OW11028   4.331   3.343   2.324
 3665SOL    HW111029   4.395   3.285   2.274
 3665SOL    HW211030   4.255   3.368   2.264
 3666SOL     OW11031   3.986   3.206   2.166
 3666SOL    HW111032   3.900   3.191   2.118
 3666SOL    HW211033   3.970   3.260   2.249
 3667SOL     OW11034   3.873   2.832   3.579
 3667SOL    HW111035   3.791   2.833   3.635
 3667SOL    HW211036   3.953   2.816   3.637
 3668SOL     OW11037   4.414   2.052   3.375
 3668SOL    HW111038   4.502   2.023   3.337
 3668SOL    HW211039   4.429   2.091   3.466
 3669SOL     OW11040   3.802   2.195   1.854
 3669SOL    HW111041   3.720   2.177   1.800
 3669SOL    HW211042   3.841   2.284   1.828
 3670SOL     OW11043   3.760   2.020   2.095
 3670SOL    HW111044   3.744   2.088   2.024
 3670SOL    HW211045   3.853   1.983   2.085
 3671SOL     OW11046   4.368   2.688   3.292
 3671SOL    HW111047   4.430   2.765   3.281
 3671SOL    HW211048   4.419   2.603   3.291
 3672SOL     OW11049   4.428   2.416   3.561
 3672SOL    HW111050   4.491   2.476   3.611
 3672SOL    HW211051   4.439   2.322   3.594
 3673SOL     OW11052   4.077   3.631   3.421
 3673SOL    HW111053   3.988   3.673   3.408
 3673SOL    HW211054   4.066   3.543   3.468
 3674SOL     OW11055   4.271   2.601   2.546
 3674SOL    HW111056   4.320   2.686   2.529
 3674SOL    HW211057   4.209   2.583   2.470
 3675SOL     OW11058   4.504   3.236   1.928
 3675SOL    HW111059   4.515   3.226   2.027
 3675SOL    HW211060   4.567   3.306   1.895
 3676SOL     OW11061   4.404   3.626   2.805
 3676SOL    HW111062   4.379   3.723   2.795
 3676SOL    HW211063   4.501   3.615   2.787
 3677SOL     OW11064   4.574   2.849   2.716
 3677SOL    HW111065   4.620   2.765   2.744
 3677SOL    HW211066   4.535   2.895   2.796
 3678SOL     OW11067   4.816   2.852   1.957
 3678SOL    HW111068   4.782   2.905   1.879
 3678SOL    HW211069   4.912   2.874   1.973
 3679SOL     OW11070   4.005   3.172   3.721
 3679SOL    HW111071   3.926   3.127   3.679
 3679SOL    HW211072   3.993   3.175   3.821
 3680SOL     OW11073   3.865   3.100   2.564
 3680SOL    HW111074   3.895   3.045   2.642
 3680SOL    HW211075   3.912   3.068   2.481
 3681SOL     OW11076   4.424   3.309   3.481
 3681SOL    HW111077   4.351   3.245   3.504
 3681SOL    HW211078   4.414   3.392   3.536
 3682SOL     OW11079   4.128   2.274   2.383
 3682SOL    HW111080   4.162   2.203   2.321
 3682SOL    HW211081   4.072   2.232   2.455
 3683SOL     OW11082   4.084   2.413   3.142
 3683SOL    HW111083   4.138   2.346   3.193
 3683SOL    HW211084   4.083   2.389   3.045
 3684SOL     OW11085   4.538   3.474   2.524
 3684SOL    HW111086   4.533   3.562   2.478
 3684SOL    HW211087   4.458   3.418   2.499
 3685SOL     OW11088   4.700   1.863   3.012
 3685SOL    HW111089   4.643   1.800   2.959
 3685SOL    HW211090   4.792   1.824   3.021
 3686SOL     OW11091   4.511   3.178   2.197
 3686SOL    HW111092   4.491   3.082   2.215
 3686SOL    HW211093   4.592   3.205   2.251
 3687SOL     OW11094   4.361   3.454   3.143
 3687SOL    HW111095   4.350   3.546   3.182
 3687SOL    HW211096   4.443   3.453   3.085
 3688SOL     OW11097   3.754   2.895   2.168
 3688SOL    HW111098   3.853   2.885   2.156
 3688SOL    HW211099   3.713   2.805   2.181
 3689SOL     OW11100   4.604   3.549   2.200
 3689SOL    HW111101   4.526   3.530   2.140
 3689SOL    HW211102   4.579   3.618   2.268
 3690SOL     OW11103   3.925   2.473   3.882
 3690SOL    HW111104   3.833   2.453   3.915
 3690SOL    HW211105   3.927   2.462   3.782
 3691SOL     OW11106   3.942   2.150   4.707
 3691SOL    HW111107   3.995   2.105   4.778
 3691SOL    HW211108   3.850   2.111   4.703
 3692SOL     OW11109   3.710   2.293   4.356
 3692SOL    HW111110   3.626   2.318   4.405
 3692SOL    HW211111   3.692   2.217   4.294
 3693SOL     OW11112   4.249   3.152   4.897
 3693SOL    HW111113   4.164   3.172   4.849
 3693SOL    HW211114   4.322   3.210   4.861
 3694SOL     OW11115   4.849   2.640   4.414
 3694SOL    HW111116   4.944   2.667   4.432
 3694SOL    HW211117   4.801   2.627   4.500
 3695SOL     OW11118   4.412   2.957   4.785
 3695SOL    HW111119   4.336   2.997   4.836
 3695SOL    HW211120   4.458   3.029   4.732
 3696SOL     OW11121   4.405   2.838   4.376
 3696SOL    HW111122   4.471   2.832   4.451
 3696SOL    HW211123   4.334   2.904   4.400
 3697SOL     OW11124   4.044   3.231   4.740
 3697SOL    HW111125   3.951   3.220   4.705
 3697SOL    HW211126   4.089   3.306   4.693
 3698SOL     OW11127   0.220   3.432   0.068
 3698SOL    HW111128   0.128   3.462   0.093
 3698SOL    HW211129   0.254   3.366   0.135
 3699SOL     OW11130   3.943   3.591   4.189
 3699SOL    HW111131   3.963   3.663   4.255
 3699SOL    HW211132   4.020   3.583   4.125
 3700SOL     OW11133   3.972   3.318   4.232
 3700SOL    HW111134   3.951   3.415   4.241
 3700SOL    HW211135   3.934   3.268   4.310
 3701SOL     OW11136   4.014   2.956   4.609
 3701SOL    HW111137   4.024   2.857   4.623
 3701SOL    HW211138   3.994   3.000   4.697
 3702SOL     OW11139   4.302   2.851   3.882
 3702SOL    HW111140   4.348   2.899   3.807
 3702SOL    HW211141   4.342   2.879   3.969
 3703SOL     OW11142   3.831   2.547   4.293
 3703SOL    HW111143   3.798   2.455   4.315
 3703SOL    HW211144   3.828   2.605   4.375
 3704SOL     OW11145   3.751   3.421   3.836
 3704SOL    HW111146   3.738   3.324   3.853
 3704SOL    HW211147   3.734   3.472   3.921
 3705SOL     OW11148   4.345   3.254   4.436
 3705SOL    HW111149   4.297   3.166   4.441
 3705SOL    HW211150   4.333   3.293   4.344
 3706SOL     OW11151   4.554   1.894   4.241
 3706SOL    HW111152   4.599   1.974   4.201
 3706SOL    HW211153   4.455   1.911   4.246
 3707SOL     OW11154   3.903   2.823   4.907
 3707SOL    HW111155   3.996   2.788   4.919
 3707SOL    HW211156   3.846   2.752   4.864
 3708SOL     OW11157   4.302   2.574   4.005
 3708SOL    HW111158   4.306   2.665   3.962
 3708SOL    HW211159   4.230   2.574   4.075
 3709SOL     OW11160   4.768   2.578   4.154
 3709SOL    HW111161   4.794   2.596   4.250
 3709SOL    HW211162   4.683   2.526   4.152
 3710SOL     OW11163   3.812   2.727   4.503
 3710SOL    HW111164   3.904   2.711   4.539
 3710SOL    HW211165   3.766   2.796   4.559
 3711SOL     OW11166   4.587   2.239   3.918
 3711SOL    HW111167   4.655   2.290   3.865
 3711SOL    HW211168   4.526   2.190   3.855
 3712SOL     OW11169   4.249   2.003   4.698
 3712SOL    HW111170   4.195   2.019   4.781
 3712SOL    HW211171   4.266   2.090   4.653
 3713SOL     OW11172   4.708   3.328   4.200
 3713SOL    HW111173   4.674   3.404   4.143
 3713SOL    HW211174   4.688   3.348   4.296
 3714SOL     OW11175   4.079   3.659   4.597
 3714SOL    HW111176   4.118   3.568   4.602
 3714SOL    HW211177   4.142   3.725   4.638
 3715SOL     OW11178   4.025   2.805   3.997
 3715SOL    HW111179   4.105   2.830   3.942
 3715SOL    HW211180   4.002   2.709   3.980
 3716SOL     OW11181   4.803   3.556   3.889
 3716SOL    HW111182   4.737   3.559   3.963
 3716SOL    HW211183   4.758   3.521   3.806
 3717SOL     OW11184   4.178   3.615   4.041
 3717SOL    HW111185   4.224   3.667   4.112
 3717SOL    HW211186   4.246   3.576   3.978
 3718SOL     OW11187   3.945   3.631   4.914
 3718SOL    HW111188   3.905   3.568   4.981
 3718SOL    HW211189   3.897   3.620   4.827
 3719SOL     OW11190   4.661   3.568   4.623
 3719SOL    HW111191   4.738   3.517   4.661
 3719SOL    HW211192   4.622   3.518   4.546
 3720SOL     OW11193   4.103   2.543   4.198
 3720SOL    HW111194   4.117   2.444   4.205
 3720SOL    HW211195   4.008   2.566   4.220
 3721SOL     OW11196   4.371   1.969   3.826
 3721SOL    HW111197   4.422   1.889   3.858
 3721SOL    HW211198   4.305   1.940   3.757
 3722SOL     OW11199   4.510   3.172   4.655
 3722SOL    HW111200   4.609   3.181   4.641
 3722SOL    HW211201   4.462   3.205   4.573
 3723SOL     OW11202   4.646   2.368   4.597
 3723SOL    HW111203   4.632   2.362   4.498
 3723SOL    HW211204   4.686   2.282   4.630
 3724SOL     OW11205   4.284   1.939   4.224
 3724SOL    HW111206   4.203   1.937   4.283
 3724SOL    HW211207   4.274   2.014   4.158
 3725SOL     OW11208   4.005   1.914   3.906
 3725SOL    HW111209   4.054   1.990   3.863
 3725SOL    HW211210   4.070   1.857   3.956
 3726SOL     OW11211   4.689   2.108   4.139
 3726SOL    HW111212   4.647   2.153   4.060
 3726SOL    HW211213   4.788   2.103   4.125
 3727SOL     OW11214   4.937   3.366   4.518
 3727SOL    HW111215   4.951   3.461   4.489
 3727SOL    HW211216   0.015   3.310   4.487
 3728SOL     OW11217   4.203   3.020   4.422
 3728SOL    HW111218   4.140   3.000   4.497
 3728SOL    HW211219   4.155   3.014   4.335
 3729SOL     OW11220   4.988   3.626   4.435
 3729SOL    HW111221   0.042   3.634   4.351
 3729SOL    HW211222   4.909   3.687   4.430
 3730SOL     OW11223   4.767   2.394   3.778
 3730SOL    HW111224   4.715   2.473   3.744
 3730SOL    HW211225   4.831   2.425   3.848
 3731SOL     OW11226   4.640   2.316   4.324
 3731SOL    HW111227   4.582   2.373   4.265
 3731SOL    HW211228   4.656   2.228   4.280
 3732SOL     OW11229   4.745   1.907   4.447
 3732SOL    HW111230   4.680   1.908   4.371
 3732SOL    HW211231   4.714   1.842   4.517
 3733SOL     OW11232   4.229   3.302   3.919
 3733SOL    HW111233   4.138   3.265   3.938
 3733SOL    HW211234   4.281   3.236   3.864
 3734SOL     OW11235   4.252   2.123   4.025
 3734SOL    HW111236   4.299   2.070   3.955
 3734SOL    HW211237   4.220   2.210   3.985
 3735SOL     OW11238   4.742   3.045   4.888
 3735SOL    HW111239   4.703   3.110   4.953
 3735SOL    HW211240   4.755   3.090   4.800
 3736SOL     OW11241   4.445   2.917   4.111
 3736SOL    HW111242   4.426   2.887   4.205
 3736SOL    HW211243   4.523   2.866   4.075
 3737SOL     OW11244   4.138   2.691   4.988
 3737SOL    HW111245   4.187   2.727   0.068
 3737SOL    HW211246   4.070   2.624   0.019
 3738SOL     OW11247   4.046   3.001   4.193
 3738SOL    HW111248   4.037   3.078   4.130
 3738SOL    HW211249   4.041   2.915   4.143
 3739SOL     OW11250   4.251   2.373   4.576
 3739SOL    HW111251   4.271   2.438   4.503
 3739SOL    HW211252   4.317   2.385   4.651
 3740SOL     OW11253   4.943   3.239   4.088
 3740SOL    HW111254   0.017   3.287   4.135
 3740SOL    HW211255   4.856   3.265   4.130
 3741SOL     OW11256   4.308   2.696   4.769
 3741SOL    HW111257   4.345   2.789   4.767
 3741SOL    HW211258   4.246   2.687   4.847
 3742SOL     OW11259   0.012   2.650   4.747
 3742SOL    HW111260   4.915   2.637   4.726
 3742SOL    HW211261   0.061   2.673   4.663
 3743SOL     OW11262   4.946   2.461   3.981
 3743SOL    HW111263   0.004   2.405   4.040
 3743SOL    HW211264   4.884   2.516   4.037
 3744SOL     OW11265   4.068   2.009   4.916
 3744SOL    HW111266   4.049   2.068   4.995
 3744SOL    HW211267   4.016   1.924   4.924
 3745SOL     OW11268   3.730   3.239   4.930
 3745SOL    HW111269   3.740   3.170   0.002
 3745SOL    HW211270   3.760   3.328   4.964
 3746SOL     OW11271   4.431   2.440   4.774
 3746SOL    HW111272   4.511   2.423   4.715
 3746SOL    HW211273   4.403   2.535   4.765
 3747SOL     OW11274   4.045   1.928   4.363
 3747SOL    HW111275   4.006   2.019   4.379
 3747SOL    HW211276   4.051   1.879   4.450
 3748SOL     OW11277   4.742   2.607   4.678
 3748SOL    HW111278   4.725   2.618   4.776
 3748SOL    HW211279   4.711   2.517   4.648
 3749SOL     OW11280   0.295   2.113   3.861
 3749SOL    HW111281   0.197   2.130   3.856
 3749SOL    HW211282   0.341   2.192   3.900
 3750SOL     OW11283   4.789   3.165   4.630
 3750SOL    HW111284   4.781   3.097   4.557
 3750SOL    HW211285   4.838   3.246   4.595
 3751SOL     OW11286   4.059   2.683   4.629
 3751SOL    HW111287   4.157   2.689   4.648
 3751SOL    HW211288   4.028   2.588   4.641
 3752SOL     OW11289   4.001   2.415   4.668
 3752SOL    HW111290   3.963   2.325   4.689
 3752SOL    HW211291   4.092   2.403   4.628
 3753SOL     OW11292   4.918   2.168   0.243
 3753SOL    HW111293   4.820   2.181   0.232
 3753SOL    HW211294   4.963   2.175   0.154
 3754SOL     OW11295   3.719   3.143   3.897
 3754SOL    HW111296   3.628   3.162   3.861
 3754SOL    HW211297   3.725   3.048   3.927
 3755SOL     OW11298   3.818   3.620   4.662
 3755SOL    HW111299   3.784   3.540   4.612
 3755SOL    HW211300   3.911   3.641   4.632
 3756SOL     OW11301   4.211   3.418   4.618
 3756SOL    HW111302   4.280   3.478   4.658
 3756SOL    HW211303   4.253   3.359   4.550
 3757SOL     OW11304   4.702   2.646   4.944
 3757SOL    HW111305   4.772   2.708   4.980
 3757SOL    HW211306   4.611   2.681   4.967
 3758SOL     OW11307   3.825   2.553   4.829
 3758SOL    HW111308   3.882   2.506   4.761
 3758SOL    HW211309   3.860   2.534   4.920
 3759SOL     OW11310   4.531   2.443   4.101
 3759SOL    HW111311   4.542   2.367   4.037
 3759SOL    HW211312   4.449   2.496   4.076
 3760SOL     OW11313   4.340   2.278   4.988
 3760SOL    HW111314   4.272   2.332   0.038
 3760SOL    HW211315   4.377   2.333   4.913
 3761SOL     OW11316   4.168   2.351   3.894
 3761SOL    HW111317   4.236   2.420   3.921
 3761SOL    HW211318   4.077   2.390   3.901
 3762SOL     OW11319   3.849   2.909   0.163
 3762SOL    HW111320   3.920   2.868   0.220
 3762SOL    HW211321   3.868   2.890   0.067
 3763SOL     OW11322   4.921   3.598   4.866
 3763SOL    HW111323   0.002   3.602   4.807
 3763SOL    HW211324   4.944   3.552   4.951
 3764SOL     OW11325   3.779   3.167   4.675
 3764SOL    HW111326   3.760   3.187   4.771
 3764SOL    HW211327   3.737   3.079   4.650
 3765SOL     OW11328   4.384   3.522   3.879
 3765SOL    HW111329   4.403   3.532   3.781
 3765SOL    HW211330   4.335   3.436   3.894
 3766SOL     OW11331   3.953   2.176   4.427
 3766SOL    HW111332   3.868   2.224   4.401
 3766SOL    HW211333   3.962   2.175   4.526
 3767SOL     OW11334   4.505   2.831   0.015
 3767SOL    HW111335   4.486   2.884   4.932
 3767SOL    HW211336   4.578   2.876   0.067
 3768SOL     OW11337   4.651   2.779   4.012
 3768SOL    HW111338   4.711   2.802   3.934
 3768SOL    HW211339   4.694   2.706   4.065
 3769SOL     OW11340   4.759   2.972   4.445
 3769SOL    HW111341   4.693   2.915   4.495
 3769SOL    HW211342   4.781   2.928   4.358
 3770SOL     OW11343   4.754   2.119   4.642
 3770SOL    HW111344   4.760   2.061   4.560
 3770SOL    HW211345   4.741   2.061   4.723
 3771SOL     OW11346   4.334   3.357   4.188
 3771SOL    HW111347   4.395   3.299   4.135
 3771SOL    HW211348   4.252   3.377   4.134
 3772SOL     OW11349   3.972   3.199   3.994
 3772SOL    HW111350   3.877   3.181   3.968
 3772SOL    HW211351   3.973   3.252   4.079
 3773SOL     OW11352   3.805   2.176   3.717
 3773SOL    HW111353   3.724   2.159   3.661
 3773SOL    HW211354   3.844   2.264   3.693
 3774SOL     OW11355   3.761   2.018   3.964
 3774SOL    HW111356   3.744   2.082   3.889
 3774SOL    HW211357   3.854   1.981   3.956
 3775SOL     OW11358   4.295   2.579   4.398
 3775SOL    HW111359   4.340   2.668   4.387
 3775SOL    HW211360   4.224   2.569   4.328
 3776SOL     OW11361   4.507   3.240   3.797
 3776SOL    HW111362   4.519   3.229   3.896
 3776SOL    HW211363   4.568   3.312   3.763
 3777SOL     OW11364   4.389   3.605   4.703
 3777SOL    HW111365   4.357   3.700   4.702
 3777SOL    HW211366   4.486   3.603   4.678
 3778SOL     OW11367   4.582   2.823   4.591
 3778SOL    HW111368   4.635   2.744   4.622
 3778SOL    HW211369   4.530   2.859   4.669
 3779SOL     OW11370   4.817   2.833   3.807
 3779SOL    HW111371   4.782   2.889   3.732
 3779SOL    HW211372   4.914   2.852   3.821
 3780SOL     OW11373   3.882   3.101   4.394
 3780SOL    HW111374   3.908   3.061   4.482
 3780SOL    HW211375   3.932   3.057   4.320
 3781SOL     OW11376   4.127   2.279   4.232
 3781SOL    HW111377   4.168   2.207   4.176
 3781SOL    HW211378   4.073   2.238   4.305
 3782SOL     OW11379   4.546   3.450   4.410
 3782SOL    HW111380   4.517   3.512   4.337
 3782SOL    HW211381   4.477   3.379   4.422
 3783SOL     OW11382   4.707   1.912   4.823
 3783SOL    HW111383   4.664   1.855   4.752
 3783SOL    HW211384   4.788   1.866   4.857
 3784SOL     OW11385   4.512   3.184   4.066
 3784SOL    HW111386   4.489   3.088   4.085
 3784SOL    HW211387   4.592   3.210   4.119
 3785SOL     OW11388   3.757   2.888   4.018
 3785SOL    HW111389   3.856   2.878   4.006
 3785SOL    HW211390   3.716   2.798   4.033
 3786SOL     OW11391   4.593   3.539   4.066
 3786SOL    HW111392   4.515   3.529   4.005
 3786SOL    HW211393   4.578   3.617   4.127
 3787SOL     OW11394   3.947   4.376   0.103
 3787SOL    HW111395   3.866   4.372   0.162
 3787SOL    HW211396   4.016   4.312   0.136
 3788SOL     OW11397   3.929   3.999   0.992
 3788SOL    HW111398   3.969   3.967   1.078
 3788SOL    HW211399   3.840   3.956   0.977
 3789SOL     OW11400   3.693   4.120   0.643
 3789SOL    HW111401   3.608   4.141   0.692
 3789SOL    HW211402   3.675   4.047   0.576
 3790SOL     OW11403   4.840   4.470   0.679
 3790SOL    HW111404   4.934   4.502   0.688
 3790SOL    HW211405   4.795   4.475   0.768
 3791SOL     OW11406   4.519   4.918   0.958
 3791SOL    HW111407   4.419   4.920   0.951
 3791SOL    HW211408   4.558   4.983   0.893
 3792SOL     OW11409   4.611   4.455   1.834
 3792SOL    HW111410   4.608   4.510   1.918
 3792SOL    HW211411   4.633   4.514   1.757
 3793SOL     OW11412   4.451   4.660   0.649
 3793SOL    HW111413   4.539   4.673   0.695
 3793SOL    HW211414   4.383   4.722   0.689
 3794SOL     OW11415   4.443   4.892   1.863
 3794SOL    HW111416   4.476   4.923   1.952
 3794SOL    HW211417   4.374   4.955   1.828
 3795SOL     OW11418   4.195   4.092   1.449
 3795SOL    HW111419   4.274   4.034   1.468
 3795SOL    HW211420   4.111   4.044   1.476
 3796SOL     OW11421   4.066   4.784   0.960
 3796SOL    HW111422   4.055   4.685   0.957
 3796SOL    HW211423   3.983   4.826   0.995
 3797SOL     OW11424   4.309   4.647   0.158
 3797SOL    HW111425   4.368   4.666   0.080
 3797SOL    HW211426   4.356   4.674   0.242
 3798SOL     OW11427   3.833   4.357   0.591
 3798SOL    HW111428   3.787   4.269   0.602
 3798SOL    HW211429   3.824   4.409   0.676
 3799SOL     OW11430   3.916   4.464   1.584
 3799SOL    HW111431   4.016   4.471   1.586
 3799SOL    HW211432   3.876   4.549   1.619
 3800SOL     OW11433   4.532   3.712   0.542
 3800SOL    HW111434   4.585   3.786   0.501
 3800SOL    HW211435   4.434   3.735   0.539
 3801SOL     OW11436   3.888   4.700   1.275
 3801SOL    HW111437   3.978   4.657   1.264
 3801SOL    HW211438   3.823   4.632   1.310
 3802SOL     OW11439   4.068   3.986   1.885
 3802SOL    HW111440   4.106   4.065   1.933
 3802SOL    HW211441   3.969   3.997   1.875
 3803SOL     OW11442   4.320   4.405   0.331
 3803SOL    HW111443   4.337   4.489   0.279
 3803SOL    HW211444   4.249   4.421   0.399
 3804SOL     OW11445   4.511   4.321   1.445
 3804SOL    HW111446   4.478   4.299   1.536
 3804SOL    HW211447   4.486   4.248   1.381
 3805SOL     OW11448   4.680   4.609   1.607
 3805SOL    HW111449   4.735   4.541   1.559
 3805SOL    HW211450   4.627   4.663   1.541
 3806SOL     OW11451   4.732   4.098   1.246
 3806SOL    HW111452   4.633   4.111   1.253
 3806SOL    HW211453   4.755   4.064   1.155
 3807SOL     OW11454   4.783   4.429   0.416
 3807SOL    HW111455   4.805   4.446   0.512
 3807SOL    HW211456   4.701   4.373   0.409
 3808SOL     OW11457   3.814   4.514   0.807
 3808SOL    HW111458   3.905   4.518   0.849
 3808SOL    HW211459   3.762   4.596   0.831
 3809SOL     OW11460   4.651   4.072   0.198
 3809SOL    HW111461   4.680   4.148   0.141
 3809SOL    HW211462   4.623   3.995   0.140
 3810SOL     OW11463   4.274   3.868   0.933
 3810SOL    HW111464   4.285   3.887   1.031
 3810SOL    HW211465   4.273   3.954   0.883
 3811SOL     OW11466   4.059   4.666   0.301
 3811SOL    HW111467   4.141   4.658   0.244
 3811SOL    HW211468   4.044   4.581   0.351
 3812SOL     OW11469   3.942   3.985   1.493
 3812SOL    HW111470   3.880   4.062   1.499
 3812SOL    HW211471   3.900   3.904   1.534
 3813SOL     OW11472   4.092   4.402   0.494
 3813SOL    HW111473   4.122   4.308   0.505
 3813SOL    HW211474   3.996   4.410   0.521
 3814SOL     OW11475   4.334   3.872   0.097
 3814SOL    HW111476   4.429   3.851   0.075
 3814SOL    HW211477   4.275   3.844   0.021
 3815SOL     OW11478   4.474   4.012   1.786
 3815SOL    HW111479   4.566   3.974   1.774
 3815SOL    HW211480   4.420   3.951   1.844
 3816SOL     OW11481   4.664   4.219   0.891
 3816SOL    HW111482   4.664   4.205   0.792
 3816SOL    HW211483   4.683   4.133   0.937
 3817SOL     OW11484   4.272   3.790   0.500
 3817SOL    HW111485   4.193   3.790   0.562
 3817SOL    HW211486   4.267   3.869   0.439
 3818SOL     OW11487   4.037   3.801   0.238
 3818SOL    HW111488   4.098   3.873   0.272
 3818SOL    HW211489   4.076   3.711   0.259
 3819SOL     OW11490   4.684   3.915   0.437
 3819SOL    HW111491   4.655   3.972   0.360
 3819SOL    HW211492   4.774   3.875   0.418
 3820SOL     OW11493   4.780   4.414   1.431
 3820SOL    HW111494   4.697   4.358   1.437
 3820SOL    HW211495   4.859   4.356   1.412
 3821SOL     OW11496   4.258   4.807   0.773
 3821SOL    HW111497   4.187   4.807   0.844
 3821SOL    HW211498   4.215   4.811   0.683
 3822SOL     OW11499   4.768   4.277   0.058
 3822SOL    HW111500   4.738   4.360   0.011
 3822SOL    HW211501   4.847   4.298   0.116
 3823SOL     OW11502   3.839   4.268   1.405
 3823SOL    HW111503   3.931   4.264   1.365
 3823SOL    HW211504   3.835   4.341   1.473
 3824SOL     OW11505   4.288   3.909   1.204
 3824SOL    HW111506   4.316   3.832   1.261
 3824SOL    HW211507   4.190   3.926   1.216
 3825SOL     OW11508   4.673   4.144   0.617
 3825SOL    HW111509   4.627   4.206   0.554
 3825SOL    HW211510   4.672   4.051   0.579
 3826SOL     OW11511   4.728   3.771   0.761
 3826SOL    HW111512   4.660   3.770   0.687
 3826SOL    HW211513   4.709   3.696   0.825
 3827SOL     OW11514   4.222   3.992   0.312
 3827SOL    HW111515   4.276   3.947   0.240
 3827SOL    HW211516   4.192   4.081   0.280
 3828SOL     OW11517   4.645   3.797   1.420
 3828SOL    HW111518   4.655   3.770   1.324
 3828SOL    HW211519   4.718   3.862   1.443
 3829SOL     OW11520   4.694   4.852   1.747
 3829SOL    HW111521   4.600   4.862   1.780
 3829SOL    HW211522   4.702   4.768   1.694
 3830SOL     OW11523   4.466   4.695   0.370
 3830SOL    HW111524   4.458   4.681   0.469
 3830SOL    HW211525   4.559   4.672   0.341
 3831SOL     OW11526   4.136   4.556   1.268
 3831SOL    HW111527   4.215   4.573   1.327
 3831SOL    HW211528   4.109   4.459   1.274
 3832SOL     OW11529   4.162   4.812   0.519
 3832SOL    HW111530   4.189   4.905   0.495
 3832SOL    HW211531   4.112   4.771   0.443
 3833SOL     OW11532   4.262   4.231   0.878
 3833SOL    HW111533   4.263   4.296   0.802
 3833SOL    HW211534   4.335   4.253   0.942
 3834SOL     OW11535   4.202   4.452   1.631
 3834SOL    HW111536   4.248   4.502   1.557
 3834SOL    HW211537   4.263   4.381   1.665
 3835SOL     OW11538   4.719   3.902   1.750
 3835SOL    HW111539   4.780   3.976   1.722
 3835SOL    HW211540   4.738   3.820   1.696
 3836SOL     OW11541   4.195   3.776   1.758
 3836SOL    HW111542   4.141   3.722   1.692
 3836SOL    HW211543   4.142   3.856   1.787
 3837SOL     OW11544   4.337   4.573   1.054
 3837SOL    HW111545   4.322   4.642   0.982
 3837SOL    HW211546   4.261   4.575   1.119
 3838SOL     OW11547   0.039   4.618   1.039
 3838SOL    HW111548   4.952   4.621   0.989
 3838SOL    HW211549   0.058   4.524   1.067
 3839SOL     OW11550   4.972   4.321   0.241
 3839SOL    HW111551   4.985   4.226   0.271
 3839SOL    HW211552   4.921   4.371   0.311
 3840SOL     OW11553   4.016   3.910   1.236
 3840SOL    HW111554   3.986   3.943   1.326
 3840SOL    HW211555   3.993   3.813   1.228
 3841SOL     OW11556   4.454   4.323   1.050
 3841SOL    HW111557   4.531   4.310   0.989
 3841SOL    HW211558   4.422   4.418   1.043
 3842SOL     OW11559   4.040   3.790   0.646
 3842SOL    HW111560   4.002   3.881   0.662
 3842SOL    HW211561   4.051   3.743   0.733
 3843SOL     OW11562   4.738   4.484   0.948
 3843SOL    HW111563   4.723   4.506   1.045
 3843SOL    HW211564   4.727   4.386   0.934
 3844SOL     OW11565   4.085   4.613   1.825
 3844SOL    HW111566   4.153   4.652   1.888
 3844SOL    HW211567   4.131   4.552   1.760
 3845SOL     OW11568   4.061   4.510   0.919
 3845SOL    HW111569   4.134   4.499   0.851
 3845SOL    HW211570   4.050   4.424   0.969
 3846SOL     OW11571   4.034   4.245   1.018
 3846SOL    HW111572   3.983   4.160   1.008
 3846SOL    HW211573   4.118   4.240   0.965
 3847SOL     OW11574   4.876   4.129   1.709
 3847SOL    HW111575   4.827   4.177   1.782
 3847SOL    HW211576   4.971   4.159   1.706
 3848SOL     OW11577   4.836   3.987   1.472
 3848SOL    HW111578   4.851   4.053   1.546
 3848SOL    HW211579   4.810   4.035   1.389
 3849SOL     OW11580   3.682   0.019   0.120
 3849SOL    HW111581   3.706   0.087   0.190
 3849SOL    HW211582   3.734   4.935   0.135
 3850SOL     OW11583   4.661   4.542   1.212
 3850SOL    HW111584   4.716   4.505   1.286
 3850SOL    HW211585   4.571   4.497   1.211
 3851SOL     OW11586   3.763   4.302   1.138
 3851SOL    HW111587   3.844   4.301   1.080
 3851SOL    HW211588   3.790   4.294   1.234
 3852SOL     OW11589   3.937   4.249   1.751
 3852SOL    HW111590   4.024   4.209   1.720
 3852SOL    HW211591   3.914   4.328   1.694
 3853SOL     OW11592   4.559   4.270   0.390
 3853SOL    HW111593   4.573   4.201   0.318
 3853SOL    HW211594   4.472   4.317   0.375
 3854SOL     OW11595   4.459   4.134   1.248
 3854SOL    HW111596   4.397   4.057   1.235
 3854SOL    HW211597   4.447   4.199   1.173
 3855SOL     OW11598   4.171   4.230   0.183
 3855SOL    HW111599   4.223   4.208   0.101
 3855SOL    HW211600   4.224   4.292   0.240
 3856SOL     OW11601   3.881   4.868   1.501
 3856SOL    HW111602   3.872   4.809   1.580
 3856SOL    HW211603   3.888   4.813   1.418
 3857SOL     OW11604   3.816   4.867   1.052
 3857SOL    HW111605   3.827   4.813   1.135
 3857SOL    HW211606   3.762   4.815   0.985
 3858SOL     OW11607   4.601   3.844   0.048
 3858SOL    HW111608   4.632   3.829   4.954
 3858SOL    HW211609   4.652   3.783   0.109
 3859SOL     OW11610   3.949   4.037   0.715
 3859SOL    HW111611   3.859   4.071   0.688
 3859SOL    HW211612   3.954   4.031   0.815
 3860SOL     OW11613   4.562   4.753   1.403
 3860SOL    HW111614   4.602   4.720   1.318
 3860SOL    HW211615   4.574   4.852   1.409
 3861SOL     OW11616   4.713   4.645   0.262
 3861SOL    HW111617   4.785   4.667   0.195
 3861SOL    HW211618   4.742   4.568   0.318
 3862SOL     OW11619   4.111   0.014   1.567
 3862SOL    HW111620   4.157   0.038   1.481
 3862SOL    HW211621   4.027   4.964   1.546
 3863SOL     OW11622   4.875   4.900   0.801
 3863SOL    HW111623   4.808   4.825   0.798
 3863SOL    HW211624   4.952   4.878   0.741
 3864SOL     OW11625   4.719   3.954   0.991
 3864SOL    HW111626   4.734   3.913   0.901
 3864SOL    HW211627   4.706   3.881   1.059
 3865SOL     OW11628   3.850   4.702   1.718
 3865SOL    HW111629   3.772   4.704   1.781
 3865SOL    HW211630   3.933   4.679   1.768
 3866SOL     OW11631   4.410   3.918   1.520
 3866SOL    HW111632   4.496   3.885   1.481
 3866SOL    HW211633   4.427   3.955   1.611
 3867SOL     OW11634   3.774   3.855   0.255
 3867SOL    HW111635   3.746   3.893   0.167
 3867SOL    HW211636   3.872   3.836   0.254
 3868SOL     OW11637   4.363   4.558   1.428
 3868SOL    HW111638   4.423   4.638   1.424
 3868SOL    HW211639   4.419   4.475   1.430
 3869SOL     OW11640   4.426   4.282   1.707
 3869SOL    HW111641   4.487   4.341   1.760
 3869SOL    HW211642   4.435   4.188   1.739
 3870SOL     OW11643   4.251   4.465   0.717
 3870SOL    HW111644   4.326   4.526   0.693
 3870SOL    HW211645   4.192   4.451   0.637
 3871SOL     OW11646   4.663   4.720   0.827
 3871SOL    HW111647   4.682   4.634   0.874
 3871SOL    HW211648   4.606   4.778   0.885
 3872SOL     OW11649   4.923   4.706   0.082
 3872SOL    HW111650   4.996   4.705   0.014
 3872SOL    HW211651   4.953   4.760   0.161
 3873SOL     OW11652   3.745   4.973   0.619
 3873SOL    HW111653   3.724   4.913   0.697
 3873SOL    HW211654   3.841   0.001   0.624
 3874SOL     OW11655   4.145   4.144   0.543
 3874SOL    HW111656   4.172   4.074   0.477
 3874SOL    HW211657   4.080   4.105   0.608
 3875SOL     OW11658   4.084   4.285   1.288
 3875SOL    HW111659   4.139   4.220   1.340
 3875SOL    HW211660   4.082   4.258   1.192
 3876SOL     OW11661   4.696   3.721   1.157
 3876SOL    HW111662   4.635   3.653   1.116
 3876SOL    HW211663   4.789   3.685   1.159
 3877SOL     OW11664   4.485   4.957   0.294
 3877SOL    HW111665   4.474   4.859   0.311
 3877SOL    HW211666   4.498   0.004   0.381
 3878SOL     OW11667   3.914   4.321   2.017
 3878SOL    HW111668   3.819   4.310   2.048
 3878SOL    HW211669   3.918   4.313   1.918
 3879SOL     OW11670   3.935   4.005   2.865
 3879SOL    HW111671   3.973   3.964   2.948
 3879SOL    HW211672   3.841   3.974   2.852
 3880SOL     OW11673   3.710   4.124   2.505
 3880SOL    HW111674   3.628   4.149   2.556
 3880SOL    HW211675   3.689   4.051   2.440
 3881SOL     OW11676   4.833   4.475   2.539
 3881SOL    HW111677   4.930   4.498   2.546
 3881SOL    HW211678   4.790   4.481   2.629
 3882SOL     OW11679   4.507   4.928   2.812
 3882SOL    HW111680   4.408   4.945   2.811
 3882SOL    HW211681   4.551   4.987   2.743
 3883SOL     OW11682   4.612   4.457   3.697
 3883SOL    HW111683   4.608   4.512   3.780
 3883SOL    HW211684   4.634   4.516   3.619
 3884SOL     OW11685   4.442   4.673   2.491
 3884SOL    HW111686   4.526   4.687   2.544
 3884SOL    HW211687   4.371   4.735   2.524
 3885SOL     OW11688   4.442   4.891   3.726
 3885SOL    HW111689   4.475   4.924   3.815
 3885SOL    HW211690   4.372   4.953   3.691
 3886SOL     OW11691   4.200   4.090   3.312
 3886SOL    HW111692   4.278   4.030   3.330
 3886SOL    HW211693   4.116   4.043   3.339
 3887SOL     OW11694   4.080   4.780   2.808
 3887SOL    HW111695   4.065   4.682   2.802
 3887SOL    HW211696   3.998   4.824   2.846
 3888SOL     OW11697   4.265   4.729   2.002
 3888SOL    HW111698   4.322   4.775   1.934
 3888SOL    HW211699   4.318   4.716   2.086
 3889SOL     OW11700   3.832   4.369   2.435
 3889SOL    HW111701   3.796   4.278   2.456
 3889SOL    HW211702   3.827   4.426   2.516
 3890SOL     OW11703   3.917   4.465   3.439
 3890SOL    HW111704   4.017   4.472   3.443
 3890SOL    HW211705   3.877   4.549   3.476
 3891SOL     OW11706   4.548   3.738   2.396
 3891SOL    HW111707   4.598   3.815   2.354
 3891SOL    HW211708   4.450   3.759   2.397
 3892SOL     OW11709   3.891   4.700   3.136
 3892SOL    HW111710   3.980   4.655   3.127
 3892SOL    HW211711   3.824   4.635   3.172
 3893SOL     OW11712   4.073   3.980   3.744
 3893SOL    HW111713   4.110   4.060   3.791
 3893SOL    HW211714   3.976   3.994   3.726
 3894SOL     OW11715   4.300   4.408   2.170
 3894SOL    HW111716   4.324   4.503   2.148
 3894SOL    HW211717   4.225   4.407   2.236
 3895SOL     OW11718   4.514   4.319   3.307
 3895SOL    HW111719   4.482   4.297   3.399
 3895SOL    HW211720   4.488   4.246   3.244
 3896SOL     OW11721   4.679   4.609   3.468
 3896SOL    HW111722   4.735   4.541   3.420
 3896SOL    HW211723   4.628   4.663   3.401
 3897SOL     OW11724   4.729   4.088   3.104
 3897SOL    HW111725   4.631   4.105   3.112
 3897SOL    HW211726   4.750   4.054   3.013
 3898SOL     OW11727   4.740   4.441   2.283
 3898SOL    HW111728   4.771   4.456   2.377
 3898SOL    HW211729   4.661   4.379   2.284
 3899SOL     OW11730   3.816   4.530   2.648
 3899SOL    HW111731   3.906   4.528   2.691
 3899SOL    HW211732   3.764   4.608   2.684
 3900SOL     OW11733   4.595   4.086   2.063
 3900SOL    HW111734   4.664   4.141   2.017
 3900SOL    HW211735   4.533   4.046   1.996
 3901SOL     OW11736   4.279   3.879   2.794
 3901SOL    HW111737   4.287   3.896   2.893
 3901SOL    HW211738   4.278   3.966   2.745
 3902SOL     OW11739   4.010   4.721   2.107
 3902SOL    HW111740   4.103   4.737   2.075
 3902SOL    HW211741   3.974   4.637   2.067
 3903SOL     OW11742   3.947   3.985   3.359
 3903SOL    HW111743   3.887   4.064   3.376
 3903SOL    HW211744   3.907   3.904   3.402
 3904SOL     OW11745   4.102   4.385   2.357
 3904SOL    HW111746   4.123   4.288   2.369
 3904SOL    HW211747   4.004   4.400   2.369
 3905SOL     OW11748   4.362   3.830   1.968
 3905SOL    HW111749   4.418   3.750   1.992
 3905SOL    HW211750   4.297   3.805   1.896
 3906SOL     OW11751   4.479   4.009   3.660
 3906SOL    HW111752   4.570   3.972   3.639
 3906SOL    HW211753   4.428   3.944   3.716
 3907SOL     OW11754   4.660   4.220   2.753
 3907SOL    HW111755   4.654   4.207   2.654
 3907SOL    HW211756   4.681   4.132   2.797
 3908SOL     OW11757   4.282   3.792   2.369
 3908SOL    HW111758   4.203   3.791   2.430
 3908SOL    HW211759   4.272   3.866   2.303
 3909SOL     OW11760   0.127   4.934   1.896
 3909SOL    HW111761   0.214   4.948   1.943
 3909SOL    HW211762   0.056   4.987   1.941
 3910SOL     OW11763   4.005   3.768   2.047
 3910SOL    HW111764   4.053   3.844   2.003
 3910SOL    HW211765   4.070   3.711   2.097
 3911SOL     OW11766   4.685   3.949   2.288
 3911SOL    HW111767   4.642   3.994   2.210
 3911SOL    HW211768   4.784   3.946   2.274
 3912SOL     OW11769   4.785   4.415   3.293
 3912SOL    HW111770   4.706   4.355   3.299
 3912SOL    HW211771   4.867   4.360   3.275
 3913SOL     OW11772   4.232   4.816   2.588
 3913SOL    HW111773   4.178   4.808   2.671
 3913SOL    HW211774   4.173   4.807   2.508
 3914SOL     OW11775   4.775   4.255   1.935
 3914SOL    HW111776   4.718   4.330   1.901
 3914SOL    HW211777   4.841   4.290   2.001
 3915SOL     OW11778   3.843   4.274   3.253
 3915SOL    HW111779   3.936   4.266   3.218
 3915SOL    HW211780   3.839   4.345   3.323
 3916SOL     OW11781   4.285   3.907   3.066
 3916SOL    HW111782   4.317   3.827   3.117
 3916SOL    HW211783   4.187   3.919   3.080
 3917SOL     OW11784   4.650   4.154   2.481
 3917SOL    HW111785   4.595   4.214   2.423
 3917SOL    HW211786   4.664   4.066   2.436
 3918SOL     OW11787   4.749   3.774   2.605
 3918SOL    HW111788   4.681   3.777   2.532
 3918SOL    HW211789   4.728   3.700   2.668
 3919SOL     OW11790   4.243   3.975   2.171
 3919SOL    HW111791   4.291   3.924   2.100
 3919SOL    HW211792   4.209   4.061   2.133
 3920SOL     OW11793   4.659   3.788   3.283
 3920SOL    HW111794   4.661   3.764   3.186
 3920SOL    HW211795   4.729   3.856   3.303
 3921SOL     OW11796   4.692   4.853   3.608
 3921SOL    HW111797   4.598   4.861   3.641
 3921SOL    HW211798   4.701   4.769   3.554
 3922SOL     OW11799   4.432   4.694   2.211
 3922SOL    HW111800   4.436   4.686   2.311
 3922SOL    HW211801   4.514   4.654   2.171
 3923SOL     OW11802   4.138   4.555   3.132
 3923SOL    HW111803   4.216   4.572   3.191
 3923SOL    HW211804   4.113   4.458   3.136
 3924SOL     OW11805   4.064   4.807   2.374
 3924SOL    HW111806   4.029   4.901   2.385
 3924SOL    HW211807   4.037   4.772   2.284
 3925SOL     OW11808   4.266   4.233   2.732
 3925SOL    HW111809   4.270   4.298   2.656
 3925SOL    HW211810   4.339   4.254   2.798
 3926SOL     OW11811   4.207   4.448   3.493
 3926SOL    HW111812   4.251   4.498   3.419
 3926SOL    HW211813   4.269   4.378   3.528
 3927SOL     OW11814   4.720   3.904   3.599
 3927SOL    HW111815   4.781   3.981   3.581
 3927SOL    HW211816   4.749   3.824   3.547
 3928SOL     OW11817   4.206   3.773   3.615
 3928SOL    HW111818   4.155   3.725   3.544
 3928SOL    HW211819   4.153   3.853   3.645
 3929SOL     OW11820   4.332   4.568   2.917
 3929SOL    HW111821   4.311   4.636   2.847
 3929SOL    HW211822   4.260   4.568   2.986
 3930SOL     OW11823   0.045   4.620   2.900
 3930SOL    HW111824   4.957   4.628   2.853
 3930SOL    HW211825   0.060   4.525   2.926
 3931SOL     OW11826   4.955   4.353   2.142
 3931SOL    HW111827   0.026   4.347   2.212
 3931SOL    HW211828   4.871   4.388   2.183
 3932SOL     OW11829   4.013   3.899   3.105
 3932SOL    HW111830   3.986   3.934   3.194
 3932SOL    HW211831   3.994   3.801   3.101
 3933SOL     OW11832   4.452   4.320   2.914
 3933SOL    HW111833   4.530   4.307   2.853
 3933SOL    HW211834   4.420   4.415   2.907
 3934SOL     OW11835   4.047   3.783   2.513
 3934SOL    HW111836   4.008   3.874   2.530
 3934SOL    HW211837   4.060   3.736   2.600
 3935SOL     OW11838   4.731   4.486   2.807
 3935SOL    HW111839   4.719   4.506   2.904
 3935SOL    HW211840   4.721   4.387   2.792
 3936SOL     OW11841   4.089   4.612   3.683
 3936SOL    HW111842   4.156   4.648   3.748
 3936SOL    HW211843   4.134   4.549   3.619
 3937SOL     OW11844   0.281   3.981   2.029
 3937SOL    HW111845   0.183   3.999   2.018
 3937SOL    HW211846   0.326   4.062   2.066
 3938SOL     OW11847   4.062   4.509   2.763
 3938SOL    HW111848   4.135   4.497   2.694
 3938SOL    HW211849   4.052   4.425   2.815
 3939SOL     OW11850   4.041   4.250   2.876
 3939SOL    HW111851   3.992   4.163   2.872
 3939SOL    HW211852   4.124   4.244   2.821
 3940SOL     OW11853   4.877   4.130   3.569
 3940SOL    HW111854   4.831   4.180   3.643
 3940SOL    HW211855   4.973   4.159   3.564
 3941SOL     OW11856   4.844   3.987   3.329
 3941SOL    HW111857   4.853   4.055   3.402
 3941SOL    HW211858   4.813   4.032   3.245
 3942SOL     OW11859   3.604   4.986   1.953
 3942SOL    HW111860   3.647   0.061   2.003
 3942SOL    HW211861   3.647   4.900   1.979
 3943SOL     OW11862   4.663   4.539   3.074
 3943SOL    HW111863   4.720   4.504   3.148
 3943SOL    HW211864   4.575   4.492   3.075
 3944SOL     OW11865   3.771   4.310   2.986
 3944SOL    HW111866   3.853   4.306   2.929
 3944SOL    HW211867   3.798   4.303   3.082
 3945SOL     OW11868   3.947   4.255   3.612
 3945SOL    HW111869   4.040   4.226   3.587
 3945SOL    HW211870   3.919   4.330   3.552
 3946SOL     OW11871   4.526   4.273   2.257
 3946SOL    HW111872   4.544   4.201   2.190
 3946SOL    HW211873   4.441   4.321   2.234
 3947SOL     OW11874   4.457   4.132   3.111
 3947SOL    HW111875   4.394   4.055   3.099
 3947SOL    HW211876   4.445   4.197   3.037
 3948SOL     OW11877   4.156   4.203   2.043
 3948SOL    HW111878   4.224   4.270   2.073
 3948SOL    HW211879   4.065   4.244   2.043
 3949SOL     OW11880   3.880   4.869   3.361
 3949SOL    HW111881   3.871   4.809   3.441
 3949SOL    HW211882   3.888   4.814   3.278
 3950SOL     OW11883   3.829   4.862   2.907
 3950SOL    HW111884   3.839   4.809   2.991
 3950SOL    HW211885   3.769   4.813   2.844
 3951SOL     OW11886   3.955   4.027   2.584
 3951SOL    HW111887   3.868   4.068   2.556
 3951SOL    HW211888   3.960   4.026   2.684
 3952SOL     OW11889   4.562   4.753   3.264
 3952SOL    HW111890   4.603   4.719   3.179
 3952SOL    HW211891   4.575   4.852   3.270
 3953SOL     OW11892   4.647   4.591   2.077
 3953SOL    HW111893   4.710   4.663   2.047
 3953SOL    HW211894   4.688   4.539   2.152
 3954SOL     OW11895   4.109   0.016   3.429
 3954SOL    HW111896   4.155   0.039   3.343
 3954SOL    HW211897   4.025   4.965   3.408
 3955SOL     OW11898   4.871   4.887   2.674
 3955SOL    HW111899   4.798   4.818   2.667
 3955SOL    HW211900   4.944   4.865   2.609
 3956SOL     OW11901   4.719   3.951   2.848
 3956SOL    HW111902   4.743   3.913   2.758
 3956SOL    HW211903   4.704   3.876   2.912
 3957SOL     OW11904   3.852   4.701   3.577
 3957SOL    HW111905   3.774   4.702   3.639
 3957SOL    HW211906   3.935   4.678   3.627
 3958SOL     OW11907   4.419   3.914   3.385
 3958SOL    HW111908   4.507   3.884   3.347
 3958SOL    HW211909   4.433   3.952   3.476
 3959SOL     OW11910   3.795   4.040   1.859
 3959SOL    HW111911   3.712   4.026   1.805
 3959SOL    HW211912   3.839   4.125   1.830
 3960SOL     OW11913   3.760   3.873   2.098
 3960SOL    HW111914   3.744   3.937   2.024
 3960SOL    HW211915   3.853   3.837   2.091
 3961SOL     OW11916   4.365   4.556   3.291
 3961SOL    HW111917   4.424   4.636   3.286
 3961SOL    HW211918   4.421   4.473   3.292
 3962SOL     OW11919   4.430   4.280   3.571
 3962SOL    HW111920   4.491   4.340   3.623
 3962SOL    HW211921   4.439   4.187   3.606
 3963SOL     OW11922   4.258   4.466   2.568
 3963SOL    HW111923   4.328   4.531   2.542
 3963SOL    HW211924   4.202   4.443   2.489
 3964SOL     OW11925   4.646   4.721   2.686
 3964SOL    HW111926   4.666   4.635   2.733
 3964SOL    HW211927   4.589   4.778   2.744
 3965SOL     OW11928   4.818   4.779   1.983
 3965SOL    HW111929   4.790   4.809   1.892
 3965SOL    HW211930   4.918   4.780   1.990
 3966SOL     OW11931   3.761   0.021   2.499
 3966SOL    HW111932   3.737   4.957   2.572
 3966SOL    HW211933   3.860   0.036   2.499
 3967SOL     OW11934   4.142   4.124   2.398
 3967SOL    HW111935   4.170   4.055   2.332
 3967SOL    HW211936   4.081   4.083   2.465
 3968SOL     OW11937   4.093   4.283   3.148
 3968SOL    HW111938   4.146   4.217   3.200
 3968SOL    HW211939   4.092   4.258   3.051
 3969SOL     OW11940   4.695   3.715   3.016
 3969SOL    HW111941   4.640   3.642   2.975
 3969SOL    HW211942   4.791   3.686   3.019
 3970SOL     OW11943   4.496   4.961   2.135
 3970SOL    HW111944   4.465   4.868   2.158
 3970SOL    HW211945   4.530   0.006   2.217
 3971SOL     OW11946   3.741   4.755   2.180
 3971SOL    HW111947   3.836   4.761   2.153
 3971SOL    HW211948   3.716   4.659   2.195
 3972SOL     OW11949   3.917   4.319   3.879
 3972SOL    HW111950   3.822   4.306   3.908
 3972SOL    HW211951   3.922   4.316   3.780
 3973SOL     OW11952   3.954   4.001   4.716
 3973SOL    HW111953   4.006   3.960   4.790
 3973SOL    HW211954   3.862   3.962   4.713
 3974SOL     OW11955   3.704   4.135   4.359
 3974SOL    HW111956   3.620   4.162   4.405
 3974SOL    HW211957   3.685   4.062   4.294
 3975SOL     OW11958   4.844   4.461   4.396
 3975SOL    HW111959   4.940   4.488   4.405
 3975SOL    HW211960   4.801   4.464   4.486
 3976SOL     OW11961   4.533   4.894   4.729
 3976SOL    HW111962   4.433   4.901   4.731
 3976SOL    HW211963   4.569   4.954   4.657
 3977SOL     OW11964   4.447   4.678   4.357
 3977SOL    HW111965   4.529   4.686   4.414
 3977SOL    HW211966   4.377   4.742   4.389
 3978SOL     OW11967   4.059   4.796   4.655
 3978SOL    HW111968   4.047   4.698   4.645
 3978SOL    HW211969   3.974   4.838   4.688
 3979SOL     OW11970   4.269   4.721   3.865
 3979SOL    HW111971   4.324   4.769   3.796
 3979SOL    HW211972   4.320   4.716   3.951
 3980SOL     OW11973   3.826   4.380   4.290
 3980SOL    HW111974   3.789   4.289   4.311
 3980SOL    HW211975   3.815   4.439   4.370
 3981SOL     OW11976   4.553   3.748   4.240
 3981SOL    HW111977   4.598   3.828   4.200
 3981SOL    HW211978   4.454   3.765   4.246
 3982SOL     OW11979   3.871   4.675   4.928
 3982SOL    HW111980   3.966   4.647   4.930
 3982SOL    HW211981   3.813   4.596   4.904
 3983SOL     OW11982   4.292   4.413   4.026
 3983SOL    HW111983   4.307   4.506   3.994
 3983SOL    HW211984   4.219   4.413   4.094
 3984SOL     OW11985   4.742   4.442   4.142
 3984SOL    HW111986   4.776   4.452   4.236
 3984SOL    HW211987   4.661   4.384   4.142
 3985SOL     OW11988   3.791   4.557   4.493
 3985SOL    HW111989   3.884   4.553   4.531
 3985SOL    HW211990   3.734   4.617   4.550
 3986SOL     OW11991   4.596   4.100   3.915
 3986SOL    HW111992   4.670   4.154   3.874
 3986SOL    HW211993   4.537   4.063   3.843
 3987SOL     OW11994   4.254   3.852   4.704
 3987SOL    HW111995   4.199   3.864   4.787
 3987SOL    HW211996   4.264   3.939   4.658
 3988SOL     OW11997   4.013   4.718   3.969
 3988SOL    HW111998   4.105   4.731   3.934
 3988SOL    HW211999   3.977   4.631   3.936
 3989SOL     OW12000   4.098   4.392   4.219
 3989SOL    HW112001   4.119   4.294   4.227
 3989SOL    HW212002   4.000   4.406   4.230
 3990SOL     OW12003   4.365   3.817   3.830
 3990SOL    HW112004   4.405   3.732   3.863
 3990SOL    HW212005   4.302   3.796   3.754
 3991SOL     OW12006   4.662   4.229   4.599
 3991SOL    HW112007   4.646   4.222   4.501
 3991SOL    HW212008   4.701   4.143   4.633
 3992SOL     OW12009   4.282   3.790   4.224
 3992SOL    HW112010   4.201   3.788   4.282
 3992SOL    HW212011   4.274   3.865   4.158
 3993SOL     OW12012   0.129   4.937   3.754
 3993SOL    HW112013   0.215   4.951   3.802
 3993SOL    HW212014   0.057   4.990   3.798
 3994SOL     OW12015   3.998   3.765   3.899
 3994SOL    HW112016   4.044   3.841   3.853
 3994SOL    HW212017   4.065   3.711   3.951
 3995SOL     OW12018   4.688   3.962   4.137
 3995SOL    HW112019   4.646   4.006   4.059
 3995SOL    HW212020   4.787   3.959   4.125
 3996SOL     OW12021   4.232   4.819   4.449
 3996SOL    HW112022   4.174   4.815   4.531
 3996SOL    HW212023   4.176   4.803   4.368
 3997SOL     OW12024   4.784   4.263   3.794
 3997SOL    HW112025   4.726   4.337   3.761
 3997SOL    HW212026   4.849   4.299   3.861
 3998SOL     OW12027   4.643   4.166   4.329
 3998SOL    HW112028   4.586   4.222   4.269
 3998SOL    HW212029   4.661   4.078   4.285
 3999SOL     OW12030   4.746   3.765   4.446
 3999SOL    HW112031   4.682   3.765   4.369
 3999SOL    HW212032   4.715   3.700   4.515
 4000SOL     OW12033   4.250   3.975   4.027
 4000SOL    HW112034   4.297   3.921   3.957
 4000SOL    HW212035   4.215   4.060   3.988
 4001SOL     OW12036   4.433   4.702   4.077
 4001SOL    HW112037   4.438   4.693   4.177
 4001SOL    HW212038   4.512   4.657   4.036
 4002SOL     OW12039   4.120   4.557   4.973
 4002SOL    HW112040   4.186   4.589   0.041
 4002SOL    HW212041   4.063   4.485   0.014
 4003SOL     OW12042   4.066   4.798   4.235
 4003SOL    HW112043   4.027   4.889   4.248
 4003SOL    HW212044   4.040   4.763   4.145
 4004SOL     OW12045   4.249   4.255   4.592
 4004SOL    HW112046   4.261   4.324   4.521
 4004SOL    HW212047   4.322   4.263   4.659
 4005SOL     OW12048   4.320   4.553   4.768
 4005SOL    HW112049   4.287   4.596   4.684
 4005SOL    HW212050   4.246   4.551   4.835
 4006SOL     OW12051   0.032   4.505   4.751
 4006SOL    HW112052   4.942   4.497   4.708
 4006SOL    HW212053   0.103   4.505   4.680
 4007SOL     OW12054   4.960   4.362   4.000
 4007SOL    HW112055   0.032   4.359   4.070
 4007SOL    HW212056   4.875   4.394   4.042
 4008SOL     OW12057   4.089   3.859   4.926
 4008SOL    HW112058   4.067   3.903   0.013
 4008SOL    HW212059   4.042   3.771   4.920
 4009SOL     OW12060   4.450   4.306   4.772
 4009SOL    HW112061   4.528   4.292   4.712
 4009SOL    HW212062   4.423   4.403   4.770
 4010SOL     OW12063   4.042   3.783   4.359
 4010SOL    HW112064   4.003   3.873   4.377
 4010SOL    HW212065   4.052   3.733   4.446
 4011SOL     OW12066   4.760   4.471   4.676
 4011SOL    HW112067   4.745   4.489   4.774
 4011SOL    HW212068   4.727   4.380   4.654
 4012SOL     OW12069   0.286   3.974   3.885
 4012SOL    HW112070   0.189   3.995   3.872
 4012SOL    HW212071   0.333   4.053   3.922
 4013SOL     OW12072   4.044   4.528   4.599
 4013SOL    HW112073   4.118   4.515   4.533
 4013SOL    HW212074   4.024   4.442   4.645
 4014SOL     OW12075   4.001   4.270   4.695
 4014SOL    HW112076   3.967   4.177   4.710
 4014SOL    HW212077   4.094   4.265   4.658
 4015SOL     OW12078   4.924   4.030   0.246
 4015SOL    HW112079   4.825   4.045   0.238
 4015SOL    HW212080   4.966   4.037   0.156
 4016SOL     OW12081   3.613   4.983   3.818
 4016SOL    HW112082   3.654   0.060   3.867
 4016SOL    HW212083   3.654   4.898   3.851
 4017SOL     OW12084   4.726   4.536   4.945
 4017SOL    HW112085   4.801   4.586   4.988
 4017SOL    HW212086   4.639   4.583   4.964
 4018SOL     OW12087   3.818   4.398   4.857
 4018SOL    HW112088   3.877   4.356   4.788
 4018SOL    HW212089   3.859   4.385   4.948
 4019SOL     OW12090   4.521   4.285   4.109
 4019SOL    HW112091   4.539   4.214   4.041
 4019SOL    HW212092   4.436   4.332   4.087
 4020SOL     OW12093   4.339   4.169   4.982
 4020SOL    HW112094   4.389   4.083   4.992
 4020SOL    HW212095   4.378   4.222   4.907
 4021SOL     OW12096   4.159   4.200   3.900
 4021SOL    HW112097   4.225   4.269   3.932
 4021SOL    HW212098   4.067   4.239   3.902
 4022SOL     OW12099   3.851   4.802   0.169
 4022SOL    HW112100   3.914   4.755   0.232
 4022SOL    HW212101   3.854   4.758   0.080
 4023SOL     OW12102   3.805   4.868   4.743
 4023SOL    HW112103   3.826   4.812   4.823
 4023SOL    HW212104   3.734   4.823   4.689
 4024SOL     OW12105   3.953   4.029   4.432
 4024SOL    HW112106   3.866   4.072   4.407
 4024SOL    HW212107   3.964   4.032   4.531
 4025SOL     OW12108   4.524   4.737   4.990
 4025SOL    HW112109   4.526   4.787   4.903
 4025SOL    HW212110   4.578   4.787   0.058
 4026SOL     OW12111   4.643   4.593   3.939
 4026SOL    HW112112   4.704   4.666   3.909
 4026SOL    HW212113   4.686   4.541   4.013
 4027SOL     OW12114   4.867   4.880   4.514
 4027SOL    HW112115   4.801   4.806   4.516
 4027SOL    HW212116   4.946   4.853   4.458
 4028SOL     OW12117   4.764   3.977   4.645
 4028SOL    HW112118   4.768   3.925   4.559
 4028SOL    HW212119   4.750   3.913   4.721
 4029SOL     OW12120   3.802   4.041   3.705
 4029SOL    HW112121   3.721   4.031   3.647
 4029SOL    HW212122   3.848   4.127   3.683
 4030SOL     OW12123   3.753   3.868   3.953
 4030SOL    HW112124   3.735   3.934   3.880
 4030SOL    HW212125   3.846   3.833   3.944
 4031SOL     OW12126   4.254   4.481   4.426
 4031SOL    HW112127   4.327   4.544   4.398
 4031SOL    HW212128   4.201   4.454   4.346
 4032SOL     OW12129   4.652   4.701   4.558
 4032SOL    HW112130   4.684   4.616   4.601
 4032SOL    HW212131   4.604   4.756   4.626
 4033SOL     OW12132   4.811   4.783   3.847
 4033SOL    HW112133   4.788   4.811   3.754
 4033SOL    HW212134   4.910   4.782   3.859
 4034SOL     OW12135   3.751   0.023   4.355
 4034SOL    HW112136   3.723   4.983   4.443
 4034SOL    HW212137   3.851   0.029   4.352
 4035SOL     OW12138   4.139   4.129   4.246
 4035SOL    HW112139   4.173   4.059   4.184
 4035SOL    HW212140   4.079   4.088   4.314
 4036SOL     OW12141   4.714   3.764   4.813
 4036SOL    HW112142   4.671   3.706   4.743
 4036SOL    HW212143   4.796   3.718   4.848
 4037SOL     OW12144   4.493   4.966   4.004
 4037SOL    HW112145   4.464   4.872   4.024
 4037SOL    HW212146   4.526   0.010   4.087
 4038SOL     OW12147   3.743   4.761   4.027
 4038SOL    HW112148   3.840   4.766   4.005
 4038SOL    HW212149   3.717   4.666   4.040
 4039CL      CL12150   0.389   2.242   2.338
   5.00000   5.00000   5.00000
